11
# Point -4 Energy = 0.05562176999997348
C       1.2671493063     0.0722171459     0.2540163444
C       -0.0000006050     0.0717550817     -0.5927718083
H       1.5055161516     -0.8239033140     0.8415641039
H       1.1062257755     0.8916342027     0.9482899850
H       2.1370975982     -0.2325756250     -0.3285761995
C       -1.2671509503     0.0722181348     0.2540153311
H       -0.0000002850     -0.8168519861     -1.2255590686
H       0.0000003815     0.9303541360     -1.2712150483
H       -1.5055182150     -0.8238998222     0.8415670731
H       -2.1370961344     -0.2325774642     -0.3285796999
H       -1.1062230841     0.8916301763     0.9482940061
11
# Point -3 Energy = 0.03116358999999136
C       1.2671731395     0.0544530152     0.2563634636
C       -0.0000004510     0.0538815166     -0.5903894030
H       1.4552603479     -0.8421559253     0.8584848785
H       1.1561493498     0.8935313660     0.9391342994
H       2.1492876064     -0.1752218743     -0.3421732191
C       -1.2671743566     0.0544537177     0.2563627187
H       -0.0000001846     -0.8312625034     -1.2287391289
H       0.0000002419     0.9161692146     -1.2634471495
H       -1.4552618195     -0.8421533053     0.8584871479
H       -2.1492866067     -0.1752231538     -0.3421759787
H       -1.1561473277     0.8935285982     0.9391373900
11
# Point -2 Energy = 0.013822710000013672
C       1.2671902357     0.0364437671     0.2580908883
C       -0.0000003001     0.0359573516     -0.5886368877
H       1.4051307866     -0.8577207463     0.8745750594
H       1.2058574655     0.8922475925     0.9286096429
H       2.1578463610     -0.1172053403     -0.3520289186
C       -1.2671910373     0.0364442168     0.2580904047
H       -0.0000000989     -0.8455446161     -1.2327277370
H       0.0000001127     0.9020575271     -1.2560849313
H       -1.4051317154     -0.8577189789     0.8745766050
H       -2.1578457554     -0.1172060310     -0.3520308474
H       -1.2058561149     0.8922459236     0.9286117407
11
# Point -1 Energy = 0.0034551800000031108
C       1.2672005939     0.0182650862     0.2591456589
C       -0.0000001499     0.0179905891     -0.5875671506
H       1.3551353602     -0.8705739396     0.8897195378
H       1.2555324178     0.8879205805     0.9168137543
H       2.1629298465     -0.0587226052     -0.3579965243
C       -1.2672009894     0.0182653194     0.2591454247
H       -0.0000000252     -0.8597385835     -1.2375048670
H       -0.0000000012     0.8879700453     -1.2492484281
H       -1.3551357894     -0.8705730132     0.8897203349
H       -2.1629295734     -0.0587226744     -0.3579975321
H       -1.2555317505     0.8879198615     0.9168148103
11
# Point 0 Energy = 0
C       1.2672042126     0.0000000000     0.2594997522
C       0.0000000000     0.0000000000     -0.5872081259
H       1.3052750505     -0.8806643351     0.9038259677
H       1.3052750505     0.8806643351     0.9038259677
H       2.1646165232     0.0000000000     -0.3599948239
C       -1.2672042126     -0.0000000181     0.2594997522
H       0.0000000000     -0.8738729764     -1.2430302913
H       -0.0000000606     0.8738729764     -1.2430302913
H       -1.3052750505     -0.8806643351     0.9038259677
H       -2.1646165232     0.0000006841     -0.3599948239
H       -1.3052750505     0.8806643351     0.9038259677
11
# Point 1 Energy = 0.0034552099999984875
C       1.2672010899     -0.0182651693     0.2591448409
C       0.0000001489     -0.0179904731     -0.5875681046
H       1.2555318251     -0.8879191251     0.9168150210
H       1.3551349520     0.8705724274     0.8897209328
H       2.1629291395     0.0587225057     -0.3579989481
C       -1.2672007084     -0.0182652490     0.2591450569
H       0.0000000870     -0.8879718664     -1.2492467158
H       -0.0000001753     0.8597405127     -1.2375032508
H       -1.2555313764     -0.8879198683     0.9168142536
H       -2.1629293523     0.0587237739     -0.3579978605
H       -1.3551356906     0.8705731975     0.8897197934
11
# Point 2 Energy = 0.013822760000010703
C       1.2671912237     -0.0364439696     0.2580892554
C       0.0000002955     -0.0359572735     -0.5886387953
H       1.2058563707     -0.8922444981     0.9286121635
H       1.4051298966     0.8577178903     0.8745778441
H       2.1578449424     0.1172052446     -0.3520337502
C       -1.2671904794     -0.0364441396     0.2580896667
H       0.0000001234     -0.9020612939     -1.2560816128
H       -0.0000002338     0.8455483488     -1.2327243979
H       -1.2058555430     -0.8922460795     0.9286105845
H       -2.1578453053     0.1172072205     -0.3520315038
H       -1.4051313515     0.8577192160     0.8745755648
11
# Point 3 Energy = 0.03116363999998839
C       1.2671746130     -0.0544534169     0.2563610220
C       0.0000004380     -0.0538815020     -0.5903922629
H       1.1561477571     -0.8935265192     0.9391380093
H       1.4552590033     0.8421518076     0.8584890792
H       2.1492854644     0.1752217890     -0.3421804282
C       -1.2671735289     -0.0544536294     0.2563616060
H       0.0000001445     -0.9161749726     -1.2634422615
H       -0.0000002733     0.8312679919     -1.2287340280
H       -1.1561465902     -0.8935289467     0.9391356027
H       -2.1492859117     0.1752244904     -0.3421769609
H       -1.4552611767     0.8421535737     0.8584856412
11
# Point 4 Energy = 0.055621819999998934
C       1.2671512574     -0.0722178272     0.2540131046
C       0.0000005747     -0.0717551571     -0.5927756181
H       1.1062236836     -0.8916274812     0.9482948072
H       1.5055143933     0.8238980063     0.8415697380
H       2.1370947069     0.2325755629     -0.3285857437
C       -1.2671498615     -0.0722180315     0.2540138370
H       0.0000001484     -0.9303619287     -1.2712086249
H       -0.0000002942     0.8168591833     -1.2255521673
H       -1.1062222173     -0.8916307671     0.9482915598
H       -2.1370951702     0.2325790008     -0.3285810036
H       -1.5055172819     0.8239001056     0.8415651299

    This sampling was finished on:   2020-07-02 18:49:52
=------------------------------------------------------------------------------=
Sampling finished.
=------------------------------------------------------------------------------=