11
# Point -3 Energy = 0.09884329000000491
C       1.2651160355     -0.0000000011     0.2459580756
C       -0.0000002084     0.0000000139     -0.6240710067
H       1.3040622734     -0.8740660386     0.8840656739
H       1.3040622377     0.8740660737     0.8840657702
H       2.1884574341     0.0000000240     -0.3944273125
C       -1.2651165684     -0.0000001850     0.2459583285
H       -0.0000002254     -0.6982454118     -1.1371039466
H       -0.0000003204     0.6982450717     -1.1371036525
H       -1.3040624643     -0.8740635774     0.8840639681
H       -2.1884557047     0.0000005722     -0.3944255393
H       -1.3040625494     0.8740641244     0.8840646601
11
# Point -2 Energy = 0.03736114999999529
C       1.2658679546     -0.0000000008     0.2503941904
C       -0.0000001382     0.0000000088     -0.6118331752
H       1.3045348319     -0.8762720023     0.8905654374
H       1.3045348079     0.8762720257     0.8905655014
H       2.1805653275     0.0000000156     -0.3830300643
C       -1.2658683093     -0.0000001291     0.2503943586
H       -0.0000001509     -0.7571033497     -1.1720558018
H       -0.0000002368     0.7571031232     -1.1720556041
H       -1.3045349588     -0.8762703615     0.8905642992
H       -2.1805641736     0.0000006094     -0.3830288832
H       -1.3045350150     0.8762707267     0.8905647606
11
# Point -1 Energy = 0.008019739999994613
C       1.2665638633     -0.0000000004     0.2549080710
C       -0.0000000688     0.0000000041     -0.5995454826
H       1.3049389215     -0.8784714584     0.8971521718
H       1.3049389095     0.8784714702     0.8971522036
H       2.1726183414     0.0000000076     -0.3715523990
C       -1.2665640403     -0.0000000735     0.2549081548
H       -0.0000000758     -0.8156468207     -1.2073647132
H       -0.0000001502     0.8156467075     -1.2073646136
H       -1.3049389848     -0.8784706381     0.8971516022
H       -2.1726177639     0.0000006467     -0.3715518089
H       -1.3049390126     0.8784708209     0.8971518329
11
# Point 0 Energy = 0
C       1.2672042126     0.0000000000     0.2594997522
C       0.0000000000     0.0000000000     -0.5872081259
H       1.3052750505     -0.8806643351     0.9038259677
H       1.3052750505     0.8806643351     0.9038259677
H       2.1646165232     0.0000000000     -0.3599948239
C       -1.2672042126     -0.0000000181     0.2594997522
H       0.0000000000     -0.8738729764     -1.2430302913
H       -0.0000000606     0.8738729764     -1.2430302913
H       -1.3052750505     -0.8806643351     0.9038259677
H       -2.1646165232     0.0000006841     -0.3599948239
H       -1.3052750505     0.8806643351     0.9038259677
11
# Point 1 Energy = 0.006036699999995676
C       1.2677894687     0.0000000005     0.2641692646
C       0.0000000680     -0.0000000036     -0.5748212764
H       1.3055437277     -0.8828505653     0.9105869046
H       1.3055437400     0.8828505534     0.9105868731
H       2.1565599347     -0.0000000073     -0.3483578543
C       -1.2677892923     0.0000000370     0.2641691811
H       0.0000000765     -0.9317789441     -1.2790521246
H       0.0000000319     0.9317790571     -1.2790522257
H       -1.3055436648     -0.8828513856     0.9105874752
H       -2.1565605133     0.0000007216     -0.3483584433
H       -1.3055436377     0.8828512022     0.9105872446
11
# Point 2 Energy = 0.02122190999997997
C       1.2683200951     0.0000000010     0.2689166366
C       0.0000001353     -0.0000000066     -0.5623851042
H       1.3057454603     -0.8850300822     0.9174350587
H       1.3057454850     0.8850300583     0.9174349961
H       2.1484486390     -0.0000000142     -0.3366420039
C       -1.2683197432     0.0000000919     0.2689164699
H       0.0000001538     -0.9893618328     -1.3154297953
H       0.0000001274     0.9893620588     -1.3154299989
H       -1.3057453348     -0.8850317225     0.9174362011
H       -2.1484497973     0.0000007591     -0.3366431809
H       -1.3057452812     0.8850313552     0.9174357397
11
# Point 3 Energy = 0.04224349999998367
C       1.2687965363     0.0000000016     0.2737418959
C       0.0000002019     -0.0000000091     -0.5498998015
H       1.3058807525     -0.8872028142     0.9243705099
H       1.3058807898     0.8872027782     0.9243704166
H       2.1402826878     -0.0000000208     -0.3248477773
C       -1.2687960095     0.0000001465     0.2737416465
H       0.0000002320     -1.0466187426     -1.3521628902
H       0.0000002258     1.0466190815     -1.3521631978
H       -1.3058805648     -0.8872052747     0.9243722251
H       -2.1402844271     0.0000007968     -0.3248495411
H       -1.3058804853     0.8872047227     0.9243715331
11
# Point 4 Energy = 0.06686986000001127
C       1.2692192348     0.0000000022     0.2786450676
C       0.0000002677     -0.0000000111     -0.5373655597
H       1.3059501079     -0.8893686903     0.9313933341
H       1.3059501580     0.8893686421     0.9313932104
H       2.1320621346     -0.0000000270     -0.3129756789
C       -1.2692185338     0.0000002009     0.2786447359
H       0.0000003111     -1.1035467574     -1.3892509867
H       0.0000003272     1.1035472092     -1.3892513995
H       -1.3059498583     -0.8893719707     0.9313956232
H       -2.1320644562     0.0000008345     -0.3129780283
H       -1.3059497537     0.8893712336     0.9313947007

    This sampling was finished on:   2020-07-06 18:26:11
=------------------------------------------------------------------------------=
Sampling finished.
=------------------------------------------------------------------------------=