11
# Point -5 Energy = 0.050555100000011066
C       1.2363036662     0.1136279469     0.2595250676
C       -0.0000000134     0.2014678849     -0.6273562037
H       1.0485850524     -0.8887809003     0.6575343804
H       1.4464584920     0.7825388076     1.0927640735
H       2.1346912813     -0.0045520694     -0.3471507678
C       -1.2363037357     0.1136289891     0.2595249248
H       -0.0000007678     -0.8897607062     -0.7554823865
H       0.0000005688     0.6826238499     -1.6014616688
H       -1.0485839298     -0.8887796964     0.6575343458
H       -2.1346912441     -0.0045528097     -0.3471507571
H       -1.4464594304     0.7825393695     1.0927640108
11
# Point -4 Energy = 0.030698609999973314
C       1.2467301667     0.0927731495     0.2595711125
C       -0.0000000067     0.1645230881     -0.6140631338
H       1.1044521828     -0.8943861012     0.7095554217
H       1.4289954533     0.8080471352     1.0610144697
H       2.1452736707     -0.0013709596     -0.3510669548
C       -1.2467302109     0.0927740003     0.2595709871
H       -0.0000006021     -0.9050458539     -0.8600804575
H       0.0000004654     0.7303951684     -1.5429593200
H       -1.1044512647     -0.8943851522     0.7095553866
H       -2.1452736915     -0.0013714166     -0.3510669413
H       -1.4289962237     0.8080476079     1.0610144487
11
# Point -3 Energy = 0.016523799999987432
C       1.2553880633     0.0706976151     0.2595698677
C       -0.0000000024     0.1253687962     -0.6028295668
H       1.1592716196     -0.8966154618     0.7605879263
H       1.4065052842     0.8310072889     1.0260536223
H       2.1536694659     0.0003868008     -0.3546526496
C       -1.2553880883     0.0706982705     0.2595697649
H       -0.0000004339     -0.9104449606     -0.9618577056
H       0.0000003457     0.7741227766     -1.4773851306
H       -1.1592709154     -0.8966147523     0.7605879006
H       -2.1536695201     0.0003866157     -0.3546526347
H       -1.4065058791     0.8310076767     1.0260536245
11
# Point -2 Energy = 0.007119599999981574
C       1.2618669656     0.0476710777     0.2595405617
C       -0.0000000001     0.0845123379     -0.5943068155
H       1.2117738227     -0.8951679782     0.8102107671
H       1.3784574142     0.8509974539     0.9880556413
H       2.1597379226     0.0009753880     -0.3575247875
C       -1.2618669772     0.0476715345     0.2595404872
H       -0.0000002685     -0.9065704948     -1.0600087253
H       0.0000002108     0.8131056194     -1.4052037422
H       -1.2117733397     -0.8951674918     0.8102107568
H       -2.1597379846     0.0009754658     -0.3575247740
H       -1.3784578263     0.8509977537     0.9880556494
11
# Point -1 Energy = 0.0017528300000009267
C       1.2658614225     0.0239970654     0.2595107288
C       0.0000000006     0.0425246515     -0.5890011411
H       1.2607683590     -0.8898652298     0.8580617642
H       1.3446539910     0.8676465854     0.9472352107
H       2.1633971521     0.0007191546     -0.3593674009
C       -1.2658614259     0.0239973218     0.2595106886
H       -0.0000001103     -0.8941268249     -1.1539104949
H       0.0000000623     0.8466066151     -1.3269239249
H       -1.2607681017     -0.8898649494     0.8580617719
H       -2.1633971961     0.0007194884     -0.3593673923
H       -1.3446542141     0.8676467880     0.9472352089
11
# Point 0 Energy = 0
C       1.2672042126     0.0000000000     0.2594997522
C       0.0000000000     0.0000000000     -0.5872081259
H       1.3052750505     -0.8806643351     0.9038259677
H       1.3052750505     0.8806643351     0.9038259677
H       2.1646165232     0.0000000000     -0.3599948239
C       -1.2672042126     -0.0000000181     0.2594997522
H       0.0000000000     -0.8738729764     -1.2430302913
H       -0.0000000606     0.8738729764     -1.2430302913
H       -1.3052750505     -0.8806643351     0.9038259677
H       -2.1646165232     0.0000006841     -0.3599948239
H       -1.3052750505     0.8806643351     0.9038259677
11
# Point 1 Energy = 0.0017528300000009267
C       1.2658613919     -0.0239971098     0.2595107045
C       -0.0000000018     -0.0425245229     -0.5890011442
H       1.3446538807     -0.8676466582     0.9472351657
H       1.2607684299     0.8898651469     0.8580618053
H       2.1633971628     -0.0007192547     -0.3593673650
C       -1.2658613929     -0.0239972535     0.2595107503
H       0.0000001712     -0.8466065211     -1.3269238813
H       -0.0000002665     0.8941268913     -1.1539105896
H       -1.3446540779     -0.8676467400     0.9472352069
H       -2.1633970935     -0.0007184214     -0.3593673774
H       -1.2607682646     0.8898651095     0.8580617436
11
# Point 2 Energy = 0.007119599999981574
C       1.2618669039     -0.0476711252     0.2595405131
C       -0.0000000048     -0.0845122097     -0.5943068225
H       1.3784572794     -0.8509975228     0.9880555906
H       1.2117738764     0.8951678908     0.8102108101
H       2.1597379433     -0.0009754863     -0.3575247152
C       -1.2618669103     -0.0476714659     0.2595406100
H       0.0000002906     -0.8131055061     -1.4052037197
H       -0.0000004408     0.9065705548     -1.0600088494
H       -1.3784577012     -0.8509977632     0.9880556435
H       -2.1597377800     -0.0009744053     -0.3575247436
H       -1.2117735170     0.8951677048     0.8102107019
11
# Point 3 Energy = 0.01652379000000792
C       1.2553879696     -0.0706976678     0.2595697948
C       -0.0000000093     -0.1253686683     -0.6028295793
H       1.4065051201     -0.8310073555     1.0260535632
H       1.1592716561     0.8966153709     0.7605879733
H       2.1536694952     -0.0003868963     -0.3546525402
C       -1.2553879857     -0.0706982015     0.2595699473
H       0.0000003941     -0.7741226416     -1.4773851261
H       -0.0000006165     0.9104450201     -0.9618578609
H       -1.4065057624     -0.8310077434     1.0260536221
H       -2.1536692146     -0.0003855657     -0.3546525870
H       -1.1592711072     0.8966150149     0.7605878117
11
# Point 4 Energy = 0.030698599999993803
C       1.2467300398     -0.0927732092     0.2595710151
C       -0.0000000157     -0.1645229599     -0.6140631539
H       1.4289952548     -0.8080472019     1.0610143998
H       1.1044522022     0.8943860086     0.7095554742
H       2.1452737065     0.0013708676     -0.3510668080
C       -1.2467300702     -0.0927739310     0.2595712272
H       0.0000004809     -0.7303950100     -1.5429593305
H       -0.0000007885     0.9050459193     -0.8600806444
H       -1.4289961118     -0.8080477307     1.0610144565
H       -2.1452732870     0.0013724525     -0.3510668738
H       -1.1044514716     0.8943854607     0.7095552566
11
# Point 5 Energy = 0.05055508999997471
C       1.2363035051     -0.1136280153     0.2595249454
C       -0.0000000243     -0.2014677551     -0.6273562335
H       1.4464582540     -0.7825388775     1.0927639905
H       1.0485850549     0.8887808082     0.6575344395
H       2.1346913216     0.0045519812     -0.3471505834
C       -1.2363035547     -0.1136289197     0.2595252201
H       0.0000005511     -0.6826236677     -1.6014616912
H       -0.0000009516     0.8897607839     -0.7554826038
H       -1.4464593200     -0.7825395465     1.0927640347
H       -2.1346907429     0.0045538279     -0.3471506674
H       -1.0485841538     0.8887800467     0.6575341680

    This sampling was finished on:   2020-07-06 18:26:11
=------------------------------------------------------------------------------=
Sampling finished.
=------------------------------------------------------------------------------=