11
# Point -3 Energy = 0.06823296999999684
C       1.2662963941     0.0479345025     0.2599303282
C       -0.0000000663     0.0000010100     -0.5867788184
H       1.3304051834     -0.9705918005     0.9916373970
H       1.2838644826     0.7919125611     0.8143227406
H       2.1638049624     0.0532012468     -0.3594017796
C       -1.2662965959     -0.0479330133     0.2599302936
H       0.0185607204     -0.8736952720     -1.2425781034
H       -0.0185608156     0.8736933879     -1.2425754329
H       -1.2838645932     -0.7919130129     0.8143237566
H       -2.1638043587     -0.0531994252     -0.3594012657
H       -1.3304053739     0.9705904817     0.9916359030
11
# Point -2 Energy = 0.029180859999996756
C       1.2668005242     0.0319676744     0.2596911360
C       -0.0000000404     0.0000006950     -0.5870172987
H       1.3216126587     -0.9404852443     0.9625580956
H       1.2905911665     0.8213660890     0.8443418566
H       2.1642555382     0.0354833274     -0.3597311907
C       -1.2668006520     -0.0319666775     0.2596911171
H       0.0123789782     -0.8737941688     -1.2428296132
H       -0.0123790751     0.8737929397     -1.2428278543
H       -1.2905911995     -0.8213663956     0.8443425182
H       -2.1642551304     -0.0354819518     -0.3597308421
H       -1.3216128290     0.9404843786     0.9625570944
11
# Point -1 Energy = 0.007129419999998277
C       1.2671032543     0.0159872222     0.2595475948
C       -0.0000000184     0.0000003797     -0.5871604167
H       1.3132363290     -0.9105094409     0.9332870065
H       1.2977272775     0.8509499350     0.8741769296
H       2.1645261922     0.0177463920     -0.3599288848
C       -1.2671033148     -0.0159867176     0.2595475876
H       0.0061910466     -0.8738534317     -1.2429803468
H       -0.0061911323     0.8738528564     -1.2429795006
H       -1.2977272338     -0.8509500865     0.8741772474
H       -2.1645259857     -0.0177454622     -0.3599287071
H       -1.3132364753     0.9105090194     0.9332865089
11
# Point 0 Energy = 0
C       1.2672042126     0.0000000000     0.2594997522
C       0.0000000000     0.0000000000     -0.5872081259
H       1.3052750505     -0.8806643351     0.9038259677
H       1.3052750505     0.8806643351     0.9038259677
H       2.1646165232     0.0000000000     -0.3599948239
C       -1.2672042126     -0.0000000181     0.2594997522
H       0.0000000000     -0.8738729764     -1.2430302913
H       -0.0000000606     0.8738729764     -1.2430302913
H       -1.3052750505     -0.8806643351     0.9038259677
H       -2.1646165232     0.0000006841     -0.3599948239
H       -1.3052750505     0.8806643351     0.9038259677
11
# Point 1 Energy = 0.007129410000004555
C       1.2671032758     -0.0159872651     0.2595476220
C       0.0000000146     -0.0000002511     -0.5871604126
H       1.2977272253     -0.8509499589     0.8741768718
H       1.3132364562     0.9105093106     0.9332870310
H       2.1645263982     -0.0177464925     -0.3599289972
C       -1.2671032221     0.0159867853     0.2595476252
H       -0.0061909651     -0.8738526451     -1.2429793317
H       0.0061909427     0.8738533758     -1.2429803135
H       -1.3132362626     -0.9105091226     0.9332866914
H       -2.1645266101     0.0177465320     -0.3599291805
H       -1.2977273133     0.8509503976     0.8741774130
11
# Point 2 Energy = 0.02918083000001559
C       1.2668005673     -0.0319677159     0.2596911896
C       0.0000000252     -0.0000005664     -0.5870172906
H       1.2905911512     -0.8213660577     0.8443417828
H       1.3216128249     0.9404850629     0.9625581012
H       2.1642559500     -0.0354834279     -0.3597314166
C       -1.2668004666     0.0319667440     0.2596911928
H       -0.0123788741     -0.8737925953     -1.2428275833
H       0.0123789023     0.8737939786     -1.2428294798
H       -1.3216125572     -0.9404846910     0.9625574491
H       -2.1642563796     0.0354830233     -0.3597317876
H       -1.2905912040     0.8213669112     0.8443428613
11
# Point 3 Energy = 0.06823286000000905
C       1.2662964589     -0.0479345416     0.2599304083
C       0.0000000320     -0.0000008814     -0.5867788062
H       1.2838645036     -0.7919124734     0.8143226516
H       1.3304053894     0.9705915694     0.9916373825
H       2.1638055801     -0.0532013472     -0.3594021190
C       -1.2662963177     0.0479330779     0.2599304075
H       -0.0185605789     -0.8736929111     -1.2425750593
H       0.0185606708     0.8736949471     -1.2425778705
H       -1.3304050484     -0.9705910046     0.9916364281
H       -2.1638062328     0.0532004997     -0.3594026831
H       -1.2838645176     0.7919137313     0.8143242790

    This sampling was finished on:   2020-07-06 18:26:11
=------------------------------------------------------------------------------=
Sampling finished.
=------------------------------------------------------------------------------=