11
# Point -5 Energy = 0.0721086100000008
C       1.3549026260     0.0000000021     0.3710899976
C       0.2381247715     -0.0000000092     -0.5533404485
H       1.3291125435     -0.9509303195     0.8924408400
H       1.3291125610     0.9509303191     0.8924408508
H       2.1259621718     -0.0000000084     -0.3960694885
C       -1.2027303200     -0.0000000138     0.1385075939
H       -0.1656560677     -0.7904492211     -1.1904493949
H       -0.1656560677     0.7904492864     -1.1904492705
H       -1.3418127537     -0.7957275518     0.8836148387
H       -2.1595468416     0.0000005875     -0.3903552232
H       -1.3418126838     0.7957275948     0.8836147234
11
# Point -4 Energy = 0.04733736999999394
C       1.3377170932     0.0000000024     0.3506167831
C       0.1941772594     -0.0000000067     -0.5644728480
H       1.3218403880     -0.9383302338     0.8975203975
H       1.3218404024     0.9383302346     0.8975204058
H       2.1412862726     -0.0000000064     -0.3832449303
C       -1.2131494669     -0.0000000147     0.1613825270
H       -0.1410069074     -0.8183147837     -1.2061653166
H       -0.1410069163     0.8183148339     -1.2061652146
H       -1.3305674526     -0.8136635462     0.8885417419
H       -2.1605633357     0.0000006088     -0.3830301745
H       -1.3305673972     0.8136635780     0.8885416478
11
# Point -3 Energy = 0.027280210000000693
C       1.3199992444     0.0000000024     0.3292520391
C       0.1481288577     -0.0000000045     -0.5738214865
H       1.3152541669     -0.9249458280     0.9014014451
H       1.3152541781     0.9249458297     0.9014014509
H       2.1524140063     -0.0000000047     -0.3725831717
C       -1.2246165018     -0.0000000156     0.1852330553
H       -0.1115840544     -0.8414936041     -1.2205010371
H       -0.1115840740     0.8414936399     -1.2205009588
H       -1.3207344077     -0.8311560989     0.8933471643
H       -2.1617971097     0.0000006292     -0.3755305741
H       -1.3207343663     0.8311561207     0.8933470924
11
# Point -2 Energy = 0.012379030000005287
C       1.3019735682     0.0000000020     0.3069353104
C       0.1000913677     -0.0000000026     -0.5810356554
H       1.3097645673     -0.9108361906     0.9038490257
H       1.3097645750     0.9108361927     0.9038490290
H       2.1595727252     -0.0000000031     -0.3647951875
C       -1.2373386889     -0.0000000165     0.2098342397
H       -0.0775225526     -0.8590729699     -1.2323448294
H       -0.0775225847     0.8590729923     -1.2323447761
H       -1.3128207893     -0.8481767137     0.8977850170
H       -2.1631414869     0.0000006487     -0.3684721229
H       -1.3128207616     0.8481767267     0.8977849683
11
# Point -1 Energy = 0.003139340000004154
C       1.2841559799     0.0000000012     0.2836414195
C       0.0504608767     -0.0000000011     -0.5856356189
H       1.3061587121     -0.8960582429     0.9046694252
H       1.3061587162     0.8960582445     0.9046694265
H       2.1633385238     -0.0000000016     -0.3605231757
C       -1.2515284427     -0.0000000173     0.2347670476
H       -0.0397249419     -0.8701087723     -1.2402606598
H       -0.0397249877     0.8701087827     -1.2402606327
H       -1.3075020746     -0.8646922559     0.9014368970
H       -2.1642903620     0.0000006671     -0.3628959821
H       -1.3075020604     0.8646922617     0.9014368723
11
# Point 0 Energy = 0
C       1.2672042126     0.0000000000     0.2594997522
C       0.0000000000     0.0000000000     -0.5872081259
H       1.3052750505     -0.8806643351     0.9038259677
H       1.3052750505     0.8806643351     0.9038259677
H       2.1646165232     0.0000000000     -0.3599948239
C       -1.2672042126     -0.0000000181     0.2594997522
H       0.0000000000     -0.8738729764     -1.2430302913
H       -0.0000000606     0.8738729764     -1.2430302913
H       -1.3052750505     -0.8806643351     0.9038259677
H       -2.1646165232     0.0000006841     -0.3599948239
H       -1.3052750505     0.8806643351     0.9038259677
11
# Point 1 Energy = 0.003139340000004154
C       1.2515285013     -0.0000000017     0.2347672054
C       -0.0504608840     0.0000000007     -0.5856355073
H       1.3075017747     -0.8646924388     0.9014368291
H       1.3075017702     0.8646924358     0.9014368288
H       2.1642902175     0.0000000017     -0.3628961335
C       -1.2841560433     -0.0000000189     0.2836415909
H       0.0397249314     -0.8701087414     -1.2402605747
H       0.0397248553     0.8701087329     -1.2402606024
H       -1.3061584095     -0.8960584139     0.9046693425
H       -2.1633383497     0.0000006997     -0.3605233277
H       -1.3061584245     0.8960584098     0.9046693676
11
# Point 2 Energy = 0.012379030000005287
C       1.2373388001     -0.0000000038     0.2098345408
C       -0.1000913969     0.0000000010     -0.5810354324
H       1.3128201884     -0.8481770898     0.8977848971
H       1.3128201790     0.8481770823     0.8977848976
H       2.1631412207     0.0000000036     -0.3684724240
C       -1.3019736995     -0.0000000196     0.3069356656
H       0.0775225112     -0.8590729077     -1.2323446619
H       0.0775224193     0.8590728927     -1.2323447174
H       -1.3097639556     -0.9108365191     0.9038488464
H       -2.1595723401     0.0000007137     -0.3647954899
H       -1.3097639871     0.9108365126     0.9038488969
11
# Point 3 Energy = 0.027280219999980204
C       1.2246166585     -0.0000000062     0.1852334848
C       -0.1481289232     0.0000000009     -0.5738211531
H       1.3207335018     -0.8311566769     0.8933470085
H       1.3207334871     0.8311566635     0.8933470110
H       2.1617967394     0.0000000058     -0.3755310225
C       -1.3199994482     -0.0000000205     0.3292525878
H       0.1115839629     -0.8414935097     -1.2205007920
H       0.1115838551     0.8414934903     -1.2205008750
H       -1.3152532380     -0.9249462983     0.9014011564
H       -2.1524133681     0.0000007262     -0.3725836193
H       -1.3152532878     0.9249462909     0.9014012323
11
# Point 4 Energy = 0.047337399999989316
C       1.2131496616     -0.0000000090     0.1613830698
C       -0.1941773743     0.0000000003     -0.5644724056
H       1.3305662361     -0.8136643332     0.8885415661
H       1.3305662157     0.8136643125     0.8885415717
H       2.1605628750     0.0000000083     -0.3830307682
C       -1.3377173747     -0.0000000215     0.3506175315
H       0.1410067492     -0.8183146561     -1.2061649998
H       0.1410066258     0.8183146340     -1.2061651095
H       -1.3218391344     -0.9383308277     0.8975199871
H       -2.1412853362     0.0000007371     -0.3832455124
H       -1.3218392045     0.9383308212     0.8975200881
11
# Point 5 Energy = 0.07210868000001369
C       1.2027305459     -0.0000000119     0.1385082350
C       -0.2381249468     -0.0000000008     -0.5533398998
H       1.3418112210     -0.7957285537     0.8836146581
H       1.3418111946     0.7957285245     0.8836146678
H       2.1595463023     0.0000000113     -0.3903559608
C       -1.3549029909     -0.0000000228     0.3710909472
H       0.1656558296     -0.7904490590     -1.1904490126
H       0.1656556912     0.7904490357     -1.1904491478
H       -1.3291109608     -0.9509310163     0.8924402968
H       -2.1259608934     0.0000007466     -0.3960701869
H       -1.3291110532     0.9509310123     0.8924404219

    This sampling was finished on:   2020-07-06 18:26:11
=------------------------------------------------------------------------------=
Sampling finished.
=------------------------------------------------------------------------------=