11
# Point -3 Energy = 0.06702637000000777
C       1.2672021161     0.0642940821     0.2597405167
C       -0.0000003805     0.0607103804     -0.5869621747
H       1.3094222673     -0.9388550097     0.9812637848
H       1.3009068313     0.8238064936     0.8249218717
H       2.1645487770     0.0506426695     -0.3597192351
C       -1.2672047956     0.0642952464     0.2597376737
H       -0.0000001070     -0.9045216078     -1.3015612474
H       0.0000001035     0.8440364365     -1.1828498054
H       -1.3094258567     -0.9388620931     0.9812674797
H       -2.1645396230     0.0506446295     -0.3597150645
H       -1.3009093931     0.8238094386     0.8249212194
11
# Point -2 Energy = 0.028996700000007536
C       1.2672029163     0.0428624423     0.2596074775
C       -0.0000002556     0.0404765442     -0.5870984826
H       1.3080641237     -0.9193134414     0.9556116858
H       1.3023869966     0.8426063911     0.8513878978
H       2.1645882220     0.0337638492     -0.3598730634
C       -1.2672047094     0.0428632453     0.2596055789
H       -0.0000000658     -0.8942103564     -1.2822379963
H       0.0000000510     0.8538964029     -1.2030894179
H       -1.3080665105     -0.9193181197     0.9556141603
H       -2.1645821232     0.0337653257     -0.3598702893
H       -1.3023887059     0.8426083829     0.8513874682
11
# Point -1 Energy = 0.0071353599999923745
C       1.2672036151     0.0214311250     0.2595271230
C       -0.0000001288     0.0202391863     -0.5871805606
H       1.3066816930     -0.8999156414     0.9297995796
H       1.3038431087     0.8615596638     0.8776889468
H       2.1646108034     0.0168825334     -0.3599650054
C       -1.2672045151     0.0214315585     0.2595261720
H       -0.0000000178     -0.8839951640     -1.2627268634
H       -0.0000000160     0.8638410767     -1.2231503086
H       -1.3066828731     -0.8999179282     0.9298008310
H       -2.1646077561     0.0168835515     -0.3599636216
H       -1.3038439737     0.8615607043     0.8776887261
11
# Point 0 Energy = 0
C       1.2672042126     0.0000000000     0.2594997522
C       0.0000000000     0.0000000000     -0.5872081259
H       1.3052750505     -0.8806643351     0.9038259677
H       1.3052750505     0.8806643351     0.9038259677
H       2.1646165232     0.0000000000     -0.3599948239
C       -1.2672042126     -0.0000000181     0.2594997522
H       0.0000000000     -0.8738729764     -1.2430302913
H       -0.0000000606     0.8738729764     -1.2430302913
H       -1.3052750505     -0.8806643351     0.9038259677
H       -2.1646165232     0.0000006841     -0.3599948239
H       -1.3052750505     0.8806643351     0.9038259677
11
# Point 1 Energy = 0.007135329999996998
C       1.2672047091     -0.0214311613     0.2595254650
C       0.0000001311     -0.0202390552     -0.5871810839
H       1.3038441318     -0.8615621729     0.8776894503
H       1.3066828742     0.8999180047     0.9298001770
H       2.1646053825     -0.0168826572     -0.3599624398
C       -1.2672038015     -0.0214314915     0.2595264194
H       0.0000000989     -0.8638407339     -1.2231505215
H       -0.0000001940     0.8839949820     -1.2627272111
H       -1.3038428898     -0.8615597169     0.8776882475
H       -2.1646084249     -0.0168824802     -0.3599638168
H       -1.3066820780     0.8999171484     0.9298003329
11
# Point 2 Energy = 0.028996449999993956
C       1.2672051049     -0.0428624572     0.2596041615
C       0.0000002647     -0.0404764059     -0.5870995292
H       1.3023891520     -0.8426113220     0.8513889359
H       1.3080663756     0.9193182556     0.9556128494
H       2.1645773810     -0.0337640427     -0.3598679326
C       -1.2672032816     -0.0428631815     0.2596060739
H       0.0000001678     -0.8538957903     -1.2030899116
H       -0.0000003051     0.8942099190     -1.2822386240
H       -1.3023866962     -0.8426065146     0.8513865023
H       -2.1645834605     -0.0337642481     -0.3598706795
H       -1.3080647633     0.9193164536     0.9556131729
11
# Point 3 Energy = 0.06702549000000602
C       1.2672054002     -0.0642940613     0.2597355427
C       0.0000004010     -0.0607102300     -0.5869637444
H       1.3009101378     -0.8238138372     0.8249234337
H       1.3094255677     0.9388622852     0.9812655248
H       2.1645325173     -0.0506429792     -0.3597115398
C       -1.2672026527     -0.0642951879     0.2597384166
H       0.0000002441     -0.8440355492     -1.1828505801
H       -0.0000004311     0.9045209199     -1.3015621548
H       -1.3009064674     -0.8238066914     0.8249197671
H       -2.1645416278     -0.0506435415     -0.3597156492
H       -1.3094231497     0.9388595388     0.9812660022

    This sampling was finished on:   2020-07-06 18:26:11
=------------------------------------------------------------------------------=
Sampling finished.
=------------------------------------------------------------------------------=