11
# Point -5 Energy = 0.07331988999999339
C       1.2611425382     0.1342076206     0.2566216031
C       0.0000000550     0.0000000096     -0.5884987703
H       1.2671928242     -0.8174248382     0.7935143177
H       1.3412910422     0.9363446738     0.9918831843
H       2.1546266604     0.0497880495     -0.3627989676
C       -1.2611424152     -0.1342073413     0.2566216469
H       -0.4092065322     -0.7965510665     -1.2144484645
H       0.4092068584     0.7965509303     -1.2144484888
H       -1.3412909872     -0.9363446293     0.9918829318
H       -2.1546267698     -0.0497876863     -0.3627986280
H       -1.2671933346     0.8174249437     0.7935146544
11
# Point -4 Energy = 0.04739574999999263
C       1.2628274831     0.1073813740     0.2577810756
C       0.0000000400     0.0000000178     -0.5886565393
H       1.2748665142     -0.8318396084     0.8156966238
H       1.3329232045     0.9243874670     0.9777730083
H       2.1580618117     0.0416293020     -0.3613752424
C       -1.2628273854     -0.1073811490     0.2577811124
H       -0.3326503841     -0.8234899558     -1.2250248532
H       0.3326506410     0.8234898685     -1.2250248946
H       -1.3329231434     -0.9243874268     0.9777728007
H       -2.1580618984     -0.0416289135     -0.3613749625
H       -1.2748669437     0.8318396901     0.8156968900
11
# Point -3 Energy = 0.02686379999998678
C       1.2645165758     0.0805458253     0.2585893883
C       0.0000000272     0.0000000274     -0.5883054496
H       1.2827559493     -0.8452395005     0.8380681865
H       1.3255863426     0.9130991171     0.9616326447
H       2.1608563507     0.0323097760     -0.3605799552
C       -1.2645165026     -0.0805456548     0.2585894171
H       -0.2526452121     -0.8451335023     -1.2330351427
H       0.2526453942     0.8451334626     -1.2330351978
H       -1.3255862723     -0.9130990820     0.9616324834
H       -2.1608564145     -0.0323093638     -0.3605797399
H       -1.2827562988     0.8452395610     0.8380683842
11
# Point -2 Energy = 0.012012029999979745
C       1.2659366175     0.0536996320     0.2591135342
C       0.0000000164     0.0000000383     -0.5877875938
H       1.2905726011     -0.8577401749     0.8603900837
H       1.3187835871     0.9022201629     0.9437360930
H       2.1629218545     0.0220721064     -0.3601921809
C       -1.2659365685     -0.0536995156     0.2591135541
H       -0.1699522987     -0.8609734709     -1.2386312838
H       0.1699524019     0.8609734757     -1.2386313482
H       -1.3187835042     -0.9022201339     0.9437359790
H       -2.1629218958     -0.0220716710     -0.3601920345
H       -1.2905728719     0.8577402170     0.8603902161
11
# Point -1 Energy = 0.0030177500000121427
C       1.2668763154     0.0268476737     0.2594059585
C       0.0000000075     0.0000000506     -0.5873669281
H       1.2981106978     -0.8694890688     0.8824019214
H       1.3121088123     0.8914914996     0.9243696322
H       2.1641894409     0.0111985779     -0.3600346323
C       -1.2668762908     -0.0268476101     0.2594059684
H       -0.0854288333     -0.8706300258     -1.2419369167
H       0.0854288554     0.8706300703     -1.2419369852
H       -1.3121087134     -0.8914914779     0.9243695664
H       -2.1641894605     -0.0111981188     -0.3600345584
H       -1.2981108918     0.8694890953     0.8824019927
11
# Point 0 Energy = 0
C       1.2672042126     0.0000000000     0.2594997522
C       0.0000000000     0.0000000000     -0.5872081259
H       1.3052750505     -0.8806643351     0.9038259677
H       1.3052750505     0.8806643351     0.9038259677
H       2.1646165232     0.0000000000     -0.3599948239
C       -1.2672042126     -0.0000000181     0.2594997522
H       0.0000000000     -0.8738729764     -1.2430302913
H       -0.0000000606     0.8738729764     -1.2430302913
H       -1.3052750505     -0.8806643351     0.9038259677
H       -2.1646165232     0.0000006841     -0.3599948239
H       -1.3052750505     0.8806643351     0.9038259677
11
# Point 1 Energy = 0.0030177600000058646
C       1.2668763011     -0.0268477170     0.2594060381
C       -0.0000000060     0.0000000795     -0.5873669047
H       1.3121086850     -0.8914916362     0.9243695900
H       1.2981107467     0.8694890454     0.8824019602
H       2.1641893451     -0.0111986757     -0.3600346723
C       -1.2668763266     0.0268476805     0.2594060276
H       0.0854289070     -0.8706300053     -1.2419368800
H       -0.0854290491     0.8706301097     -1.2419369418
H       -1.2981106037     -0.8694890412     0.8824019938
H       -2.1641893276     0.0111991874     -0.3600347489
H       -1.3121087324     0.8914916390     0.9243695569
11
# Point 2 Energy = 0.012012039999987678
C       1.2659365889     -0.0536996754     0.2591136937
C       -0.0000000106     0.0000000961     -0.5877875463
H       1.3187834244     -0.9022203625     0.9437360532
H       1.2905726070     0.8577402011     0.8603901181
H       2.1629216637     -0.0220721959     -0.3601922594
C       -1.2659366414     0.0536995925     0.2591136712
H       0.1699523709     -0.8609734311     -1.2386312100
H       -0.1699525906     0.8609735541     -1.2386312621
H       -1.2905724373     -0.8577402070     0.8603902003
H       -2.1629216313     0.0220727379     -0.3601924164
H       -1.3187834043     0.9022203562     0.9437359765
11
# Point 3 Energy = 0.026863809999994714
C       1.2645165336     -0.0805458688     0.2585896261
C       -0.0000000142     0.0000001143     -0.5883053767
H       1.3255861484     -0.9130993833     0.9616326088
H       1.2827559114     0.8452395710     0.8380682137
H       2.1608560658     -0.0323098520     -0.3605800721
C       -1.2645166144     0.0805457425     0.2585895917
H       0.2526452822     -0.8451334453     -1.2330350307
H       -0.2526455749     0.8451335788     -1.2330350703
H       -1.2827557115     -0.8452395878     0.8380683440
H       -2.1608560219     0.0323104277     -0.3605803114
H       -1.3255860649     0.9130993690     0.9616324959
11
# Point 4 Energy = 0.0473957700000085
C       1.2628274283     -0.1073814183     0.2577813895
C       -0.0000000170     0.0000001340     -0.5886564391
H       1.3329229831     -0.9243878030     0.9777729770
H       1.2748664322     0.8318397176     0.8156966406
H       2.1580614343     -0.0416293600     -0.3613753976
C       -1.2628275392     0.1073812515     0.2577813435
H       0.3326504516     -0.8234898849     -1.2250247015
H       -0.3326508111     0.8234900207     -1.2250247276
H       -1.2748661989     -0.8318397457     0.8156968186
H       -2.1580613829     0.0416299731     -0.3613757205
H       -1.3329228410     0.9243877809     0.9777728361
11
# Point 5 Energy = 0.07331993000001091
C       1.2611424720     -0.1342076665     0.2566219898
C       -0.0000000194     0.0000001553     -0.5884986407
H       1.3412907984     -0.9363450824     0.9918831575
H       1.2671926988     0.8174249802     0.7935143210
H       2.1546261922     -0.0497880854     -0.3627991611
C       -1.2611426148     0.1342074626     0.2566219332
H       0.4092065971     -0.7965509860     -1.2144482712
H       -0.4092070156     0.7965511160     -1.2144482848
H       -1.2671924292     -0.8174250198     0.7935145460
H       -2.1546261376     0.0497887400     -0.3627995685
H       -1.3412906026     0.9363450520     0.9918829977

    This sampling was finished on:   2020-07-06 18:26:11
=------------------------------------------------------------------------------=
Sampling finished.
=------------------------------------------------------------------------------=