11
# Point -5 Energy = 0.05162506000000633
C       1.2590060288     0.1427382272     0.2743560927
C       -0.0000001228     0.0000003639     -0.5725496734
H       1.0941137914     -0.8635737918     0.6774680406
H       1.5158694678     0.8270179294     1.0792311218
H       2.1306340898     -0.0403533268     -0.3548214788
C       -1.2590066009     -0.1427378085     0.2743553235
H       0.3675158737     -0.8001421991     -1.2194349263
H       -0.3675150359     0.8001416500     -1.2194371580
H       -1.5158687328     -0.8270184834     1.0792298671
H       -2.1306354811     0.0403545736     -0.3548207737
H       -1.0941133387     0.8635735314     0.6774685833
11
# Point -4 Energy = 0.033219989999992094
C       1.2617997967     0.1154934832     0.2693045082
C       -0.0000000999     0.0000003044     -0.5775971786
H       1.1346388953     -0.8738186123     0.7225211744
H       1.4754791808     0.8404300170     1.0521664554
H       2.1425260406     -0.0300657006     -0.3569991024
C       -1.2618002494     -0.1154931425     0.2693039096
H       0.2979170415     -0.8260786396     -1.2276707289
H       -0.2979163895     0.8260781755     -1.2276725120
H       -1.4754785705     -0.8404304160     1.0521653957
H       -2.1425271477     0.0300668092     -0.3569985229
H       -1.1346385585     0.8738183878     0.7225216205
11
# Point -3 Energy = 0.0187714599999822
C       1.2640956063     0.0873695195     0.2651470614
C       -0.0000000760     0.0000002447     -0.5816994378
H       1.1763302602     -0.8808144065     0.7683305417
H       1.4339463651     0.8532042706     1.0206188381
H       2.1520502256     -0.0212029593     -0.3584481689
C       -1.2640959413     -0.0873692604     0.2651466254
H       0.2257454558     -0.8467231985     -1.2342751328
H       -0.2257449897     0.8467228392     -1.2342764697
H       -1.4339458814     -0.8532045322     1.0206180016
H       -2.1520510503     0.0212039235     -0.3584477250
H       -1.1763300349     0.8808142254     0.7683308847
11
# Point -2 Energy = 0.008387299999995435
C       1.2658014302     0.0585879985     0.2620509575
C       -0.0000000512     0.0000001848     -0.5847279462
H       1.2188843683     -0.8843041840     0.8143137199
H       1.3915331454     0.8646217225     0.9849739962
H       2.1589929213     -0.0134812867     -0.3593485706
C       -1.2658016500     -0.0585878229     0.2620506759
H       0.1515970774     -0.8617238265     -1.2391030050
H       -0.1515967941     0.8617235927     -1.2391039034
H       -1.3915327877     -0.8646218680     0.9849734100
H       -2.1589934664     0.0134820992     -0.3593482708
H       -1.2188842537     0.8843040565     0.8143139553
11
# Point -1 Energy = 0.0021094399999981306
C       1.2668505714     0.0293845892     0.2601431870
C       -0.0000000258     0.0000001246     -0.5865838695
H       1.2619772263     -0.8842109614     0.8597486739
H       1.3485372891     0.8739799884     0.9458041576
H       2.1632070553     -0.0065471139     -0.3598377455
C       -1.2668506794     -0.0293844964     0.2601430510
H       0.0761211780     -0.8708241470     -1.2420435062
H       -0.0761210713     0.8708240590     -1.2420439798
H       -1.3485370537     -0.8739800419     0.9458038460
H       -2.1632073249     0.0065477666     -0.3598375952
H       -1.2619772255     0.8842108989     0.8597487996
11
# Point 0 Energy = 0
C       1.2672042126     0.0000000000     0.2594997522
C       0.0000000000     0.0000000000     -0.5872081259
H       1.3052750505     -0.8806643351     0.9038259677
H       1.3052750505     0.8806643351     0.9038259677
H       2.1646165232     0.0000000000     -0.3599948239
C       -1.2672042126     -0.0000000181     0.2594997522
H       0.0000000000     -0.8738729764     -1.2430302913
H       -0.0000000606     0.8738729764     -1.2430302913
H       -1.3052750505     -0.8806643351     0.9038259677
H       -2.1646165232     0.0000006841     -0.3599948239
H       -1.3052750505     0.8806643351     0.9038259677
11
# Point 1 Energy = 0.0021094299999901978
C       1.2668507937     -0.0293846298     0.2601430429
C       0.0000000258     0.0000000040     -0.5865839374
H       1.3485370655     -0.8739800534     0.9458040362
H       1.2619771855     0.8842108575     0.8597486237
H       2.1632075309     0.0065470107     -0.3598375187
C       -1.2668506909     0.0293845665     0.2601431682
H       -0.0761210965     -0.8708239963     -1.2420439540
H       0.0761208811     0.8708242593     -1.2420436388
H       -1.2619771748     -0.8842108020     0.8597489192
H       -2.1632072682     -0.0065467028     -0.3598376662
H       -1.3485373127     0.8739801523     0.9458039438
11
# Point 2 Energy = 0.008387280000022201
C       1.2658018737     -0.0585880310     0.2620506705
C       0.0000000512     -0.0000000565     -0.5847280822
H       1.3915327841     -0.8646217892     0.9849738103
H       1.2188842014     0.8843040411     0.8143135687
H       2.1589938715     0.0134811759     -0.3593481220
C       -1.2658016744     0.0585878983     0.2620509093
H       -0.1515969740     -0.8617235270     -1.2391038967
H       0.1515966188     0.8617239934     -1.2391032254
H       -1.2188842915     -0.8843039678     0.8143141876
H       -2.1589933537     -0.0134810514     -0.3593484109
H       -1.3915331677     0.8646219802     0.9849736096
11
# Point 3 Energy = 0.018771439999994755
C       1.2640962698     -0.0873695387     0.2651466334
C       0.0000000758     -0.0000001167     -0.5816996418
H       1.4339458638     -0.8532043543     1.0206186056
H       1.1763299697     0.8808142127     0.7683302814
H       2.1520516477     0.0212028365     -0.3584475103
C       -1.2640959807     0.0873693444     0.2651469735
H       -0.2257453168     -0.8467227538     -1.2342764607
H       0.2257448390     0.8467234406     -1.2342754625
H       -1.1763301531     -0.8808141441     0.7683312323
H       -2.1520508835     -0.0212029014     -0.3584479289
H       -1.4339463922     0.8532046407     1.0206182970
11
# Point 4 Energy = 0.03321993999999506
C       1.2618006783     -0.1154934849     0.2693039411
C       0.0000000991     -0.0000001767     -0.5775974510
H       1.4754785385     -0.8404301330     1.0521661971
H       1.1346384814     0.8738183559     0.7225207976
H       2.1425279311     0.0300655626     -0.3569982500
C       -1.2618003065     0.1154932381     0.2693043706
H       -0.2979168548     -0.8260780547     -1.2276724817
H       0.2979162730     0.8260789780     -1.2276711874
H       -1.1346387519     -0.8738183123     0.7225220860
H       -2.1425269292     -0.0300658215     -0.3569987829
H       -1.4754792195     0.8404305144     1.0521657795
11
# Point 5 Energy = 0.05162498999997922
C       1.2590071265     -0.1427382075     0.2743553880
C       0.0000001204     -0.0000002361     -0.5725500145
H       1.5158686842     -0.8270180922     1.0792308606
H       1.0941132526     0.8635734603     0.6774675402
H       2.1306364456     0.0403531716     -0.3548204512
C       -1.2590066791     0.1427379183     0.2743558959
H       -0.3675156292     -0.8001414797     -1.2194370896
H       0.3675149623     0.8001426545     -1.2194355312
H       -1.0941136053     -0.8635734604     0.6774691697
H       -2.1306352136     -0.0403536279     -0.3548210803
H       -1.5158695250     0.8270185651     1.0792303314

    This sampling was finished on:   2020-07-06 18:26:11
=------------------------------------------------------------------------------=
Sampling finished.
=------------------------------------------------------------------------------=