11
# Point -4 Energy = 0.056172939999996174
C       1.2471277911     -0.0000012590     0.3352638006
C       -0.0000000498     -0.0000028265     -0.4925429714
H       1.3387784216     -0.9789613758     0.8014624681
H       1.3387806271     0.9789598813     0.8014602428
H       2.2217582449     0.0000056785     -0.1647975119
C       -1.2471278456     -0.0000016790     0.3352633416
H       0.0000003145     -0.6783833263     -1.3565966995
H       0.0000003086     0.6783797989     -1.3565949990
H       -1.3387776434     -0.9789608011     0.8014641877
H       -2.2217581053     0.0000079349     -0.1647982825
H       -1.3387821243     0.9789586402     0.8014614423
11
# Point -3 Energy = 0.031467530000000465
C       1.2536467487     -0.0000009685     0.3165685047
C       -0.0000000325     -0.0000021325     -0.5137057131
H       1.3317095216     -0.9575895010     0.8294521448
H       1.3317112283     0.9575884342     0.8294505040
H       2.2090633733     0.0000042650     -0.2167507562
C       -1.2536467726     -0.0000013053     0.3165681710
H       0.0000002370     -0.7314308766     -1.3313463695
H       0.0000002025     0.7314281728     -1.3313449477
H       -1.3317089506     -0.9575890026     0.8294534025
H       -2.2090632504     0.0000061403     -0.2167513061
H       -1.3317123659     0.9575874402     0.8294513844
11
# Point -2 Energy = 0.013934790000007524
C       1.2591660724     -0.0000006605     0.2976702008
C       -0.0000000186     -0.0000014291     -0.5365793423
H       1.3238057600     -0.9340395696     0.8558182449
H       1.3238069349     0.9340388967     0.8558171736
H       2.1952264064     0.0000028472     -0.2665363309
C       -1.2591660771     -0.0000009022     0.2976699858
H       0.0000001589     -0.7819182421     -1.3039580449
H       0.0000001055     0.7819163927     -1.3039569992
H       -1.3238053879     -0.9340391939     0.8558190615
H       -2.1952263132     0.0000043335     -0.2665366790
H       -1.3238077019     0.9340381933     0.8558177484
11
# Point -1 Energy = 0.0034696700000012015
C       1.2636819140     -0.0000003370     0.2786252090
C       -0.0000000079     -0.0000007177     -0.5611116255
H       1.3150086197     -0.9083745097     0.8806026562
H       1.3150092265     0.9083741933     0.8806021340
H       2.1803752857     0.0000014256     -0.3142507447
C       -1.2636819110     -0.0000004724     0.2786251056
H       0.0000000799     -0.8295084750     -1.2745014230
H       0.0000000177     0.8295075228     -1.2745008516
H       -1.3150084378     -0.9083743009     0.8806030531
H       -2.1803752338     0.0000025148     -0.3142509097
H       -1.3150096136     0.9083738221     0.8806024154
11
# Point 0 Energy = 0
C       1.2672042126     0.0000000000     0.2594997522
C       0.0000000000     0.0000000000     -0.5872081259
H       1.3052750505     -0.8806643351     0.9038259677
H       1.3052750505     0.8806643351     0.9038259677
H       2.1646165232     0.0000000000     -0.3599948239
C       -1.2672042126     -0.0000000181     0.2594997522
H       0.0000000000     -0.8738729764     -1.2430302913
H       -0.0000000606     0.8738729764     -1.2430302913
H       -1.3052750505     -0.8806643351     0.9038259677
H       -2.1646165232     0.0000006841     -0.3599948239
H       -1.3052750505     0.8806643351     0.9038259677
11
# Point 1 Energy = 0.003459609999993063
C       1.2697377031     0.0000003490     0.2403691825
C       0.0000000056     0.0000007278     -0.6147624527
H       1.2945552679     -0.8509859157     0.9254997742
H       1.2945546284     0.8509861902     0.9255002623
H       2.1480279626     -0.0000014355     -0.4038554926
C       -1.2697377164     0.0000004580     0.2403692767
H       -0.0000000823     -0.9146941549     -1.2096094530
H       -0.0000001275     0.9146951794     -1.2096101274
H       -1.2945554422     -0.8509861652     0.9254994009
H       -2.1480280240     -0.0000011636     -0.4038553456
H       -1.2945542358     0.8509865965     0.9254999938
11
# Point 2 Energy = 0.013762710000008838
C       1.2713020605     0.0000007073     0.2213105707
C       0.0000000095     0.0000014586     -0.6436348646
H       1.2828365829     -0.8194219875     0.9456272884
H       1.2828352608     0.8194224917     0.9456282239
H       2.1306690979     -0.0000028770     -0.4459280744
C       -1.2713020966     0.0000009538     0.2213107489
H       -0.0000001649     -0.9516627910     -1.1742969521
H       -0.0000001849     0.9516649202     -1.1742983910
H       -1.2828369241     -0.8194225229     0.9456265681
H       -2.1306692295     -0.0000030251     -0.4459277981
H       -1.2828344723     0.8194233380     0.9456276991
11
# Point 3 Energy = 0.030807519999996202
C       1.2719817824     0.0000010732     0.2023896029
C       0.0000000126     0.0000021902     -0.6735954744
H       1.2702430454     -0.7860603009     0.9641975548
H       1.2702409963     0.7860609893     0.9641988897
H       2.1125939876     -0.0000043267     -0.4863724851
C       -1.2719818501     0.0000014673     0.2023898535
H       -0.0000002476     -0.9844775111     -1.1370915881
H       -0.0000002329     0.9844808362     -1.1370938739
H       -1.2702435463     -0.7860611556     0.9641965153
H       -2.1125941972     -0.0000049019     -0.4863720972
H       -1.2702398108     0.7860623061     0.9641981214
11
# Point 4 Energy = 0.054501620000010575
C       1.2719210025     0.0000014450     0.1836599380
C       0.0000000158     0.0000029207     -0.7043405348
H       1.2570343490     -0.7509938783     0.9811927243
H       1.2570315280     0.7509947055     0.9811944037
H       2.0938459762     -0.0000057874     -0.5254010507
C       -1.2719211098     0.0000019968     0.1836602482
H       -0.0000003299     -1.0128475579     -1.0979508678
H       -0.0000002722     1.0128521806     -1.0979540732
H       -1.2570350025     -0.7509950822     0.9811913948
H       -2.0938462716     -0.0000067969     -0.5254005689
H       -1.2570299461     0.7509965201     0.9811934052

    This sampling was finished on:   2020-07-06 18:26:11
=------------------------------------------------------------------------------=
Sampling finished.
=------------------------------------------------------------------------------=