11
# Point -5 Energy = 0.06899956999998835
C       1.2462257156     -0.1296113646     0.2505714496
C       0.0000000345     0.1408868821     -0.5839776182
H       1.4311197462     -0.9339835285     0.9555223652
H       1.1351905055     0.8164725139     0.7972651111
H       2.1275353080     0.1485125737     -0.3282746784
C       -1.2462257706     -0.1296115727     0.2505714483
H       -0.0000003137     -0.8451294674     -1.0600006874
H       0.0000003023     0.9014622144     -1.3651453555
H       -1.4311192743     -0.9339837837     0.9555223102
H       -2.1275350749     0.1485137931     -0.3282744445
H       -1.1351912390     0.8164724058     0.7972651185
11
# Point -4 Energy = 0.04433404999997492
C       1.2534644472     -0.1046535145     0.2537895146
C       0.0000000318     0.1129859932     -0.5853648636
H       1.4117746672     -0.9238617822     0.9500574665
H       1.1692181748     0.8296907678     0.8224315345
H       2.1405511136     0.1199351868     -0.3393036725
C       -1.2534644824     -0.1046536720     0.2537895262
H       -0.0000002471     -0.8513300425     -1.1029612560
H       0.0000002157     0.8961227181     -1.3445786971
H       -1.4117742831     -0.9238619585     0.9500574346
H       -2.1405509365     0.1199362845     -0.3393035125
H       -1.1692187618     0.8296906852     0.8224315442
11
# Point -3 Energy = 0.025030899999990197
C       1.2593437607     -0.0790482042     0.2562900525
C       0.0000000270     0.0848546208     -0.5862711979
H       1.3894148036     -0.9136343704     0.9420752538
H       1.2039583464     0.8429382449     0.8457814568
H       2.1509447644     0.0906139159     -0.3481806140
C       -1.2593437807     -0.0790483090     0.2562900712
H       -0.0000001788     -0.8571846414     -1.1424718260
H       0.0000001325     0.8905907970     -1.3221443689
H       -1.3894145071     -0.9136344707     0.9420752433
H       -2.1509446385     0.0906148873     -0.3481805155
H       -1.2039587902     0.8429381957     0.8457814636
11
# Point -2 Energy = 0.011160169999996583
C       1.2636733479     -0.0529549851     0.2580734229
C       0.0000000200     0.0566026750     -0.5868213908
H       1.3640464098     -0.9031203721     0.9316473104
H       1.2387011504     0.8559704826     0.8672015914
H       2.1585039108     0.0607230297     -0.3546891321
C       -1.2636733571     -0.0529550361     0.2580734420
H       -0.0000001087     -0.8628299528     -1.1787900138
H       0.0000000527     0.8849908797     -1.2978100378
H       -1.3640462011     -0.9031204013     0.9316473172
H       -2.1585038313     0.0607238724     -0.3546890813
H       -1.2387014540     0.8559704739     0.8672015909
11
# Point -1 Energy = 0.002795710000015106
C       1.2663178080     -0.0265460323     0.2591428010
C       0.0000000111     0.0283037708     -0.5871144374
H       1.3358697877     -0.8921638404     0.9188648632
H       1.2727089048     0.8685880601     0.8865846221
H       2.1630853387     0.0304518153     -0.3586610690
C       -1.2663178106     -0.0265460294     0.2591428137
H       -0.0000000368     -0.8683690206     -1.2122125414
H       -0.0000000239     0.8794051207     -1.2714904745
H       -1.3358696677     -0.8921638053     0.9188648821
H       -2.1630853011     0.0304525288     -0.3586610514
H       -1.2727090708     0.8685880986     0.8865846105
11
# Point 0 Energy = 0
C       1.2672042126     0.0000000000     0.2594997522
C       0.0000000000     0.0000000000     -0.5872081259
H       1.3052750505     -0.8806643351     0.9038259677
H       1.3052750505     0.8806643351     0.9038259677
H       2.1646165232     0.0000000000     -0.3599948239
C       -1.2672042126     -0.0000000181     0.2594997522
H       0.0000000000     -0.8738729764     -1.2430302913
H       -0.0000000606     0.8738729764     -1.2430302913
H       -1.3052750505     -0.8806643351     0.9038259677
H       -2.1646165232     0.0000006841     -0.3599948239
H       -1.3052750505     0.8806643351     0.9038259677
11
# Point 1 Energy = 0.002795700000007173
C       1.2663178156     0.0265459946     0.2591429382
C       -0.0000000131     -0.0283036447     -0.5871144643
H       1.2727089394     -0.8685881953     0.8865846080
H       1.3358700076     0.8921638253     0.9188649368
H       2.1630851568     -0.0304519217     -0.3586612079
C       -1.2663178169     0.0265461016     0.2591429189
H       0.0000001134     -0.8794050694     -1.2714904157
H       -0.0000001686     0.8683691216     -1.2122126126
H       -1.2727090022     -0.8685880571     0.8865846333
H       -2.1630851901     -0.0304514634     -0.3586612109
H       -1.3358699025     0.8921639745     0.9188648950
11
# Point 2 Energy = 0.01116015999998865
C       1.2636733626     0.0529549640     0.2580736956
C       -0.0000000280     -0.0566025565     -0.5868214454
H       1.2387013027     -0.8559706677     0.8672015997
H       1.3640467653     0.9031204223     0.9316474196
H       2.1585035493     -0.0607231526     -0.3546894045
C       -1.2636733692     0.0529551194     0.2580736501
H       0.0000001929     -0.8849908589     -1.2978099928
H       -0.0000002368     0.8628300731     -1.1787900826
H       -1.2387014619     -0.8559704928     0.8672016174
H       -2.1585036116     -0.0607228180     -0.3546893972
H       -1.3640465260     0.9031206338     0.9316473589
11
# Point 3 Energy = 0.025030880000002753
C       1.2593437816     0.0790482101     0.2562904557
C       -0.0000000451     -0.0848545146     -0.5862712814
H       1.2039586124     -0.8429384708     0.8457814813
H       1.3894152997     0.9136344860     0.9420753999
H       2.1509442287     -0.0906140650     -0.3481810107
C       -1.2593437975     0.0790484103     0.2562903785
H       0.0000002758     -0.8905908102     -1.3221443423
H       -0.0000003023     0.8571847774     -1.1424718862
H       -1.2039588722     -0.8429382702     0.8457814844
H       -2.1509443160     -0.0906138499     -0.3481809798
H       -1.3894149257     0.9136347629     0.9420753194
11
# Point 4 Energy = 0.04433403999999541
C       1.2534644737     0.1046535567     0.2537900415
C       -0.0000000644     -0.1129859031     -0.5853649773
H       1.1692185532     -0.8296910242     0.8224315689
H       1.4117753087     0.9238619612     0.9500576487
H       2.1405504108     -0.1199353699     -0.3393041814
C       -1.2534645031     0.1046537969     0.2537899276
H       0.0000003623     -0.8961227686     -1.3445786924
H       -0.0000003652     0.8513301907     -1.1029613006
H       -1.1692189189     -0.8296908100     0.8224315498
H       -2.1405505192     -0.1199352691     -0.3393041149
H       -1.4117747984     0.9238623053     0.9500575490
11
# Point 5 Energy = 0.06899957999999629
C       1.2462257473     0.1296114509     0.2505720926
C       -0.0000000861     -0.1408868106     -0.5839777628
H       1.1351909978     -0.8164727901     0.7972651498
H       1.4311205381     0.9339837674     0.9555225807
H       2.1275344456     -0.1485127970     -0.3282752868
C       -1.2462257948     0.1296117261     0.2505719380
H       0.0000004525     -0.9014623048     -1.3651453749
H       -0.0000004248     0.8451296244     -1.0600007082
H       -1.1351914752     -0.8164725752     0.7972651000
H       -2.1275345716     -0.1485128036     -0.3282751744
H       -1.4311198894     0.9339841785     0.9555224649

    This sampling was finished on:   2020-07-06 18:26:11
=------------------------------------------------------------------------------=
Sampling finished.
=------------------------------------------------------------------------------=