11
# Point -4 Energy = 0.055134640000005675
C       1.3139743070     0.0000042619     0.2261343865
C       0.0482613751     0.0000023505     -0.5807491388
H       1.3315343499     -0.6931798615     1.0755269778
H       1.3315221995     0.6931840963     1.0755300207
H       2.1048937098     -0.0000131834     -0.5126050179
C       -1.2200940958     -0.0000012756     0.3050765171
H       -0.0373343321     -0.8721852092     -1.2332198478
H       -0.0373347243     0.8721883883     -1.2332219939
H       -1.3145744569     -1.0090033325     0.6989050356
H       -2.2062647245     0.0000039127     -0.1792362518
H       -1.3145836683     1.0090005185     0.6989043314
11
# Point -3 Energy = 0.030923039999990465
C       1.3025200251     0.0000030924     0.2329274503
C       0.0361744314     0.0000016721     -0.5836307965
H       1.3217239385     -0.7447989728     1.0358291859
H       1.3217147552     0.7448022099     1.0358315784
H       2.1218068827     -0.0000097079     -0.4773570472
C       -1.2316820989     -0.0000010236     0.2928280899
H       -0.0282819793     -0.8729233530     -1.2375446191
H       -0.0282822815     0.8729256143     -1.2375461571
H       -1.3091946354     -0.9831355026     0.7533307208
H       -2.1972977113     0.0000032056     -0.2269535739
H       -1.3092013871     0.9831334315     0.7533301873
11
# Point -2 Energy = 0.013722439999995117
C       1.2908632452     0.0000019911     0.2408467633
C       0.0240948085     0.0000010557     -0.5856341933
H       1.3140052916     -0.7934266919     0.9939456181
H       1.3139991099     0.7934288974     0.9939472812
H       2.1373241425     -0.0000063603     -0.4401033123
C       -1.2434483476     -0.0000007293     0.2811233313
H       -0.0190025898     -0.8734514093     -1.2405995716
H       -0.0190028023     0.8734528387     -1.2406005483
H       -1.3057047131     -0.9530219711     0.8055404100
H       -2.1874191060     0.0000024341     -0.2729608136
H       -1.3057090996     0.9530206108     0.8055400540
11
# Point -1 Energy = 0.003428850000005923
C       1.2790724060     0.0000009598     0.2497471755
C       0.0120387657     0.0000004990     -0.5868169501
H       1.3084986401     -0.8387968403     0.9499256797
H       1.3084955164     0.8387979705     0.9499265425
H       2.1515651002     -0.0000031282     -0.4009509179
C       -1.2553109182     -0.0000003937     0.2699905935
H       -0.0095479510     -0.8737681823     -1.2424226026
H       -0.0095480808     0.8737688595     -1.2424230663
H       -1.3043569531     -0.9188069422     0.8556907194
H       -2.1765475013     0.0000015950     -0.3173126976
H       -1.3043590846     0.9188062690     0.8556905428
11
# Point 0 Energy = 0
C       1.2672042126     0.0000000000     0.2594997522
C       0.0000000000     0.0000000000     -0.5872081259
H       1.3052750505     -0.8806643351     0.9038259677
H       1.3052750505     0.8806643351     0.9038259677
H       2.1646165232     0.0000000000     -0.3599948239
C       -1.2672042126     -0.0000000181     0.2594997522
H       0.0000000000     -0.8738729764     -1.2430302913
H       -0.0000000606     0.8738729764     -1.2430302913
H       -1.3052750505     -0.8806643351     0.9038259677
H       -2.1646165232     0.0000006841     -0.3599948239
H       -1.3052750505     0.8806643351     0.9038259677
11
# Point 1 Energy = 0.003428850000005923
C       1.2553111596     -0.0000008899     0.2699905346
C       -0.0120387678     -0.0000004466     -0.5868163872
H       1.3043554878     -0.9188054116     0.8556940801
H       1.3043586624     0.9188042141     0.8556931564
H       2.1765462378     0.0000030403     -0.3173148468
C       -1.2790725814     0.0000003950     0.2497472101
H       0.0095479786     -0.8737655807     -1.2424271097
H       0.0095479684     0.8737649736     -1.2424266882
H       -1.3084972619     -0.8387948865     0.9499288327
H       -2.1515636918     -0.0000002980     -0.4009527640
H       -1.3084952524     0.8387955561     0.9499290008
11
# Point 2 Energy = 0.013722460000010983
C       1.2434488942     -0.0000017045     0.2811231307
C       -0.0240948192     -0.0000008379     -0.5856330599
H       1.3057017017     -0.9530193605     0.8055473348
H       1.3057081123     0.9530168879     0.8055454421
H       2.1874167262     0.0000059952     -0.2729654261
C       -1.2908635321     0.0000008448     0.2408469371
H       0.0190026980     -0.8734462066     -1.2406085815
H       0.0190027130     0.8734450646     -1.2406077874
H       -1.3140026255     -0.7934223945     0.9939517060
H       -2.1373211847     -0.0000013631     -0.4401067085
H       -1.3139987445     0.7934237406     0.9939520316
11
# Point 3 Energy = 0.030923119999997084
C       1.2316830064     -0.0000024425     0.2928276712
C       -0.0361744648     -0.0000011748     -0.5836290811
H       1.3091900226     -0.9831322848     0.7533414316
H       1.3091997181     0.9831284490     0.7533385324
H       2.1972943610     0.0000088719     -0.2269609831
C       -1.3025203665     0.0000013293     0.2329278767
H       0.0282822105     -0.8729155504     -1.2375581270
H       0.0282822200     0.8729139470     -1.2375570080
H       -1.3217200712     -0.7447919790     1.0358379703
H       -2.1218022405     -0.0000025178     -0.4773617043
H       -1.3217144563     0.7447940182     1.0358384402
11
# Point 4 Energy = 0.05513483000000008
C       1.2200954035     -0.0000031027     0.3050758010
C       -0.0482614625     -0.0000014579     -0.5807468337
H       1.3145682437     -1.0089999953     0.6989198103
H       1.3145812576     1.0089946992     0.6989158740
H       2.2062605415     0.0000116761     -0.1792468304
C       -1.3139746612     0.0000018467     0.2261351825
H       0.0373347072     -0.8721748087     -1.2332378561
H       0.0373346743     0.8721728204     -1.2332364576
H       -1.3315293620     -0.6931698598     1.0755381930
H       -2.1048872596     -0.0000037690     -0.5126106563
H       -1.3315221431     0.6931726170     1.0755387922

    This sampling was finished on:   2020-07-06 18:26:11
=------------------------------------------------------------------------------=
Sampling finished.
=------------------------------------------------------------------------------=