11
# Point -7 Energy = 0.011933250000012663
C       1.2530749838     -0.1886643798     0.2625305979
C       0.0000002775     0.0000040593     -0.5841853581
H       1.7130046401     -1.1542917651     0.0486678620
H       1.0221118734     -0.1634356210     1.3305492972
H       1.9947916990     0.5848031948     0.0607224213
C       -1.2530747950     0.1886612234     0.2625326439
H       -0.0945047349     -0.8688518516     -1.2398640407
H       0.0945052763     0.8688690811     -1.2398522707
H       -1.0221088846     0.1634498113     1.3305508430
H       -1.9947789127     -0.5848208602     0.0607336898
H       -1.7130214835     1.1542777737     0.0486593333
11
# Point -6 Energy = 0.011084259999989854
C       1.2568497790     -0.1616277968     0.2618220973
C       0.0000001980     0.0000034668     -0.5848918417
H       1.6540016360     -1.1729421817     0.1639720712
H       1.0488630933     0.0091855627     1.3209990638
H       2.0392507370     0.5340148062     -0.0432228742
C       -1.2568496093     0.1616250040     0.2618236829
H       -0.0808729515     -0.8701979415     -1.2406093274
H       0.0808732503     0.8702127094     -1.2405992005
H       -1.0488587577     -0.0091738330     1.3210019083
H       -2.0392410454     -0.5340313903     -0.0432143092
H       -1.6540163903     1.1729322602     0.1639637483
11
# Point -5 Energy = 0.009101629999989314
C       1.2600296839     -0.1346229479     0.2611701140
C       0.0000001317     0.0000028819     -0.5855420936
H       1.5942534163     -1.1729298341     0.2862015636
H       1.0808662211     0.1783091083     1.2926315366
H       2.0772143548     0.4687386805     -0.1354232468
C       -1.2600295402     0.1346205521     0.2611712873
H       -0.0672969298     -0.8713289885     -1.2412922804
H       0.0672970414     0.8713412972     -1.2412838146
H       -1.0808612019     -0.1782999366     1.2926351430
H       -2.0772074236     -0.4687535109     -0.1354171731
H       -1.5942658142     1.1729233640     0.2861939829
11
# Point -4 Energy = 0.006496740000002887
C       1.2626211738     -0.1076504782     0.2605995937
C       0.0000000787     0.0000023050     -0.5861111698
H       1.5343851844     -1.1534979279     0.4126292290
H       1.1177287834     0.3411892424     1.2460614196
H       2.1085031331     0.3908712329     -0.2138286508
C       -1.2626210602     0.1076485117     0.2606004078
H       -0.0537712521     -0.8722487687     -1.2418879544
H       0.0537712298     0.8722586220     -1.2418811671
H       -1.1177237087     -0.3411825722     1.2460652426
H       -2.1084985620     -0.3908837230     -0.2138247474
H       -1.5343950608     1.1534942219     0.4126228157
11
# Point -3 Energy = 0.003926610000007713
C       1.2646300924     -0.0807079646     0.2601321126
C       0.0000000391     0.0000017357     -0.5865774957
H       1.4749941141     -1.1142919045     0.5404340105
H       1.1590392540     0.4951974577     1.1823125214
H       2.1329769117     0.3025830154     -0.2766957751
C       -1.2646300104     0.0807064573     0.2601326253
H       -0.0402884897     -0.8729606343     -1.2423747737
H       0.0402883853     0.8729680371     -1.2423696808
H       -1.1590347045     -0.4951930844     1.1823160343
H       -2.1329742472     -0.3025926817     -0.2766936281
H       -1.4750014054     1.1142902324     0.5404290681
11
# Point -2 Energy = 0.00181244000002323
C       1.2660613400     -0.0537903631     0.2597851965
C       0.0000000129     0.0000011732     -0.5869235460
H       1.4166512613     -1.0553696323     0.6667643024
H       1.2043681781     0.6378809835     1.1027948161
H       2.1505306852     0.2062723377     -0.3226268002
C       -1.2660612887     0.0537893416     0.2597854702
H       -0.0268395017     -0.8734673638     -1.2427352128
H       0.0268393650     0.8734723208     -1.2427318285
H       -1.2043646763     -0.6378785646     1.1027975364
H       -2.1505294339     -0.2062788143     -0.3226259217
H       -1.4166560026     1.0553692472     0.6667610066
11
# Point -1 Energy = 0.0004940700000020115
C       1.2669186136     -0.0268905622     0.2595717705
C       0.0000000001     0.0000006166     -0.5871363958
H       1.3599034497     -0.9772020745     0.7888020269
H       1.2532684661     0.7670174361     1.0092728189
H       2.1610915347     0.1045133672     -0.3506004752
C       -1.2669185903     0.0268900489     0.2595718713
H       -0.0134137988     -0.8737710361     -1.2429563470
H       0.0134136781     0.8737735518     -1.2429546837
H       -1.2532664669     -0.7670165057     1.0092743324
H       -2.1610911760     -0.1045164155     -0.3506003240
H       -1.3599057709     0.9772022395     0.7888004246
11
# Point 0 Energy = 0
C       1.2672042126     0.0000000000     0.2594997522
C       0.0000000000     0.0000000000     -0.5872081259
H       1.3052750505     -0.8806643351     0.9038259677
H       1.3052750505     0.8806643351     0.9038259677
H       2.1646165232     0.0000000000     -0.3599948239
C       -1.2672042126     -0.0000000181     0.2594997522
H       0.0000000000     -0.8738729764     -1.2430302913
H       -0.0000000606     0.8738729764     -1.2430302913
H       -1.3052750505     -0.8806643351     0.9038259677
H       -2.1646165232     0.0000006841     -0.3599948239
H       -1.3052750505     0.8806643351     0.9038259677
11
# Point 1 Energy = 0.0004940700000020115
C       1.2669189171     0.0268905290     0.2595718084
C       0.0000000132     -0.0000004854     -0.5871360701
H       1.2532692804     -0.7670175316     1.0092728021
H       1.3599043866     0.9772019914     0.7888020460
H       2.1610914759     -0.1045134895     -0.3506009656
C       -1.2669189353     -0.0268899789     0.2595717791
H       0.0134138945     -0.8737735041     -1.2429542791
H       -0.0134138488     0.8737711455     -1.2429560855
H       -1.3599064461     -0.9772022378     0.7888002811
H       -2.1610912977     0.1045174743     -0.3506005389
H       -1.2532675005     0.7670167531     1.0092742413
11
# Point 2 Energy = 0.00181244000002323
C       1.2660619471     0.0537903595     0.2597852688
C       0.0000000404     -0.0000010340     -0.5869228988
H       1.2043699375     -0.6378811136     1.1027948726
H       1.4166529791     1.0553695127     0.6667642567
H       2.1505305799     -0.2062725243     -0.3226277627
C       -1.2660619783     -0.0537892657     0.2597852804
H       0.0268396619     -0.8734723015     -1.2427310837
H       -0.0268394615     0.8734675070     -1.2427346340
H       -1.4166574298     -1.0553693012     0.6667606390
H       -2.1505296956     0.2062798426     -0.3226263534
H       -1.2043666414     0.6378789845     1.1027974339
11
# Point 3 Energy = 0.003926610000007713
C       1.2646310046     0.0807080087     0.2601322073
C       0.0000000810     -0.0000015836     -0.5865765356
H       1.1590419882     -0.4951976315     1.1823126937
H       1.4749965409     1.1142917117     0.5404338585
H       2.1329767823     -0.3025833050     -0.2766971831
C       -1.2646310432     -0.0807063711     0.2601323331
H       0.0402887578     -0.8729680451     -1.2423685969
H       -0.0402883568     0.8729608131     -1.2423738935
H       -1.4750035025     -1.1142902880     0.5404284145
H       -2.1329746867     0.3025936606     -0.2766942707
H       -1.1590376263     0.4951936961     1.1823159916
11
# Point 4 Energy = 0.006496710000007511
C       1.2626223932     0.1076505861     0.2605996932
C       0.0000001351     -0.0000021358     -0.5861099093
H       1.1177325070     -0.3411894616     1.2460617445
H       1.5343882446     1.1534976204     0.4126289356
H       2.1085030118     -0.3908716583     -0.2138304663
C       -1.2626224338     -0.1076484104     0.2606000060
H       0.0537716713     -0.8722586572     -1.2418797493
H       -0.0537710233     0.8722489844     -1.2418867923
H       -1.5343977423     -1.1534942201     0.4126218225
H       -2.1084992331     0.3908846350     -0.2138255921
H       -1.1177275912     0.3411833837     1.2460653264
11
# Point 5 Energy = 0.009101569999984349
C       1.2600312137     0.1346231324     0.2611701958
C       0.0000002028     -0.0000026926     -0.5855405484
H       1.0808709329     -0.1783093685     1.2926320437
H       1.5942570333     1.1729293673     0.2862011019
H       2.0772142821     -0.4687392666     -0.1354254214
C       -1.2600312520     -0.1346204303     0.2611707670
H       0.0672975438     -0.8713413608     -1.2412820720
H       -0.0672966013     0.8713292422     -1.2412908591
H       -1.5942689954     -1.1729232423     0.2861926069
H       -2.0772083932     0.4687543409     -0.1354182084
H       -1.0808660274     0.1783009442     1.2926354129
11
# Point 6 Energy = 0.01108415999999579
C       1.2568516236     0.1616280671     0.2618221351
C       0.0000002842     -0.0000032553     -0.5848900306
H       1.0488687764     -0.0091858537     1.3209997735
H       1.6540057353     1.1729415094     0.1639714244
H       2.0392507602     -0.5340155683     -0.0432253515
C       -1.2568516564     -0.1616248553     0.2618230336
H       0.0808738035     -0.8702128039     -1.2405971451
H       -0.0808725175     0.8701982334     -1.2406076719
H       -1.6540199920     -1.1729319544     0.1639619585
H       -2.0392423904     0.5340321255     -0.0432155209
H       -1.0488644875     0.0091750214     1.3210024138
11
# Point 7 Energy = 0.011933119999994801
C       1.2530771489     0.1886647406     0.2625305620
C       0.0000003795     -0.0000038253     -0.5841833018
H       1.0221184964     0.1634353132     1.3305502196
H       1.7130091515     1.1542908419     0.0486670249
H       1.9947918699     -0.5848041374     0.0607197032
C       -1.2530771749     -0.1886610404     0.2625318537
H       0.0945058681     -0.8688692111     -1.2398499174
H       -0.0945041881     0.8688521815     -1.2398621776
H       -1.7130254351     -1.1542772192     0.0486571121
H       -1.9947807156     0.5848214904     0.0607323184
H       -1.0221154612     -0.1634484684     1.3305516217

    This sampling was finished on:   2020-07-06 18:26:11
=------------------------------------------------------------------------------=
Sampling finished.
=------------------------------------------------------------------------------=