11
# Point -5 Energy = 0.05282372999998586
C       1.3690934969     0.0000004416     0.0916782927
C       0.0672737648     0.0000001036     -0.5930415939
H       1.1442267391     -0.8192281597     0.7809117245
H       1.1442277314     0.8192283466     0.7809128430
H       2.4214233007     -0.0000000588     -0.1762064241
C       -1.1510582240     -0.0000002439     0.4085472363
H       -0.1806037837     -0.8627141274     -1.2159681669
H       -0.1806052415     0.8627138347     -1.2159683736
H       -1.4195764537     -0.8890482801     0.9787293612
H       -1.7948265469     0.0000004775     -0.4772792108
H       -1.4195748438     0.8890483319     0.9787293306
11
# Point -4 Energy = 0.03398588000000302
C       1.3509973719     0.0000003673     0.1252187735
C       0.0541030608     0.0000000777     -0.5910341630
H       1.1779204487     -0.8364685673     0.8080021172
H       1.1779212781     0.8364687391     0.8080029904
H       2.3828493467     -0.0000000682     -0.2160008284
C       -1.1740787022     -0.0000001946     0.3814226970
H       -0.1463874008     -0.8666820848     -1.2254017641
H       -0.1463885907     0.8666818707     -1.2254019670
H       -1.4017303034     -0.8902248815     0.9681100084
H       -1.8734775679     0.0000005363     -0.4599828353
H       -1.4017290018     0.8902248712     0.9681099902
11
# Point -3 Energy = 0.019225629999994
C       1.3316445524     0.0000002847     0.1590365986
C       0.0407546344     0.0000000542     -0.5894013858
H       1.2112959544     -0.8512553692     0.8341625730
H       1.2112965987     0.8512555099     0.8341632083
H       2.3375313873     -0.0000000638     -0.2548857891
C       -1.1974161635     -0.0000001461     0.3528573468
H       -0.1109386662     -0.8698062449     -1.2329717428
H       -0.1109395793     0.8698061005     -1.2329719242
H       -1.3813973841     -0.8902715021     0.9553576029
H       -1.9504349938     0.0000005874     -0.4396590604
H       -1.3813964009     0.8902714552     0.9553575916
11
# Point -2 Energy = 0.008592430000007312
C       1.3111130454     0.0000001951     0.1928814742
C       0.0272507805     0.0000000335     -0.5881965268
H       1.2439729056     -0.8635261549     0.8590765723
H       1.2439733465     0.8635262532     0.8590769816
H       2.2856945023     -0.0000000488     -0.2922200422
C       -1.2208858477     -0.0000000998     0.3229099141
H       -0.0745198497     -0.8720586652     -1.2385141686
H       -0.0745204803     0.8720585805     -1.2385143095
H       -1.3584802930     -0.8888979253     0.9403878478
H       -2.0251185355     0.0000006295     -0.4162305636
H       -1.3584796346     0.8888978683     0.9403878396
11
# Point -1 Energy = 0.0021571599999958835
C       1.2895573203     0.0000000999     0.2264702859
C       0.0136413938     0.0000000154     -0.5874575717
H       1.2754715334     -0.8732939330     0.8824027109
H       1.2754717576     0.8732939827     0.8824029085
H       2.2278213534     -0.0000000264     -0.3274134630
C       -1.2442438138     -0.0000000569     0.2917194460
H       -0.0374310708     -0.8734184306     -1.2418951184
H       -0.0374314162     0.8734183942     -1.2418951991
H       -1.3330310214     -0.8857942224     0.9231846393
H       -2.0967954056     0.0000006617     -0.3896582529
H       -1.3330306913     0.8857941815     0.9231846335
11
# Point 0 Energy = 0
C       1.2672042126     0.0000000000     0.2594997522
C       0.0000000000     0.0000000000     -0.5872081259
H       1.3052750505     -0.8806643351     0.9038259677
H       1.3052750505     0.8806643351     0.9038259677
H       2.1646165232     0.0000000000     -0.3599948239
C       -1.2672042126     -0.0000000181     0.2594997522
H       0.0000000000     -0.8738729764     -1.2430302913
H       -0.0000000606     0.8738729764     -1.2430302913
H       -1.3052750505     -0.8806643351     0.9038259677
H       -2.1646165232     0.0000006841     -0.3599948239
H       -1.3052750505     0.8806643351     0.9038259677
11
# Point 1 Energy = 0.0021571499999879507
C       1.2442437515     -0.0000001042     0.2917194735
C       -0.0136413908     -0.0000000130     -0.5874576091
H       1.3330310210     -0.8857942214     0.9231847475
H       1.3330307918     0.8857941746     0.9231845603
H       2.0967953372     0.0000000281     -0.3896582757
C       -1.2895572553     0.0000000161     0.2264703155
H       0.0374310733     -0.8734184107     -1.2418952364
H       0.0374312947     0.8734184348     -1.2418951342
H       -1.2754715346     -0.8732939319     0.8824028271
H       -2.2278212854     0.0000006978     -0.3274134906
H       -1.2754718640     0.8732939957     0.8824028411
11
# Point 2 Energy = 0.008592430000007312
C       1.2208857263     -0.0000002112     0.3229099663
C       -0.0272507688     -0.0000000232     -0.5881966018
H       1.3584802837     -0.8888979241     0.9403880556
H       1.3584798290     0.8888978366     0.9403876893
H       2.0251184014     0.0000000549     -0.4162306035
C       -1.3111129131     0.0000000456     0.1928815346
H       0.0745198601     -0.8720586255     -1.2385144055
H       0.0745203578     0.8720586618     -1.2385141805
H       -1.2439729034     -0.8635261527     0.8590768115
H       -2.2856943703     0.0000007027     -0.2922201003
H       -1.2439735631     0.8635263010     0.8590768532
11
# Point 3 Energy = 0.019225619999986066
C       1.1974159856     -0.0000003201     0.3528574207
C       -0.0407546087     -0.0000000302     -0.5894014988
H       1.3813973512     -0.8902715033     0.9553579028
H       1.3813966813     0.8902713831     0.9553573615
H       1.9504347998     0.0000000783     -0.4396591116
C       -1.3316443517     0.0000000707     0.1590366899
H       0.1109386889     -0.8698061857     -1.2329720998
H       0.1109394550     0.8698062229     -1.2329717325
H       -1.2112959359     -0.8512553646     0.8341629384
H       -2.3375311987     0.0000006989     -0.2548858775
H       -1.2112969275     0.8512556160     0.8341630257
11
# Point 4 Energy = 0.033985859999987156
C       1.1740784702     -0.0000004296     0.3814227895
C       -0.0541030167     -0.0000000338     -0.5910343143
H       1.4017302290     -0.8902248897     0.9681103952
H       1.4017293605     0.8902247448     0.9681096792
H       1.8734773215     0.0000000973     -0.4599828928
C       -1.3509971027     0.0000000916     0.1252188949
H       0.1463874398     -0.8666820069     -1.2254022424
H       0.1463884640     0.8666820343     -1.2254017146
H       -1.1779203944     -0.8364685571     0.8080026064
H       -2.3828491110     0.0000006866     -0.2160009437
H       -1.1779217208     0.8364689284     0.8080027613
11
# Point 5 Energy = 0.05282369999999048
C       1.1510579396     -0.0000005382     0.4085473447
C       -0.0672736987     -0.0000000339     -0.5930417836
H       1.4195763188     -0.8890483017     0.9787298319
H       1.4195752747     0.8890481391     0.9787289387
H       1.7948262563     0.0000001117     -0.4772792709
C       -1.3690931603     0.0000001086     0.0916784423
H       0.1806038422     -0.8627140320     -1.2159687670
H       0.1806051121     0.8627140393     -1.2159680629
H       -1.1442266259     -0.8192281374     0.7809123293
H       -2.4214230282     0.0000006656     -0.1762065603
H       -1.1442282913     0.8192286448     0.7809125768

    This sampling was finished on:   2020-07-06 18:26:11
=------------------------------------------------------------------------------=
Sampling finished.
=------------------------------------------------------------------------------=