11
# Point -3 Energy = 0.06925173999999856
C       1.3056181015     0.0000023660     0.2197453678
C       0.0118481000     0.0000022946     -0.5874969171
H       1.3483516224     -0.9427569203     0.9212558426
H       1.3483515774     0.9427525642     0.9212499938
H       2.0334495120     0.0000017465     -0.2957605833
C       -1.2276000703     0.0000022863     0.2977887399
H       0.0000988694     -0.8738487226     -1.2432485839
H       0.0000988659     0.8738467952     -1.2432445678
H       -1.2615164238     -0.8175376666     0.8862080834
H       -2.2971839379     0.0000021896     -0.4216550891
H       -1.2615162772     0.8175337330     0.8862027324
11
# Point -2 Energy = 0.02943585999999243
C       1.2929494178     0.0000015842     0.2331547182
C       0.0078989476     0.0000015295     -0.5873365807
H       1.3340677995     -0.9221787891     0.9154601507
H       1.3340677551     0.9221758955     0.9154562592
H       2.0770144502     0.0000011441     -0.3174606515
C       -1.2409299321     0.0000015120     0.2851931536
H       0.0000650012     -0.8738623235     -1.2431277733
H       0.0000649549     0.8738610373     -1.2431250968
H       -1.2761790595     -0.8386915049     0.8921094504
H       -2.2528404209     0.0000017079     -0.4013844875
H       -1.2761789745     0.8386888729     0.8921058765
11
# Point -1 Energy = 0.007165789999973526
C       1.2801440659     0.0000007954     0.2464071771
C       0.0039495306     0.0000007647     -0.5872403095
H       1.3197091534     -0.9014804685     0.9096516670
H       1.3197091241     0.9014790268     0.9096497250
H       2.1207370428     0.0000005621     -0.3388715485
C       -1.2541321110     0.0000007437     0.2724292314
H       0.0000322241     -0.8738704082     -1.2430550089
H       0.0000321588     0.8738697646     -1.2430536711
H       -1.2907651534     -0.8597345043     0.8979806308
H       -2.2086509782     0.0000012063     -0.3808317150
H       -1.2907651175     0.8597331833     0.8979788405
11
# Point 0 Energy = 0
C       1.2672042126     0.0000000000     0.2594997522
C       0.0000000000     0.0000000000     -0.5872081259
H       1.3052750505     -0.8806643351     0.9038259677
H       1.3052750505     0.8806643351     0.9038259677
H       2.1646165232     0.0000000000     -0.3599948239
C       -1.2672042126     -0.0000000181     0.2594997522
H       0.0000000000     -0.8738729764     -1.2430302913
H       -0.0000000606     0.8738729764     -1.2430302913
H       -1.3052750505     -0.8806643351     0.9038259677
H       -2.1646165232     0.0000006841     -0.3599948239
H       -1.3052750505     0.8806643351     0.9038259677
11
# Point 1 Energy = 0.007165760000006571
C       1.2541320322     -0.0000008020     0.2724295687
C       -0.0039495310     -0.0000007644     -0.5872400382
H       1.2907650710     -0.8597327212     0.8979787293
H       1.2907651136     0.8597341533     0.8979806636
H       2.2086519692     -0.0000005430     -0.3808321605
C       -1.2801439876     -0.0000007732     0.2464075186
H       -0.0000322356     -0.8738700281     -1.2430536213
H       -0.0000322676     0.8738706725     -1.2430549586
H       -1.3197090852     -0.9014786800     0.9096497563
H       -2.1207380319     0.0000001407     -0.3388719929
H       -1.3197091077     0.9014800114     0.9096515538
11
# Point 2 Energy = 0.029435570000018174
C       1.2409297740     -0.0000016101     0.2851938241
C       -0.0078989493     -0.0000015286     -0.5873360381
H       1.2761788804     -0.8386879437     0.8921056560
H       1.2761789788     0.8386907987     0.8921095175
H       2.2528424046     -0.0000010674     -0.4013853797
C       -1.2929492620     -0.0000015213     0.2331554053
H       -0.0000650470     -0.8738615635     -1.2431249979
H       -0.0000650267     0.8738628529     -1.2431276719
H       -1.3340676780     -0.9221752064     0.9154563203
H       -2.0770164265     -0.0000004248     -0.3174615391
H       -1.3340677089     0.9221778801     0.9154599224
11
# Point 3 Energy = 0.06925070000001199
C       1.2275998325     -0.0000024241     0.2977897398
C       -0.0118481038     -0.0000022924     -0.5874961030
H       1.2615161344     -0.8175323320     0.8862024046
H       1.2615163012     0.8175366013     0.8862081862
H       2.2971869159     -0.0000015740     -0.4216564297
C       -1.3056178690     -0.0000022623     0.2197464049
H       -0.0000989724     -0.8738475831     -1.2432444202
H       -0.0000988761     0.8738495180     -1.2432484305
H       -1.3483514626     -0.9427515372     0.9212500832
H       -2.0334524734     -0.0000010129     -0.2957619137
H       -1.3483514873     0.9427555647     0.9212554974

    This sampling was finished on:   2020-07-06 18:26:11
=------------------------------------------------------------------------------=
Sampling finished.
=------------------------------------------------------------------------------=