11
# Point -5 Energy = 0.06642617999997924
C       1.1873167035     -0.0000000438     0.1863903166
C       0.1349988582     0.0000000116     -0.5814903613
H       1.2284777361     -0.8906491225     0.8117417984
H       1.2284777793     0.8906490190     0.8117418168
H       2.0566089319     -0.0000000310     -0.4719682119
C       -1.3578818972     0.0000001652     0.3227928582
H       0.2958818954     -0.8680237338     -1.2252357207
H       0.2958816394     0.8680237671     -1.2252358028
H       -1.3952797838     -0.8697867008     0.9864375999
H       -2.2792021168     0.0000004581     -0.2605670270
H       -1.3952798065     0.8697868769     0.9864377527
11
# Point -4 Energy = 0.04128960999999265
C       1.2023306757     -0.0000000349     0.2017611669
C       0.1079726209     0.0000000108     -0.5835387359
H       1.2426444246     -0.8887220878     0.8308822158
H       1.2426444597     0.8887220063     0.8308822289
H       2.0776488322     -0.0000000259     -0.4485668628
C       -1.3390148150     0.0000001281     0.3109269561
H       0.2371999207     -0.8701156512     -1.2315786327
H       0.2371997037     0.8701156773     -1.2315786951
H       -1.3764033385     -0.8720351531     0.9706784698
H       -2.2558191890     0.0000005022     -0.2795016840
H       -1.3764033555     0.8720352942     0.9706785919
11
# Point -3 Energy = 0.022701210000008132
C       1.2178374220     -0.0000000261     0.2167685260
C       0.0809643645     0.0000000092     -0.5851397047
H       1.2574216070     -0.8867603212     0.8496715055
H       1.2574216337     0.8867602611     0.8496715141
H       2.0989716400     -0.0000000202     -0.4256599931
C       -1.3204868549     0.0000000912     0.2986680634
H       0.1781905495     -0.8717534421     -1.2365609685
H       0.1781903718     0.8717534613     -1.2365610128
H       -1.3579280369     -0.8742469029     0.9545414036
H       -2.2326547087     0.0000005468     -0.2988958095
H       -1.3579280487     0.8742470089     0.9545414950
11
# Point -2 Energy = 0.009925649999985353
C       1.2338276997     -0.0000000174     0.2314003974
C       0.0539695948     0.0000000069     -0.5862874674
H       1.2727976733     -0.8847635947     0.8680979963
H       1.2727976914     0.8847635551     0.8680980013
H       2.1205764612     -0.0000000139     -0.4032585955
C       -1.3023253719     0.0000000545     0.2860115558
H       0.1189316504     -0.8729290812     -1.2401463346
H       0.1189315118     0.8729290938     -1.2401463625
H       -1.3398915668     -0.8764221903     0.9380214863
H       -2.2097238304     0.0000005920     -0.3187672052
H       -1.3398915740     0.8764222612     0.9380215469
11
# Point -1 Energy = 0.002456760000015379
C       1.2502887181     -0.0000000087     0.2456467324
C       0.0269832714     0.0000000038     -0.5869777760
H       1.2887560135     -0.8827316771     0.8861519664
H       1.2887560227     0.8827316577     0.8861519686
H       2.1424599940     -0.0000000072     -0.3813694626
C       -1.2845564431     0.0000000181     0.2729552943
H       0.0595060618     -0.8736367375     -1.2423080728
H       0.0595059623     0.8736367437     -1.2423080859
H       -1.3223296354     -0.8785612549     0.9211162822
H       -2.1870403874     0.0000006377     -0.3391301399
H       -1.3223296386     0.8785612905     0.9211163123
11
# Point 0 Energy = 0
C       1.2672042126     0.0000000000     0.2594997522
C       0.0000000000     0.0000000000     -0.5872081259
H       1.3052750505     -0.8806643351     0.9038259677
H       1.3052750505     0.8806643351     0.9038259677
H       2.1646165232     0.0000000000     -0.3599948239
C       -1.2672042126     -0.0000000181     0.2594997522
H       0.0000000000     -0.8738729764     -1.2430302913
H       -0.0000000606     0.8738729764     -1.2430302913
H       -1.3052750505     -0.8806643351     0.9038259677
H       -2.1646165232     0.0000006841     -0.3599948239
H       -1.3052750505     0.8806643351     0.9038259677
11
# Point 1 Energy = 0.002456760000015379
C       1.2845564569     0.0000000086     0.2729553317
C       -0.0269832717     -0.0000000047     -0.5869778110
H       1.3223297078     -0.8785612897     0.9211163013
H       1.3223296983     0.8785613086     0.9211162999
H       2.1870403966     0.0000000078     -0.3391301318
C       -1.2502887321     -0.0000000540     0.2456467690
H       -0.0595060618     -0.8736367440     -1.2423081194
H       -0.0595060837     0.8736367379     -1.2423081078
H       -1.2887560852     -0.8827317110     0.8861519854
H       -2.1424600034     0.0000007312     -0.3813694542
H       -1.2887560823     0.8827316752     0.8861519556
11
# Point 2 Energy = 0.009925649999985353
C       1.3023253998     0.0000000173     0.2860116313
C       -0.0539695962     -0.0000000101     -0.5862875371
H       1.3398917129     -0.8764222608     0.9380215246
H       1.3398916936     0.8764222981     0.9380215224
H       2.2097238487     0.0000000160     -0.3187671891
C       -1.2338277280     -0.0000000896     0.2314004700
H       -0.1189316502     -0.8729290944     -1.2401464275
H       -0.1189316340     0.8729290823     -1.2401464059
H       -1.2727978159     -0.8847636614     0.8680980340
H       -2.1205764805     0.0000007791     -0.4032585786
H       -1.2727978110     0.8847635897     0.8680979749
11
# Point 3 Energy = 0.02270120000002862
C       1.3204868970     0.0000000259     0.2986681777
C       -0.0809643676     -0.0000000163     -0.5851398088
H       1.3579282581     -0.8742470100     0.9545414611
H       1.3579282288     0.8742470652     0.9545414589
H       2.2326547363     0.0000000246     -0.2988957859
C       -1.2178374651     -0.0000001248     0.2167686335
H       -0.1781905491     -0.8717534622     -1.2365611074
H       -0.1781904951     0.8717534440     -1.2365610775
H       -1.2574218201     -0.8867604200     0.8496715613
H       -2.0989716698     0.0000008276     -0.4256599679
H       -1.2574218140     0.8867603120     0.8496714739
11
# Point 4 Energy = 0.04128956999998934
C       1.3390148720     0.0000000345     0.3109271099
C       -0.1079726262     -0.0000000232     -0.5835388737
H       1.3764036363     -0.8720352978     0.9706785463
H       1.3764035969     0.8720353705     0.9706785446
H       2.2558192263     0.0000000336     -0.2795016535
C       -1.2023307345     -0.0000001596     0.2017613085
H       -0.2371999199     -0.8701156785     -1.2315788169
H       -0.2371998287     0.8701156541     -1.2315787803
H       -1.2426447080     -0.8887222177     0.8308822892
H       -2.0776488731     0.0000008770     -0.4485668295
H       -1.2426447017     0.8887220731     0.8308821743
11
# Point 5 Energy = 0.06642610000001525
C       1.3578819698     0.0000000431     0.3227930519
C       -0.1349988664     -0.0000000310     -0.5814905319
H       1.3952801601     -0.8697868841     0.9864376952
H       1.3952801104     0.8697869739     0.9864376946
H       2.2792021643     0.0000000430     -0.2605669902
C       -1.1873167789     -0.0000001940     0.1863904914
H       -0.2958818941     -0.8680237688     -1.2252359496
H       -0.2958817665     0.8680237380     -1.2252359077
H       -1.2284780901     -0.8906492825     0.8117418887
H       -2.0566089849     0.0000009273     -0.4719681709
H       -1.2284780844     0.8906491012     0.8117417473

    This sampling was finished on:   2020-07-06 18:26:11
=------------------------------------------------------------------------------=
Sampling finished.
=------------------------------------------------------------------------------=