11
# Point -10 Energy = 0.060589400000012006
C       1.5283237950     -0.0000007672     0.2674848089
C       -0.0000002015     0.0000032022     -0.0567854495
H       1.9519116075     -0.8852518771     0.7417516122
H       1.9519188510     0.8852466144     0.7417520647
H       1.8744817163     -0.0000044553     -0.7718828585
C       -1.5283242277     0.0000013154     0.2674842641
H       0.0000012355     -0.8238639746     -0.7801929747
H       -0.0000003918     0.8238752313     -0.7801874772
H       -1.9519112980     -0.8852455698     0.7417595725
H       -1.8744827953     -0.0000120720     -0.7718828145
H       -1.9519183514     0.8852530188     0.7417442708
11
# Point -9 Energy = 0.04971095999999875
C       1.5116003444     -0.0000007383     0.2669842394
C       -0.0000001841     0.0000032180     -0.1125375663
H       1.9037343933     -0.8854539577     0.7676271645
H       1.9037414458     0.8854491180     0.7676275568
H       1.9219543694     -0.0000043875     -0.7482098049
C       -1.5116007576     0.0000011541     0.2669837500
H       0.0000011212     -0.8309256061     -0.8272400737
H       -0.0000003749     0.8309361404     -0.8272353350
H       -1.9037338304     -0.8854481611     0.7676343043
H       -1.9219553424     -0.0000110996     -0.7482097240
H       -1.9037412453     0.8854549858     0.7676205077
11
# Point -8 Energy = 0.0398760800000133
C       1.4927499041     -0.0000007001     0.2663141786
C       -0.0000001659     0.0000031366     -0.1681360984
H       1.8515264271     -0.8855292742     0.7916456635
H       1.8515331529     0.8855249144     0.7916460322
H       1.9661329775     -0.0000042422     -0.7205076207
C       -1.4927502920     0.0000009972     0.2663137454
H       0.0000010041     -0.8375206054     -0.8745095599
H       -0.0000003561     0.8375302971     -0.8745055301
H       -1.8515256715     -0.8855240152     0.7916519775
H       -1.9661338408     -0.0000100636     -0.7205075115
H       -1.8515331999     0.8855302214     0.7916397424
11
# Point -7 Energy = 0.031070079999977906
C       1.4717693274     -0.0000006521     0.2655098296
C       -0.0000001470     0.0000029659     -0.2234182026
H       1.7953780443     -0.8854701805     0.8136800283
H       1.7953843116     0.8854663434     0.8136803972
H       2.0066933292     -0.0000040147     -0.6887778836
C       -1.4717696844     0.0000008452     0.2655094530
H       0.0000008843     -0.8436514121     -0.9218623062
H       -0.0000003347     0.8436601513     -0.9218589359
H       -1.7953771582     -0.8854654860     0.8136855149
H       -2.0066940802     -0.0000089602     -0.6887777551
H       -1.7953845529     0.8854710658     0.8136748792
11
# Point -6 Energy = 0.023300400000010768
C       1.4486655934     -0.0000005942     0.2646089068
C       -0.0000001273     0.0000027145     -0.2782162614
H       1.7354068526     -0.8852690027     0.8336112420
H       1.7354125347     0.8852657176     0.8336116221
H       2.0433188867     -0.0000037016     -0.6530493211
C       -1.4486659140     0.0000006987     0.2646085869
H       0.0000007622     -0.8493210711     -0.9691530612
H       -0.0000003098     0.8493287591     -0.9691503021
H       -1.7354058994     -0.8852648994     0.8336159036
H       -2.0433195241     -0.0000077871     -0.6530491825
H       -1.7354129156     0.8852698321     0.8336068857
11
# Point -5 Energy = 0.016600149999987934
C       1.4234562029     -0.0000005256     0.2636512763
C       -0.0000001070     0.0000023909     -0.3323592354
H       1.6717578808     -0.8849181123     0.8513301719
H       1.6717628583     0.8849153960     0.8513305612
H       2.0757044328     -0.0000033009     -0.6133791391
C       -1.4234564818     0.0000005584     0.2636510128
H       0.0000006379     -0.8545331192     -1.0162317261
H       -0.0000002810     0.8545396693     -1.0162295316
H       -1.6717569249     -0.8849146270     0.8513340149
H       -2.0757049563     -0.0000065432     -0.6133789999
H       -1.6717633224     0.8849188795     0.8513266140
11
# Point -4 Energy = 0.010981280000009974
C       1.3961694808     -0.0000004458     0.2626785280
C       -0.0000000863     0.0000020041     -0.3856741038
H       1.6046033226     -0.8844100053     0.8667393367
H       1.6046074844     0.8844078626     0.8667397209
H       2.1035598178     -0.0000028119     -0.5698540297
C       -1.3961697127     0.0000004253     0.2626783203
H       0.0000005120     -0.8592914681     -1.0629447339
H       -0.0000002476     0.8592968060     -1.0629430591
H       -1.6046024288     -0.8844071646     0.8667423718
H       -2.1035602285     -0.0000052289     -0.5698538996
H       -1.6046079742     0.8844106926     0.8667365673
11
# Point -3 Energy = 0.006441799999976183
C       1.3668447888     -0.0000003540     0.2617334861
C       -0.0000000651     0.0000015630     -0.4379873689
H       1.5341418663     -0.8837373844     0.8797545783
H       1.5341451111     0.8837358093     0.8797549313
H       2.1266137596     -0.0000022352     -0.5225908159
C       -1.3668449690     0.0000003001     0.2617333331
H       0.0000003848     -0.8636002891     -1.1091365059
H       -0.0000002091     0.8636043531     -1.1091353081
H       -1.5341410998     -0.8837352148     0.8797568206
H       -2.1266140602     -0.0000038456     -0.5225907044
H       -1.5341455681     0.8837379636     0.8797525727
11
# Point -2 Energy = 0.003015009999984386
C       1.3355326544     -0.0000002497     0.2608596684
C       -0.0000000436     0.0000010763     -0.4891266064
H       1.4605976174     -0.8828932440     0.8903065961
H       1.4605998549     0.8828922208     0.8903068808
H       2.1446176455     -0.0000015724     -0.4717366961
C       -1.3355327784     0.0000001838     0.2608595685
H       0.0000002568     -0.8674639032     -1.1546509608
H       -0.0000001651     0.8674666446     -1.1546501994
H       -1.4605970429     -0.8828917718     0.8903080651
H       -2.1446178400     -0.0000023962     -0.4717366127
H       -1.4606002195     0.8828936777     0.8903053154
11
# Point -1 Energy = 0.0008008900000078256
C       1.3022948191     -0.0000001319     0.2601007082
C       -0.0000000219     0.0000005525     -0.5389220405
H       1.3842186266     -0.8818709532     0.8983423032
H       1.3842197784     0.8818704574     0.8983424731
H       2.1573492806     -0.0000008261     -0.4174690563
C       -1.3022948829     0.0000000774     0.2601006594
H       0.0000001283     -0.8708866841     -1.1993330495
H       -0.0000001156     0.8708880668     -1.1993326866
H       -1.3842183082     -0.8818702043     0.8983430233
H       -2.1573493743     -0.0000008846     -0.4174690103
H       -1.3842199907     0.8818711961     0.8983416952
11
# Point 0 Energy = 0
C       1.2672042126     0.0000000000     0.2594997522
C       0.0000000000     0.0000000000     -0.5872081259
H       1.3052750505     -0.8806643351     0.9038259677
H       1.3052750505     0.8806643351     0.9038259677
H       2.1646165232     0.0000000000     -0.3599948239
C       -1.2672042126     -0.0000000181     0.2594997522
H       0.0000000000     -0.8738729764     -1.2430302913
H       -0.0000000606     0.8738729764     -1.2430302913
H       -1.3052750505     -0.8806643351     0.9038259677
H       -2.1646165232     0.0000006841     -0.3599948239
H       -1.3052750505     0.8806643351     0.9038259677
11
# Point 1 Energy = 0.000942590000008181
C       1.2303405433     0.0000001458     0.2590996704
C       0.0000000220     -0.0000005782     -0.6338302407
H       1.2240437890     -0.8792686092     0.9067396583
H       1.2240425817     0.8792690621     0.9067394303
H       2.1662606560     0.0000009054     -0.2995414489
C       -1.2303404763     -0.0000000985     0.2590997164
H       -0.0000001214     -0.8764269334     -1.2855995527
H       -0.0000000065     0.8764255334     -1.2855998772
H       -1.2240441650     -0.8792693775     0.9067389734
H       -2.1662605704     0.0000023066     -0.2995415031
H       -1.2240423129     0.8792683095     0.9067401927
11
# Point 2 Energy = 0.004078700000007984
C       1.1917934782     0.0000003070     0.2589421318
C       0.0000000440     -0.0000011709     -0.6786399968
H       1.1408183169     -0.8776794106     0.9070826104
H       1.1408158600     0.8776802726     0.9070820869
H       2.1621569452     0.0000018824     -0.2363613883
C       -1.1917933415     -0.0000001660     0.2589422208
H       -0.0000002417     -0.8785521662     -1.3269026983
H       0.0000000526     0.8785493642     -1.3269033156
H       -1.1408191268     -0.8776809706     0.9070812788
H       -2.1621567835     0.0000039744     -0.2363615042
H       -1.1408152640     0.8776787496     0.9070835934
11
# Point 3 Energy = 0.0100830300000041
C       1.1516672231     0.0000004843     0.2590659953
C       0.0000000661     -0.0000017712     -0.7214920835
H       1.0559200687     -0.8758920376     0.9048729061
H       1.0559163329     0.8758932603     0.9048720157
H       2.1522187834     0.0000029254     -0.1707390693
C       -1.1516670146     -0.0000002194     0.2590661238
H       -0.0000003602     -0.8802520277     -1.3668029743
H       0.0000001161     0.8802478324     -1.3668038552
H       -1.0559213671     -0.8758944114     0.9048709704
H       -2.1522185562     0.0000056802     -0.1707392535
H       -1.0559153527     0.8758909505     0.9048742435
11
# Point 4 Energy = 0.01996537999997372
C       1.1100763717     0.0000006780     0.2595073399
C       0.0000000882     -0.0000023728     -0.7622513966
H       0.9696828945     -0.8739024472     0.9001479761
H       0.9696778633     0.8739039786     0.9001466452
H       2.1364014542     0.0000040285     -0.1029814628
C       -1.1100760899     -0.0000002577     0.2595075041
H       -0.0000004758     -0.8815297144     -1.4051718993
H       0.0000001831     0.8815241443     -1.4051730171
H       -0.9696847324     -0.8739056549     0.9001454835
H       -2.1364011735     0.0000074159     -0.1029817208
H       -0.9696764442     0.8739008677     0.9001495667
11
# Point 5 Energy = 0.035449059999976384
C       1.0671454790     0.0000008884     0.2602989460
C       0.0000001102     -0.0000029698     -0.8007944774
H       0.8824499370     -0.8717072856     0.8929643755
H       0.8824436059     0.8717090706     0.8929625300
H       2.1147042344     0.0000051853     -0.0334151237
C       -1.0671451229     -0.0000002797     0.2602991420
H       -0.0000005875     -0.8823883310     -1.4418905367
H       0.0000002527     0.8823814132     -1.4418918669
H       -0.8824523606     -0.8717113452     0.8929613775
H       -2.1147039129     0.0000091731     -0.0334154600
H       -0.8824416959     0.8717051468     0.8929661126
11
# Point 6 Energy = 0.059420339999988414
C       1.0230085180     0.0000011156     0.2614698363
C       0.0000001322     -0.0000035571     -0.8370108825
H       0.7945703588     -0.8693039043     0.8833972405
H       0.7945627349     0.8693058850     0.8833948075
H       2.0871719450     0.0000063892     0.0376172049
C       -1.0230080874     -0.0000002842     0.2614700600
H       -0.0000006942     -0.8828309956     -1.4768506605
H       0.0000003235     0.8828227653     -1.4768521811
H       -0.7945734094     -0.8693088306     0.8833937927
H       -2.0871715965     0.0000109433     0.0376167872
H       -0.7945602858     0.8693011396     0.8833990138

    This sampling was finished on:   2020-07-06 18:26:11
=------------------------------------------------------------------------------=
Sampling finished.
=------------------------------------------------------------------------------=