11
# Point -3 Energy = 0.08054175999998847
C       1.2754566008     0.0000000289     0.2806274769
C       0.0000008150     0.0000001414     -0.5742703384
H       1.3033352831     -0.7720373639     0.8410032481
H       1.3033353789     0.7720375111     0.8410032761
H       2.0737189980     -0.0000000165     -0.2795363811
C       -1.2754546529     0.0000003003     0.2806260834
H       0.0000010107     -0.8693196477     -1.2254419206
H       0.0000010396     0.8693195787     -1.2254417242
H       -1.3033345107     -0.7720478419     0.8410099710
H       -2.0737256273     0.0000008948     -0.2795437548
H       -1.3033343959     0.7720470809     0.8410090825
11
# Point -2 Energy = 0.032765049999994744
C       1.2727082587     0.0000000199     0.2736436819
C       0.0000005510     0.0000000945     -0.5785211419
H       1.3038152704     -0.8083211008     0.8619183240
H       1.3038153371     0.8083212005     0.8619183419
H       2.1039176376     -0.0000000116     -0.3064567321
C       -1.2727069445     0.0000001940     0.2736427526
H       0.0000006824     -0.8708383306     -1.2312418752
H       0.0000006813     0.8708382851     -1.2312417443
H       -1.3038147823     -0.8083280740     0.8619228190
H       -2.1039220508     0.0000008235     -0.3064616349
H       -1.3038147017     0.8083275656     0.8619222279
11
# Point -1 Energy = 0.007519579999978987
C       1.2699574616     0.0000000102     0.2666010028
C       0.0000002794     0.0000000474     -0.5828338417
H       1.3044620177     -0.8445301841     0.8828593723
H       1.3044620525     0.8445302347     0.8828593809
H       2.1342171528     -0.0000000061     -0.3332762365
C       -1.2699567967     0.0000000879     0.2666005381
H       0.0000003455     -0.8723561071     -1.2371047694
H       0.0000003145     0.8723560846     -1.2371047040
H       -1.3044617870     -0.8445336647     0.8828616263
H       -2.1342193561     0.0000007532     -0.3332786814
H       -1.3044617448     0.8445334099     0.8828613314
11
# Point 0 Energy = 0
C       1.2672042126     0.0000000000     0.2594997522
C       0.0000000000     0.0000000000     -0.5872081259
H       1.3052750505     -0.8806643351     0.9038259677
H       1.3052750505     0.8806643351     0.9038259677
H       2.1646165232     0.0000000000     -0.3599948239
C       -1.2672042126     -0.0000000181     0.2594997522
H       0.0000000000     -0.8738729764     -1.2430302913
H       -0.0000000606     0.8738729764     -1.2430302913
H       -1.3052750505     -0.8806643351     0.9038259677
H       -2.1646165232     0.0000006841     -0.3599948239
H       -1.3052750505     0.8806643351     0.9038259677
11
# Point 1 Energy = 0.00639203000001487
C       1.2644485149     -0.0000000109     0.2523402385
C       -0.0000002869     -0.0000000477     -0.5916436869
H       1.3062539046     -0.9167232760     0.9248176881
H       1.3062538671     0.9167232239     0.9248176803
H       2.1951147435     0.0000000066     -0.3866124199
C       -1.2644491955     -0.0000001239     0.2523407031
H       -0.0000003539     -0.8753889377     -1.2490181333
H       -0.0000004440     0.8753889597     -1.2490181986
H       -1.3062541087     -0.9167198076     0.9248154210
H       -2.1951125467     0.0000006161     -0.3866099883
H       -1.3062541549     0.9167200635     0.9248157147
11
# Point 2 Energy = 0.023634180000001948
C       1.2616903717     -0.0000000224     0.2451227685
C       -0.0000005814     -0.0000000956     -0.5961402185
H       1.3073981228     -0.9527067320     0.9458341143
H       1.3073980450     0.9527066261     0.9458340994
H       2.2257108176     0.0000000137     -0.4131289516
C       -1.2616917484     -0.0000002295     0.2451236974
H       -0.0000007162     -0.8769039901     -1.2550679892
H       -0.0000008354     0.8769040337     -1.2550681199
H       -1.3073985047     -0.9526998073     0.9458295672
H       -2.2257064308     0.0000005492     -0.4131241019
H       -1.3073986010     0.9527003201     0.9458301533
11
# Point 3 Energy = 0.04929382999999632
C       1.2589297861     -0.0000000345     0.2378476498
C       -0.0000008833     -0.0000001439     -0.6006974138
H       1.3087072510     -0.9886144334     0.9668748295
H       1.3087071303     0.9886142723     0.9668748081
H       2.2564037525     0.0000000213     -0.4395443537
C       -1.2589318745     -0.0000003348     0.2378490425
H       -0.0000010866     -0.8784181329     -1.2611795521
H       -0.0000012347     0.8784181974     -1.2611797480
H       -1.3087077844     -0.9886040648     0.9668679894
H       -2.2563971824     0.0000004836     -0.4395370995
H       -1.3087079345     0.9886048357     0.9668688667
11
# Point 4 Energy = 0.08142607000000623
C       1.2561667611     -0.0000000473     0.2305151890
C       -0.0000011926     -0.0000001924     -0.6053149669
H       1.3101808415     -1.0244461139     0.9879394195
H       1.3101806753     1.0244458960     0.9879393924
H       2.2871925640     0.0000000294     -0.4658585626
C       -1.2561695770     -0.0000004400     0.2305170446
H       -0.0000014651     -0.8799313652     -1.2673525161
H       -0.0000016419     0.8799314501     -1.2673527773
H       -1.3101815003     -1.0244323137     0.9879302734
H       -2.2871838175     0.0000004191     -0.4658489177
H       -1.3101817081     1.0244333439     0.9879314407

    This sampling was finished on:   2020-07-02 18:49:52
=------------------------------------------------------------------------------=
Sampling finished.
=------------------------------------------------------------------------------=