11
# Point -3 Energy = 0.08054175999998847
C       1.2754566008     0.0000000289     0.2806274769
C       0.0000008150     0.0000001415     -0.5742703384
H       1.3033352831     -0.7720373638     0.8410032479
H       1.3033353789     0.7720375112     0.8410032763
H       2.0737189980     -0.0000000165     -0.2795363811
C       -1.2754546529     0.0000003002     0.2806260834
H       0.0000010107     -0.8693196481     -1.2254419210
H       0.0000010396     0.8693195783     -1.2254417238
H       -1.3033345107     -0.7720478417     0.8410099708
H       -2.0737256273     0.0000008948     -0.2795437548
H       -1.3033343959     0.7720470810     0.8410090827
11
# Point -2 Energy = 0.032765049999994744
C       1.2727082587     0.0000000199     0.2736436819
C       0.0000005510     0.0000000946     -0.5785211419
H       1.3038152704     -0.8083211007     0.8619183239
H       1.3038153372     0.8083212005     0.8619183420
H       2.1039176376     -0.0000000116     -0.3064567321
C       -1.2727069445     0.0000001940     0.2736427526
H       0.0000006824     -0.8708383308     -1.2312418754
H       0.0000006813     0.8708382848     -1.2312417441
H       -1.3038147823     -0.8083280739     0.8619228189
H       -2.1039220508     0.0000008235     -0.3064616349
H       -1.3038147018     0.8083275657     0.8619222281
11
# Point -1 Energy = 0.007519579999978987
C       1.2699574616     0.0000000102     0.2666010028
C       0.0000002794     0.0000000475     -0.5828338417
H       1.3044620177     -0.8445301840     0.8828593723
H       1.3044620525     0.8445302347     0.8828593809
H       2.1342171528     -0.0000000061     -0.3332762365
C       -1.2699567967     0.0000000879     0.2666005381
H       0.0000003455     -0.8723561072     -1.2371047695
H       0.0000003145     0.8723560844     -1.2371047038
H       -1.3044617870     -0.8445336646     0.8828616263
H       -2.1342193561     0.0000007532     -0.3332786814
H       -1.3044617448     0.8445334100     0.8828613315
11
# Point 0 Energy = 0
C       1.2672042126     0.0000000000     0.2594997522
C       0.0000000000     0.0000000000     -0.5872081259
H       1.3052750505     -0.8806643351     0.9038259677
H       1.3052750505     0.8806643351     0.9038259677
H       2.1646165232     0.0000000000     -0.3599948239
C       -1.2672042126     -0.0000000181     0.2594997522
H       0.0000000000     -0.8738729764     -1.2430302913
H       -0.0000000606     0.8738729764     -1.2430302913
H       -1.3052750505     -0.8806643351     0.9038259677
H       -2.1646165232     0.0000006841     -0.3599948239
H       -1.3052750505     0.8806643351     0.9038259677
11
# Point 1 Energy = 0.00639203000001487
C       1.2644485149     -0.0000000109     0.2523402385
C       -0.0000002869     -0.0000000477     -0.5916436869
H       1.3062539046     -0.9167232761     0.9248176882
H       1.3062538671     0.9167232238     0.9248176802
H       2.1951147435     0.0000000066     -0.3866124199
C       -1.2644491955     -0.0000001239     0.2523407031
H       -0.0000003539     -0.8753889376     -1.2490181331
H       -0.0000004440     0.8753889598     -1.2490181987
H       -1.3062541088     -0.9167198077     0.9248154211
H       -2.1951125467     0.0000006161     -0.3866099883
H       -1.3062541549     0.9167200634     0.9248157147
11
# Point 2 Energy = 0.023634180000001948
C       1.2616903717     -0.0000000224     0.2451227685
C       -0.0000005814     -0.0000000957     -0.5961402185
H       1.3073981229     -0.9527067320     0.9458341144
H       1.3073980450     0.9527066260     0.9458340993
H       2.2257108176     0.0000000137     -0.4131289516
C       -1.2616917484     -0.0000002294     0.2451236974
H       -0.0000007162     -0.8769039899     -1.2550679890
H       -0.0000008354     0.8769040339     -1.2550681201
H       -1.3073985047     -0.9526998074     0.9458295673
H       -2.2257064308     0.0000005492     -0.4131241019
H       -1.3073986010     0.9527003200     0.9458301532
11
# Point 3 Energy = 0.04929382999999632
C       1.2589297861     -0.0000000345     0.2378476498
C       -0.0000008833     -0.0000001440     -0.6006974138
H       1.3087072510     -0.9886144335     0.9668748297
H       1.3087071303     0.9886142721     0.9668748080
H       2.2564037525     0.0000000213     -0.4395443537
C       -1.2589318745     -0.0000003348     0.2378490425
H       -0.0000010866     -0.8784181325     -1.2611795517
H       -0.0000012347     0.8784181978     -1.2611797484
H       -1.3087077844     -0.9886040649     0.9668679896
H       -2.2563971824     0.0000004836     -0.4395370995
H       -1.3087079345     0.9886048355     0.9668688665
11
# Point 4 Energy = 0.08142607000000623
C       1.2561667611     -0.0000000473     0.2305151890
C       -0.0000011926     -0.0000001926     -0.6053149669
H       1.3101808415     -1.0244461141     0.9879394197
H       1.3101806753     1.0244458958     0.9879393922
H       2.2871925640     0.0000000294     -0.4658585626
C       -1.2561695770     -0.0000004399     0.2305170446
H       -0.0000014651     -0.8799313647     -1.2673525156
H       -0.0000016419     0.8799314506     -1.2673527778
H       -1.3101815004     -1.0244323139     0.9879302736
H       -2.2871838175     0.0000004191     -0.4658489177
H       -1.3101817081     1.0244333436     0.9879314404

    This sampling was finished on:   2020-07-06 18:26:11
=------------------------------------------------------------------------------=
Sampling finished.
=------------------------------------------------------------------------------=