11
# Point -4 Energy = 0.05279043999999544
C       1.3862868088     -0.0000002147     0.2923221025
C       0.0226787797     0.0000003773     -0.5731725388
H       1.1396267790     -0.9078868869     0.8365191245
H       1.1396273442     0.9078865894     0.8365192011
H       2.1033315853     0.0000000208     -0.5206212225
C       -1.1541597816     0.0000004685     0.2444821126
H       0.1842560398     -0.8636996076     -1.2225351612
H       0.1842555191     0.8637002044     -1.2225354585
H       -1.4216451059     -0.8145950080     0.9286145799
H       -2.1626146770     -0.0000012021     -0.1871627603
H       -1.4216433520     0.8145959249     0.9286150394
11
# Point -3 Energy = 0.029542419999984304
C       1.3555118762     -0.0000001471     0.2815869618
C       0.0159156461     0.0000002865     -0.5792201857
H       1.1850755532     -0.9066626359     0.8585540695
H       1.1850759840     0.9066624150     0.8585541099
H       2.1267943567     0.0000000079     -0.4823951075
C       -1.1823695949     0.0000003673     0.2474415854
H       0.1374727528     -0.8681070828     -1.2314242609
H       0.1374723633     0.8681075221     -1.2314244801
H       -1.3966581291     -0.8337135209     0.9252352507
H       -2.1676340382     -0.0000007151     -0.2310985143
H       -1.3966568309     0.8337141690     0.9252355902
11
# Point -2 Energy = 0.013037610000012023
C       1.3253459857     -0.0000000892     0.2725976025
C       0.0099240654     0.0000001922     -0.5836776960
H       1.2284715627     -0.9010790196     0.8770629662
H       1.2284718545     0.9010788734     0.8770629832
H       2.1443400386     0.0000000019     -0.4424649570
C       -1.2106304388     0.0000002513     0.2507616563
H       0.0911118827     -0.8712965454     -1.2379003066
H       0.0911116132     0.8712968315     -1.2379004501
H       -1.3691405676     -0.8512009507     0.9200808079
H       -2.1698663407     -0.0000002358     -0.2746586164
H       -1.3691397163     0.8512013565     0.9200810288
11
# Point -1 Energy = 0.0032425300000085144
C       1.2959530215     -0.0000000403     0.2653525955
C       0.0047351600     0.0000000962     -0.5863339062
H       1.2685939946     -0.8921836273     0.8920097260
H       1.2685941423     0.8921835545     0.8920097302
H       2.1566293730     -0.0000000000     -0.4016014109
C       -1.2388505085     0.0000001221     0.2547119885
H       0.0453668642     -0.8732268829     -1.2417577377
H       0.0453667039     0.8732270221     -1.2417578080
H       -1.3387309526     -0.8669166807     0.9130384797
H       -2.1689273242     0.0000002317     -0.3176652243
H       -1.3387305348     0.8669168706     0.9130385862
11
# Point 0 Energy = 0
C       1.2672042126     0.0000000000     0.2594997522
C       0.0000000000     0.0000000000     -0.5872081259
H       1.3052750505     -0.8806643351     0.9038259677
H       1.3052750505     0.8806643351     0.9038259677
H       2.1646165232     0.0000000000     -0.3599948239
C       -1.2672042126     -0.0000000181     0.2594997522
H       0.0000000000     -0.8738729764     -1.2430302913
H       -0.0000000606     0.8738729764     -1.2430302913
H       -1.3052750505     -0.8806643351     0.9038259677
H       -2.1646165232     0.0000006841     -0.3599948239
H       -1.3052750505     0.8806643351     0.9038259677
11
# Point 1 Energy = 0.0032425300000085144
C       1.2388506359     0.0000000321     0.2547123365
C       -0.0047351961     -0.0000000965     -0.5863336474
H       1.3387301587     -0.8669172078     0.9130383639
H       1.3387300061     0.8669172810     0.9130383669
H       2.1689270929     0.0000000027     -0.3176654894
C       -1.2959532062     -0.0000001694     0.2653529655
H       -0.0453669019     -0.8732269821     -1.2417576039
H       -0.0453668723     0.8732268503     -1.2417575345
H       -1.2685931475     -0.8921840765     0.8920095152
H       -2.1566290897     0.0000011209     -0.4016016708
H       -1.2685935405     0.8921839112     0.8920094168
11
# Point 2 Energy = 0.013037639999978978
C       1.2106306338     0.0000000565     0.2507623459
C       -0.0099242130     -0.0000001914     -0.5836771620
H       1.3691390138     -0.8512020721     0.9200806544
H       1.3691387100     0.8512022200     0.9200806655
H       2.1698659000     0.0000000044     -0.2746591536
C       -1.3253464141     -0.0000003280     0.2725983848
H       -0.0911120388     -0.8712967438     -1.2379000191
H       -0.0911119269     0.8712964879     -1.2378998850
H       -1.2284697879     -0.9010798198     0.8770624191
H       -2.1443393769     0.0000015384     -0.4424654717
H       -1.2284705606     0.9010795138     0.8770622407
11
# Point 3 Energy = 0.02954253000000051
C       1.1823697989     0.0000000730     0.2474426191
C       -0.0159159817     -0.0000002853     -0.5792193489
H       1.3966558385     -0.8337152968     0.9252351220
H       1.3966553874     0.8337155218     0.9252351432
H       2.1676333953     0.0000000034     -0.2310993336
C       -1.3555126051     -0.0000004923     0.2815882150
H       -0.1374731110     -0.8681073813     -1.2314237851
H       -0.1374729224     0.8681070055     -1.2314235926
H       -1.1850727680     -0.9066636478     0.8585530316
H       -2.1267931700     0.0000019386     -0.4823958559
H       -1.1850739225     0.9066632271     0.8585528038
11
# Point 4 Energy = 0.0527906499999915
C       1.1541599665     0.0000000812     0.2444834860
C       -0.0226793433     -0.0000003817     -0.5731713875
H       1.4216421185     -0.8145974941     0.9286145166
H       1.4216415234     0.8145977996     0.9286145465
H       2.1626138649     -0.0000000006     -0.1871638777
C       -1.3862878637     -0.0000006636     0.2923238632
H       -0.1842566446     -0.8637000099     -1.2225344759
H       -0.1842563826     0.8636995108     -1.2225342319
H       -1.1396230014     -0.9078879076     0.8365174611
H       -2.1033297344     0.0000023305     -0.5206221096
H       -1.1396245638     0.9078874014     0.8365172281

    This sampling was finished on:   2020-07-06 18:26:11
=------------------------------------------------------------------------------=
Sampling finished.
=------------------------------------------------------------------------------=