11
# Point -5 Energy = 0.07070201999999881
C       1.1310408428     -0.0000002103     0.2670059332
C       -0.0000000088     0.0000000066     -0.4260001056
H       1.2977803913     -0.8916492733     0.8719411232
H       1.2977796512     0.8916494126     0.8719405276
H       1.8605507620     0.0000001626     -0.5420084071
C       -1.1310407149     0.0000002527     0.2670060094
H       -0.0000010354     -0.8714689800     -1.0853563149
H       0.0000003616     0.8714688278     -1.0853565340
H       -1.2977796369     -0.8916495967     0.8719401988
H       -1.8605503215     0.0000007000     -0.5420086228
H       -1.2977803522     0.8916493641     0.8719412110
11
# Point -4 Energy = 0.04216258999997535
C       1.1590879337     -0.0000001687     0.2653221409
C       -0.0000000062     0.0000000052     -0.4574653366
H       1.3010924290     -0.8899213010     0.8796015174
H       1.3010918383     0.8899214099     0.8796010276
H       1.9254380689     0.0000001315     -0.5091989290
C       -1.1590878273     0.0000002000     0.2653222042
H       -0.0000008215     -0.8719849858     -1.1160703405
H       0.0000002739     0.8719848639     -1.1160705160
H       -1.3010918297     -0.8899215605     0.8796007682
H       -1.9254377247     0.0000006969     -0.5091991095
H       -1.3010923950     0.8899213746     0.8796015923
11
# Point -3 Energy = 0.0221421399999997
C       1.1867335020     -0.0000001266     0.2637066923
C       -0.0000000041     0.0000000039     -0.4893464790
H       1.3034623740     -0.8879706926     0.8866225983
H       1.3034619331     0.8879707726     0.8866222210
H       1.9883966922     0.0000000998     -0.4745332005
C       -1.1867334192     0.0000001463     0.2637067414
H       -0.0000006109     -0.8724833731     -1.1472223841
H       0.0000001878     0.8724832816     -1.1472225160
H       -1.3034619288     -0.8879708881     0.8866220291
H       -1.9883964405     0.0000006936     -0.4745333415
H       -1.3034623463     0.8879707487     0.8866226579
11
# Point -2 Energy = 0.009204319999980726
C       1.2139718201     -0.0000000843     0.2621821279
C       -0.0000000023     0.0000000025     -0.5216162528
H       1.3049241582     -0.8857852387     0.8930003568
H       1.3049238663     0.8857852909     0.8930000987
H       2.0493163370     0.0000000674     -0.4380665707
C       -1.2139717629     0.0000000919     0.2621821616
H       -0.0000004037     -0.8729641572     -1.1787852589
H       0.0000001033     0.8729640962     -1.1787853469
H       -1.3049238649     -0.8857853698     0.8929999725
H       -2.0493161738     0.0000006903     -0.4380666681
H       -1.3049241381     0.8857852767     0.8930003988
11
# Point -1 Energy = 0.0021549299999747973
C       1.2407972433     -0.0000000420     0.2607718045
C       -0.0000000009     0.0000000013     -0.5542464595
H       1.3055150396     -0.8833533707     0.8987339709
H       1.3055148949     0.8833533964     0.8987338385
H       2.1080902745     0.0000000341     -0.3998629596
C       -1.2407972136     0.0000000370     0.2607718219
H       -0.0000002000     -0.8734273534     -1.2107308565
H       0.0000000205     0.8734273229     -1.2107309006
H       -1.3055148950     -0.8833534368     0.8987337763
H       -2.1080901953     0.0000006872     -0.3998630099
H       -1.3055150286     0.8833533901     0.8987339929
11
# Point 0 Energy = 0
C       1.2672042126     0.0000000000     0.2594997522
C       0.0000000000     0.0000000000     -0.5872081259
H       1.3052750505     -0.8806643351     0.9038259677
H       1.3052750505     0.8806643351     0.9038259677
H       2.1646165232     0.0000000000     -0.3599948239
C       -1.2672042126     -0.0000000181     0.2594997522
H       0.0000000000     -0.8738729764     -1.2430302913
H       -0.0000000606     0.8738729764     -1.2430302913
H       -1.3052750505     -0.8806643351     0.9038259677
H       -2.1646165232     0.0000006841     -0.3599948239
H       -1.3052750505     0.8806643351     0.9038259677
11
# Point 1 Energy = 0.001902860000001283
C       1.2931872216     0.0000000412     0.2583903754
C       0.0000000005     -0.0000000012     -0.6204718576
H       1.3042379445     -0.8777095034     0.9082807286
H       1.3042380851     0.8777094779     0.9082808671
H       2.2188013343     -0.0000000350     -0.3185393348
C       -1.2931872533     -0.0000000730     0.2583903573
H       0.0000001964     -0.8743010388     -1.2756542557
H       -0.0000001402     0.8743010694     -1.2756542114
H       -1.3042380836     -0.8777094357     0.9082809274
H       -2.2188014086     0.0000006812     -0.3185392818
H       -1.3042379574     0.8777094832     0.9082807045
11
# Point 2 Energy = 0.007160269999999969
C       1.3187408491     0.0000000817     0.2574686101
C       0.0000000005     -0.0000000024     -0.6540076343
H       1.3024390843     -0.8744809902     0.9121053316
H       1.3024393611     0.8744809395     0.9121056151
H       2.2705575757     -0.0000000707     -0.2755805302
C       -1.3187409146     -0.0000001276     0.2574685732
H       0.0000003890     -0.8747115520     -1.3085728144
H       -0.0000002181     0.8747116134     -1.3085727258
H       -1.3024393565     -0.8744808530     0.9121057338
H       -2.2705577190     0.0000006782     -0.2755804219
H       -1.3024391121     0.8744809492     0.9121052817
11
# Point 3 Energy = 0.015184359999992125
C       1.3438598004     0.0000001211     0.2567598364
C       0.0000000001     -0.0000000036     -0.6877848448
H       1.2999234315     -0.8709707267     0.9153114257
H       1.2999238393     0.8709706504     0.9153118601
H       2.3198035704     -0.0000001071     -0.2312129243
C       -1.3438599015     -0.0000001816     0.2567597802
H       0.0000005775     -0.8751045287     -1.3417554361
H       -0.0000002943     0.8751046209     -1.3417553030
H       -1.2999238301     -0.8709705177     0.9153120353
H       -2.3198037774     0.0000006751     -0.2312127589
H       -1.2999234765     0.8709706640     0.9153113482
11
# Point 4 Energy = 0.02548477999999932
C       1.3685388762     0.0000001592     0.2562894856
C       -0.0000000009     -0.0000000047     -0.7217727300
H       1.2967364858     -0.8671718643     0.9179138487
H       1.2967370186     0.8671717617     0.9179144395
H       2.3664665785     -0.0000001440     -0.1855376849
C       -1.3685390150     -0.0000002349     0.2562894098
H       0.0000007620     -0.8754799812     -1.3751714390
H       -0.0000003688     0.8754801042     -1.3751712613
H       -1.2967370030     -0.8671715807     0.9179146693
H       -2.3664668435     0.0000006716     -0.1855374610
H       -1.2967365504     0.8671717790     0.9179137421
11
# Point 5 Energy = 0.0376492199999916
C       1.3927729758     0.0000001957     0.2560828766
C       -0.0000000024     -0.0000000058     -0.7559405499
H       1.2929236481     -0.8630788189     0.9199303740
H       1.2929242991     0.8630786890     0.9199311263
H       2.4104836648     -0.0000001812     -0.1386617133
C       -1.3927731542     -0.0000002871     0.2560827810
H       0.0000009422     -0.8758379211     -1.4087901569
H       -0.0000004416     0.8758380750     -1.4087899345
H       -1.2929242755     -0.8630784574     0.9199314086
H       -2.4104839820     0.0000006676     -0.1386614301
H       -1.2929237349     0.8630787102     0.9199302372
11
# Point 6 Energy = 0.05133007000000589
C       1.4165570995     0.0000002303     0.2561650549
C       -0.0000000044     -0.0000000068     -0.7902577448
H       1.2885296535     -0.8586872815     0.9213813887
H       1.2885304152     0.8586871227     0.9213823070
H       2.4518023948     -0.0000002187     -0.0906965973
C       -1.4165573192     -0.0000003379     0.2561649395
H       0.0000011180     -0.8761783601     -1.4425811010
H       -0.0000005126     0.8761785450     -1.4425808339
H       -1.2885303817     -0.8586868382     0.9213826396
H       -2.4518027586     0.0000006627     -0.0906962544
H       -1.2885297652     0.8586871486     0.9213812205

    This sampling was finished on:   2020-07-06 18:26:11
=------------------------------------------------------------------------------=
Sampling finished.
=------------------------------------------------------------------------------=