11
# Point -4 Energy = 0.05562186000000224
C       1.2671512577     -0.0722177853     0.2540131112
C       0.0000005752     -0.0717551040     -0.5927756117
H       1.1062234419     -0.8916273571     0.9482947316
H       1.5055146926     0.8238980207     0.8415698122
H       2.1370947501     0.2325754466     -0.3285857558
C       -1.2671498608     -0.0722179892     0.2540138443
H       0.0000001484     -0.9303620178     -1.2712087873
H       -0.0000002950     0.8168590897     -1.2255519938
H       -1.1062219744     -0.8916306464     0.9482914802
H       -2.1370952142     0.2325788859     -0.3285810121
H       -1.5055175821     0.8239001230     0.8415652000
11
# Point -3 Energy = 0.031163660000004256
C       1.2671746133     -0.0544533858     0.2563610256
C       0.0000004384     -0.0538814620     -0.5903922594
H       1.1561475679     -0.8935264352     0.9391379532
H       1.4552592251     0.8421518293     0.8584891353
H       2.1492854883     0.1752216998     -0.3421804358
C       -1.2671735284     -0.0544535980     0.2563616103
H       0.0000001445     -0.9161750396     -1.2634423844
H       -0.0000002740     0.8312679230     -1.2287338979
H       -1.1561464000     -0.8935288653     0.9391355435
H       -2.1492859363     0.1752244022     -0.3421769657
H       -1.4552613993     0.8421535976     0.8584856943
11
# Point -2 Energy = 0.013822770000004425
C       1.2671912240     -0.0364439491     0.2580892569
C       0.0000002957     -0.0359572468     -0.5886387938
H       1.2058562397     -0.8922444484     0.9286121264
H       1.4051300421     0.8577179118     0.8745778817
H       2.1578449529     0.1172051842     -0.3520337540
C       -1.2671904791     -0.0364441189     0.2580896687
H       0.0000001234     -0.9020613388     -1.2560816954
H       -0.0000002342     0.8455483037     -1.2327243114
H       -1.2058554114     -0.8922460315     0.9286105453
H       -2.1578453163     0.1172071607     -0.3520315058
H       -1.4051314975     0.8577192390     0.8745756004
11
# Point -1 Energy = 0.0034552099999984875
C       1.2672010900     -0.0182651591     0.2591448412
C       0.0000001490     -0.0179904597     -0.5875681043
H       1.2555317575     -0.8879191034     0.9168150026
H       1.3551350233     0.8705724416     0.8897209518
H       2.1629291421     0.0587224752     -0.3579989493
C       -1.2672007083     -0.0182652387     0.2591450574
H       0.0000000870     -0.8879718891     -1.2492467575
H       -0.0000001755     0.8597404905     -1.2375032076
H       -1.2555313084     -0.8879198475     0.9168142342
H       -2.1629293551     0.0587237437     -0.3579978608
H       -1.3551357622     0.8705732125     0.8897198113
11
# Point 0 Energy = 0
C       1.2672042126     0.0000000000     0.2594997522
C       0.0000000000     0.0000000000     -0.5872081259
H       1.3052750505     -0.8806643351     0.9038259677
H       1.3052750505     0.8806643351     0.9038259677
H       2.1646165232     0.0000000000     -0.3599948239
C       -1.2672042126     -0.0000000181     0.2594997522
H       0.0000000000     -0.8738729764     -1.2430302913
H       -0.0000000606     0.8738729764     -1.2430302913
H       -1.3052750505     -0.8806643351     0.9038259677
H       -2.1646165232     0.0000006841     -0.3599948239
H       -1.3052750505     0.8806643351     0.9038259677
11
# Point 1 Energy = 0.0034551800000031108
C       1.2672005938     0.0182650760     0.2591456596
C       -0.0000001500     0.0179905757     -0.5875671499
H       1.3551354314     -0.8705739546     0.8897195559
H       1.2555323500     0.8879205597     0.9168137352
H       2.1629298493     -0.0587225747     -0.3579965245
C       -1.2672009895     0.0182653091     0.2591454252
H       -0.0000000252     -0.8597385603     -1.2375048248
H       -0.0000000010     0.8879700670     -1.2492484707
H       -1.3551358610     -0.8705730273     0.8897203541
H       -2.1629295759     -0.0587226443     -0.3579975332
H       -1.2555316825     0.8879198398     0.9168147922
11
# Point 2 Energy = 0.013822719999993183
C       1.2671902354     0.0364437465     0.2580908906
C       -0.0000003004     0.0359573249     -0.5886368855
H       1.4051309318     -0.8577207693     0.8745750955
H       1.2058573343     0.8922475445     0.9286096043
H       2.1578463719     -0.1172052799     -0.3520289205
C       -1.2671910376     0.0364441962     0.2580904066
H       -0.0000000989     -0.8455445691     -1.2327276524
H       0.0000001132     0.9020575700     -1.2560850160
H       -1.4051318614     -0.8577190003     0.8745766431
H       -2.1578457657     -0.1172059713     -0.3520308510
H       -1.2058559832     0.8922458737     0.9286117041
11
# Point 3 Energy = 0.031163610000007225
C       1.2671731390     0.0544529840     0.2563634684
C       -0.0000004514     0.0538814767     -0.5903893983
H       1.4552605693     -0.8421559492     0.8584849323
H       1.1561491603     0.8935312846     0.9391342411
H       2.1492876309     -0.1752217851     -0.3421732238
C       -1.2671743570     0.0544536865     0.2563627229
H       -0.0000001847     -0.8312624318     -1.2287390018
H       0.0000002426     0.9161692787     -1.2634472753
H       -1.4552620420     -0.8421533267     0.8584872048
H       -2.1492866303     -0.1752230655     -0.3421759859
H       -1.1561471374     0.8935285139     0.9391373346
11
# Point 4 Energy = 0.055621809999991
C       1.2671493057     0.0722171038     0.2540163525
C       -0.0000006056     0.0717550287     -0.5927718005
H       1.5055164503     -0.8239033314     0.8415641752
H       1.1062255336     0.8916340822     0.9482899066
H       2.1370976422     -0.2325755087     -0.3285762078
C       -1.2671509507     0.0722180929     0.2540153383
H       -0.0000002852     -0.8168518888     -1.2255588992
H       0.0000003826     0.9303542211     -1.2712152145
H       -1.5055185153     -0.8238998363     0.8415671483
H       -2.1370961771     -0.2325773491     -0.3285797115
H       -1.1062228411     0.8916300517     0.9482939315

    This sampling was finished on:   2020-07-06 18:26:11
=------------------------------------------------------------------------------=
Sampling finished.
=------------------------------------------------------------------------------=