11
# Point -3 Energy = 0.06489239999999086
C       1.2446915680     0.0000000274     0.2443821315
C       -0.0187913432     0.0000001221     -0.5873549194
H       1.2980363916     -0.9889592351     0.9730217036
H       1.2980365009     0.9889593648     0.9730217121
H       2.2371751565     -0.0000000230     -0.4398211636
C       -1.2895713371     0.0000002766     0.2744138459
H       -0.0240928970     -0.8738744017     -1.2431573305
H       -0.0240928766     0.8738743756     -1.2431571883
H       -1.3147170819     -0.7717259739     0.8349917641
H       -2.0919571609     0.0000008683     -0.2802864795
H       -1.3147169809     0.7717252649     0.8349909430
11
# Point -2 Energy = 0.028185519999979647
C       1.2522124194     0.0000000182     0.2494413863
C       -0.0125289479     0.0000000814     -0.5872731157
H       1.3002062911     -0.9529317783     0.9499158169
H       1.3002063617     0.9529318648     0.9499158228
H       2.2129986438     -0.0000000147     -0.4132024826
C       -1.2821314637     0.0000001787     0.2694682326
H       -0.0160647699     -0.8738739735     -1.2430868032
H       -0.0160647765     0.8738739556     -1.2430867089
H       -1.3113232362     -0.8081087955     0.8578957258
H       -2.1161874186     0.0000008063     -0.3068380345
H       -1.3113231638     0.8081083230     0.8578951794
11
# Point -1 Energy = 0.006951600000007829
C       1.2597165660     0.0000000091     0.2544811420
C       -0.0062648914     0.0000000407     -0.5872242021
H       1.3026187660     -0.9168333977     0.9268505531
H       1.3026188002     0.9168334409     0.9268505561
H       2.1888125799     -0.0000000070     -0.3865928401
C       -1.2746758502     0.0000000804     0.2644962776
H       -0.0080332382     -0.8738734984     -1.2430444790
H       -0.0080332717     0.8738734893     -1.2430444322
H       -1.3081761792     -0.8444216656     0.8808404665
H       -2.1404072017     0.0000007449     -0.3334082167
H       -1.3081761404     0.8444214294     0.8808401937
11
# Point 0 Energy = 0
C       1.2672042126     0.0000000000     0.2594997522
C       0.0000000000     0.0000000000     -0.5872081259
H       1.3052750505     -0.8806643351     0.9038259677
H       1.3052750505     0.8806643351     0.9038259677
H       2.1646165232     0.0000000000     -0.3599948239
C       -1.2672042126     -0.0000000181     0.2594997522
H       0.0000000000     -0.8738729764     -1.2430302913
H       -0.0000000606     0.8738729764     -1.2430302913
H       -1.3052750505     -0.8806643351     0.9038259677
H       -2.1646165232     0.0000006841     -0.3599948239
H       -1.3052750505     0.8806643351     0.9038259677
11
# Point 1 Energy = 0.006951439999994591
C       1.2746755926     -0.0000000090     0.2644955254
C       0.0062649003     -0.0000000408     -0.5872248695
H       1.3081762549     -0.8444248366     0.8808421016
H       1.3081762232     0.8444247934     0.8808420982
H       2.1404101715     0.0000000063     -0.3334109048
C       -1.2597162911     -0.0000001169     0.2544803898
H       0.0080332450     -0.8738724075     -1.2430442177
H       0.0080331574     0.8738724171     -1.2430442640
H       -1.3026188643     -0.9168365559     0.9268522011
H       -2.1888155420     0.0000006240     -0.3865955140
H       -1.3026189082     0.9168367920     0.9268524729
11
# Point 2 Energy = 0.02818425000000957
C       1.2821309661     -0.0000000180     0.2694667285
C       0.0125289837     -0.0000000816     -0.5872744503
H       1.3113233651     -0.8081151503     0.8578989830
H       1.3113233042     0.8081150640     0.8578989758
H       2.1161933658     0.0000000118     -0.3068434250
C       -1.2522118520     -0.0000002159     0.2494398819
H       0.0160647972     -0.8738717918     -1.2430862803
H       0.0160646826     0.8738718113     -1.2430863725
H       -1.3002065102     -0.9529380820     0.9499191256
H       -2.2130045602     0.0000005646     -0.4132078161
H       -1.3002066029     0.9529385539     0.9499196685
11
# Point 3 Energy = 0.0648880099999758
C       1.2895706168     -0.0000000270     0.2744115903
C       0.0187914237     -0.0000001225     -0.5873569208
H       1.3147172414     -0.7717355250     0.8349966300
H       1.3147171538     0.7717353957     0.8349966185
H       2.0919660928     0.0000000165     -0.2802945866
C       -1.2446906908     -0.0000003151     0.2443798753
H       0.0240929585     -0.8738711292     -1.2431565458
H       0.0240928168     0.8738711590     -1.2431566833
H       -1.2980367540     -0.9889686712     0.9730266854
H       -2.2371840190     0.0000005059     -0.4398291427
H       -1.2980369007     0.9889693788     0.9730274986

    This sampling was finished on:   2020-07-06 18:26:11
=------------------------------------------------------------------------------=
Sampling finished.
=------------------------------------------------------------------------------=