11
# Point -3 Energy = 0.0848045899999903
C       1.2787336993     0.0000013345     0.2102926520
C       -0.0000001235     0.0000014782     -0.6245979586
H       1.3092881604     -0.9426992100     0.9121729254
H       1.3092883049     0.9426970457     0.9121698868
H       2.0182370870     0.0000009736     -0.2936727598
C       -1.2787345034     0.0000015875     0.2102918345
H       -0.0000000498     -0.8482382688     -1.2581431770
H       -0.0000000247     0.8482368371     -1.2581404042
H       -1.3092890847     -0.9427008719     0.9121737419
H       -2.0182344282     0.0000018406     -0.2936714850
H       -1.3092890980     0.9426979195     0.9121697630
11
# Point -2 Energy = 0.03391753000001074
C       1.2748999385     0.0000008934     0.2267050791
C       -0.0000000824     0.0000009886     -0.6121451582
H       1.3081215879     -0.9221336087     0.9092716491
H       1.3081216676     0.9221321719     0.9092696266
H       2.0671919863     0.0000006357     -0.3155547118
C       -1.2749004747     0.0000010555     0.2267045384
H       -0.0000000330     -0.8567975463     -1.2530978633
H       -0.0000000360     0.8567965979     -1.2530960149
H       -1.3081222063     -0.9221347225     0.9092721908
H       -2.0671902116     0.0000014427     -0.3155538605
H       -1.3081221967     0.9221327577     0.9092695437
11
# Point -1 Energy = 0.007715249999989737
C       1.2710567310     0.0000004486     0.2431074388
C       -0.0000000412     0.0000004959     -0.5996819029
H       1.3067841296     -0.9014546653     0.9064893637
H       1.3067841612     0.9014539499     0.9064883542
H       2.1159853665     0.0000003112     -0.3376621370
C       -1.2710569991     0.0000005203     0.2431071705
H       -0.0000000164     -0.8653424951     -1.2480602139
H       -0.0000000480     0.8653420240     -1.2480592896
H       -1.3067844400     -0.9014552251     0.9064896332
H       -2.1159844782     0.0000010572     -0.3376617105
H       -1.3067844259     0.9014542445     0.9064883125
11
# Point 0 Energy = 0
C       1.2672042126     0.0000000000     0.2594997522
C       0.0000000000     0.0000000000     -0.5872081259
H       1.3052750505     -0.8806643351     0.9038259677
H       1.3052750505     0.8806643351     0.9038259677
H       2.1646165232     0.0000000000     -0.3599948239
C       -1.2672042126     -0.0000000181     0.2594997522
H       0.0000000000     -0.8738729764     -1.2430302913
H       -0.0000000606     0.8738729764     -1.2430302913
H       -1.3052750505     -0.8806643351     0.9038259677
H       -2.1646165232     0.0000006841     -0.3599948239
H       -1.3052750505     0.8806643351     0.9038259677
11
# Point 1 Energy = 0.006618939999995632
C       1.2633425148     -0.0000004523     0.2758820351
C       0.0000000412     -0.0000004992     -0.5747237738
H       1.3035938142     -0.8597645411     0.9012813772
H       1.3035937990     0.8597652509     0.9012823830
H       2.2130847427     -0.0000002979     -0.3825525690
C       -1.2633422467     -0.0000005596     0.2758822993
H       0.0000000162     -0.8823888498     -1.2380081732
H       -0.0000000740     0.8823893143     -1.2380090978
H       -1.3035935013     -0.8597639757     0.9012811103
H       -2.2130856331     0.0000003234     -0.3825529972
H       -1.3035935336     0.8597649531     0.9012824251
11
# Point 2 Energy = 0.024878369999981942
C       1.2594717695     -0.0000009082     0.2922542943
C       0.0000000823     -0.0000010018     -0.5622288030
H       1.3017399323     -0.8387571950     0.8988555010
H       1.3017399184     0.8387586091     0.8988575088
H       2.2613893400     -0.0000005828     -0.4053351319
C       -1.2594712334     -0.0000011041     0.2922548188
H       0.0000000320     -0.8908899742     -1.2329939462
H       -0.0000000882     0.8908908962     -1.2329957962
H       -1.3017393037     -0.8387560587     0.8988549701
H       -2.2613911228     -0.0000000250     -0.4053359902
H       -1.3017393870     0.8387580105     0.8988575935
11
# Point 3 Energy = 0.05317617000001462
C       1.2555921136     -0.0000013675     0.3086165201
C       0.0000001232     -0.0000015076     -0.5497231801
H       1.2997128371     -0.8176442161     0.8965482155
H       1.2997128410     0.8176463292     0.8965512212
H       2.3095297112     -0.0000008547     -0.4283421766
C       -1.2555913096     -0.0000016515     0.3086173009
H       0.0000000474     -0.8993762093     -1.2279877055
H       -0.0000001033     0.8993775817     -1.2279904819
H       -1.2997118900     -0.8176425036     0.8965474232
H       -2.3095323885     -0.0000003613     -0.4283434669
H       -1.2997120427     0.8176454268     0.8965513490

    This sampling was finished on:   2020-07-06 18:26:11
=------------------------------------------------------------------------------=
Sampling finished.
=------------------------------------------------------------------------------=