11
# Point -7 Energy = 0.011931239999995569
C       1.2531001858     -0.1884970078     0.2625304001
C       0.0000003003     0.0000042938     -0.5841855103
H       1.7126705983     -1.1544176323     0.0492656057
H       1.0222761165     -0.1624669760     1.3305689935
H       1.9950561476     0.5845800514     0.0601062789
C       -1.2531000147     0.1884937508     0.2625324918
H       -0.0945150767     -0.8688495444     -1.2398654357
H       0.0945156902     0.8688675485     -1.2398532818
H       -1.0222728851     0.1624817695     1.3305705731
H       -1.9950427289     -0.5845986096     0.0601181375
H       -1.7126883940     1.1544030220     0.0492567659
11
# Point -6 Energy = 0.011076410000015358
C       1.2568682615     -0.1614840705     0.2618218084
C       0.0000002154     0.0000036692     -0.5848921001
H       1.6537106482     -1.1729649490     0.1645232814
H       1.0490275277     0.0100066825     1.3209257949
H       2.0394465820     0.5337498646     -0.0436995026
C       -1.2568681035     0.1614811941     0.2618234291
H       -0.0808819815     -0.8701961869     -1.2406105214
H       0.0808823347     0.8702116214     -1.2406000660
H       -1.0490228984     -0.0099944556     1.3209287304
H       -2.0394364094     -0.5337672934     -0.0436904831
H       -1.6537262373     1.1729545898     0.1645146479
11
# Point -5 Energy = 0.0090917999999931
C       1.2600424964     -0.1345030057     0.2611698241
C       0.0000001444     0.0000030516     -0.5855423652
H       1.5940093444     -1.1728741820     0.2866827581
H       1.0810213955     0.1789748238     1.2924969326
H       2.0773512144     0.4684634945     -0.1357687015
C       -1.2600423597     0.1345005418     0.2611710233
H       -0.0673045820     -0.8713277161     -1.2412932237
H       0.0673047325     0.8713405821     -1.2412844846
H       -1.0810160628     -0.1789652649     1.2925006650
H       -2.0773439388     -0.4684790870     -0.1357622996
H       -1.5940224449     1.1728674279     0.2866748903
11
# Point -4 Energy = 0.006487999999990279
C       1.2626293601     -0.1075544222     0.2605993589
C       0.0000000874     0.0000024413     -0.5861113957
H       1.5341903964     -1.1533919884     0.4130228525
H       1.1178661625     0.3416985037     1.2458974827
H       2.1085911466     0.3906141029     -0.2140574863
C       -1.2626292499     0.1075524022     0.2606001912
H       -0.0537774630     -0.8722479056     -1.2418886312
H       0.0537774669     0.8722582060     -1.2418816254
H       -1.1178607853     -0.3416915535     1.2459014444
H       -2.1085863488     -0.3906272418     -0.2140533662
H       -1.5342008334     1.1533881214     0.4130161940
11
# Point -3 Energy = 0.003920869999987531
C       1.2646346900     -0.0806358675     0.2601319576
C       0.0000000445     0.0000018382     -0.5865776483
H       1.4748496032     -1.1141660597     0.5407289734
H       1.1591512475     0.4955559123     1.1821502630
H       2.1330265963     0.3023679406     -0.2768279425
C       -1.2646346087     0.0806343206     0.2601324822
H       -0.0402932031     -0.8729601054     -1.2423751998
H       0.0402931144     0.8729678441     -1.2423699430
H       -1.1591464353     -0.4955513569     1.1821539058
H       -2.1330238007     -0.3023781169     -0.2768256708
H       -1.4748573087     1.1141643168     0.5407238411
11
# Point -2 Energy = 0.0018096399999905088
C       1.2660633799     -0.0537422739     0.2597851195
C       0.0000000158     0.0000012417     -0.5869236242
H       1.4165567508     -1.0552552402     0.6669562753
H       1.2044481586     0.6381006053     1.1026629510
H       2.1505528223     0.2061181323     -0.3226866482
C       -1.2660633280     0.0537412261     0.2597854000
H       -0.0268426716     -0.8734670912     -1.2427354303
H       0.0268425427     0.8734722725     -1.2427319367
H       -1.2044444599     -0.6380980873     1.1026657732
H       -2.1505515106     -0.2061249601     -0.3226857133
H       -1.4165617606     1.0552548408     0.6669528526
11
# Point -1 Energy = 0.0004933500000134927
C       1.2669191221     -0.0268665106     0.2595717494
C       0.0000000012     0.0000006508     -0.5871364190
H       1.3598574804     -0.9771301675     0.7888934820
H       1.2533107836     0.7671159298     1.0091965615
H       2.1610970780     0.1044329697     -0.3506156026
C       -1.2669190979     0.0268659841     0.2595718530
H       -0.0134153925     -0.8737709402     -1.2429564182
H       0.0134152744     0.8737735681     -1.2429547002
H       -1.2533086763     -0.7671149623     1.0091981323
H       -2.1610967030     -0.1044361971     -0.3506154371
H       -1.3598599305     0.9771303412     0.7888918179
11
# Point 0 Energy = 0
C       1.2672042126     0.0000000000     0.2594997522
C       0.0000000000     0.0000000000     -0.5872081259
H       1.3052750505     -0.8806643351     0.9038259677
H       1.3052750505     0.8806643351     0.9038259677
H       2.1646165232     0.0000000000     -0.3599948239
C       -1.2672042126     -0.0000000181     0.2594997522
H       0.0000000000     -0.8738729764     -1.2430302913
H       -0.0000000606     0.8738729764     -1.2430302913
H       -1.3052750505     -0.8806643351     0.9038259677
H       -2.1646165232     0.0000006841     -0.3599948239
H       -1.3052750505     0.8806643351     0.9038259677
11
# Point 1 Energy = 0.0004933500000134927
C       1.2669194304     0.0268664778     0.2595717903
C       0.0000000129     -0.0000005195     -0.5871360831
H       1.2533116179     -0.7671160269     1.0091965455
H       1.3598584361     0.9771300851     0.7888935006
H       2.1610970146     -0.1044330924     -0.3506161037
C       -1.2669194505     -0.0268659141     0.2595717594
H       0.0134154895     -0.8737735185     -1.2429542872
H       -0.0134154438     0.8737710479     -1.2429561484
H       -1.3598606186     -0.9771303397     0.7888916702
H       -2.1610968244     0.1044372559     -0.3506156627
H       -1.2533097246     0.7671152105     1.0091980381
11
# Point 2 Energy = 0.0018096399999905088
C       1.2660639967     0.0537422717     0.2597851977
C       0.0000000406     -0.0000011020     -0.5869229570
H       1.2044499590     -0.6381007394     1.1026630105
H       1.4165585046     1.0552551209     0.6669562275
H       2.1505527081     -0.2061183204     -0.3226876321
C       -1.2660640328     -0.0537411499     0.2597852075
H       0.0268428370     -0.8734722491     -1.2427311751
H       -0.0268426340     0.8734672309     -1.2427348353
H       -1.4165632116     -1.0552548945     0.6669524756
H       -2.1505517724     0.2061259888     -0.3226861661
H       -1.2044464558     0.6380985091     1.1026656656
11
# Point 3 Energy = 0.003920859999979598
C       1.2646356166     0.0806359148     0.2601320606
C       0.0000000824     -0.0000016851     -0.5865766584
H       1.1591540442     -0.4955560928     1.1821504418
H       1.4748520817     1.1141658656     0.5407288168
H       2.1330264543     -0.3023682337     -0.2768293821
C       -1.2646356641     -0.0806342339     0.2601321859
H       0.0402934827     -0.8729678459     -1.2423688340
H       -0.0402930740     0.8729602789     -1.2423742958
H       -1.4748594380     -1.1141643710     0.5407231718
H       -2.1330242413     0.3023790968     -0.2768263445
H       -1.1591494050     0.4955519723     1.1821538569
11
# Point 4 Energy = 0.0064879699999949025
C       1.2626305990     0.1075545356     0.2605994686
C       0.0000001384     -0.0000022703     -0.5861100959
H       1.1178699702     -0.3416987329     1.2458978189
H       1.5341935221     1.1533916767     0.4130225511
H       2.1085910097     -0.3906145345     -0.2140593426
C       -1.2626306534     -0.1075523002     0.2605997838
H       0.0537779026     -0.8722582328     -1.2418801743
H       -0.0537772393     0.8722481146     -1.2418874384
H       -1.5342035533     -1.1533881165     0.4130151778
H       -2.1085870233     0.3906281556     -0.2140542516
H       -1.1178647332     0.3416923708     1.2459015216
11
# Point 5 Energy = 0.009091739999988135
C       1.2600440508     0.1345031985     0.2611699175
C       0.0000002087     -0.0000028595     -0.5855407718
H       1.0810262127     -0.1789750971     1.2924974570
H       1.5940130389     1.1728737067     0.2866822846
H       2.0773511243     -0.4684640900     -0.1357709253
C       -1.2600441086     -0.1345004189     0.2611704956
H       0.0673052272     -0.8713406349     -1.2412827007
H       -0.0673042596     0.8713279615     -1.2412917651
H       -1.5940256684     -1.1728673008     0.2866734829
H       -2.0773449157     0.4684799198     -0.1357633843
H       -1.0810209710     0.1789662807     1.2925009285
11
# Point 6 Energy = 0.01107629999999915
C       1.2568701358     0.1614843524     0.2618218582
C       0.0000002935     -0.0000034540     -0.5848902322
H       1.0490333371     -0.0100069897     1.3209265289
H       1.6537148350     1.1729642627     0.1645226188
H       2.0394465871     -0.5337506396     -0.0437020363
C       -1.2568701948     -0.1614810437     0.2618227703
H       0.0808828781     -0.8702117029     -1.2405979619
H       -0.0808815548     0.8701964690     -1.2406088226
H       -1.6537298832     -1.1729542756     0.1645128176
H       -2.0394377672     0.5337680327     -0.0436917520
H       -1.0490287273     0.0099956547     1.3209292302
11
# Point 7 Energy = 0.011931109999991918
C       1.2531023860     0.1884973835     0.2625303759
C       0.0000003928     -0.0000040551     -0.5841833892
H       1.0222828854     0.1624666493     1.3305699481
H       1.7126752057     1.1544166882     0.0492647487
H       1.9950563011     -0.5845810107     0.0601034983
C       -1.2531024455     -0.1884935654     0.2625316902
H       0.0945162698     -0.8688676634     -1.2398508726
H       -0.0945145382     0.8688498629     -1.2398635240
H       -1.7126923900     -1.1544024553     0.0492544944
H       -1.9950445518     0.5845992453     0.0601167022
H       -1.0222795759     -0.1624804133     1.3305713469

    This sampling was finished on:   2020-07-02 18:49:52
=------------------------------------------------------------------------------=
Sampling finished.
=------------------------------------------------------------------------------=