11
# Point -3 Energy = 0.06900561999998445
C       1.2669622237     0.0067751156     0.2590526304
C       0.0000000092     -0.0420057801     -0.5866116013
H       1.3066443170     -0.9267125503     0.9617069408
H       1.3035630119     0.8333014256     0.8464919674
H       2.1643498508     -0.0110335465     -0.3602216959
C       -1.2669622362     0.0067746690     0.2590525827
H       0.0000001228     -0.7546009513     -1.1146378844
H       -0.0000002010     0.9919448936     -1.3717652336
H       -1.3066440592     -0.9267116735     0.9617061102
H       -2.1643498174     -0.0110335211     -0.3602217473
H       -1.3035632822     0.8333025850     0.8464929498
11
# Point -2 Energy = 0.029156090000000745
C       1.2670966270     0.0045199764     0.2593010268
C       0.0000000045     -0.0280040383     -0.5869431073
H       1.3062205287     -0.9115079047     0.9423539201
H       1.3041769592     0.8492365714     0.8655409499
H       2.1644979999     -0.0073532925     -0.3600956084
C       -1.2670966348     0.0045196976     0.2593009942
H       0.0000000970     -0.7944999838     -1.1573849407
H       -0.0000001646     0.9527126360     -1.3288275490
H       -1.3062203487     -0.9115072883     0.9423533761
H       -2.1644979784     -0.0073530804     -0.3600956420
H       -1.3041771505     0.8492373725     0.8655415993
11
# Point -1 Energy = 0.007071029999977441
C       1.2671773123     0.0022609385     0.2594500658
C       0.0000000015     -0.0140020152     -0.5871418969
H       1.3057652389     -0.8961587598     0.9230600052
H       1.3047466704     0.8650238766     0.8846526276
H       2.1645868930     -0.0036759579     -0.3600200185
C       -1.2671773160     0.0022608271     0.2594500489
H       0.0000000685     -0.8342555695     -1.2001848908
H       -0.0000001300     0.9133569691     -1.2859135745
H       -1.3057651349     -0.8961584052     0.9230597465
H       -2.1645868826     -0.0036755593     -0.3600200353
H       -1.3047467816     0.8650243217     0.8846529409
11
# Point 0 Energy = 0
C       1.2672042126     0.0000000000     0.2594997522
C       0.0000000000     0.0000000000     -0.5872081259
H       1.3052750505     -0.8806643351     0.9038259677
H       1.3052750505     0.8806643351     0.9038259677
H       2.1646165232     0.0000000000     -0.3599948239
C       -1.2672042126     -0.0000000181     0.2594997522
H       0.0000000000     -0.8738729764     -1.2430302913
H       -0.0000000606     0.8738729764     -1.2430302913
H       -1.3052750505     -0.8806643351     0.9038259677
H       -2.1646165232     0.0000006841     -0.3599948239
H       -1.3052750505     0.8806643351     0.9038259677
11
# Point 1 Energy = 0.0070710199999979295
C       1.2671773144     -0.0022609818     0.2594500875
C       0.0000000001     0.0140021434     -0.5871418376
H       1.3047465900     -0.8650239598     0.8846526149
H       1.3057653371     0.8961586875     0.9230600760
H       2.1645868922     0.0036758575     -0.3600199973
C       -1.2671773112     -0.0022607594     0.2594501051
H       0.0000000028     -0.9133571074     -1.2859136153
H       -0.0000000670     0.8342558641     -1.2001850648
H       -1.3047466330     -0.8650241335     0.8846529232
H       -2.1645869019     0.0036766283     -0.3600199814
H       -1.3057652842     0.8961584270     0.9230597087
11
# Point 2 Energy = 0.02915602000000206
C       1.2670966311     -0.0045200196     0.2593010705
C       0.0000000020     0.0280041650     -0.5869429887
H       1.3041768874     -0.8492366599     0.8655409666
H       1.3062206355     0.9115078378     0.9423540205
H       2.1644979985     0.0073531921     -0.3600955653
C       -1.2670966254     -0.0045196309     0.2593011060
H       -0.0000000339     -0.9527129902     -1.3288276999
H       -0.0000000381     0.7945004956     -1.1573852193
H       -1.3041770018     -0.8492371003     0.8655415557
H       -2.1644980168     0.0073541486     -0.3600955350
H       -1.3062204991     0.9115072278     0.9423533079
11
# Point 3 Energy = 0.06900535999999136
C       1.2669622298     -0.0067751585     0.2590526963
C       0.0000000055     0.0420059044     -0.5866114234
H       1.3035629487     -0.8333015194     0.8464920134
H       1.3066444323     0.9267124888     0.9617070708
H       2.1643498487     0.0110334462     -0.3602216310
C       -1.2669622221     -0.0067746041     0.2590527503
H       -0.0000000734     -0.9919454632     -1.3717654965
H       -0.0000000109     0.7546016806     -1.1146382659
H       -1.3035631331     -0.8333022281     0.8464928818
H       -2.1643498750     0.0110345880     -0.3602215870
H       -1.3066442113     0.9267115313     0.9617060101

    This sampling was finished on:   2020-07-06 18:26:11
=------------------------------------------------------------------------------=
Sampling finished.
=------------------------------------------------------------------------------=