11
# Point -4 Energy = 0.056952100000003725
C       1.2639783925     -0.0000033254     0.2586511933
C       0.0000017681     -0.0000009342     -0.5687715507
H       1.2603715831     -0.7639073574     1.0432453666
H       1.2603823682     0.7639040261     1.0432428142
H       2.0994111258     0.0000094036     -0.4313788315
C       -1.2639756175     0.0000022927     0.2586533645
H       -0.0000015642     -0.6501038225     -1.4588460914
H       -0.0000017776     0.6501026296     -1.4588455408
H       -1.2603798507     -0.7639191159     1.0432307451
H       -2.0994155876     -0.0000047919     -0.4313688222
H       -1.2603709007     0.7639216613     1.0432323718
11
# Point -3 Energy = 0.03165765999999337
C       1.2668411204     -0.0000024272     0.2590903203
C       0.0000013160     -0.0000006864     -0.5700434176
H       1.2741654216     -0.7954034578     1.0105477560
H       1.2741734982     0.7954008428     1.0105458000
H       2.1167193281     0.0000070692     -0.4158508831
C       -1.2668389493     0.0000016672     0.2590921167
H       -0.0000012062     -0.7113976678     -1.4087841419
H       -0.0000013192     0.7113967794     -1.4087836856
H       -1.2741717178     -0.7954116883     1.0105364777
H       -2.1167225363     -0.0000034702     -0.4158430225
H       -1.2741650160     0.7954137052     1.0105376990
11
# Point -2 Energy = 0.013923379999994268
C       1.2683459196     -0.0000015736     0.2593881540
C       0.0000008720     -0.0000004478     -0.5735280719
H       1.2861718241     -0.8254018993     0.9763657410
H       1.2861772016     0.8254000817     0.9763644208
H       2.1334108957     0.0000047224     -0.3988340495
C       -1.2683444096     0.0000010745     0.2593894609
H       -0.0000008150     -0.7694382402     -1.3559946393
H       -0.0000008794     0.7694376495     -1.3559943072
H       -1.2861760965     -0.8254069822     0.9763580339
H       -2.1334129348     -0.0000021143     -0.3988285640
H       -1.2861716382     0.8254083953     0.9763588402
11
# Point -1 Energy = 0.0034464999999812562
C       1.2684686504     -0.0000007646     0.2595296728
C       0.0000004337     -0.0000002188     -0.5792563250
H       1.2964925782     -0.8538412210     0.9407699571
H       1.2964952637     0.8538402767     0.9407692946
H       2.1494078377     0.0000023653     -0.3802369200
C       -1.2684678630     0.0000005132     0.2595303793
H       -0.0000004073     -0.8237507607     -1.3006798008
H       -0.0000004596     0.8237504648     -1.3006796215
H       -1.2964947572     -0.8538435548     0.9407660190
H       -2.1494088030     -0.0000007282     -0.3802340504
H       -1.2964925342     0.8538442940     0.9407664140
11
# Point 0 Energy = 0
C       1.2672042126     0.0000000000     0.2594997522
C       0.0000000000     0.0000000000     -0.5872081259
H       1.3052750505     -0.8806643351     0.9038259677
H       1.3052750505     0.8806643351     0.9038259677
H       2.1646165232     0.0000000000     -0.3599948239
C       -1.2672042126     -0.0000000181     0.2594997522
H       0.0000000000     -0.8738729764     -1.2430302913
H       -0.0000000606     0.8738729764     -1.2430302913
H       -1.3052750505     -0.8806643351     0.9038259677
H       -2.1646165232     0.0000006841     -0.3599948239
H       -1.3052750505     0.8806643351     0.9038259677
11
# Point 1 Energy = 0.0033996800000011262
C       1.2645392483     0.0000007180     0.2592892723
C       -0.0000004299     0.0000002104     -0.5973492416
H       1.3126597594     -0.9058180121     0.8655990852
H       1.3126570853     0.9058190078     0.8655997521
H       2.1789225793     -0.0000023707     -0.3380370420
C       -1.2645401034     -0.0000005178     0.2592884653
H       0.0000004113     -0.9193593990     -1.1832554356
H       0.0000002965     0.9193597018     -1.1832556423
H       -1.3126574793     -0.9058160938     0.8656031821
H       -2.1789217377     0.0000021129     -0.3380401775
H       -1.3126596904     0.9058153085     0.8656028010
11
# Point 2 Energy = 0.013463750000013874
C       1.2604854221     0.0000013921     0.2588915207
C       -0.0000008556     0.0000004099     -0.6095876630
H       1.3188283322     -0.9292537786     0.8261448695
H       1.3188229908     0.9292558351     0.8261461770
H       2.1922036994     -0.0000047448     -0.3143238378
C       -1.2604872012     -0.0000009908     0.2588898129
H       0.0000007877     -0.9597758776     -1.1215453458
H       0.0000006350     0.9597764924     -1.1215457793
H       -1.3188236562     -0.9292503890     0.8261531876
H       -2.1922021553     0.0000035588     -0.3143303861
H       -1.3188280595     0.9292487585     0.8261524633
11
# Point 3 Energy = 0.03002066000000525
C       1.2551697579     0.0000020231     0.2582930039
C       -0.0000012748     0.0000005982     -0.6236600832
H       1.3241280215     -0.9509294031     0.7854851566
H       1.3241200217     0.9509325834     0.7854870649
H       2.2043717124     -0.0000071193     -0.2889506491
C       -1.2551725277     -0.0000014388     0.2582903086
H       0.0000011153     -0.9946972481     -1.0579664045
H       0.0000009571     0.9946981874     -1.0579670797
H       -1.3241208269     -0.9509250023     0.7854978101
H       -2.2043696181     0.0000050168     -0.2889608981
H       -1.3241273989     0.9509224687     0.7854967894
11
# Point 4 Energy = 0.05293690000000595
C       1.2488400124     0.0000026122     0.2574843512
C       -0.0000016835     0.0000007750     -0.6391348668
H       1.3290429396     -0.9708087005     0.7436052193
H       1.3290322940     0.9708130664     0.7436076788
H       2.2154002869     -0.0000094909     -0.2621427743
C       -1.2488438321     -0.0000018640     0.2574805898
H       0.0000013842     -1.0237111021     -0.9924703122
H       0.0000012681     1.0237123814     -0.9924712383
H       -1.3290331081     -0.9708037596     0.7436223295
H       -2.2153978012     0.0000064813     -0.2621570222
H       -1.3290418208     0.9708002669     0.7436210642

    This sampling was finished on:   2020-07-06 18:26:11
=------------------------------------------------------------------------------=
Sampling finished.
=------------------------------------------------------------------------------=