11
# Point -4 Energy = 0.06114329000000396
C       1.3126061468     0.0000000907     0.3693122224
C       0.0000012564     0.0000001975     -0.5150388194
H       1.0801635185     -0.9418027662     0.8585884065
H       1.0801637462     0.9418029632     0.8585885115
H       1.9890976045     0.0000001428     -0.4790701502
C       -1.3126032726     -0.0000000026     0.3693112623
H       0.0000008281     -0.8707657529     -1.1793784641
H       0.0000015022     0.8707659251     -1.1793787968
H       -1.0801665888     -0.9418035215     0.8585891553
H       -1.9890996068     0.0000001242     -0.4790675558
H       -1.0801651950     0.9418032657     0.8585892473
11
# Point -3 Energy = 0.033397479999990765
C       1.3012799025     0.0000000704     0.3388238124
C       0.0000008951     0.0000001426     -0.5360841271
H       1.1425802478     -0.9328463805     0.8754431568
H       1.1425804083     0.9328465155     0.8754432329
H       2.0453031759     0.0000001072     -0.4528513242
C       -1.3012778231     -0.0000000168     0.3388231182
H       0.0000005715     -0.8715499838     -1.1982952711
H       0.0000010550     0.8715501036     -1.1982955193
H       -1.1425825505     -0.9328466766     0.8754434968
H       -2.0453044216     0.0000002634     -0.4528491623
H       -1.1425815215     0.9328465209     0.8754436058
11
# Point -2 Energy = 0.014221729999988497
C       1.2899374630     0.0000000481     0.3101369394
C       0.0000005334     0.0000000923     -0.5553494000
H       1.2017191776     -0.9187976340     0.8883370962
H       1.2017192792     0.9187977163     0.8883371452
H       2.0933628762     0.0000000715     -0.4231830471
C       -1.2899361795     -0.0000000226     0.3101365118
H       0.0000003113     -0.8723292665     -1.2154314526
H       0.0000006090     0.8723293417     -1.2154316176
H       -1.2017206381     -0.9187977018     0.8883371456
H       -2.0933635310     0.0000004009     -0.4231815449
H       -1.2017199618     0.9187976202     0.8883372429
11
# Point -1 Energy = 0.003413580000000138
C       1.2785788961     0.0000000245     0.2837790229
C       0.0000002372     0.0000000451     -0.5723072824
H       1.2557789494     -0.9010934175     0.8975706398
H       1.2557789980     0.9010934551     0.8975706636
H       2.1327030348     0.0000000358     -0.3919847156
C       -1.2785783033     -0.0000000226     0.2837788242
H       0.0000001235     -0.8731035983     -1.2302596698
H       0.0000002399     0.8731036341     -1.2302597521
H       -1.2557796404     -0.9010934051     0.8975705883
H       -2.1327032898     0.0000005405     -0.3919839478
H       -1.2557793059     0.9010933744     0.8975706479
11
# Point 0 Energy = 0
C       1.2672042126     0.0000000000     0.2594997522
C       0.0000000000     0.0000000000     -0.5872081259
H       1.3052750505     -0.8806643351     0.9038259677
H       1.3052750505     0.8806643351     0.9038259677
H       2.1646165232     0.0000000000     -0.3599948239
C       -1.2672042126     -0.0000000181     0.2594997522
H       0.0000000000     -0.8738729764     -1.2430302913
H       -0.0000000606     0.8738729764     -1.2430302913
H       -1.3052750505     -0.8806643351     0.9038259677
H       -2.1646165232     0.0000006841     -0.3599948239
H       -1.3052750505     0.8806643351     0.9038259677
11
# Point 1 Energy = 0.0031409899999772506
C       1.2558134158     -0.0000000250     0.2369382923
C       -0.0000001938     -0.0000000432     -0.6004128036
H       1.3511337731     -0.8580130739     0.9076487871
H       1.3511337289     0.8580130426     0.9076487644
H       2.1904700866     -0.0000000366     -0.3274025945
C       -1.2558139344     -0.0000000090     0.2369384728
H       -0.0000000780     -0.8746373977     -1.2541042069
H       -0.0000003111     0.8746373645     -1.2541041256
H       -1.3511331390     -0.8580131531     0.9076489507
H       -2.1904699386     0.0000008314     -0.3274033917
H       -1.3511334700     0.8580131659     0.9076488737
11
# Point 2 Energy = 0.012265740000003689
C       1.2444065129     -0.0000000505     0.2158318540
C       -0.0000003548     -0.0000000848     -0.6121841451
H       1.3940599688     -0.8334519537     0.9094022841
H       1.3940598837     0.8334518968     0.9094022398
H       2.2112556881     -0.0000000734     -0.2942773288
C       -1.2444074913     0.0000000039     0.2158322050
H       -0.0000001231     -0.8753968589     -1.2637442631
H       -0.0000005243     0.8753967947     -1.2637441010
H       -1.3940587435     -0.8334521662     0.9094026987
H       -2.2112554771     0.0000009828     -0.2942789523
H       -1.3940593999     0.8334521754     0.9094025278
11
# Point 3 Energy = 0.02709034000000088
C       1.2329835136     -0.0000000764     0.1960065144
C       -0.0000004895     -0.0000001248     -0.6226961162
H       1.4345398631     -0.8072050358     0.9093298996
H       1.4345397404     0.8072049585     0.9093298348
H       2.2276708798     -0.0000001108     -0.2606710082
C       -1.2329849021     0.0000000209     0.1960070314
H       -0.0000001431     -0.8761513566     -1.2721244427
H       -0.0000007079     0.8761512634     -1.2721242006
H       -1.4345380805     -0.8072054283     0.9093306367
H       -2.2276706775     0.0000011373     -0.2606734868
H       -1.4345390569     0.8072054186     0.9093303564
11
# Point 4 Energy = 0.047517729999981384
C       1.2215444291     -0.0000001026     0.1773322174
C       -0.0000006018     -0.0000001631     -0.6320788173
H       1.4729409311     -0.7794254895     0.9076002894
H       1.4729407744     0.7794253967     0.9076002053
H       2.2402454587     -0.0000001488     -0.2265957119
C       -1.2215461838     0.0000000422     0.1773328997
H       -0.0000001434     -0.8769008874     -1.2793748627
H       -0.0000008668     0.8769007674     -1.2793745418
H       -1.4729386194     -0.7794261046     0.9076014091
H       -2.2402453293     0.0000012941     -0.2265990731
H       -1.4729399096     0.7794260615     0.9076010048
11
# Point 5 Energy = 0.07357761000001517
C       1.2100892718     -0.0000001289     0.1597146191
C       -0.0000006943     -0.0000001995     -0.6404266377
H       1.5095282703     -0.7502277263     0.9043317061
H       1.5095280832     0.7502276222     0.9043316041
H       2.2493802254     -0.0000001876     -0.1920519948
C       -1.2100913522     0.0000000683     0.1597154680
H       -0.0000001270     -0.8776454478     -1.2855899293
H       -0.0000010042     0.8776453032     -1.2855895311
H       -1.5095254541     -0.7502286038     0.9043332608
H       -2.2493802287     0.0000014523     -0.1920562645
H       -1.5095270509     0.7502285138     0.9043327181

    This sampling was finished on:   2020-07-02 18:49:52
=------------------------------------------------------------------------------=
Sampling finished.
=------------------------------------------------------------------------------=