11
# Point -5 Energy = 0.06899955000000091
C       1.2462257798     0.1296113511     0.2505721312
C       -0.0000000859     -0.1408866627     -0.5839777561
H       1.1351905431     -0.8164727237     0.7972652089
H       1.4311210603     0.9339836942     0.9555225894
H       2.1275344894     -0.1485126821     -0.3282753340
C       -1.2462258273     0.1296116265     0.2505719767
H       0.0000004523     -0.9014623626     -1.3651454593
H       -0.0000004246     0.8451295175     -1.0600007492
H       -1.1351910204     -0.8164725086     0.7972651590
H       -2.1275346153     -0.1485126887     -0.3282752217
H       -1.4311204119     0.9339841050     0.9555224740
11
# Point -4 Energy = 0.04433402999998748
C       1.2534644954     0.1046534757     0.2537900663
C       -0.0000000643     -0.1129857840     -0.5853649719
H       1.1692181861     -0.8296909813     0.8224316104
H       1.4117757213     0.9238619128     0.9500576509
H       2.1405504388     -0.1199352755     -0.3393042137
C       -1.2534645249     0.1046537161     0.2537899525
H       0.0000003621     -0.8961228197     -1.3445787515
H       -0.0000003650     0.8513301071     -1.1029613196
H       -1.1692185517     -0.8296907670     0.8224315912
H       -2.1405505471     -0.1199351747     -0.3393041473
H       -1.4117752113     0.9238622566     0.9500575516
11
# Point -3 Energy = 0.02503086999999482
C       1.2593437943     0.0790481487     0.2562904697
C       -0.0000000450     -0.0848544250     -0.5862712779
H       1.2039583342     -0.8429384469     0.8457815081
H       1.3894156046     0.9136344578     0.9420753979
H       2.1509442444     -0.0906139926     -0.3481810299
C       -1.2593438102     0.0790483489     0.2562903925
H       0.0000002757     -0.8905908523     -1.3221443805
H       -0.0000003022     0.8571847166     -1.1424718909
H       -1.2039585940     -0.8429382463     0.8457815111
H       -2.1509443316     -0.0906137775     -0.3481809990
H       -1.3894152307     0.9136347345     0.9420753176
11
# Point -2 Energy = 0.01116015999998865
C       1.2636733684     0.0529549227     0.2580737018
C       -0.0000000280     -0.0566024968     -0.5868214437
H       1.2387011150     -0.8559706575     0.8672016147
H       1.3640469652     0.9031204091     0.9316474157
H       2.1585035562     -0.0607231035     -0.3546894134
C       -1.2636733749     0.0529550782     0.2580736564
H       0.0000001929     -0.8849908894     -1.2978100143
H       -0.0000002367     0.8628300341     -1.1787900799
H       -1.2387012741     -0.8559704825     0.8672016324
H       -2.1585036185     -0.0607227689     -0.3546894061
H       -1.3640467261     0.9031206204     0.9316473551
11
# Point -1 Energy = 0.002795700000007173
C       1.2663178171     0.0265459738     0.2591429398
C       -0.0000000130     -0.0283036149     -0.5871144638
H       1.2727088442     -0.8685881931     0.8865846141
H       1.3358701059     0.8921638216     0.9188649335
H       2.1630851585     -0.0304518969     -0.3586612102
C       -1.2663178184     0.0265460809     0.2591429204
H       0.0000001133     -0.8794050858     -1.2714904243
H       -0.0000001686     0.8683691030     -1.2122126086
H       -1.2727089070     -0.8685880549     0.8865846393
H       -2.1630851918     -0.0304514385     -0.3586612132
H       -1.3358700009     0.8921639707     0.9188648918
11
# Point 0 Energy = 0
C       1.2672042126     0.0000000000     0.2594997522
C       0.0000000000     0.0000000000     -0.5872081259
H       1.3052750505     -0.8806643351     0.9038259677
H       1.3052750505     0.8806643351     0.9038259677
H       2.1646165232     0.0000000000     -0.3599948239
C       -1.2672042126     -0.0000000181     0.2594997522
H       0.0000000000     -0.8738729764     -1.2430302913
H       -0.0000000606     0.8738729764     -1.2430302913
H       -1.3052750505     -0.8806643351     0.9038259677
H       -2.1646165232     0.0000006841     -0.3599948239
H       -1.3052750505     0.8806643351     0.9038259677
11
# Point 1 Energy = 0.002795710000015106
C       1.2663178094     -0.0265460116     0.2591428025
C       0.0000000110     0.0283037410     -0.5871144369
H       1.3358698860     -0.8921638367     0.9188648599
H       1.2727088096     0.8685880579     0.8865846282
H       2.1630853404     0.0304517905     -0.3586610712
C       -1.2663178120     -0.0265460087     0.2591428152
H       -0.0000000368     -0.8683690021     -1.2122125374
H       -0.0000000239     0.8794051371     -1.2714904831
H       -1.3358697660     -0.8921638016     0.9188648788
H       -2.1630853029     0.0304525039     -0.3586610536
H       -1.2727089755     0.8685880964     0.8865846165
11
# Point 2 Energy = 0.011160169999996583
C       1.2636733537     -0.0529549438     0.2580734290
C       0.0000000200     0.0566026153     -0.5868213891
H       1.3640466097     -0.9031203589     0.9316473064
H       1.2387009626     0.8559704723     0.8672016064
H       2.1585039178     0.0607229806     -0.3546891408
C       -1.2636733629     -0.0529549948     0.2580734481
H       -0.0000001087     -0.8628299139     -1.1787900110
H       0.0000000526     0.8849909103     -1.2978100591
H       -1.3640464010     -0.9031203881     0.9316473133
H       -2.1585038383     0.0607238233     -0.3546890900
H       -1.2387012661     0.8559704638     0.8672016057
11
# Point 3 Energy = 0.025030890000010686
C       1.2593437734     -0.0790481428     0.2562900664
C       0.0000000269     0.0848545312     -0.5862711943
H       1.3894151083     -0.9136343420     0.9420752517
H       1.2039580681     0.8429382209     0.8457814837
H       2.1509447803     0.0906138435     -0.3481806330
C       -1.2593437934     -0.0790482477     0.2562900850
H       -0.0000001787     -0.8571845807     -1.1424718305
H       0.0000001323     0.8905908391     -1.3221444069
H       -1.3894148118     -0.9136344423     0.9420752413
H       -2.1509446544     0.0906148149     -0.3481805345
H       -1.2039585117     0.8429381719     0.8457814901
11
# Point 4 Energy = 0.04433402999998748
C       1.2534644690     -0.1046534335     0.2537895392
C       0.0000000317     0.1129858741     -0.5853648581
H       1.4117750796     -0.9238617336     0.9500574686
H       1.1692178076     0.8296907248     0.8224315760
H       2.1405511419     0.1199350924     -0.3393037046
C       -1.2534645041     -0.1046535911     0.2537895509
H       -0.0000002470     -0.8513299590     -1.1029612748
H       0.0000002155     0.8961227694     -1.3445787559
H       -1.4117746956     -0.9238619099     0.9500574369
H       -2.1405509648     0.1199361900     -0.3393035446
H       -1.1692183943     0.8296906425     0.8224315853
11
# Point 5 Energy = 0.06899953999999298
C       1.2462257481     -0.1296112648     0.2505714879
C       0.0000000344     0.1408867341     -0.5839776114
H       1.4311202682     -0.9339834552     0.9555223738
H       1.1351900505     0.8164724472     0.7972651704
H       2.1275353522     0.1485124587     -0.3282747254
C       -1.2462258031     -0.1296114730     0.2505714866
H       -0.0000003136     -0.8451293607     -1.0600007281
H       0.0000003020     0.9014622724     -1.3651454396
H       -1.4311197963     -0.9339837104     0.9555223190
H       -2.1275351192     0.1485136781     -0.3282744915
H       -1.1351907838     0.8164723395     0.7972651771

    This sampling was finished on:   2020-07-02 18:49:52
=------------------------------------------------------------------------------=
Sampling finished.
=------------------------------------------------------------------------------=