11
# Point -7 Energy = 0.013186529999998697
C       1.2662980842     -0.0916444186     0.2314190262
C       -0.0000002820     0.3143128213     -0.5131659670
H       0.9716775735     -0.5564749388     1.1759891209
H       1.9228537032     0.7464132848     0.4677809651
H       1.8453091862     -0.8245375870     -0.3313740288
C       -1.2662974486     -0.0916489792     0.2314189048
H       0.0000006796     -0.2366654579     -1.4563002370
H       -0.0000023569     1.3748623508     -0.7771143788
H       -0.9716779144     -0.5565014600     1.1759782267
H       -1.8453176091     -0.8245253587     -0.3313869147
H       -1.9228436763     0.7464104093     0.4678003015
11
# Point -6 Energy = 0.012128310000008469
C       1.2665378053     -0.0786322713     0.2388584348
C       -0.0000001980     0.2727626996     -0.5325836323
H       0.9826297076     -0.6194004720     1.1452975717
H       1.8417770234     0.7962742382     0.5443511690
H       1.9234222537     -0.7271127745     -0.3417431063
C       -1.2665372666     -0.0786362656     0.2388584190
H       0.0000007036     -0.3312944399     -1.4426885954
H       -0.0000020109     1.3162935239     -0.8572075800
H       -0.9826315349     -0.6194224404     1.1452873299
H       -1.9234288108     -0.7271012197     -0.3417526443
H       -1.8417677331     0.7962700879     0.5443676528
11
# Point -5 Energy = 0.010144270000012057
C       1.2667409559     -0.0655586026     0.2451633786
C       -0.0000001294     0.2296838965     -0.5491406246
H       1.0071802088     -0.6790369526     1.1114908055
H       1.7550015458     0.8368847607     0.6157027441
H       1.9931624488     -0.6208647089     -0.3490329273
C       -1.2667405242     -0.0655619920     0.2451634376
H       0.0000006892     -0.4253334631     -1.4233403103
H       -0.0000016681     1.2528165884     -0.9331198003
H       -1.0071829806     -0.6790544751     1.1114816003
H       -1.9931672005     -0.6208542535     -0.3490396193
H       -1.7549934063     0.8368798683     0.6157163346
11
# Point -4 Energy = 0.007541390000000092
C       1.2669073955     -0.0524535360     0.2503252024
C       -0.0000000757     0.1853162741     -0.5627744804
H       1.0448066297     -0.7339788765     1.0749644717
H       1.6644452396     0.8673995624     0.6820083512
H       2.0527782967     -0.5067945938     -0.3539127079
C       -1.2669070732     -0.0524562858     0.2503253065
H       0.0000006353     -0.5184167392     -1.3983158868
H       -0.0000013309     1.1847681354     -1.0046338670
H       -1.0448097968     -0.7339921503     1.0749566328
H       -2.0527814166     -0.5067856186     -0.3539170608
H       -1.6644385641     0.8673944943     0.6820190573
11
# Point -3 Energy = 0.004761269999988826
C       1.2670370117     -0.0393371951     0.2543400410
C       -0.0000000365     0.1399074475     -0.5734333286
H       1.0946765011     -0.7828441997     1.0359470466
H       1.5721265174     0.8872203005     0.7435666004
H       2.1007730530     -0.3861455421     -0.3569949916
C       -1.2670367938     -0.0393392753     0.2543401611
H       0.0000005420     -0.6101785621     -1.3676860228
H       -0.0000010022     1.1124939273     -1.0715523023
H       -1.0946795328     -0.7828535098     1.0359408543
H       -2.1007748128     -0.3861383691     -0.3569975107
H       -1.5721215076     0.8872156439     0.7435744716
11
# Point -2 Energy = 0.0023000100000132306
C       1.2671297199     -0.0262208772     0.2572070033
C       -0.0000000112     0.0937116194     -0.5810762860
H       1.1556690878     -0.8243302782     0.9945014934
H       1.4801165296     0.8960195834     0.8007646119
H       2.1359420406     -0.2603681450     -0.3587983230
C       -1.2671295944     -0.0262222628     0.2572071112
H       0.0000004102     -0.7002528858     -1.3315318145
H       -0.0000006850     1.0363469975     -1.1336961844
H       -1.1556714959     -0.8243359922     0.9944971846
H       -2.1359427918     -0.2603630254     -0.3587995089
H       -1.4801132704     0.8960159323     0.8007697313
11
# Point -1 Energy = 0.0006337499999915508
C       1.2671854633     -0.0131087583     0.2589266355
C       0.0000000008     0.0469881727     -0.5856738335
H       1.2264038668     -0.8572669358     0.9505364165
H       1.3904899040     0.8937537985     0.8540373889
H       2.1574026873     -0.1310769849     -0.3597163642
C       -1.2671854120     -0.0131094300     0.2589267033
H       0.0000002411     -0.7882732316     -1.2899452999
H       -0.0000003825     0.9566858828     -1.1909039749
H       -1.2264052270     -0.8572694952     0.9505341912
H       -2.1574028400     -0.1310740902     -0.3597167116
H       -1.3904883625     0.8937517379     0.8540398678
11
# Point 0 Energy = 0
C       1.2672042126     0.0000000000     0.2594997522
C       0.0000000000     0.0000000000     -0.5872081259
H       1.3052750505     -0.8806643351     0.9038259677
H       1.3052750505     0.8806643351     0.9038259677
H       2.1646165232     0.0000000000     -0.3599948239
C       -1.2672042126     -0.0000000181     0.2594997522
H       0.0000000000     -0.8738729764     -1.2430302913
H       -0.0000000606     0.8738729764     -1.2430302913
H       -1.3052750505     -0.8806643351     0.9038259677
H       -2.1646165232     0.0000006841     -0.3599948239
H       -1.3052750505     0.8806643351     0.9038259677
11
# Point 1 Energy = 0.0006337400000120397
C       1.2671859632     0.0131086937     0.2589267071
C       -0.0000000133     -0.0469880262     -0.5856731923
H       1.3904911263     -0.8937538769     0.8540372800
H       1.2264053810     0.8572669379     0.9505364583
H       2.1574025823     0.1310768207     -0.3597172072
C       -1.2671859880     0.0131094836     0.2589266125
H       -0.0000001996     -0.9566857740     -1.1909032996
H       0.0000001658     0.7882732937     -1.2899447782
H       -1.3904894609     -0.8937516888     0.8540396968
H       -2.1574028880     0.1310750994     -0.3597173477
H       -1.2264067295     0.8572697028     0.9505340893
11
# Point 2 Energy = 0.002300000000005298
C       1.2671307225     0.0262207491     0.2572071448
C       -0.0000000388     -0.0937114193     -0.5810750099
H       1.4801189242     -0.8960196076     0.8007643628
H       1.1556721085     0.8243304580     0.9945015908
H       2.1359418607     0.2603677926     -0.3587999854
C       -1.2671307435     0.0262222740     0.2572069297
H       -0.0000004663     -1.0363468396     -1.1336948857
H       0.0000004045     0.7002529432     -1.3315307259
H       -1.4801154847     -0.8960159099     0.8007692864
H       -2.1359429191     0.2603638588     -0.3588007545
H       -1.1556744285     0.8243363667     0.9944970656
11
# Point 3 Energy = 0.0047612300000139385
C       1.2670385226     0.0393369628     0.2543402493
C       -0.0000000764     -0.1399071580     -0.5734314302
H       1.5721299255     -0.8872202427     0.7435661392
H       1.0946810726     0.7828446682     1.0359472408
H       2.1007728574     0.3861448885     -0.3569974264
C       -1.2670385108     0.0393392170     0.2543398879
H       -0.0000007596     -1.1124936986     -1.0715503672
H       0.0000006155     0.6101786221     -1.3676843927
H       -1.5721246877     -0.8872156410     0.7435736594
H       -2.1007750805     0.3861389213     -0.3569993164
H       -1.0946839390     0.7828541263     1.0359407752
11
# Point 4 Energy = 0.007541299999999751
C       1.2669094228     0.0524531614     0.2503254728
C       -0.0000001261     -0.1853158591     -0.5627719781
H       1.6644494915     -0.8673994235     0.6820076131
H       1.0448127562     0.7339797504     1.0749647859
H       2.0527781708     0.5067935435     -0.3539158496
C       -1.2669093502     0.0524561328     0.2503249401
H       -0.0000010763     -1.1847678104     -1.0046312849
H       0.0000007960     0.5184168051     -1.3983137439
H       -1.6644425473     -0.8673945256     0.6820177924
H       -2.0527819135     0.5067858011     -0.3539193584
H       -1.0448156844     0.7339930904     1.0749566295
11
# Point 5 Energy = 0.010144130000000473
C       1.2667435101     0.0655580509     0.2451637041
C       -0.0000001881     -0.2296833199     -0.5491375428
H       1.7550064694     -0.8368845697     0.6157016774
H       1.0071878533     0.6790383464     1.1114912445
H       1.9931625000     0.6208631899     -0.3490366972
C       -1.2667433512     0.0655617214     0.2451629755
H       -0.0000014131     -1.2528161372     -0.9331165623
H       0.0000009434     0.4253335340     -1.4233376855
H       -1.7549980242     -0.8368799704     0.6157145465
H       -1.9931680401     0.6208539998     -0.3490423278
H       -1.0071903201     0.6790558208     1.1114816864
11
# Point 6 Energy = 0.01212810999997771
C       1.2665408986     0.0786315114     0.2388588059
C       -0.0000002626     -0.2727619243     -0.5325800007
H       1.8417824529     -0.7962740506     0.5443497400
H       0.9826387923     0.6194024901     1.1452981233
H       1.9234226065     0.7271107419     -0.3417474189
C       -1.2665406318     0.0786358573     0.2388578579
H       -0.0000017668     -1.3162929110     -0.8572036788
H       0.0000010555     0.3312945108     -1.4426855213
H       -1.8417728191     -0.7962703174     0.5443652917
H       -1.9234301268     0.7271004898     -0.3417556775
H       -0.9826402593     0.6194242680     1.1452874973
11
# Point 7 Energy = 0.013186300000000983
C       1.2663017303     0.0916434238     0.2314194304
C       -0.0000003501     -0.3143118095     -0.5131618206
H       1.9228594873     -0.7464131785     0.4677791616
H       0.9716879821     0.5564776673     1.1759897587
H       1.8453099763     0.8245350254     -0.3313787981
C       -1.2663013387     0.0916484162     0.2314182402
H       -0.0000021343     -1.3748615346     -0.7771098088
H       0.0000011306     0.2366655203     -1.4562967466
H       -1.9228490731     -0.7464108401     0.4677973427
H       -1.8453195501     0.8245241413     -0.3313901891
H       -0.9716879208     0.5565038344     1.1759784485

    This sampling was finished on:   2020-07-06 18:26:11
=------------------------------------------------------------------------------=
Sampling finished.
=------------------------------------------------------------------------------=