11
# Point -5 Energy = 0.07210865999999783
C       1.2027302413     -0.0000000120     0.1385080631
C       -0.2381246925     -0.0000000008     -0.5533399219
H       1.3418113497     -0.7957280874     0.8836149842
H       1.3418113235     0.7957280582     0.8836149938
H       2.1595461109     0.0000000113     -0.3903558868
C       -1.3549031535     -0.0000000226     0.3710913135
H       0.1656555423     -0.7904492680     -1.1904491188
H       0.1656554036     0.7904492448     -1.1904492539
H       -1.3291106861     -0.9509313311     0.8924399528
H       -2.1259607214     0.0000007462     -0.3960701852
H       -1.3291107784     0.9509313273     0.8924400782
11
# Point -4 Energy = 0.047337390000009805
C       1.2131494344     -0.0000000091     0.1613829206
C       -0.1941771585     0.0000000003     -0.5644724215
H       1.3305663485     -0.8136639689     0.8885418360
H       1.3305663283     0.8136639482     0.8885418414
H       2.1605627530     0.0000000083     -0.3830307021
C       -1.3377175036     -0.0000000214     0.3506178132
H       0.1410064920     -0.8183147994     -1.2061650800
H       0.1410063683     0.8183147774     -1.2061651896
H       -1.3218389167     -0.9383310957     0.8975197114
H       -2.1412852197     0.0000007368     -0.3832455232
H       -1.3218389867     0.9383310894     0.8975198126
11
# Point -3 Energy = 0.027280210000000693
C       1.2246165014     -0.0000000063     0.1852333634
C       -0.1481287518     0.0000000009     -0.5738211636
H       1.3207335944     -0.8311564107     0.8933472166
H       1.3207335799     0.8311563973     0.8933472190
H       2.1617966730     0.0000000058     -0.3755309687
C       -1.3199995451     -0.0000000204     0.3292527883
H       0.1115837496     -0.8414935957     -1.2205008451
H       0.1115836416     0.8414935763     -1.2205009281
H       -1.3152530782     -0.9249465107     0.9014009486
H       -2.1524132975     0.0000007260     -0.3725836361
H       -1.3152531279     0.9249465034     0.9014010247
11
# Point -2 Energy = 0.012379030000005287
C       1.2373387046     -0.0000000038     0.2098344526
C       -0.1000912771     0.0000000010     -0.5810354379
H       1.3128202573     -0.8481769173     0.8977850384
H       1.3128202480     0.8481769098     0.8977850388
H       2.1631411939     0.0000000036     -0.3684723873
C       -1.3019737661     -0.0000000196     0.3069357907
H       0.0775223571     -0.8590729480     -1.2323446888
H       0.0775222651     0.8590729331     -1.2323447443
H       -1.3097638535     -0.9108366678     0.9038487068
H       -2.1595723052     0.0000007136     -0.3647955074
H       -1.3097638849     0.9108366613     0.9038487574
11
# Point -1 Energy = 0.003139340000004154
C       1.2515284583     -0.0000000017     0.2347671570
C       -0.0504608221     0.0000000007     -0.5856355087
H       1.3075018134     -0.8646923553     0.9014369003
H       1.3075018090     0.8646923523     0.9014368999
H       2.1642902126     0.0000000017     -0.3628961162
C       -1.2841560789     -0.0000000188     0.2836416487
H       0.0397248505     -0.8701087518     -1.2402605820
H       0.0397247744     0.8701087433     -1.2402606096
H       -1.3061583619     -0.8960584915     0.9046692720
H       -2.1633383390     0.0000006996     -0.3605233397
H       -1.3061583769     0.8960584874     0.9046692972
11
# Point 0 Energy = 0
C       1.2672042126     0.0000000000     0.2594997522
C       0.0000000000     0.0000000000     -0.5872081259
H       1.3052750505     -0.8806643351     0.9038259677
H       1.3052750505     0.8806643351     0.9038259677
H       2.1646165232     0.0000000000     -0.3599948239
C       -1.2672042126     -0.0000000181     0.2594997522
H       0.0000000000     -0.8738729764     -1.2430302913
H       -0.0000000606     0.8738729764     -1.2430302913
H       -1.3052750505     -0.8806643351     0.9038259677
H       -2.1646165232     0.0000006841     -0.3599948239
H       -1.3052750505     0.8806643351     0.9038259677
11
# Point 1 Energy = 0.003139340000004154
C       1.2841560154     0.0000000012     0.2836414772
C       0.0504608148     -0.0000000011     -0.5856356204
H       1.3061586646     -0.8960583204     0.9046693547
H       1.3061586686     0.8960583220     0.9046693560
H       2.1633385132     -0.0000000016     -0.3605231877
C       -1.2515283997     -0.0000000173     0.2347669993
H       -0.0397248610     -0.8701087827     -1.2402606671
H       -0.0397249067     0.8701087931     -1.2402606400
H       -1.3075021134     -0.8646921724     0.9014369681
H       -2.1642903571     0.0000006671     -0.3628959648
H       -1.3075020993     0.8646921781     0.9014369435
11
# Point 2 Energy = 0.012379030000005287
C       1.3019736347     0.0000000020     0.3069354354
C       0.1000912478     -0.0000000026     -0.5810356609
H       1.3097644653     -0.9108363392     0.9038488861
H       1.3097644730     0.9108363413     0.9038488894
H       2.1595726904     -0.0000000031     -0.3647952048
C       -1.2373385934     -0.0000000165     0.2098341514
H       -0.0775223986     -0.8590730102     -1.2323448564
H       -0.0775224305     0.8590730326     -1.2323448031
H       -1.3128208584     -0.8481765411     0.8977851583
H       -2.1631414602     0.0000006488     -0.3684720861
H       -1.3128208307     0.8481765541     0.8977851096
11
# Point 3 Energy = 0.02728019999999276
C       1.3199993412     0.0000000024     0.3292522393
C       0.1481286863     -0.0000000045     -0.5738214970
H       1.3152540073     -0.9249460403     0.9014012375
H       1.3152540183     0.9249460420     0.9014012432
H       2.1524139360     -0.0000000047     -0.3725831884
C       -1.2246163446     -0.0000000157     0.1852329338
H       -0.1115838411     -0.8414936901     -1.2205010902
H       -0.1115838605     0.8414937259     -1.2205010120
H       -1.3207345007     -0.8311558326     0.8933473725
H       -2.1617970436     0.0000006294     -0.3755305202
H       -1.3207344593     0.8311558542     0.8933473005
11
# Point 4 Energy = 0.04733736000000022
C       1.3377172219     0.0000000024     0.3506170645
C       0.1941770435     -0.0000000068     -0.5644728640
H       1.3218401706     -0.9383305017     0.8975201220
H       1.3218401848     0.9383305025     0.8975201303
H       2.1412861564     -0.0000000065     -0.3832449409
C       -1.2131492396     -0.0000000148     0.1613823776
H       -0.1410066502     -0.8183149270     -1.2061653969
H       -0.1410066588     0.8183149772     -1.2061652950
H       -1.3305675653     -0.8136631817     0.8885420119
H       -2.1605632139     0.0000006090     -0.3830301082
H       -1.3305675100     0.8136632133     0.8885419176
11
# Point 5 Energy = 0.07210858999998493
C       1.3549027884     0.0000000022     0.3710903637
C       0.2381245171     -0.0000000093     -0.5533404708
H       1.3291122693     -0.9509306341     0.8924404963
H       1.3291122865     0.9509306338     0.8924405071
H       2.1259620003     -0.0000000085     -0.3960694866
C       -1.2027300153     -0.0000000140     0.1385074217
H       -0.1656557805     -0.7904494301     -1.1904495011
H       -0.1656557803     0.7904494955     -1.1904493769
H       -1.3418128828     -0.7957270853     0.8836151649
H       -2.1595466503     0.0000005878     -0.3903551489
H       -1.3418128130     0.7957271280     0.8836150494

    This sampling was finished on:   2020-07-02 18:49:52
=------------------------------------------------------------------------------=
Sampling finished.
=------------------------------------------------------------------------------=