11
# Point -5 Energy = 0.07293725999998912
C       1.2762308080     0.0000001727     0.1344198346
C       -0.0000001213     -0.0000002830     -0.5174050864
H       1.0616723964     -0.8057552635     0.8446305892
H       1.0616729660     0.8057556018     0.8446307332
H       2.3027495778     -0.0000002741     -0.2099825168
C       -1.2762306876     0.0000001618     0.1344195145
H       0.0000003406     -0.8628837876     -1.1844737047
H       -0.0000002169     0.8628835988     -1.1844732149
H       -1.0616725530     -0.8057552992     0.8446303219
H       -2.3027498001     0.0000006530     -0.2099821499
H       -1.0616727704     0.8057553852     0.8446306982
11
# Point -4 Energy = 0.046286949999995386
C       1.2766998407     0.0000001508     0.1586529533
C       -0.0000000916     -0.0000002329     -0.5313974253
H       1.1111753015     -0.8259648216     0.8576220773
H       1.1111757616     0.8259650901     0.8576221959
H       2.2843245727     -0.0000002289     -0.2418347021
C       -1.2766997365     0.0000001297     0.1586526963
H       0.0000002775     -0.8653924752     -1.1958414018
H       -0.0000001871     0.8653923246     -1.1958409898
H       -1.1111754251     -0.8259648467     0.8576218628
H       -2.2843247788     0.0000006525     -0.2418344087
H       -1.1111755955     0.8259649237     0.8576221611
11
# Point -3 Energy = 0.02575462999999445
C       1.2760458153     0.0000001217     0.1833908292
C       -0.0000000649     -0.0000001798     -0.5453016177
H       1.1609469161     -0.8435872575     0.8702574518
H       1.1609472615     0.8435874557     0.8702575429
H       2.2611165310     -0.0000001766     -0.2734270873
C       -1.2760457312     0.0000000955     0.1833906362
H       0.0000002113     -0.8677453844     -1.2073054964
H       -0.0000001567     0.8677452710     -1.2073051725
H       -1.1609470056     -0.8435872728     0.8702572904
H       -2.2611167079     0.0000006566     -0.2734268692
H       -1.1609471294     0.8435873365     0.8702575115
11
# Point -2 Energy = 0.011284829999979706
C       1.2742535353     0.0000000864     0.2085264116
C       -0.0000000409     -0.0000001234     -0.5591841595
H       1.2104248480     -0.8585538665     0.8823097337
H       1.2104250764     0.8585539955     0.8823097960
H       2.2332213303     -0.0000001195     -0.3040956871
C       -1.2742534755     0.0000000595     0.2085262831
H       0.0000001426     -0.8699428785     -1.2189357185
H       -0.0000001257     0.8699428021     -1.2189354931
H       -1.2104249043     -0.8585538737     0.8823096259
H       -2.2332214637     0.0000006640     -0.3040955444
H       -1.2104249832     0.8585539202     0.8823097714
11
# Point -1 Energy = 0.0027651199999922937
C       1.2713099421     0.0000000456     0.2339407344
C       -0.0000000193     -0.0000000636     -0.5731224633
H       1.2588360964     -0.8708761313     0.8935563507
H       1.2588362086     0.8708761939     0.8935563829
H       2.2009114802     -0.0000000600     -0.3331572423
C       -1.2713099104     0.0000000216     0.2339406702
H       0.0000000720     -0.8719853019     -1.2308125116
H       -0.0000000937     0.8719852629     -1.2308123945
H       -1.2588361222     -0.8708761332     0.8935562969
H       -2.2009115549     0.0000006735     -0.3331571731
H       -1.2588361595     0.8708761585     0.8935563688
11
# Point 0 Energy = 0
C       1.2672042126     0.0000000000     0.2594997522
C       0.0000000000     0.0000000000     -0.5872081259
H       1.3052750505     -0.8806643351     0.9038259677
H       1.3052750505     0.8806643351     0.9038259677
H       2.1646165232     0.0000000000     -0.3599948239
C       -1.2672042126     -0.0000000181     0.2594997522
H       0.0000000000     -0.8738729764     -1.2430302913
H       -0.0000000606     0.8738729764     -1.2430302913
H       -1.3052750505     -0.8806643351     0.9038259677
H       -2.1646165232     0.0000006841     -0.3599948239
H       -1.3052750505     0.8806643351     0.9038259677
11
# Point 1 Energy = 0.002655189999998697
C       1.2619269050     -0.0000000499     0.2850646324
C       0.0000000174     0.0000000677     -0.6015380975
H       1.3490605200     -0.8880870047     0.9130671998
H       1.3490604147     0.8880869468     0.9130671635
H       2.1248001081     0.0000000586     -0.3842187406
C       -1.2619269399     -0.0000000597     0.2850646963
H       -0.0000000732     -0.8756061529     -1.2556886697
H       -0.0000000259     0.8756061949     -1.2556887950
H       -1.3490605000     -0.8880870072     0.9130672518
H       -2.1248000177     0.0000006953     -0.3842188036
H       -1.3490604691     0.8880869771     0.9130671815
11
# Point 2 Energy = 0.010294739999991975
C       1.2554708075     -0.0000001033     0.3105009159
C       0.0000000332     0.0000001397     -0.6162042837
H       1.3896058262     -0.8933744959     0.9212966773
H       1.3896056258     0.8933743845     0.9212965990
H       2.0819577483     0.0000001148     -0.4055874241
C       -1.2554708802     -0.0000001034     0.3105010433
H       -0.0000001467     -0.8771850010     -1.2688820632
H       0.0000000100     0.8771850894     -1.2688823207
H       -1.3896057934     -0.8933745055     0.9212967789
H       -2.0819575523     0.0000007065     -0.4055875419
H       -1.3896057390     0.8933744401     0.9212966380
11
# Point 3 Energy = 0.022430189999994354
C       1.2478320666     -0.0000001594     0.3356807142
C       0.0000000475     0.0000002166     -0.6312901046
H       1.4263007061     -0.8968379052     0.9285693669
H       1.4263004242     0.8968377442     0.9285692388
H       2.0366244853     0.0000001676     -0.4239555363
C       -1.2478321798     -0.0000001492     0.3356809048
H       -0.0000002201     -0.8786096833     -1.2826961426
H       0.0000000471     0.8786098239     -1.2826965384
H       -1.4263006685     -0.8968379264     0.9285695144
H       -2.0366241694     0.0000007172     -0.4239556993
H       -1.4263005996     0.8968378202     0.9285693010
11
# Point 4 Energy = 0.03857997999999441
C       1.2390094118     -0.0000002175     0.3605003608
C       0.0000000603     0.0000002986     -0.6468543227
H       1.4588054577     -0.8987977827     0.9349949292
H       1.4588051119     0.8987975748     0.9349947417
H       1.9892524970     0.0000002167     -0.4393485799
C       -1.2390095681     -0.0000001970     0.3605006147
H       -0.0000002930     -0.8798803368     -1.2971916773
H       0.0000000851     0.8798805362     -1.2971922171
H       -1.4588054236     -0.8987978201     0.9349951181
H       -1.9892520479     0.0000007273     -0.4393487773
H       -1.4588053519     0.8987976666     0.9349948288
11
# Point 5 Energy = 0.05829600999999229
C       1.2290042319     -0.0000002765     0.3848883468
C       0.0000000719     0.0000003861     -0.6629232410
H       1.4870410995     -0.8995478612     0.9407020340
H       1.4870407106     0.8995476076     0.9407017761
H       1.9401839779     0.0000002622     -0.4519111803
C       -1.2290044339     -0.0000002462     0.3848886640
H       -0.0000003652     -0.8809970775     -1.3123967191
H       0.0000001238     0.8809973425     -1.3123974088
H       -1.4870410770     -0.8995479191     0.9407022589
H       -1.9401833836     0.0000007368     -0.4519114003
H       -1.4870410166     0.8995477112     0.9407018888

    This sampling was finished on:   2020-07-06 18:26:11
=------------------------------------------------------------------------------=
Sampling finished.
=------------------------------------------------------------------------------=