11
# Point -5 Energy = 0.07357761000001517
C       1.2100892718     -0.0000001288     0.1597146192
C       -0.0000006941     -0.0000001994     -0.6404266377
H       1.5095282706     -0.7502277262     0.9043317060
H       1.5095280832     0.7502276224     0.9043316041
H       2.2493802254     -0.0000001879     -0.1920519945
C       -1.2100913523     0.0000000683     0.1597154680
H       -0.0000001276     -0.8776454477     -1.2855899292
H       -0.0000010043     0.8776453033     -1.2855895312
H       -1.5095254542     -0.7502286037     0.9043332609
H       -2.2493802287     0.0000014521     -0.1920562648
H       -1.5095270506     0.7502285137     0.9043327182
11
# Point -4 Energy = 0.047517729999981384
C       1.2215444291     -0.0000001025     0.1773322175
C       -0.0000006016     -0.0000001630     -0.6320788173
H       1.4729409314     -0.7794254895     0.9076002893
H       1.4729407744     0.7794253968     0.9076002053
H       2.2402454588     -0.0000001491     -0.2265957117
C       -1.2215461838     0.0000000422     0.1773328996
H       -0.0000001438     -0.8769008873     -1.2793748626
H       -0.0000008670     0.8769007675     -1.2793745419
H       -1.4729386194     -0.7794261045     0.9076014091
H       -2.2402453292     0.0000012940     -0.2265990733
H       -1.4729399093     0.7794260614     0.9076010048
11
# Point -3 Energy = 0.02709034000000088
C       1.2329835135     -0.0000000763     0.1960065145
C       -0.0000004894     -0.0000001247     -0.6226961162
H       1.4345398633     -0.8072050358     0.9093298996
H       1.4345397404     0.8072049586     0.9093298348
H       2.2276708799     -0.0000001110     -0.2606710081
C       -1.2329849021     0.0000000209     0.1960070314
H       -0.0000001435     -0.8761513566     -1.2721244426
H       -0.0000007080     0.8761512635     -1.2721242006
H       -1.4345380805     -0.8072054283     0.9093306367
H       -2.2276706775     0.0000011372     -0.2606734869
H       -1.4345390567     0.8072054185     0.9093303565
11
# Point -2 Energy = 0.012265740000003689
C       1.2444065129     -0.0000000505     0.2158318540
C       -0.0000003548     -0.0000000847     -0.6121841451
H       1.3940599689     -0.8334519537     0.9094022840
H       1.3940598837     0.8334518968     0.9094022398
H       2.2112556881     -0.0000000735     -0.2942773287
C       -1.2444074913     0.0000000039     0.2158322049
H       -0.0000001233     -0.8753968589     -1.2637442631
H       -0.0000005244     0.8753967947     -1.2637441011
H       -1.3940587435     -0.8334521662     0.9094026987
H       -2.2112554770     0.0000009827     -0.2942789525
H       -1.3940593998     0.8334521754     0.9094025278
11
# Point -1 Energy = 0.0031409899999772506
C       1.2558134158     -0.0000000250     0.2369382923
C       -0.0000001938     -0.0000000431     -0.6004128036
H       1.3511337731     -0.8580130739     0.9076487871
H       1.3511337289     0.8580130426     0.9076487644
H       2.1904700866     -0.0000000366     -0.3274025945
C       -1.2558139344     -0.0000000090     0.2369384728
H       -0.0000000781     -0.8746373977     -1.2541042069
H       -0.0000003111     0.8746373645     -1.2541041256
H       -1.3511331390     -0.8580131531     0.9076489507
H       -2.1904699386     0.0000008314     -0.3274033917
H       -1.3511334700     0.8580131659     0.9076488737
11
# Point 0 Energy = 0
C       1.2672042126     0.0000000000     0.2594997522
C       0.0000000000     0.0000000000     -0.5872081259
H       1.3052750505     -0.8806643351     0.9038259677
H       1.3052750505     0.8806643351     0.9038259677
H       2.1646165232     0.0000000000     -0.3599948239
C       -1.2672042126     -0.0000000181     0.2594997522
H       0.0000000000     -0.8738729764     -1.2430302913
H       -0.0000000606     0.8738729764     -1.2430302913
H       -1.3052750505     -0.8806643351     0.9038259677
H       -2.1646165232     0.0000006841     -0.3599948239
H       -1.3052750505     0.8806643351     0.9038259677
11
# Point 1 Energy = 0.003413580000000138
C       1.2785788962     0.0000000244     0.2837790229
C       0.0000002371     0.0000000451     -0.5723072824
H       1.2557789493     -0.9010934175     0.8975706398
H       1.2557789980     0.9010934550     0.8975706635
H       2.1327030348     0.0000000358     -0.3919847157
C       -1.2785783032     -0.0000000226     0.2837788242
H       0.0000001236     -0.8731035983     -1.2302596698
H       0.0000002399     0.8731036341     -1.2302597520
H       -1.2557796404     -0.9010934051     0.8975705883
H       -2.1327032898     0.0000005406     -0.3919839477
H       -1.2557793060     0.9010933744     0.8975706479
11
# Point 2 Energy = 0.014221729999988497
C       1.2899374630     0.0000000480     0.3101369394
C       0.0000005334     0.0000000922     -0.5553494000
H       1.2017191775     -0.9187976340     0.8883370962
H       1.2017192792     0.9187977162     0.8883371452
H       2.0933628762     0.0000000716     -0.4231830472
C       -1.2899361795     -0.0000000226     0.3101365118
H       0.0000003115     -0.8723292665     -1.2154314526
H       0.0000006091     0.8723293416     -1.2154316175
H       -1.2017206381     -0.9187977018     0.8883371456
H       -2.0933635310     0.0000004010     -0.4231815448
H       -1.2017199619     0.9187976202     0.8883372429
11
# Point 3 Energy = 0.033397479999990765
C       1.3012799025     0.0000000703     0.3388238123
C       0.0000008951     0.0000001425     -0.5360841271
H       1.1425802476     -0.9328463805     0.8754431568
H       1.1425804083     0.9328465154     0.8754432329
H       2.0453031759     0.0000001074     -0.4528513243
C       -1.3012778231     -0.0000000168     0.3388231183
H       0.0000005719     -0.8715499839     -1.1982952712
H       0.0000010551     0.8715501036     -1.1982955193
H       -1.1425825505     -0.9328466767     0.8754434968
H       -2.0453044216     0.0000002636     -0.4528491621
H       -1.1425815218     0.9328465210     0.8754436059
11
# Point 4 Energy = 0.06114329000000396
C       1.3126061469     0.0000000906     0.3693122223
C       0.0000012563     0.0000001974     -0.5150388194
H       1.0801635183     -0.9418027662     0.8585884065
H       1.0801637462     0.9418029630     0.8585885115
H       1.9890976045     0.0000001430     -0.4790701505
C       -1.3126032725     -0.0000000026     0.3693112624
H       0.0000008286     -0.8707657530     -1.1793784641
H       0.0000015023     0.8707659250     -1.1793787967
H       -1.0801665889     -0.9418035215     0.8585891552
H       -1.9890996069     0.0000001244     -0.4790675556
H       -1.0801651953     0.9418032658     0.8585892473

    This sampling was finished on:   2020-07-06 18:26:11
=------------------------------------------------------------------------------=
Sampling finished.
=------------------------------------------------------------------------------=