11
# Point -4 Energy = 0.05498849999999322
C       1.2661493565     -0.0516839228     0.2532455652
C       0.0000012120     -0.0000006338     -0.5934636938
H       1.0879924268     -0.8624685411     0.9500602448
H       1.5233651302     0.8433887347     0.8384832642
H       2.1429129153     0.2410836670     -0.3252828936
C       -1.2661473754     0.0516821703     0.2532478104
H       -0.0525395507     -0.8723218274     -1.2492467670
H       0.0525366358     0.8723210179     -1.2492465399
H       -1.5233619683     -0.8433980977     0.8384737472
H       -2.1429163611     -0.2410797078     -0.3252757611
H       -1.0879924817     0.8624778066     0.9500500425
11
# Point -3 Energy = 0.030805030000010447
C       1.2666011333     -0.0390863467     0.2559268864
C       0.0000008900     -0.0000003997     -0.5907817062
H       1.1422414109     -0.8724536976     0.9408078374
H       1.4689830296     0.8577192822     0.8560739948
H       2.1526819962     0.1811038435     -0.3403107876
C       -1.2665996922     0.0390851731     0.2559285552
H       -0.0396343974     -0.8729912384     -1.2465807526
H       0.0396321612     0.8729907004     -1.2465806131
H       -1.4689806517     -0.8577262501     0.8560668459
H       -2.1526843925     -0.1811008537     -0.3403052786
H       -1.1422415480     0.8724604531     0.9408000373
11
# Point -2 Energy = 0.013664099999999735
C       1.2669330864     -0.0262139912     0.2578959394
C       0.0000005859     -0.0000002061     -0.5888122027
H       1.1964663177     -0.8787593600     0.9299104032
H       1.4144496353     0.8687335448     0.8729474277
H       2.1593931962     0.1208916149     -0.3511995164
C       -1.2669321484     0.0262133055     0.2578970371
H       -0.0265340623     -0.8734785781     -1.2446230823
H       0.0265325415     0.8734782746     -1.2446230236
H       -1.4144480084     -0.8687381608     0.8729426547
H       -2.1593946907     -0.1208895247     -0.3511957372
H       -1.1964665139     0.8787637471     0.9299051190
11
# Point -1 Energy = 0.0034153400000036527
C       1.2671360260     -0.0131540354     0.2590965917
C       0.0000002908     -0.0000000515     -0.5876113128
H       1.2508008508     -0.8814723920     0.9175351351
H       1.3598505880     0.8763984828     0.8889173776
H       2.1633220070     0.0604958716     -0.3577897527
C       -1.2671355664     0.0131537456     0.2590971316
H       -0.0133004419     -0.8737744307     -1.2434298871
H       0.0132996506     0.8737743315     -1.2434298983
H       -1.3598497082     -0.8764007746     0.8889149846
H       -2.1633227108     -0.0604946172     -0.3577878117
H       -1.2508010465     0.8814745358     0.9175324608
11
# Point 0 Energy = 0
C       1.2672042126     0.0000000000     0.2594997522
C       0.0000000000     0.0000000000     -0.5872081259
H       1.3052750505     -0.8806643351     0.9038259677
H       1.3052750505     0.8806643351     0.9038259677
H       2.1646165232     0.0000000000     -0.3599948239
C       -1.2672042126     -0.0000000181     0.2594997522
H       0.0000000000     -0.8738729764     -1.2430302913
H       -0.0000000606     0.8738729764     -1.2430302913
H       -1.3052750505     -0.8806643351     0.9038259677
H       -2.1646165232     0.0000006841     -0.3599948239
H       -1.3052750505     0.8806643351     0.9038259677
11
# Point 1 Energy = 0.0034153699999990295
C       1.2671357162     0.0131539891     0.2590970869
C       -0.0000002888     0.0000001408     -0.5876109746
H       1.3598496161     -0.8763993693     0.8889167408
H       1.2508000021     0.8814730853     0.9175346007
H       2.1633217803     -0.0604959171     -0.3577891398
C       -1.2671361590     -0.0131537705     0.2590965682
H       0.0133005208     -0.8737721323     -1.2434325269
H       -0.0132998571     0.8737723601     -1.2434326353
H       -1.2508006662     -0.8814707796     0.9175369509
H       -2.1633211459     0.0604957036     -0.3577911701
H       -1.3598495789     0.8763973559     0.8889195181
11
# Point 2 Energy = 0.013664130000009322
C       1.2669324626     0.0262139354     0.2578969297
C       -0.0000005772     0.0000001772     -0.5888115236
H       1.4144478398     -0.8687352734     0.8729461770
H       1.1964644844     0.8787607816     0.9299093125
H       2.1593927626     -0.1208914956     -0.3511982959
C       -1.2669333321     -0.0262136092     0.2578959161
H       0.0265341566     -0.8734739800     -1.2446283608
H       -0.0265327811     0.8734743291     -1.2446284931
H       -1.1964659556     -0.8787561930     0.9299140103
H       -2.1593915479     0.1208906670     -0.3512024301
H       -1.4144475727     0.8687313268     0.8729517768
11
# Point 3 Energy = 0.030805039999989958
C       1.2666001846     0.0390862739     0.2559283718
C       -0.0000008673     0.0000001721     -0.5907806799
H       1.4689804666     -0.8577218823     0.8560721125
H       1.1422385593     0.8724558004     0.9408062126
H       2.1526813953     -0.1811034508     -0.3403089668
C       -1.2666014668     -0.0390859410     0.2559268894
H       0.0396345215     -0.8729843373     -1.2465886667
H       -0.0396324525     0.8729847759     -1.2465888052
H       -1.1422408552     -0.8724489345     0.9408132289
H       -2.1526796364     0.1811021036     -0.3403152640
H       -1.4689799097     0.8577160860     0.8560805862
11
# Point 4 Energy = 0.05498843999998826
C       1.2661480613     0.0516838232     0.2532475458
C       -0.0000011624     0.0000001241     -0.5934623088
H       1.5233618446     -0.8433922346     0.8384807338
H       1.0879885401     0.8624712748     0.9500581127
H       2.1429122052     -0.2410828940     -0.3252804810
C       -1.2661497466     -0.0516835871     0.2532456232
H       0.0525397258     -0.8723126170     -1.2492573103
H       -0.0525369917     0.8723131087     -1.2492574374
H       -1.0879916613     -0.8624621321     0.9500674058
H       -2.1429099156     0.2410811416     -0.3252889870
H       -1.5233609599     0.8433846585     0.8384921221

    This sampling was finished on:   2020-07-06 18:26:11
=------------------------------------------------------------------------------=
Sampling finished.
=------------------------------------------------------------------------------=