9
# Point 0 Energy = 0
C       -5.3739015644     0.3103828479     0.0359844482
C       -4.1329966799     1.1797398635     0.1225775852
H       -5.4906299103     -0.0893361133     -0.9711879115
H       -6.2653293757     0.8871742516     0.2871686603
H       -5.3129491568     -0.5289028814     0.7323756746
O       -2.9527694211     0.4903434571     -0.2439521498
H       -4.0351786776     1.6019212828     1.1293639002
H       -4.2089333852     2.0163330192     -0.5715952114
H       -2.8301218289     -0.2504357274     0.3495750043
9
# Point 1 Energy = 0.00011451000000306522
C       -5.3605114130     0.3086640790     0.0417676459
C       -4.1311867600     1.1939845187     0.1317317550
H       -5.4604084505     -0.1053128365     -0.9614474916
H       -6.2616951627     0.8778185849     0.2749121766
H       -5.2978892317     -0.5208288332     0.7496493045
O       -2.9385221398     0.5142522378     -0.2118711614
H       -4.0504606226     1.6301870507     1.1340464952
H       -4.2087855286     2.0206327227     -0.5740738420
H       -2.8933506909     -0.3021775240     0.2855951178
9
# Point 2 Energy = 0.00044752000002290515
C       -5.3487270986     0.3069355352     0.0481900668
C       -4.1294861170     1.2056332809     0.1426290144
H       -5.4302367362     -0.1224580830     -0.9501957386
H       -6.2586471500     0.8704156715     0.2602301824
H       -5.2881659029     -0.5115849796     0.7689070572
O       -2.9254735360     0.5328932424     -0.1741080686
H       -4.0673478740     1.6570456225     1.1395191453
H       -4.2050236686     2.0211907036     -0.5761828744
H       -2.9497019167     -0.3428509937     0.2113212157
9
# Point 3 Energy = 0.0009293600000148672
C       -5.3389623413     0.3052119212     0.0551985675
C       -4.1279634974     1.2144277182     0.1548648049
H       -5.4011758027     -0.1405501890     -0.9373852038
H       -6.2562614030     0.8651299174     0.2435589760
H       -5.2841427978     -0.5013059717     0.7897733954
O       -2.9141299899     0.5458168013     -0.1316932034
H       -4.0852539246     1.6820359331     1.1452902924
H       -4.1977663898     2.0179006555     -0.5779988646
H       -2.9971538535     -0.3714467861     0.1287012356
9
# Point 4 Energy = 0.0014641300000164392
C       -5.3315712305     0.3035128320     0.0627133736
C       -4.1266822243     1.2201819652     0.1679992105
H       -5.3743006631     -0.1593480079     -0.9230507743
H       -6.2545893340     0.8620732496     0.2254192892
H       -5.2859733759     -0.4901305888     0.8117977667
O       -2.9049564403     0.5527223108     -0.0858344999
H       -4.1035155055     1.7047537703     1.1508917099
H       -4.1872770844     2.0107369576     -0.5795845171
H       -3.0339441419     -0.3872824889     0.0399584415
9
# Point 5 Energy = 0.0019501300000115407
C       -5.3268276435     0.3018615919     0.0706306831
C       -4.1256959553     1.2227854049     0.1815672535
H       -5.3506477930     -0.1785900704     -0.9073241817
H       -6.2536616409     0.8612985357     0.2064041037
H       -5.2935754713     -0.4782024246     0.8344833487
O       -2.8983407083     0.5534680232     -0.0378892904
H       -4.1214209169     1.7248523336     1.1559053466
H       -4.1739646526     1.9997568166     -0.5810046586
H       -3.0586752181     -0.3900102109     -0.0524626049
9
# Point 6 Energy = 0.0022921500000165906
C       -5.3249077289     0.3002833896     0.0788272304
C       -4.1250452440     1.2222041038     0.1950904587
H       -5.3311567423     -0.1979954130     -0.8904385234
H       -6.2534929913     0.8627950978     0.1871571114
H       -5.3066219435     -0.4656726986     0.8573215288
O       -2.8945608594     0.5480760107     0.0106797009
H       -4.1382479233     1.7420425867     1.1599831146
H       -4.1583719781     1.9851026044     -0.5823447923
H       -3.0704045890     -0.3796156813     -0.1459658291
9
# Point 7 Energy = 0.0024419000000079905
C       -5.3258778986     0.2988032557     0.0871666466
C       -4.1247552171     1.2184808810     0.2080893236
H       -5.3166127408     -0.2172666734     -0.8727202749
H       -6.2540858045     0.8664878576     0.1683433099
H       -5.3245511590     -0.4527039630     0.8798277416
O       -2.8937611409     0.5367308442     0.0583618848
H       -4.1533069938     1.7560944456     1.1628566501
H       -4.1411511979     1.9670036044     -0.5837283746
H       -3.0687078473     -0.3564102521     -0.2378869069
9
# Point 8 Energy = 0.002405940000016926
C       -5.3296901912     0.2974444015     0.0955071114
C       -4.1248345465     1.2117339390     0.2200962011
H       -5.3075982521     -0.2360955472     -0.8545686678
H       -6.2554317570     0.8722408915     0.1506153959
H       -5.3465975527     -0.4394733879     0.9015733522
O       -2.8959409662     0.5197715178     0.1036642034
H       -4.1659839117     1.7668393404     1.1643360645
H       -4.1230275450     1.9457763010     -0.5853284747
H       -3.0537052774     -0.3210174561     -0.3255851858
9
# Point 9 Energy = 0.0022476400000073227
C       -5.3361857522     0.2962272166     0.1037095110
C       -4.1252757757     1.2021540816     0.2306680414
H       -5.3044604493     -0.2541702502     -0.8364250807
H       -6.2575104360     0.8798650833     0.1345808933
H       -5.3718385947     -0.4261745581     0.9222087611
O       -2.9009589698     0.4976773904     0.1451766121
H       -4.1757755934     1.7741740967     1.1642991609
H       -4.1047562314     1.9218224678     -0.5873702982
H       -3.0260481974     -0.2743555279     -0.4065376009
9
# Point 10 Energy = 0.0020465800000124545
C       -5.3451058359     0.2951689181     0.1116451892
C       -4.1260569393     1.1900006430     0.2393984519
H       -5.3072986549     -0.2711843603     -0.8187372579
H       -6.2602856018     0.8891285304     0.1207747915
H       -5.3992514316     -0.4130171989     0.9414747800
O       -2.9085510594     0.4710499835     0.1816298109
H       -4.1823144985     1.7780655916     1.1626746292
H       -4.0870784413     1.8956245775     -0.5901230383
H       -2.9868675372     -0.2176166849     -0.4784273563
9
# Point 11 Energy = 0.0018966200000534172
C       -5.3561085774     0.2942835564     0.1192024683
C       -4.1271443013     1.1755963380     0.2459286036
H       -5.3159718696     -0.2868463981     -0.8019239820
H       -6.2637003708     0.8997677331     0.1096409404
H       -5.4277712955     -0.4002247667     0.9592019418
O       -2.9183586774     0.4405930148     0.2119394215
H       -4.1853797108     1.7785554170     1.1594236406
H       -4.0706824237     1.8677383711     -0.5938819854
H       -2.9376927735     -0.1522432656     -0.5392210487
9
# Point 12 Energy = 0.0018627400000070793
C       -5.3687891398     0.2935819467     0.1262913628
C       -4.1284959216     1.1593212584     0.2499566432
H       -5.3301229332     -0.3008896847     -0.7863451041
H       -6.2676729850     0.9114975901     0.1015231364
H       -5.4563446759     -0.3880301976     0.9752998341
O       -2.9299619822     0.4070929166     0.2352341465
H       -4.1848955991     1.7757638475     1.1545238365
H       -4.0561740060     1.8387826545     -0.5989438896
H       -2.8803527571     -0.0799003316     -0.5872299656
9
# Point 13 Energy = 0.0019690400000058617
C       -5.3827008068     0.2930711384     0.1328462243
C       -4.1300656574     1.1416061907     0.2512454294
H       -5.3492136626     -0.3130822703     -0.7722800503
H       -6.2720946164     0.9240187708     0.0966645828
H       -5.4839726409     -0.3766701817     0.9897400633
O       -2.9429126602     0.3714013779     0.2508688836
H       -4.1809210044     1.7698926707     1.1479583317
H       -4.0440583388     1.8094264702     -0.6055796275
H       -2.8168706125     -0.0024441666     -0.6211538373
9
# Point 14 Energy = 0.002206840000013699
C       -5.3973750521     0.2927532358     0.1388263437
C       -4.1318071410     1.1229252952     0.2496285930
H       -5.3725648540     -0.3232369089     -0.7599158398
H       -6.2768300571     0.9370219185     0.0952128912
H       -5.5097425307     -0.3663781799     1.0025368266
O       -2.9567622455     0.3344204264     0.2584262964
H       -4.1736327036     1.7612267011     1.1397106870
H       -4.0347322298     1.7803737056     -0.6140081432
H       -2.7493631862     0.0781138062     -0.6401076548
9
# Point 15 Energy = 0.0025137100000165447
C       -5.4123393197     0.2926236585     0.1442147371
C       -4.1336772730     1.1037880009     0.2450150570
H       -5.3993960002     -0.3312210727     -0.7493439564
H       -6.2817214367     0.9501890831     0.0972272768
H       -5.5328486480     -0.3573761406     1.0137285290
O       -2.9710835512     0.2970894984     0.2577114525
H       -4.1633065903     1.7501339194     1.1297654476
H       -4.0284847214     1.7523450455     -0.6243747576
H       -2.6799524595     0.1596480075     -0.6436337858
9
# Point 16 Energy = 0.0028037300000107734
C       -5.4271319583     0.2926691915     0.1490154553
C       -4.1356388209     1.0847297620     0.2373922230
H       -5.4288612849     -0.3369668239     -0.7405644536
H       -6.2865945392     0.9631935651     0.1026850015
H       -5.5526040439     -0.3498646967     1.0233628862
O       -2.9854844874     0.2603730535     0.2487438991
H       -4.1502990216     1.7370640739     1.1181130757
H       -4.0255028538     1.7260570541     -0.6367357631
H       -2.6106929897     0.2399648204     -0.6317023241
9
# Point 17 Energy = 0.0030036800000061703
C       -5.4413143065     0.2928663591     0.1532498130
C       -4.1376618278     1.0663011607     0.2268279800
H       -5.4600802320     -0.3404800285     -0.7334954211
H       -6.2912669493     0.9756998614     0.1114851435
H       -5.5684460145     -0.3440116365     1.0314869217
O       -2.9996148096     0.2252467098     0.2317502900
H       -4.1350296126     1.7225452708     1.1047578952
H       -4.0258796953     1.7021982148     -0.6510501746
H       -2.5435165521     0.3168540884     -0.6047024477
9
# Point 18 Energy = 0.003064250000022639
C       -5.4544802659     0.2931807263     0.1569519662
C       -4.1397236757     1.0490547712     0.2134715271
H       -5.4921628666     -0.3418479706     -0.7279861631
H       -6.2955571545     0.9873655716     0.1234490921
H       -5.5799377249     -0.3399387414     1.0381424321
O       -3.0131670980     0.1926797002     0.2071588891
H       -4.1179657566     1.7071776651     1.0897277944
H       -4.0296224055     1.6814020553     -0.6671787926
H       -2.4801930520     0.3881462223     -0.5634267452
9
# Point 19 Energy = 0.0029738300000303752
C       -5.4662638447     0.2935676637     0.1601643138
C       -4.1418078135     1.0335293187     0.1975527448
H       -5.5242302130     -0.3412440138     -0.7238328304
H       -6.2992937713     0.9978469245     0.1383185227
H       -5.5867677647     -0.3377076290     1.0433668850
O       -3.0258736047     0.1636117664     0.1755953316
H       -4.0996084944     1.6916230062     1.0730846474
H       -4.0366590133     1.6642180804     -0.6848903291
H       -2.4223054804     0.4517748831     -0.5090492858
9
# Point 20 Energy = 0.002750140000017609
C       -5.4763451425     0.2939749067     0.1629332406
C       -4.1439013334     1.0202310174     0.1793795658
H       -5.5554314049     -0.3389276923     -0.7207955527
H       -6.3023241855     1.0068089940     0.1557527699
H       -5.5887487049     -0.3373059657     1.0471992474
O       -3.0375006543     0.1389235033     0.1378773128
H       -4.0804790795     1.6765886617     1.0549345081
H       -4.0468434876     1.6510820978     -0.7038741077
H       -2.3712360073     0.5058444772     -0.4430969842
9
# Point 21 Energy = 0.002455290000000332
C       -5.4844551475     0.2943469045     0.1653057426
C       -4.1459917513     1.0096125775     0.1593325924
H       -5.5849587023     -0.3352386580     -0.7186161836
H       -6.3045220360     1.0139406938     0.1753282787
H       -5.5858150440     -0.3386361151     1.0496897881
O       -3.0478421809     0.1194006474     0.0950047226
H       -4.0611056480     1.6628050581     1.0354365412
H       -4.0599594343     1.6422884828     -0.7237585706
H       -2.3281600556     0.5487004089     -0.3674129113
9
# Point 22 Energy = 0.0021681000000057793
C       -5.4903795678     0.2946305317     0.1673274264
C       -4.1480634996     1.0020511594     0.1378562034
H       -5.6120614086     -0.3305834140     -0.7170356034
H       -6.3057931141     1.0189733901     0.1965429480
H       -5.5780204290     -0.3415087214     1.0509123978
O       -3.0567137839     0.1056946957     0.0481415319
H       -4.0420097215     1.6509963225     1.0148094335
H       -4.0757232558     1.6379677133     -0.7441343797
H       -2.2940452196     0.5789983227     -0.2841099578
9
# Point 23 Energy = 0.0019509700000241992
C       -5.4939617846     0.2947813218     0.1690422006
C       -4.1500947409     0.9978273421     0.1154456827
H       -5.6360591952     -0.3254147782     -0.7158092221
H       -6.3060793984     1.0217006968     0.2188275204
H       -5.5655337752     -0.3456436053     1.0509774785
O       -3.0639484207     0.0982841356     -0.0014133135
H       -4.0236927245     1.6418452760     0.9933338461
H       -4.0937878380     1.6380727434     -0.7645802952
H       -2.2696521225     0.5957668678     -0.1955138972
9
# Point 24 Energy = 0.0018543000000192933
C       -5.4951049101     0.2947690953     0.1704936854
C       -4.1520551156     0.9971076864     0.0926304905
H       -5.6563548059     -0.3202054147     -0.7147191365
H       -6.3053611183     1.0219961284     0.2415647337
H       -5.5486338989     -0.3506795173     1.0500431197
O       -3.0693945065     0.0974418251     -0.0522666379
H       -4.0066231465     1.6359555341     0.9713495391
H       -4.1137477438     1.6423771741     -0.7846894035
H       -2.2555347543     0.5984574887     -0.1040963903
9
# Point 25 Energy = 0.0018844000000228789
C       -5.4937729042     0.2945818355     0.1717279899
C       -4.1539049263     0.9999334473     0.0699545643
H       -5.6724456888     -0.3154182020     -0.7135815080
H       -6.3036569154     1.0198251714     0.2641150388
H       -5.5277024782     -0.3561927992     1.0483223262
O       -3.0729167833     0.1032140615     -0.1029812970
H       -3.9912252594     1.6338148290     0.9492462771
H       -4.1351465472     1.6504866366     -0.8040929367
H       -2.2520384971     0.5869750199     -0.0124004545
9
# Point 26 Energy = 0.0020126400000037847
C       -5.4899907269     0.2942269671     0.1727971655
C       -4.1555960314     1.0062172867     0.0479552423
H       -5.6839339110     -0.3114771830     -0.7122482800
H       -6.3010223421     1.0152492153     0.2858458782
H       -5.5032154681     -0.3617232295     1.0460845852
O       -3.0743998885     0.1154153270     -0.1521312476
H       -3.9778702910     1.6357642512     0.9274484925
H       -4.1574864355     1.6618626442     -0.8224791059
H       -2.2592949055     0.5616847210     0.0770372699
9
# Point 27 Energy = 0.002180060000029016
C       -5.4838435761     0.2937297547     0.1737624546
C       -4.1570744213     1.0157485950     0.0271427821
H       -5.6905338072     -0.3087429689     -0.7106032404
H       -6.2975470367     1.0084204712     0.3061604625
H       -5.4757333818     -0.3668038055     1.0436510177
O       -3.0737541967     0.1336398959     -0.1983552625
H       -3.9668706309     1.6419775613     0.9063947349
H       -4.1802396926     1.6758559830     -0.8396051451
H       -2.2772132567     0.5233945132     0.1617621962
9
# Point 28 Energy = 0.0023105100000009315
C       -5.4754753235     0.2931291991     0.1746964930
C       -4.1582841634     1.0282065847     0.0079823394
H       -5.6920771495     -0.3074956199     -0.7085534109
H       -6.2933509214     0.9995689859     0.3245220868
H       -5.4458909770     -0.3709904711     1.0413834617
O       -3.0709232830     0.1572882856     -0.2404033817
H       -3.9584770790     1.6524531190     0.8865138356
H       -4.2028613275     1.6917452141     -0.8553019283
H       -2.3054697757     0.4733147026     0.2394705044
9
# Point 29 Energy = 0.0023272600000154853
C       -5.4650862914     0.2924723413     0.1756838774
C       -4.1591721856     1.0431791373     -0.0091202869
H       -5.6885160667     -0.3079264643     -0.7060175044
H       -6.2885796795     0.9889844618     0.3404712565
H       -5.4143867993     -0.3738880511     1.0396687502
O       -3.0658922991     0.1856039731     -0.2771720760
H       -3.9528785205     1.6670187935     0.8682001812
H       -4.2248020152     1.7087754708     -0.8694717320
H       -2.3434961426     0.4130003377     0.3080675340
9
# Point 30 Energy = 0.002181350000000748
C       -5.4529304718     0.2918081397     0.1768198737
C       -4.1596932801     1.0601847832     -0.0238286355
H       -5.6799243139     -0.3101385674     -0.7029135373
H       -6.2833996255     0.9769963262     0.3536347722
H       -5.3819727255     -0.3751697319     1.0388999098
O       -3.0586966166     0.2177146308     -0.3077268976
H       -3.9502029088     1.6853481409     0.8517904352
H       -4.2455206968     1.7261934864     -0.8820805942
H       -2.3904693611     0.3442827921     0.3657146739
9
# Point 31 Energy = 0.0018733100000076774
C       -5.4393121908     0.2911820197     0.1782073949
C       -4.1598147331     1.0786952589     -0.0358815544
H       -5.6664976667     -0.3141541453     -0.6991476095
H       -6.2779919420     0.9639552593     0.3637277911
H       -5.3494432119     -0.3745889130     1.0394559673
O       -3.0494301858     0.2526725120     -0.3313141405
H       -3.9505181909     1.7069847337     0.8375435938
H       -4.2644965425     1.7432762563     -0.8931470790
H       -2.4453053361     0.2691970184     0.4108656365
9
# Point 32 Energy = 0.0014371100000118986
C       -5.4245820716     0.2906318868     0.1799526165
C       -4.1595200937     1.0981566632     -0.0450959382
H       -5.6485541155     -0.3199264689     -0.6946055203
H       -6.2725461959     0.9502184197     0.3705512108
H       -5.3176234799     -0.3719836490     1.0416816823
O       -3.0382530775     0.2894901285     -0.3473649383
H       -3.9538318731     1.7313710332     0.8256256671
H       -4.2812404165     1.7593523982     -0.9027291500
H       -2.5066586763     0.1899095884     0.4422943702
9
# Point 33 Energy = 0.0009429300000078911
C       -5.4091319866     0.2901859726     0.1821596944
C       -4.1588117305     1.1180080403     -0.0513671899
H       -5.6265341686     -0.3273537383     -0.6891484678
H       -6.2672530882     0.9361393293     0.3739872480
H       -5.2873554718     -0.3672748916     1.0458680736
O       -3.0253975600     0.3271693393     -0.3554959475
H       -3.9600882710     1.7578785104     0.8160997919
H       -4.2953063507     1.7738166279     -0.9109104861
H       -2.5729313723     0.1086508100     0.4591172835
9
# Point 34 Energy = 0.0004842100000246319
C       -5.3933885441     0.2898624707     0.1849250378
C       -4.1577119672     1.1376969919     -0.0546682556
H       -5.6010009864     -0.3362928624     -0.6826137160
H       -6.2622965563     0.9220621762     0.3739958535
H       -5.2594801847     -0.3604602205     1.0522343368
O       -3.0111718146     0.3647238058     -0.3555103506
H       -3.9691630806     1.7858365196     0.8089223109
H       -4.3063037552     1.7861386000     -0.9177872070
H       -2.6422931108     0.0276525187     0.4608119902
9
# Point 35 Energy = 0.0001620200000047589
C       -5.3778045565     0.2896706054     0.1883315179
C       -4.1562627097     1.1566924933     -0.0550477882
H       -5.5726393240     -0.3465717733     -0.6748208242
H       -6.2578455903     0.9083193946     0.3706137962
H       -5.2348150274     -0.3516047953     1.0609117874
O       -2.9959600603     0.4011960932     -0.3474016587
H       -3.9808556816     1.8145583641     0.8039452659
H       -4.3139110856     1.7958676482     -0.9234557994
H       -2.7127159644     -0.0509080301     0.4472337033
9
# Point 36 Energy = 4.189000000565102e-05
C       -5.3628479368     0.2896125787     0.1924429328
C       -4.1545235993     1.1744954102     -0.0526276576
H       -5.5422514722     -0.3579996152     -0.6655837187
H       -6.2540464166     0.8952308892     0.3639570897
H       -5.2141252624     -0.3408310134     1.0719308036
O       -2.9802175844     0.4356713986     -0.3313610386
H       -3.9948804970     1.8433638264     0.8009256906
H       -4.3178913895     1.8026348414     -0.9280031102
H       -2.7820258417     -0.1249583160     0.4186290086

    This sampling was finished on:   2020-07-28 16:03:33
=------------------------------------------------------------------------------=
Sampling finished.
=------------------------------------------------------------------------------=