9
# Point -2 Energy = 0.03302217000000951
C       -5.3966468747     0.3501447289     0.0235101073
C       -4.1420186361     1.2060540531     0.1018047273
H       -5.5097754036     -0.0652235525     -0.9883534451
H       -6.1726695437     0.8560595939     0.2447016600
H       -5.3277453333     -0.5771092960     0.7924584822
O       -2.9652743776     0.5014751456     -0.2550346964
H       -4.0363621572     1.6342954521     1.1308533468
H       -4.2051177967     1.9500595479     -0.5173987509
H       -2.8471998771     -0.2385356728     0.3377685689
9
# Point -1 Energy = 0.007593630000002349
C       -5.3853030573     0.3302161530     0.0297475575
C       -4.1375337741     1.1929068973     0.1121965695
H       -5.5002141943     -0.0772878203     -0.9798111974
H       -6.2189661650     0.8716376368     0.2660066154
H       -5.3203950138     -0.5530475561     0.7624268709
O       -2.9590078361     0.4959338669     -0.2495000638
H       -4.0358236501     1.6181386299     1.1301133505
H       -4.2069261939     1.9831924987     -0.5445261349
H       -2.8386401154     -0.2444703062     0.3436564325
9
# Point 0 Energy = 0
C       -5.3739015644     0.3103828479     0.0359844482
C       -4.1329966799     1.1797398635     0.1225775852
H       -5.4906299103     -0.0893361133     -0.9711879115
H       -6.2653293757     0.8871742516     0.2871686603
H       -5.3129491568     -0.5289028814     0.7323756746
O       -2.9527694211     0.4903434571     -0.2439521498
H       -4.0351786776     1.6019212828     1.1293639002
H       -4.2089333852     2.0163330192     -0.5715952114
H       -2.8301218289     -0.2504357274     0.3495750043
9
# Point 1 Energy = 0.0067496000000062395
C       -5.3624458229     0.2906436147     0.0422214663
C       -4.1284089714     1.1665518680     0.1329483029
H       -5.4810245586     -0.1013690978     -0.9624843499
H       -6.3117565094     0.9026765470     0.3081886489
H       -5.3054053868     -0.5046757237     0.7023059875
O       -2.9465590276     0.4847044260     -0.2383917047
H       -4.0344297954     1.5856422828     1.1286059399
H       -4.2111362799     2.0494781236     -0.5986069483
H       -2.8216436478     -0.2564320405     0.3555226576
9
# Point 2 Energy = 0.026094420000021046
C       -5.3509380842     0.2709970284     0.0484589349
C       -4.1237726256     1.1533437393     0.1433089349
H       -5.4713985703     -0.1133874345     -0.9537017429
H       -6.3582447873     0.9181495734     0.3290677454
H       -5.2977587436     -0.4803668991     0.6722182726
O       -2.9403788342     0.4790155964     -0.2328191140
H       -4.0335767871     1.5693018737     1.1278400290
H       -4.2135331829     2.0826271564     -0.6255620766
H       -2.8132083847     -0.2624606342     0.3614990168

    This sampling was finished on:   2020-07-28 16:03:33
=------------------------------------------------------------------------------=
Sampling finished.
=------------------------------------------------------------------------------=