9
# Point -3 Energy = 0.021033259999995835
C       -5.3466813424     0.2689322509     -0.0388991441
C       -4.1590304786     1.2116573936     0.1976027641
H       -5.6173406439     -0.1396133807     -1.0072635384
H       -6.1462964450     0.9225713018     0.3292597827
H       -5.3322837063     -0.5016539360     0.7346146734
O       -2.9199897694     0.4614831302     -0.2565600202
H       -4.1873758053     1.6991554081     1.1778421941
H       -4.1681409098     1.9883798451     -0.5663659960
H       -2.7256708992     -0.2936920129     0.3000792845
9
# Point -2 Energy = 0.009652210000012929
C       -5.3564967817     0.2814904867     -0.0137908704
C       -4.1491413536     1.2010125443     0.1720442186
H       -5.5789613563     -0.1227988296     -0.9977883754
H       -6.1876671054     0.9130261797     0.3157039335
H       -5.3260909750     -0.5138554542     0.7339268429
O       -2.9287595225     0.4713036436     -0.2516568925
H       -4.1351067692     1.6676194528     1.1630573164
H       -4.1827590525     1.9984385408     -0.5696954673
H       -2.7578270837     -0.2790165641     0.3185092943
9
# Point -1 Energy = 0.0024900700000216602
C       -5.3655774744     0.2953494175     0.0112956378
C       -4.1404553278     1.1903712947     0.1470270782
H       -5.5364523451     -0.1060607439     -0.9857818572
H       -6.2275686167     0.9011752299     0.3016057694
H       -5.3197734481     -0.5228893091     0.7332487730
O       -2.9397135603     0.4809251919     -0.2475214297
H       -4.0842439092     1.6351812008     1.1468817619
H       -4.1963641705     2.0077613168     -0.5713815759
H       -2.7926611478     -0.2645935985     0.3349358427
9
# Point 0 Energy = 0
C       -5.3739015644     0.3103828479     0.0359844482
C       -4.1329966799     1.1797398635     0.1225775852
H       -5.4906299103     -0.0893361133     -0.9711879115
H       -6.2653293757     0.8871742516     0.2871686603
H       -5.3129491568     -0.5289028814     0.7323756746
O       -2.9527694211     0.4903434571     -0.2439521498
H       -4.0351786776     1.6019212828     1.1293639002
H       -4.2089333852     2.0163330192     -0.5715952114
H       -2.8301218289     -0.2504357274     0.3495750043
9
# Point 1 Energy = 0.002654890000002297
C       -5.3815022092     0.3264904888     0.0599502120
C       -4.1267031277     1.1690373986     0.0986411795
H       -5.4423345144     -0.0724976320     -0.9540588995
H       -6.3004368051     0.8712952839     0.2727188207
H       -5.3053826706     -0.5321055609     0.7310259576
O       -2.9676729513     0.4995685752     -0.2406880147
H       -3.9881857357     1.5678536193     1.1105118165
H       -4.2206369146     2.0240502969     -0.5705575083
H       -2.8699550712     -0.2364724697     0.3627664364
9
# Point 2 Energy = 0.010940240000053336
C       -5.3883368783     0.3435011632     0.0829330876
C       -4.1215586174     1.1583384994     0.0752713211
H       -5.3921573229     -0.0555716228     -0.9344887224
H       -6.3325070770     0.8537136487     0.2585860419
H       -5.2967221909     -0.5327426830     0.7289787975
O       -2.9844285836     0.5085534553     -0.2375953312
H       -3.9435944206     1.5332447568     1.0904547101
H       -4.2312804628     2.0309223314     -0.5684857870
H       -2.9122244463     -0.2227395490     0.3746558824

    This sampling was finished on:   2020-07-28 16:03:33
=------------------------------------------------------------------------------=
Sampling finished.
=------------------------------------------------------------------------------=