9
# Point 0 Energy = 0
C       -5.3739015644     0.3103828479     0.0359844482
C       -4.1329966799     1.1797398635     0.1225775852
H       -5.4906299103     -0.0893361133     -0.9711879115
H       -6.2653293757     0.8871742516     0.2871686603
H       -5.3129491568     -0.5289028814     0.7323756746
O       -2.9527694211     0.4903434571     -0.2439521498
H       -4.0351786776     1.6019212828     1.1293639002
H       -4.2089333852     2.0163330192     -0.5715952114
H       -2.8301218289     -0.2504357274     0.3495750043
9
# Point 1 Energy = 0.000398580000023685
C       -5.3742181048     0.3103481209     0.0413865662
C       -4.1339025657     1.1791112277     0.1413513207
H       -5.4195858501     -0.1801254458     -0.9308142181
H       -6.2756249957     0.9113463426     0.1705845892
H       -5.3746688394     -0.4613426014     0.8144128901
O       -2.9612194866     0.5137219886     -0.2883222654
H       -4.0124244111     1.5503775959     1.1654746230
H       -4.2291892679     2.0493336490     -0.5076199765
H       -2.8219764785     -0.2555508776     0.2638564709
9
# Point 2 Energy = 0.0014271000000007916
C       -5.3744050078     0.3100401427     0.0468205383
C       -4.1343466835     1.1775372415     0.1600859802
H       -5.3531550667     -0.2678011833     -0.8770002012
H       -6.2754285835     0.9253081868     0.0520286505
H       -5.4421069173     -0.3870081763     0.8850428024
O       -2.9708351304     0.5392735174     -0.3312470214
H       -3.9886327009     1.4971872539     1.1983612334
H       -4.2479657198     2.0789823213     -0.4415932080
H       -2.8159341901     -0.2562993041     0.1778112259
9
# Point 3 Energy = 0.002859200000045803
C       -5.3744622753     0.3094609424     0.0522687189
C       -4.1343272153     1.1750240534     0.1787221024
H       -5.2926022125     -0.3513518019     -0.8105304257
H       -6.2647423267     0.9288622820     -0.0667639878
H       -5.5139894692     -0.3067173310     0.9432978819
O       -2.9815890539     0.5669154799     -0.3725913550
H       -3.9638775871     1.4425201731     1.2279203423
H       -4.2652000203     2.1051884166     -0.3737242111
H       -2.8120198395     -0.2526822144     0.0917109343
9
# Point 4 Energy = 0.004275440000043318
C       -5.3743902601     0.3086134142     0.0577131605
C       -4.1338437769     1.1715807413     0.1972005791
H       -5.2390714608     -0.4297964842     -0.7323732660
H       -6.2437799657     0.9219092467     -0.1840618095
H       -5.5889524020     -0.2213540373     0.9883978865
O       -2.9934499931     0.5965588934     -0.4122251560
H       -3.9382366902     1.3865504563     1.2540591721
H       -4.2808339915     2.1278723996     -0.3042278844
H       -2.8102514595     -0.2447146299     0.0058273179
9
# Point 5 Energy = 0.005356349999999566
C       -5.3741896680     0.3075013295     0.0631356858
C       -4.1328974105     1.1672192442     0.2154628440
H       -5.1935620824     -0.5021924152     -0.6436645914
H       -6.2129618657     0.9044512367     -0.2981638897
H       -5.6655709854     -0.1318644888     1.0197605220
O       -3.0063827473     0.6281086307     -0.4500236654
H       -3.9117909505     1.3294557845     1.2766958225
H       -4.2948142224     2.1469659727     -0.2333240285
H       -2.8106400677     -0.2324252943     -0.0795686992
9
# Point 6 Energy = 0.005771250000009331
C       -5.3738615610     0.3061293429     0.0685179594
C       -4.1314905760     1.1619542848     0.2334510633
H       -5.1569073810     -0.5676428258     -0.5456888445
H       -6.1729054218     0.8765955124     -0.4074259790
H       -5.7423906746     -0.0392524911     1.0370086164
O       -3.0203482232     0.6614637185     -0.4858678500
H       -3.8846243605     1.2714167978     1.2957595055
H       -4.3070922819     2.1624121933     -0.1612366323
H       -2.8131895198     -0.2158565329     -0.1642078386
9
# Point 7 Energy = 0.005421590000025844
C       -5.3734073588     0.3045029904     0.0738415579
C       -4.1296271423     1.1558032842     0.2511083261
H       -5.1297574661     -0.6253058512     -0.4398579308
H       -6.1244110450     0.8385579632     -0.5102852467
H       -5.8179584894     0.0554259879     1.0399737490
O       -3.0353034962     0.6965176612     -0.5196447526
H       -3.8568236922     1.2126164704     1.3111907455
H       -4.3176249244     2.1741655521     -0.0881931450
H       -2.8178963855     -0.1950640583     -0.2478233033
9
# Point 8 Energy = 0.004380800000035379
C       -5.3728288395     0.3026286777     0.0790880419
C       -4.1273123801     1.1487862698     0.2683788315
H       -5.1125662450     -0.6744042014     -0.3276883733
H       -6.0684440777     0.7906663331     -0.6052832476
H       -5.8908542125     0.1510693505     1.0286963584
O       -3.0512018880     0.7331587912     -0.5512478165
H       -3.8284782180     1.1532394890     1.3229415412
H       -4.3263742940     2.1821920098     -0.0144237388
H       -2.8247498452     -0.1701167197     -0.3301515966
9
# Point 9 Energy = 0.0029504500000143707
C       -5.3721281383     0.3005136559     0.0842390290
C       -4.1245529568     1.1409257784     0.2852080694
H       -5.1055829156     -0.7142355656     -0.2107772053
H       -6.0061130848     0.7333628564     -0.6910867295
H       -5.9597206759     0.2465381903     1.0034224332
O       -3.0679930652     0.7712706415     -0.5805771866
H       -3.7996794244     1.0934716443     1.3309754860
H       -4.3333081292     2.1864689937     0.0598394253
H       -2.8337316096     -0.1410961949     -0.4109333214
9
# Point 10 Energy = 0.0015195900000435358
C       -5.3713077441     0.2981659850     0.0892762713
C       -4.1213569342     1.1322467582     0.3015429920
H       -5.1088481275     -0.7441836000     -0.0907770796
H       -5.9386450478     0.6672059848     -0.7665059656
H       -6.0232924355     0.3406645616     0.9645969581
O       -3.0856231624     0.8107323390     -0.6075399890
H       -3.7705207148     1.0334992470     1.3352678455
H       -4.3383999702     2.1869853551     0.1343629222
H       -2.8448158634     -0.1080966307     -0.4899139549
9
# Point 11 Energy = 0.00046061000000463537
C       -5.3703704927     0.2955944835     0.0941817367
C       -4.1177337674     1.1227764715     0.3173321733
H       -5.1221948732     -0.7637292721     0.0306289279
H       -5.8673580573     0.5928708773     -0.8305103638
H       -6.0804221739     0.4322627944     0.9128543540
O       -3.1040349322     0.8514190124     -0.6320505920
H       -3.7410970964     0.9735085768     1.3358055947
H       -4.3416293688     2.1837412942     0.2089127673
H       -2.8579692380     -0.0712242379     -0.5668445980
9
# Point 12 Energy = 6.0369999999920765e-05
C       -5.3693195566     0.2928086650     0.0989376966
C       -4.1136943053     1.1125444016     0.3325259555
H       -5.1452540554     -0.7724622764     0.1517523656
H       -5.7936321541     0.5111483390     -0.8822411764
H       -6.1301042338     0.5201418802     0.8490061974
O       -3.1231679292     0.8932022080     -0.6540308521
H       -3.7115048490     0.9136853738     1.3325874160
H       -4.3429820963     2.1767482610     0.2832550977
H       -2.8731508201     -0.0305968523     -0.6414827002
9
# Point 13 Energy = 0.0004290100000048369
C       -5.3681584307     0.2898186630     0.1035268183
C       -4.1092507892     1.1015821670     0.3470765833
H       -5.1774645726     -0.7700921803     0.2709238723
H       -5.7188790067     0.4229419185     -0.9210212045
H       -6.1714947523     0.6031193785     0.7740265480
O       -3.1429587301     0.9359503104     -0.6734103489
H       -3.6818411707     0.8542143751     1.3256236644
H       -4.3424503440     2.1660288398     0.3571568269
H       -2.8903122037     0.0136565279     -0.7135927596
9
# Point 14 Energy = 0.0014659100000073977
C       -5.3668909126     0.2866351450     0.1079322621
C       -4.1044168479     1.0899234445     0.3609383258
H       -5.2180876610     -0.7564589248     0.3865166669
H       -5.6445111357     0.3292629213     -0.9463614631
H       -6.2039279502     0.6800367142     0.6890352433
O       -3.1633411924     0.9795289606     -0.6901266116
H       -3.6522037989     0.7952788953     1.3149363051
H       -4.3400329075     2.1516166288     0.4303862753
H       -2.9093975938     0.0613962151     -0.7829470037
9
# Point 15 Energy = 0.0028741200000013123
C       -5.3655210804     0.2832692211     0.1121377812
C       -4.0992074871     1.0776039005     0.3740675901
H       -5.2662251344     -0.7315422821     0.4969687113
H       -5.5719114048     0.2312231553     -0.9579648380
H       -6.2269282180     0.7497756623     0.5952795361
O       -3.1842467541     1.0238014684     -0.7041253377
H       -3.6226906072     0.7370604472     1.3005588292
H       -4.3357353444     2.1335561215     0.5027137820
H       -2.9303439695     0.1124723058     -0.8493260540
9
# Point 16 Energy = 0.004292990000010377
C       -5.3640532652     0.2797323481     0.1161278215
C       -4.0936390689     1.0646611319     0.3864230281
H       -5.3208410803     -0.6954698665     0.6008032433
H       -5.5024034893     0.1300252879     -0.9557268264
H       -6.2402177397     0.8112757482     0.4941144600
O       -3.2056047715     1.0686292180     -0.7153606055
H       -3.5933991789     0.6797383906     1.2825361527
H       -4.3295700926     2.1119025968     0.5739123052
H       -2.9530813135     0.1667251449     -0.9125195789
9
# Point 17 Energy = 0.005331260000019711
C       -5.3624920219     0.2760362357     0.1198876190
C       -4.0877292805     1.0511346108     0.3979656410
H       -5.3807864855     -0.6485233069     0.6966474316
H       -5.4372240143     0.0269507749     -0.9397335101
H       -6.2437194945     0.8635522267     0.3869823090
O       -3.2273428914     1.1138720636     -0.7237950767
H       -3.5644263625     0.6234895980     1.2609245018
H       -4.3215565387     2.0867220195     0.6437580234
H       -2.9775329105     0.2239857778     -0.9723269389
9
# Point 18 Energy = 0.005744120000002795
C       -5.3608420995     0.2721927581     0.1234032916
C       -4.0814970883     1.0370656323     0.4086588841
H       -5.4448261984     -0.5911422150     0.7832489645
H       -5.3774970212     -0.0766546060     -0.9102569547
H       -6.2375555836     0.9057142594     0.2753916000
O       -3.2493874512     1.1593887175     -0.7294001868
H       -3.5358678158     0.5684881187     1.2357912841
H       -4.3117210244     2.0580909482     0.7120309437
H       -3.0036157175     0.2840763868     -1.0285578265
9
# Point 19 Energy = 0.0053750100000229395
C       -5.3591084106     0.2682138760     0.1266619227
C       -4.0749626770     1.0224972580     0.4184687744
H       -5.5116675730     -0.5239256192     0.8594904422
H       -5.3242113699     -0.1793974993     -0.8677482682
H       -6.2220409416     0.9369828611     0.1608958708
O       -3.2716638980     1.2050371323     -0.7321563167
H       -3.5078175464     0.5149048269     1.2072149447
H       -4.3000967816     2.0260964465     0.7785155307
H       -3.0312408017     0.3468107176     -1.0810329004
9
# Point 20 Energy = 0.004340310000003456
C       -5.3572960054     0.2641115721     0.1296516337
C       -4.0681473722     1.0074742509     0.4273640014
H       -5.5799900923     -0.4476305893     0.9244015039
H       -5.2782016216     -0.2798558022     -0.8128285776
H       -6.1976726011     0.9567081656     0.0450726317
O       -3.2940972157     1.2506748783     -0.7320529401
H       -3.4803674605     0.4629070392     1.1752848018
H       -4.2867237926     1.9908359849     0.8430013571
H       -3.0603138384     0.4119945004     -1.1295844118
9
# Point 21 Energy = 0.0028996300000017072
C       -5.3554100484     0.2598978045     0.1323616443
C       -4.0610735482     0.9920429960     0.4353160423
H       -5.6484752327     -0.3631678363     0.9771686767
H       -5.2401328677     -0.3765993096     -0.7462781965
H       -6.1651147948     0.9643855367     -0.0704972483
O       -3.3166123471     1.2961595218     -0.7290887382
H       -3.4536069297     0.4126580876     1.1401008547
H       -4.2716485711     1.9524173222     0.9052837819
H       -3.0907356603     0.4794258772     -1.1740568167
9
# Point 22 Energy = 0.0014650399999993624
C       -5.3534558026     0.2555844780     0.1347823195
C       -4.0537645204     0.9762514018     0.4422992788
H       -5.7158358159     -0.2715941448     1.0171429841
H       -5.2104898727     -0.4682118319     -0.6690242612
H       -6.1251802902     0.9596700508     -0.1842494861
O       -3.3391345999     1.3413490050     -0.7232716762
H       -3.4276223878     0.3643168443     1.1017735569
H       -4.2549238686     1.9109583515     0.9651646513
H       -3.1224028418     0.5488958453     -1.2143073668
9
# Point 23 Energy = 0.00041857000002210043
C       -5.3514386199     0.2511834360     0.1369052029
C       -4.0462444274     0.9601487800     0.4482911134
H       -5.7808440952     -0.1741015785     1.0438453945
H       -5.1895707889     -0.5533143759     -0.5821270985
H       -6.0788084595     0.9423888843     -0.2946554720
O       -3.3615900249     1.3861020313     -0.7146190341
H       -3.4024969667     0.3180371945     1.0604235459
H       -4.2366083137     1.8665868982     1.0224530171
H       -3.1552083038     0.6201887301     -1.2502066691
9
# Point 24 Energy = 6.29800000240266e-05
C       -5.3493639385     0.2467064692     0.1387230378
C       -4.0385381039     0.9437857006     0.4532720817
H       -5.8423578487     -0.0720034866     1.0569702188
H       -5.1774855761     -0.6305889219     -0.4867655710
H       -6.0270406811     0.9125511641     -0.4002403620
O       -3.3839057553     1.4302784584     -0.7031573882
H       -3.3783101805     0.2739674636     1.0161813240
H       -4.2167659961     1.8194404561     1.0769658612
H       -3.1890419198     0.6930826966     -1.2816392023
9
# Point 25 Energy = 0.00043795000001978224
C       -5.3472372884     0.2421653409     0.1402297762
C       -4.0306709504     0.9272138236     0.4572259564
H       -5.8993438022     0.0332825632     1.0563865856
H       -5.1741591239     -0.6988022806     -0.3842216123
H       -5.9709937540     0.8703548800     -0.4996000809
O       -3.4060103018     1.4737396981     -0.6889225405
H       -3.3551376627     0.2322498083     0.9691868837
H       -4.1954660094     1.7696658563     1.1285288121
H       -3.2237911070     0.7673503101     -1.3085037800
9
# Point 26 Energy = 0.0014750400000025365
C       -5.3450643020     0.2375718234     0.1414205785
C       -4.0226688020     0.9104857105     0.4601398383
H       -5.9508977766     0.1402547048     1.0421381238
H       -5.1793389375     -0.7568294789     -0.2758641301
H       -5.9118320658     0.8161905153     -0.5914171817
O       -3.4278337984     1.5163491259     -0.6719593953
H       -3.3330509581     0.1930195873     0.9195892781
H       -4.1727819731     1.7174188625     1.1769768400
H       -3.2593413864     0.8427591492     -1.3307139514
9
# Point 27 Energy = 0.002890300000018442
C       -5.3428507286     0.2329377421     0.1422918060
C       -4.0145578020     0.8936546177     0.4620042325
H       -5.9962610523     0.2473492278     1.0144409761
H       -5.1926071068     -0.8036761070     -0.1631324176
H       -5.8507392946     0.7506411246     -0.6744755317
O       -3.4493081984     1.5579724965     -0.6523217861
H       -3.3121173694     0.1564047284     0.8675461366
H       -4.1487915489     1.6628636945     1.2221549150
H       -3.2955768989     0.9190724755     -1.3481983307
9
# Point 28 Energy = 0.004346410000010792
C       -5.3406024522     0.2282750208     0.1428410068
C       -4.0063642825     0.8767742785     0.4628131052
H       -6.0348325602     0.3529651582     0.9736802473
H       -5.2133961513     -0.8384990561     -0.0475191790
H       -5.7888904364     0.6744786782     -0.7476738168
O       -3.4703674252     1.5984783657     -0.6300722565
H       -3.2923998528     0.1225251128     0.8132231301
H       -4.1235759695     1.6061724859     1.2639186153
H       -3.3323808697     0.9960499560     -1.3609008523
9
# Point 29 Energy = 0.005415320000025758
C       -5.3383255069     0.2235957243     0.1430668986
C       -3.9981146557     0.8598986805     0.4625639200
H       -6.0661766397     0.4554904786     0.9204049643
H       -5.2410082163     -0.8606250990     0.0694467541
H       -5.7274249331     0.5886565893     -0.8100378559
O       -3.4909474822     1.6377385150     -0.6052818012
H       -3.2739569556     0.0914919922     0.7567933937
H       -4.0972195941     1.5475246840     1.3021346754
H       -3.3696360163     1.0734484350     -1.3687809489
9
# Point 30 Energy = 0.00581309000000374
C       -5.3360260910     0.2189120929     0.1429693496
C       -3.9898353158     0.8430818425     0.4612576541
H       -6.0900262436     0.5533294340     0.8553216000
H       -5.2746369968     -0.8695668052     0.1862179570
H       -5.6674216317     0.4942984499     -0.8607317123
O       -3.5109865315     1.6756283773     -0.5780295744
H       -3.2568427861     0.0634074577     0.6984369145
H       -4.0698095017     1.4871064053     1.3366814686
H       -3.4072249016     1.1510227455     -1.3718136571
9
# Point 31 Energy = 0.00543003000001363
C       -5.3337105749     0.2142365657     0.1425493574
C       -3.9815525532     0.8263775977     0.4588987936
H       -6.1062816167     0.6449303270     0.7792861839
H       -5.3133916963     -0.8650353399     0.3012461486
H       -5.6098762401     0.3926831107     -0.8990675719
O       -3.5304249506     1.7120274600     -0.5484025722
H       -3.2411070059     0.0383639685     0.6383398929
H       -4.0414351253     1.4251097575     1.3674494203
H       -3.4450302368     1.2285265529     -1.3699896525
9
# Point 32 Energy = 0.0043731000000093445
C       -5.3313855027     0.2095817899     0.1418090293
C       -3.9732924797     0.8098393871     0.4554953092
H       -6.1150046090     0.7288131786     0.6932950020
H       -5.3563222742     -0.8469497750     0.4130000769
H       -5.5556818499     0.2852263445     -0.9245143371
O       -3.5492053760     1.7468197628     -0.5164952968
H       -3.2267948336     0.0164439516     0.5766940868
H       -4.0121879312     1.3617321420     1.3943413530
H       -3.4829351436     1.3057132186     -1.3633152231
9
# Point 33 Energy = 0.0029425800000240088
C       -5.3290575856     0.2049606158     0.1407515617
C       -3.9650809617     0.7935200658     0.4510586152
H       -6.1164089212     0.8035966281     0.5984738749
H       -5.4024452175     -0.8154426257     0.5199834891
H       -5.5056129950     0.1734594346     -0.9367048572
O       -3.5672727446     1.7798941878     -0.4824094068
H       -3.2139470522     -0.0022805287     0.5136961445
H       -3.9821611365     1.2971755473     1.4172727667
H       -3.5208233857     1.3823366751     -1.3518121880
9
# Point 34 Energy = 0.0014917900000170903
C       -5.3267336873     0.2003860764     0.1393812218
C       -3.9569435613     0.7774717235     0.4456035120
H       -6.1108466940     0.8680234621     0.4960659997
H       -5.4507690741     -0.7708614268     0.6207530998
H       -5.4603135930     0.0590051134     -0.9354416956
O       -3.5845743372     1.8111449381     -0.4462533603
H       -3.2026000127     -0.0177480302     0.4495469302
H       -3.9514494592     1.2316458404     1.4361720605
H       -3.5585795812     1.4581523031     -1.3355177681
9
# Point 35 Energy = 0.0004230900000266047
C       -5.3244208010     0.1958713549     0.1377033295
C       -3.9489054801     0.7617455176     0.4391481145
H       -6.0987919555     0.9209842034     0.3874183449
H       -5.5003190122     -0.7137662623     0.7139364413
H       -5.4202889911     -0.0564486528     -0.9207013074
O       -3.6010598308     1.8404719030     -0.4081420507
H       -3.1927856302     -0.0299079279     0.3844508459
H       -3.9201488910     1.1653520627     1.4509806987
H       -3.5960894081     1.5329178015     -1.3144844166
9
# Point 36 Energy = 3.290000023525863e-06
C       -5.3221260202     0.1914297402     0.1357242407
C       -3.9409915057     0.7463915200     0.4317137678
H       -6.0808215243     0.9615382372     0.2739666069
H       -5.5501597197     -0.6449232673     0.7982494502
H       -5.3859022074     -0.1711764838     -0.8926364916
O       -3.6166813598     1.8677810262     -0.3681964390
H       -3.1845313717     -0.0387205513     0.3186151490
H       -3.8883564823     1.0985057314     1.4616533288
H       -3.6332398088     1.6063940473     -1.2887796127

    This sampling was finished on:   2020-07-28 16:03:33
=------------------------------------------------------------------------------=
Sampling finished.
=------------------------------------------------------------------------------=