9
# Point -2 Energy = 0.010555470000014111
C       -5.3735716940     0.3397937108     -0.0279579038
C       -4.1082363957     1.1543896895     0.1401922779
H       -5.5159309387     -0.1137475082     -1.0075752566
H       -6.2621786047     0.8725185069     0.3114001909
H       -5.2545038765     -0.4763415968     0.6926008210
O       -2.9369172861     0.4808195448     -0.2484894017
H       -3.9231125967     1.5839477088     1.1296568274
H       -4.3051724288     1.9769668365     -0.5457811182
H       -2.9231861787     -0.2011268923     0.4262635632
9
# Point -1 Energy = 0.002610220000008212
C       -5.3738597023     0.3249332884     0.0037266953
C       -4.1202215402     1.1675933823     0.1315242159
H       -5.5033454934     -0.1022849617     -0.9899655002
H       -6.2645845725     0.8801941951     0.3000339225
H       -5.2834273578     -0.5033433635     0.7122782582
O       -2.9446706243     0.4859779126     -0.2467782331
H       -3.9789522094     1.5938445256     1.1305136394
H       -4.2574433049     1.9981919699     -0.5598725299
H       -2.8763051951     -0.2278869488     0.3888495322
9
# Point 0 Energy = 0
C       -5.3739015644     0.3103828479     0.0359844482
C       -4.1329966799     1.1797398635     0.1225775852
H       -5.4906299103     -0.0893361133     -0.9711879115
H       -6.2653293757     0.8871742516     0.2871686603
H       -5.3129491568     -0.5289028814     0.7323756746
O       -2.9527694211     0.4903434571     -0.2439521498
H       -4.0351786776     1.6019212828     1.1293639002
H       -4.2089333852     2.0163330192     -0.5715952114
H       -2.8301218289     -0.2504357274     0.3495750043
9
# Point 1 Energy = 0.0025504200000057153
C       -5.3734931163     0.2962917703     0.0686898226
C       -4.1464351238     1.1910378152     0.1133757948
H       -5.4776803673     -0.0750539288     -0.9511805321
H       -6.2643138656     0.8931236612     0.2725960534
H       -5.3425592589     -0.5527298650     0.7528659847
O       -2.9615605199     0.4935562909     -0.2403144677
H       -4.0915936589     1.6084091258     1.1263004769
H       -4.1598910742     2.0315521079     -0.5806431926
H       -2.7852830150     -0.2689669774     0.3086200601
9
# Point 2 Energy = 0.010062470000008261
C       -5.3729429030     0.2828187456     0.1016654530
C       -4.1604540306     1.2010912124     0.1037710203
H       -5.4652286374     -0.0595401616     -0.9299612286
H       -6.2616286503     0.8981399862     0.2562219950
H       -5.3725689121     -0.5745625935     0.7736834641
O       -2.9705721453     0.4958979486     -0.2359166605
H       -4.1477820603     1.6128464873     1.1212776696
H       -4.1105129837     2.0435247694     -0.5868061823
H       -2.7411196772     -0.2829963943     0.2663744695

    This sampling was finished on:   2020-07-28 16:03:33
=------------------------------------------------------------------------------=
Sampling finished.
=------------------------------------------------------------------------------=