9
# Point -2 Energy = 0.01361607000001186
C       -5.4338216504     0.2523749181     0.0298207762
C       -4.1870744595     1.1542843175     0.1255996030
H       -5.3857133891     -0.0524047321     -1.0113585948
H       -6.2085437604     0.9501030892     0.3408916592
H       -5.2101151015     -0.5231876726     0.7619586364
O       -2.9931138191     0.4943087591     -0.2746628763
H       -4.0786468973     1.5882956151     1.1282417313
H       -4.1709737410     1.9805815796     -0.5844129481
H       -2.9348071816     -0.2271358740     0.3542320131
9
# Point -1 Energy = 0.0032321400000228095
C       -5.4026084454     0.2826793474     0.0332443757
C       -4.1586064148     1.1681482895     0.1244407129
H       -5.4403511473     -0.0733585937     -0.9940515132
H       -6.2411533103     0.9188290414     0.3147731713
H       -5.2635318920     -0.5295105013     0.7483149343
O       -2.9717486043     0.4928704184     -0.2593446503
H       -4.0551105051     1.5962357813     1.1291534867
H       -4.1884252847     2.0001974411     -0.5785118662
H       -2.8812743958     -0.2388712240     0.3522913489
9
# Point 0 Energy = 0
C       -5.3739015644     0.3103828479     0.0359844482
C       -4.1329966799     1.1797398635     0.1225775852
H       -5.4906299103     -0.0893361133     -0.9711879115
H       -6.2653293757     0.8871742516     0.2871686603
H       -5.3129491568     -0.5289028814     0.7323756746
O       -2.9527694211     0.4903434571     -0.2439521498
H       -4.0351786776     1.6019212828     1.1293639002
H       -4.2089333852     2.0163330192     -0.5715952114
H       -2.8301218289     -0.2504357274     0.3495750043
9
# Point 1 Energy = 0.0030030600000543473
C       -5.3470200238     0.3361245380     0.0380181233
C       -4.1095579279     1.1896894040     0.1201329556
H       -5.5375242348     -0.1013734317     -0.9440108138
H       -6.2829110946     0.8550388968     0.2584467946
H       -5.3587698824     -0.5227960684     0.7147403121
O       -2.9358480115     0.4868054894     -0.2285128906
H       -4.0182957429     1.6059613115     1.1290040559
H       -4.2315991026     2.0294927710     -0.5636504266
H       -2.7812839794     -0.2617229105     0.3461418895
9
# Point 2 Energy = 0.011692870000018729
C       -5.3217654121     0.3603343480     0.0392626058
C       -4.0878940793     1.1981475062     0.1170683865
H       -5.5821143678     -0.1100973109     -0.9132485905
H       -6.2952287238     0.8223561833     0.2289736717
H       -5.4018525457     -0.5122263536     0.6956327487
O       -2.9203907972     0.4826558603     -0.2128880246
H       -4.0037827588     1.6084678564     1.1280104824
H       -4.2556638175     2.0398441496     -0.5547326576
H       -2.7341174976     -0.2722622395     0.3422313777

    This sampling was finished on:   2020-07-28 16:03:33
=------------------------------------------------------------------------------=
Sampling finished.
=------------------------------------------------------------------------------=