9
# Point -3 Energy = 0.013844110000007959
C       -5.3756711064     0.2832106051     0.1288107034
C       -4.1351923142     1.1504718576     0.2021222605
H       -5.3523875743     0.1116560933     -0.9498928377
H       -6.2583534877     0.9036415191     0.2903568092
H       -5.4975577419     -0.6711578914     0.6388240650
O       -2.9883675921     0.4671863255     -0.2625111033
H       -3.9470252260     1.7516704420     1.0956285621
H       -4.3283641874     1.8324800404     -0.6288189451
H       -2.7198907698     -0.2119389917     0.3557904859
9
# Point -2 Energy = 0.00602571000001717
C       -5.3760274787     0.2936810019     0.0989277348
C       -4.1337487661     1.1594154844     0.1752436751
H       -5.4007308823     0.0452289496     -0.9637614655
H       -6.2634698012     0.8985734075     0.2907601001
H       -5.4377248960     -0.6304507465     0.6737231381
O       -2.9745282014     0.4749206715     -0.2573878607
H       -3.9740144878     1.7042846439     1.1105915053
H       -4.2882159061     1.8970718111     -0.6141364796
H       -2.7543495802     -0.2255052234     0.3563496525
9
# Point -1 Energy = 0.0014760600000158774
C       -5.3754657617     0.3028032974     0.0678343942
C       -4.1330235661     1.1692050264     0.1486780272
H       -5.4470823226     -0.0220847760     -0.9709341055
H       -6.2658304129     0.8930806688     0.2895555608
H       -5.3758823317     -0.5828813952     0.7051783791
O       -2.9626293898     0.4827087031     -0.2512240261
H       -4.0035081859     1.6542311275     1.1219832978
H       -4.2482017924     1.9585368029     -0.5949702896
H       -2.7911862369     -0.2383794549     0.3542087623
9
# Point 0 Energy = 0
C       -5.3739015644     0.3103828479     0.0359844482
C       -4.1329966799     1.1797398635     0.1225775852
H       -5.4906299103     -0.0893361133     -0.9711879115
H       -6.2653293757     0.8871742516     0.2871686603
H       -5.3129491568     -0.5289028814     0.7323756746
O       -2.9527694211     0.4903434571     -0.2439521498
H       -4.0351786776     1.6019212828     1.1293639002
H       -4.2089333852     2.0163330192     -0.5715952114
H       -2.8301218289     -0.2504357274     0.3495750043
9
# Point 1 Energy = 0.0014646900000059304
C       -5.3712967144     0.3163359658     0.0037988197
C       -4.1335243809     1.1907662993     0.0970294806
H       -5.5309450173     -0.1555183504     -0.9645710098
H       -6.2618465902     0.8810314960     0.2840732680
H       -5.2498901953     -0.4690777115     0.7547291313
O       -2.9447502987     0.4977032907     -0.2354682124
H       -4.0689365382     1.5475947856     1.1324058993
H       -4.1710729332     2.0698976557     -0.5444194626
H       -2.8705473317     -0.2615134312     0.3427320859
9
# Point 2 Energy = 0.0059620500000221455
C       -5.3675644434     0.3205058710     -0.0283124197
C       -4.1346996826     1.2023312762     0.0722164997
H       -5.5674759102     -0.2197217705     -0.9514280936
H       -6.2554335919     0.8744032495     0.2806996784
H       -5.1873740774     -0.4042690949     0.7717999037
O       -2.9388693357     0.5045860047     -0.2256824792
H       -4.1040157893     1.4918859871     1.1308945154
H       -4.1348557397     2.1190549427     -0.5139284053
H       -2.9125214297     -0.2715564658     0.3340508008
9
# Point 3 Energy = 0.0136588900000163
C       -5.3626653372     0.3228218913     -0.0598736907
C       -4.1364994470     1.2143260230     0.0482616770
H       -5.5998271945     -0.2809724523     -0.9323529693
H       -6.2461311761     0.8672237028     0.2774773260
H       -5.1263147978     -0.3354811591     0.7834302728
O       -2.9351578704     0.5108796958     -0.2145545383
H       -4.1398275468     1.4353066722     1.1247471304
H       -4.1006436870     2.1635551828     -0.4807349641
H       -2.9557429431     -0.2804395565     0.3239097563

    This sampling was finished on:   2020-07-28 16:03:33
=------------------------------------------------------------------------------=
Sampling finished.
=------------------------------------------------------------------------------=