9
# Point -2 Energy = 0.03533331000002704
C       -5.3902863636     0.2950030719     0.0411358187
C       -4.1427804821     1.1747756676     0.1247661636
H       -5.4905674499     -0.0635178202     -0.8712920098
H       -6.1824182706     0.8139384767     0.2657026981
H       -5.3299137972     -0.4330230569     0.6480205224
O       -2.9618864369     0.4869488290     -0.2432066698
H       -4.0465944904     1.5923772134     1.1195421327
H       -4.2211229304     2.0032896541     -0.5644604200
H       -2.8372397788     -0.2525720357     0.3501017642
9
# Point -1 Energy = 0.007794220000022278
C       -5.3821524329     0.3026687681     0.0385506870
C       -4.1379392653     1.1772264628     0.1236734637
H       -5.4905185570     -0.0763835975     -0.9212973929
H       -6.2238469691     0.8506634874     0.2764428107
H       -5.3212185035     -0.4809306548     0.6902443510
O       -2.9573774734     0.4886138274     -0.2435739460
H       -4.0409420217     1.5971194359     1.1244544924
H       -4.2150823549     2.0097790866     -0.5680290073
H       -2.8337324222     -0.2515368159     0.3498445415
9
# Point 0 Energy = 0
C       -5.3739015644     0.3103828479     0.0359844482
C       -4.1329966799     1.1797398635     0.1225775852
H       -5.4906299103     -0.0893361133     -0.9711879115
H       -6.2653293757     0.8871742516     0.2871686603
H       -5.3129491568     -0.5289028814     0.7323756746
O       -2.9527694211     0.4903434571     -0.2439521498
H       -4.0351786776     1.6019212828     1.1293639002
H       -4.2089333852     2.0163330192     -0.5715952114
H       -2.8301218289     -0.2504357274     0.3495750043
9
# Point 1 Energy = 0.0061771200000180215
C       -5.3655339649     0.3181436542     0.0334379758
C       -4.1279536764     1.1823155925     0.1214781809
H       -5.4909018019     -0.1023749411     -1.0209618953
H       -6.3068641223     0.9234691717     0.2978811092
H       -5.3051023574     -0.5769377266     0.7744142230
O       -2.9480628810     0.4921382996     -0.2443421732
H       -4.0293051775     1.6067830064     1.1342697573
H       -4.2026785176     2.0229507463     -0.5751597206
H       -2.8264075008     -0.2492678030     0.3492925429
9
# Point 2 Energy = 0.022149379999973462
C       -5.3570500578     0.3259495886     0.0309120249
C       -4.1228112719     1.1849532273     0.1203749304
H       -5.4913347883     -0.1154996650     -1.0706177668
H       -6.3484500901     0.9595466492     0.3085809611
H       -5.2976747757     -0.6250331259     0.8163596920
O       -2.9432583141     0.4939990746     -0.2447447635
H       -4.0233219911     1.6117047425     1.1391714492
H       -4.1963199977     2.0296314592     -0.5787231937
H       -2.8225887133     -0.2480319505     0.3489966665

    This sampling was finished on:   2020-07-28 16:03:33
=------------------------------------------------------------------------------=
Sampling finished.
=------------------------------------------------------------------------------=