9
# Point -2 Energy = 0.011480840000018588
C       -5.4034761585     0.2806114378     0.0145908115
C       -4.1931090807     1.1880154803     0.1230805746
H       -5.4980806207     -0.0900900806     -1.0048019873
H       -6.2641813780     0.9114091355     0.2431458594
H       -5.3180542350     -0.5097890365     0.7580340161
O       -2.9837516271     0.4827865181     -0.1749147696
H       -3.9084291134     1.5814093497     1.1017022199
H       -4.2911479745     2.0436255629     -0.5488871501
H       -2.7425798120     -0.2707583672     0.3583604257
9
# Point -1 Energy = 0.0029366700000537094
C       -5.3886312752     0.2955052449     0.0249825881
C       -4.1634557982     1.1849740200     0.1220540204
H       -5.4938674587     -0.0907757643     -0.9881196599
H       -6.2659643744     0.8985931222     0.2642786974
H       -5.3145943461     -0.5191623260     0.7459116199
O       -2.9686300766     0.4868048626     -0.2103716318
H       -3.9706244003     1.5929420264     1.1189681854
H       -4.2499684894     2.0311990621     -0.5611682306
H       -2.7870737809     -0.2628602479     0.3537744112
9
# Point 0 Energy = 0
C       -5.3739015644     0.3103828479     0.0359844482
C       -4.1329966799     1.1797398635     0.1225775852
H       -5.4906299103     -0.0893361133     -0.9711879115
H       -6.2653293757     0.8871742516     0.2871686603
H       -5.3129491568     -0.5289028814     0.7323756746
O       -2.9527694211     0.4903434571     -0.2439521498
H       -4.0351786776     1.6019212828     1.1293639002
H       -4.2089333852     2.0163330192     -0.5715952114
H       -2.8301218289     -0.2504357274     0.3495750043
9
# Point 1 Energy = 0.0030243600000119386
C       -5.3588759209     0.3251855598     0.0476628884
C       -4.1019571107     1.1730319796     0.1246652987
H       -5.4876847114     -0.0858983289     -0.9540101466
H       -6.2624254410     0.8765972561     0.3116765282
H       -5.3123712984     -0.5387920670     0.7174664772
O       -2.9370138267     0.4930335761     -0.2755607738
H       -4.1011565697     1.6082641278     1.1326174733
H       -4.1684829712     1.9998463544     -0.5800633823
H       -2.8728421501     -0.2340484578     0.3458556371
9
# Point 2 Energy = 0.012275340000002188
C       -5.3438916138     0.3398214910     0.0601215568
C       -4.0706651080     1.1646524310     0.1283812118
H       -5.4852847285     -0.0806604378     -0.9365065749
H       -6.2577272776     0.8669105970     0.3375665088
H       -5.3134953507     -0.5486176501     0.7013676357
O       -2.9211960295     0.4955124257     -0.3050922684
H       -4.1678324591     1.6113248250     1.1285887572
H       -4.1283142016     1.9816165343     -0.5865311619
H       -2.9144032311     -0.2133402162     0.3424143350

    This sampling was finished on:   2020-07-28 16:03:33
=------------------------------------------------------------------------------=
Sampling finished.
=------------------------------------------------------------------------------=