9
# Point -3 Energy = 0.020407970000007936
C       -5.3296160678     0.2030525051     0.0469397029
C       -4.0673241671     1.2196584748     0.0857716926
H       -5.5351287863     -0.1263261518     -0.9727166833
H       -6.1397958791     0.9105259151     0.2569213259
H       -5.4458473341     -0.6398175654     0.7300615968
O       -2.9134064494     0.5095601083     -0.2715304330
H       -3.9014314658     1.5930143012     1.1052428224
H       -4.2760330119     2.0930185689     -0.5333411244
H       -2.9942268382     -0.1454661562     0.4229611004
9
# Point -2 Energy = 0.009276730000010502
C       -5.3443574543     0.2388098396     0.0422592369
C       -4.0884726831     1.2069209350     0.0978247328
H       -5.5215763881     -0.1152216512     -0.9740102900
H       -6.1830561907     0.9044480293     0.2680503943
H       -5.4024395035     -0.6047935322     0.7324634241
O       -2.9249616393     0.5054627952     -0.2635965392
H       -3.9461820716     1.5960026025     1.1141908407
H       -4.2545636262     2.0698906585     -0.5476355032
H       -2.9372004430     -0.1842996768     0.4007637037
9
# Point -1 Energy = 0.002370110000015302
C       -5.3592057665     0.2746464985     0.0386079862
C       -4.1103708799     1.1935899628     0.1100945680
H       -5.5067729599     -0.1028107577     -0.9735296228
H       -6.2250736851     0.8965922943     0.2781950715
H       -5.3579820151     -0.5678201952     0.7332283583
O       -2.9381087170     0.4989948177     -0.2543294864
H       -3.9908231366     1.5989671760     1.1222234282
H       -4.2320911960     2.0443398204     -0.5604536068
H       -2.8823816439     -0.2192796168     0.3762733039
9
# Point 0 Energy = 0
C       -5.3739015644     0.3103828479     0.0359844482
C       -4.1329966799     1.1797398635     0.1225775852
H       -5.4906299103     -0.0893361133     -0.9711879115
H       -6.2653293757     0.8871742516     0.2871686603
H       -5.3129491568     -0.5289028814     0.7323756746
O       -2.9527694211     0.4903434571     -0.2439521498
H       -4.0351786776     1.6019212828     1.1293639002
H       -4.2089333852     2.0163330192     -0.5715952114
H       -2.8301218289     -0.2504357274     0.3495750043
9
# Point 1 Energy = 0.0024734100000216586
C       -5.3882333383     0.3458839755     0.0343848906
C       -4.1562718090     1.1653785588     0.1352777986
H       -5.4731148639     -0.0750750119     -0.9668694316
H       -6.3034018154     0.8765326092     0.2947477838
H       -5.2678388100     -0.4880798662     0.7300238842
O       -2.9687577317     0.4797572442     -0.2326982635
H       -4.0792786342     1.6047929850     1.1356823653
H       -4.1853321445     1.9858071314     -0.5808837568
H       -2.7805808529     -0.2777776261     0.3206447295
9
# Point 2 Energy = 0.010105220000014015
C       -5.4019467452     0.3809811486     0.0337578400
C       -4.1801711040     1.1506511461     0.1481845959
H       -5.4541476557     -0.0603232095     -0.9605117686
H       -6.3389346034     0.8649153359     0.3007064856
H       -5.2229884372     -0.4455571698     0.7262464175
O       -2.9860569937     0.4673937654     -0.2207207919
H       -4.1227779619     1.6076241351     1.1412118637
H       -4.1616073356     1.9528961428     -0.5881563788
H       -2.7341791632     -0.3013612947     0.2895917367

    This sampling was finished on:   2020-07-28 16:03:33
=------------------------------------------------------------------------------=
Sampling finished.
=------------------------------------------------------------------------------=