9
# Point -3 Energy = 0.010300660000041262
C       -5.3310383537     0.3397128802     0.0481872202
C       -4.1506857433     1.2534408403     0.1504626930
H       -5.3188310378     -0.0571568388     -0.9665684931
H       -6.3153159378     0.7496457887     0.2691679899
H       -5.1491468232     -0.5033598609     0.7203193867
O       -3.1299373009     0.3855840977     -0.2825809540
H       -3.9447775345     1.6925454047     1.1329053410
H       -4.2026905535     2.0756970874     -0.5627025880
H       -3.0603867152     -0.3188893992     0.3611194043
9
# Point -2 Energy = 0.0042895400000020345
C       -5.3453121007     0.3302293332     0.0443047278
C       -4.1452608421     1.2304749411     0.1414410683
H       -5.3755950865     -0.0701671694     -0.9687535360
H       -6.3023144752     0.7970796473     0.2755143288
H       -5.2037915313     -0.5131501564     0.7250788252
O       -3.0674490934     0.4195568273     -0.2708592299
H       -3.9758483167     1.6642548581     1.1333477042
H       -4.2044449304     2.0574017309     -0.5657664574
H       -2.9827936235     -0.2984600120     0.3560025691
9
# Point -1 Energy = 0.0010101300000258107
C       -5.3596139694     0.3204307969     0.0402310736
C       -4.1393544078     1.2058861697     0.1321398632
H       -5.4329637631     -0.0809314000     -0.9703070906
H       -6.2856412909     0.8430128882     0.2815272367
H       -5.2584641712     -0.5217090758     0.7290651915
O       -3.0083162220     0.4545540707     -0.2579242722
H       -4.0060213214     1.6340076704     1.1321491332
H       -4.2065244440     2.0376027133     -0.5687364003
H       -2.9059104102     -0.2756338333     0.3521652651
9
# Point 0 Energy = 0
C       -5.3739015644     0.3103828479     0.0359844482
C       -4.1329966799     1.1797398635     0.1225775852
H       -5.4906299103     -0.0893361133     -0.9711879115
H       -6.2653293757     0.8871742516     0.2871686603
H       -5.3129491568     -0.5289028814     0.7323756746
O       -2.9527694211     0.4903434571     -0.2439521498
H       -4.0351786776     1.6019212828     1.1293639002
H       -4.2089333852     2.0163330192     -0.5715952114
H       -2.8301218289     -0.2504357274     0.3495750043
9
# Point 1 Energy = 0.0009110400000054142
C       -5.3881078358     0.3001630982     0.0316481903
C       -4.1261805709     1.1520951653     0.1128345761
H       -5.5482376661     -0.0953678001     -0.9712717472
H       -6.2414158611     0.9293685251     0.2923688570
H       -5.3670844595     -0.5345546781     0.7352348633
O       -2.9009780482     0.5267451490     -0.2292553751
H       -4.0637176677     1.5681196618     1.1251518058
H       -4.2113654370     1.9935946216     -0.5743271011
H       -2.7557224536     -0.2229437427     0.3479259311
9
# Point 2 Energy = 0.003497610000010809
C       -5.4022047335     0.2898380619     0.0271851798
C       -4.1189689667     1.1230444022     0.1028814353
H       -5.6055541632     -0.0988980544     -0.9706152223
H       -6.2140091575     0.9693277852     0.2971140860
H       -5.4206416923     -0.5386223240     0.7376056228
O       -2.8530952312     0.5634809100     -0.2138746384
H       -4.0911013638     1.5327355956     1.1194839700
H       -4.2141277073     1.9694846915     -0.5768914846
H       -2.6831069843     -0.1931710681     0.3474210516
9
# Point 3 Energy = 0.007602620000000115
C       -5.4161508760     0.2794811427     0.0226216853
C       -4.1114047953     1.0926806407     0.0927626617
H       -5.6622532054     -0.0998988321     -0.9692022071
H       -6.1832521829     1.0068388353     0.3013451075
H       -5.4734211765     -0.5410187147     0.7395860631
O       -2.8092475652     0.6003263483     -0.1979941325
H       -4.1172592235     1.4959469419     1.1124617723
H       -4.2172008384     1.9440662967     -0.5792461473
H       -2.6126201366     -0.1612026588     0.3479751970
9
# Point 4 Energy = 0.013122370000019146
C       -5.4299055446     0.2691654837     0.0179853973
C       -4.1035334763     1.0611042079     0.0825326814
H       -5.7180157089     -0.0983731054     -0.9670302554
H       -6.1493198384     1.0417149312     0.3050009113
H       -5.5252379791     -0.5416774345     0.7412679808
O       -2.7695239263     0.6370647136     -0.1817956985
H       -4.1421357281     1.4579502170     1.1042016536
H       -4.2205568231     1.9174110945     -0.5813414300
H       -2.5445809750     -0.1271401080     0.3494887597

    This sampling was finished on:   2020-07-28 16:03:33
=------------------------------------------------------------------------------=
Sampling finished.
=------------------------------------------------------------------------------=