9
# Point -2 Energy = 0.01327932000000942
C       -5.3867092820     0.3374410474     0.0472559692
C       -4.1441178114     1.1857864576     0.1261835493
H       -5.4807741952     -0.2291000737     -0.8830309332
H       -6.2192734879     0.9887428190     0.2975052151
H       -5.3032892877     -0.6108118407     0.5890414592
O       -2.9693686248     0.4772724291     -0.2444393735
H       -4.0351843682     1.6676512302     1.1080140498
H       -4.2129351189     2.0633240856     -0.5206953477
H       -2.8511578239     -0.2630861545     0.3504754119
9
# Point -1 Energy = 0.0032727700000236837
C       -5.3808591917     0.3248167067     0.0418218025
C       -4.1385485571     1.1829290697     0.1243831391
H       -5.4849789553     -0.1601206229     -0.9305545601
H       -6.2433498493     0.9398183976     0.2929804006
H       -5.3067020359     -0.5722236245     0.6632655236
O       -2.9613065170     0.4835333714     -0.2442718533
H       -4.0350704800     1.6351618732     1.1191259409
H       -4.2108831374     2.0403786771     -0.5463936836
H       -2.8411112763     -0.2570738482     0.3499532905
9
# Point 0 Energy = 0
C       -5.3739015644     0.3103828479     0.0359844482
C       -4.1329966799     1.1797398635     0.1225775852
H       -5.4906299103     -0.0893361133     -0.9711879115
H       -6.2653293757     0.8871742516     0.2871686603
H       -5.3129491568     -0.5289028814     0.7323756746
O       -2.9527694211     0.4903434571     -0.2439521498
H       -4.0351786776     1.6019212828     1.1293639002
H       -4.2089333852     2.0163330192     -0.5715952114
H       -2.8301218289     -0.2504357274     0.3495750043
9
# Point 1 Energy = 0.003197820000025331
C       -5.3658602389     0.2943609004     0.0298104251
C       -4.1273936938     1.1762512796     0.1207558233
H       -5.4978364097     -0.0170587944     -1.0044423472
H       -6.2852163849     0.8308416642     0.2800844018
H       -5.3222037651     -0.4809356920     0.7958351368
O       -2.9437325485     0.4977043091     -0.2434885082
H       -4.0354169778     1.5679848470     1.1386961865
H       -4.2069672651     1.9912348967     -0.5962799204
H       -2.8181827161     -0.2431634105     0.3493388025
9
# Point 2 Energy = 0.01266928000001144
C       -5.3567696746     0.2769191641     0.0233635876
C       -4.1217768504     1.1725726874     0.1189402630
H       -5.5065219487     0.0564963634     -1.0298953660
H       -6.3030441669     0.7706820907     0.2717135002
H       -5.3344091474     -0.4283427453     0.8531845489
O       -2.9343844477     0.5055306043     -0.2429039023
H       -4.0355387163     1.5335025756     1.1470978067
H       -4.2048036080     1.9651916938     -0.6204349918
H       -2.8055614399     -0.2353324339     0.3492445538

    This sampling was finished on:   2020-07-28 16:03:33
=------------------------------------------------------------------------------=
Sampling finished.
=------------------------------------------------------------------------------=