9
# Point -1 Energy = 0.011244450000020834
C       -5.3741855271     0.3080259948     0.0377360050
C       -4.1287034847     1.1700807126     0.1288147034
H       -5.4871101215     -0.0949960719     -0.9685775032
H       -6.2638535637     0.8910932285     0.2812247055
H       -5.3223945993     -0.5291041291     0.7379728512
O       -2.9494568084     0.4680532333     -0.2245469335
H       -4.0344998420     1.5959937165     1.1342295349
H       -4.1952117721     2.0053673221     -0.5700934853
H       -2.8473942811     -0.1972940068     0.3135501221
9
# Point 0 Energy = 0
C       -5.3739015644     0.3103828479     0.0359844482
C       -4.1329966799     1.1797398635     0.1225775852
H       -5.4906299103     -0.0893361133     -0.9711879115
H       -6.2653293757     0.8871742516     0.2871686603
H       -5.3129491568     -0.5289028814     0.7323756746
O       -2.9527694211     0.4903434571     -0.2439521498
H       -4.0351786776     1.6019212828     1.1293639002
H       -4.2089333852     2.0163330192     -0.5715952114
H       -2.8301218289     -0.2504357274     0.3495750043
9
# Point 1 Energy = 0.007212380000026997
C       -5.3737589044     0.3128186097     0.0342250527
C       -4.1374548238     1.1893945401     0.1164294967
H       -5.4942367366     -0.0837128837     -0.9737412534
H       -6.2668509487     0.8833817429     0.2929367590
H       -5.3037881419     -0.5284859856     0.7268021589
O       -2.9564682163     0.5125730499     -0.2629878921
H       -4.0360690170     1.6079547225     1.1245175498
H       -4.2226554342     2.0271490830     -0.5730435926
H       -2.8115277770     -0.3038528787     0.3851717211
9
# Point 2 Energy = 0.023607740000016975
C       -5.3737574141     0.3153348625     0.0324558472
C       -4.1420706033     1.1990394454     0.1103683464
H       -5.4979269682     -0.0781262049     -0.9762412380
H       -6.2684200278     0.8797254211     0.2985228487
H       -5.2949183235     -0.5278535914     0.7212563498
O       -2.9605402702     0.5347235038     -0.2816513031
H       -4.0371666009     1.6140904589     1.1196899536
H       -4.2363640389     2.0378125982     -0.5744468569
H       -2.7916457531     -0.3575264936     0.4203560524

    This sampling was finished on:   2020-07-28 16:03:33
=------------------------------------------------------------------------------=
Sampling finished.
=------------------------------------------------------------------------------=