9
# Point -2 Energy = 0.03650937000000454
C       -5.3643282859     0.2990264859     -0.0154366322
C       -4.1321077173     1.1800765824     0.0973261604
H       -5.4562609999     -0.0350637720     -0.8570750889
H       -6.3290882386     0.9182265724     0.2604303248
H       -5.3068363473     -0.5803512570     0.7295668228
O       -2.9450570906     0.4944011297     -0.2541497098
H       -4.0421672560     1.6089103304     1.1335520736
H       -4.2018367735     1.9796498301     -0.5614433854
H       -2.8251272909     -0.2476559018     0.3375394347
9
# Point -1 Energy = 0.007985310000009349
C       -5.3692280775     0.3046921727     0.0103224709
C       -4.1325814526     1.1799099305     0.1099573469
H       -5.4733186368     -0.0622412741     -0.9141035875
H       -6.2972763482     0.9027994885     0.2737723893
H       -5.3098550973     -0.5547291288     0.7309313342
O       -2.9489295202     0.4923582228     -0.2490723453
H       -4.0385991044     1.6054678028     1.1314494564
H       -4.2053838318     1.9980128693     -0.5664971032
H       -2.8276379311     -0.2490500836     0.3435500383
9
# Point 0 Energy = 0
C       -5.3739015644     0.3103828479     0.0359844482
C       -4.1329966799     1.1797398635     0.1225775852
H       -5.4906299103     -0.0893361133     -0.9711879115
H       -6.2653293757     0.8871742516     0.2871686603
H       -5.3129491568     -0.5289028814     0.7323756746
O       -2.9527694211     0.4903434571     -0.2439521498
H       -4.0351786776     1.6019212828     1.1293639002
H       -4.2089333852     2.0163330192     -0.5715952114
H       -2.8301218289     -0.2504357274     0.3495750043
9
# Point 1 Energy = 0.00649674000004552
C       -5.3783545875     0.3160940947     0.0615470018
C       -4.1333569789     1.1795643862     0.1351860642
H       -5.5081820286     -0.1163465086     -1.0283329537
H       -6.2332482237     0.8713559979     0.3006178378
H       -5.3161138429     -0.5028733623     0.7339060728
O       -2.9565778596     0.4883565754     -0.2387882276
H       -4.0319087134     1.5982723426     1.1272956126
H       -4.2124876935     2.0346088529     -0.5767377585
H       -2.8325800717     -0.2518123788     0.3556163507
9
# Point 2 Energy = 0.024127920000012182
C       -5.3825924444     0.3218216885     0.0870078814
C       -4.1336660208     1.1793826218     0.1477818284
H       -5.5259614678     -0.1432710306     -1.0855435858
H       -6.2010336842     0.8553490849     0.3141190194
H       -5.3193431441     -0.4766415817     0.7355283159
O       -2.9603571901     0.4863962098     -0.2335796767
H       -4.0287902082     1.5945234126     1.1252445086
H       -4.2160498016     2.0528400237     -0.5819249185
H       -2.8350160387     -0.2531804290     0.3616766275

    This sampling was finished on:   2020-07-28 16:03:33
=------------------------------------------------------------------------------=
Sampling finished.
=------------------------------------------------------------------------------=