9
# Point -3 Energy = 0.015740600000043514
C       -5.4737175014     0.3483948429     0.0625602753
C       -4.1137243990     1.2505061310     0.1357698509
H       -5.4480644148     -0.0755135258     -0.9433285766
H       -6.4777650773     0.7183690388     0.2660522803
H       -5.2846361535     -0.5116007281     0.7116012290
O       -2.9143555924     0.4422598384     -0.2658369366
H       -3.9243689220     1.6612154623     1.1294687955
H       -4.1178551627     2.0730600009     -0.5762702774
H       -2.8483227768     -0.2894710603     0.3502933597
9
# Point -2 Energy = 0.007357810000002019
C       -5.4399052143     0.3352947823     0.0535821920
C       -4.1197851399     1.2269830889     0.1313995516
H       -5.4623896584     -0.0817121675     -0.9545399463
H       -6.4116548377     0.7768093305     0.2738310636
H       -5.2941919763     -0.5194660787     0.7195966827
O       -2.9258662602     0.4586704902     -0.2586690439
H       -3.9603271205     1.6424071452     1.1299568827
H       -4.1474396651     2.0549629912     -0.5747184471
H       -2.8412501274     -0.2767295819     0.3498710648
9
# Point -1 Energy = 0.0019410900000025322
C       -5.4066083944     0.3225688525     0.0446984906
C       -4.1262101446     1.2033719052     0.1269986465
H       -5.4766769885     -0.0863742081     -0.9638198650
H       -6.3406990034     0.8332223091     0.2808998590
H       -5.3037119560     -0.5252719201     0.7264815823
O       -2.9386405252     0.4747248620     -0.2513609817
H       -3.9973039354     1.6226330006     1.1299312084
H       -4.1778259630     2.0360417733     -0.5731588927
H       -2.8351330894     -0.2636965746     0.3496399526
9
# Point 0 Energy = 0
C       -5.3739015644     0.3103828479     0.0359844482
C       -4.1329966799     1.1797398635     0.1225775852
H       -5.4906299103     -0.0893361133     -0.9711879115
H       -6.2653293757     0.8871742516     0.2871686603
H       -5.3129491568     -0.5289028814     0.7323756746
O       -2.9527694211     0.4903434571     -0.2439521498
H       -4.0351786776     1.6019212828     1.1293639002
H       -4.2089333852     2.0163330192     -0.5715952114
H       -2.8301218289     -0.2504357274     0.3495750043
9
# Point 1 Energy = 0.0021541900000272562
C       -5.3418150544     0.2988789487     0.0275013933
C       -4.1401252065     1.1561760029     0.1181523641
H       -5.5039943594     -0.0905103413     -0.9766974274
H       -6.1859949615     0.9383067319     0.2925685461
H       -5.3216941264     -0.5303030324     0.7374000293
O       -2.9683204582     0.5054542120     -0.2364826132
H       -4.0738301969     1.5803272731     1.1282428594
H       -4.2406815394     1.9959031838     -0.5700222131
H       -2.8263540972     -0.2370129788     0.3496470617
9
# Point 2 Energy = 0.009146270000002232
C       -5.3103996863     0.2881800441     0.0193031136
C       -4.1475776120     1.1327290919     0.1137327273
H       -5.5165739977     -0.0898424471     -0.9804358324
H       -6.1031921074     0.9863535163     0.2970543770
H       -5.3297993125     -0.5294512385     0.7416840459
O       -2.9852943442     0.5200306481     -0.2289805569
H       -4.1131304093     1.5578799516     1.1265527307
H       -4.2729761313     1.9747939959     -0.5684310297
H       -2.8238663993     -0.2234535624     0.3498304246
9
# Point 3 Energy = 0.021869430000009515
C       -5.2797003729     0.2783966570     0.0114466649
C       -4.1553445964     1.1094624089     0.1093313498
H       -5.5281065861     -0.0872872827     -0.9825365874
H       -6.0174605233     1.0310940829     0.3006052207
H       -5.3370534812     -0.5263454211     0.7453817060
O       -3.0037202160     0.5340151210     -0.2214835616
H       -4.1529492523     1.5346369335     1.1242852101
H       -4.3057309964     1.9530663106     -0.5668125023
H       -2.8227439753     -0.2098188100     0.3500924999

    This sampling was finished on:   2020-07-28 16:03:33
=------------------------------------------------------------------------------=
Sampling finished.
=------------------------------------------------------------------------------=