9
# Point -2 Energy = 0.010565970000016023
C       -5.3422915734     0.3111193714     0.0319581510
C       -4.1735753954     1.1835183289     0.1336242349
H       -5.5407861229     -0.0928018551     -0.9603042625
H       -6.2875324237     0.7921407712     0.2932316231
H       -5.3629605013     -0.5384825386     0.7202163975
O       -2.9535408426     0.5318289750     -0.2611721287
H       -3.9664826080     1.6128135293     1.1197290629
H       -4.0868482889     2.0091760788     -0.5710435582
H       -2.8887922437     -0.1920926609     0.3640704800
9
# Point -1 Energy = 0.002636810000041123
C       -5.3572577996     0.3102551393     0.0338279503
C       -4.1533088193     1.1825980087     0.1285366174
H       -5.5157648631     -0.0915784455     -0.9666080980
H       -6.2772856819     0.8387846490     0.2906944484
H       -5.3373812074     -0.5350064050     0.7263961119
O       -2.9541490649     0.5100640264     -0.2527451900
H       -3.9997223186     1.6089026836     1.1261235533
H       -4.1472156476     2.0156983492     -0.5732940049
H       -2.8607245974     -0.2224980058     0.3573786116
9
# Point 0 Energy = 0
C       -5.3739015644     0.3103828479     0.0359844482
C       -4.1329966799     1.1797398635     0.1225775852
H       -5.4906299103     -0.0893361133     -0.9711879115
H       -6.2653293757     0.8871742516     0.2871686603
H       -5.3129491568     -0.5289028814     0.7323756746
O       -2.9527694211     0.4903434571     -0.2439521498
H       -4.0351786776     1.6019212828     1.1293639002
H       -4.2089333852     2.0163330192     -0.5715952114
H       -2.8301218289     -0.2504357274     0.3495750043
9
# Point 1 Energy = 0.0026613100000076884
C       -5.3914584488     0.3115616125     0.0384697811
C       -4.1128391426     1.1761213083     0.1160747553
H       -5.4639559894     -0.0860299819     -0.9738502792
H       -6.2511305529     0.9364298851     0.2825596918
H       -5.2881150889     -0.5199962835     0.7380929706
O       -2.9510542750     0.4714751180     -0.2352584080
H       -4.0731001640     1.5928399752     1.1295395686
H       -4.2717232194     2.0117257314     -0.5657775872
H       -2.7994331189     -0.2769073650     0.3404595072
9
# Point 2 Energy = 0.010509120000023131
C       -5.4111854862     0.3135466569     0.0411716190
C       -4.0936819191     1.1707055065     0.1089450223
H       -5.4372776337     -0.0816025751     -0.9745218193
H       -6.2351420555     0.9867713956     0.2769514989
H       -5.2644734227     -0.5085395808     0.7432087719
O       -2.9481932731     0.4547247673     -0.2262589485
H       -4.1121637952     1.5807987552     1.1261702809
H       -4.3340528308     2.0010940297     -0.5558479674
H       -2.7666395837     -0.3002789553     0.3304915424

    This sampling was finished on:   2020-07-28 16:03:33
=------------------------------------------------------------------------------=
Sampling finished.
=------------------------------------------------------------------------------=