9
# Point -2 Energy = 0.042286770000004026
C       -5.3702577921     0.3187962802     0.0418357968
C       -4.1305762153     1.1985305586     0.1548556867
H       -5.4824682388     -0.0700985423     -0.9611995734
H       -6.2765304023     0.9013038016     0.2993304780
H       -5.3100915240     -0.5364646051     0.7408328468
O       -2.9489532777     0.5074507147     -0.2252165556
H       -4.0568898400     1.5335084627     0.9692580275
H       -4.2008500237     2.0013282548     -0.5123287593
H       -2.8261926860     -0.2371349253     0.3629420526
9
# Point -1 Energy = 0.008446360000021969
C       -5.3720753007     0.3146044094     0.0389342051
C       -4.1317300426     1.1891964561     0.1386426529
H       -5.4865667829     -0.0797216008     -0.9661704436
H       -6.2709095509     0.8942855291     0.2932662325
H       -5.3114967095     -0.5326361719     0.7366787267
O       -2.9508106024     0.4989018139     -0.2346244361
H       -4.0462689954     1.5674839571     1.0493965229
H       -4.2048328313     2.0088701525     -0.5420638549
H       -2.8281191841     -0.2437645453     0.3562503946
9
# Point 0 Energy = 0
C       -5.3739015644     0.3103828479     0.0359844482
C       -4.1329966799     1.1797398635     0.1225775852
H       -5.4906299103     -0.0893361133     -0.9711879115
H       -6.2653293757     0.8871742516     0.2871686603
H       -5.3129491568     -0.5289028814     0.7323756746
O       -2.9527694211     0.4903434571     -0.2439521498
H       -4.0351786776     1.6019212828     1.1293639002
H       -4.2089333852     2.0163330192     -0.5715952114
H       -2.8301218289     -0.2504357274     0.3495750043
9
# Point 1 Energy = 0.005664390000021058
C       -5.3757355234     0.3061320890     0.0329825959
C       -4.1343727247     1.1701650173     0.1066605146
H       -5.4946548544     -0.0989385343     -0.9762582495
H       -6.2597884396     0.8799710641     0.2810349951
H       -5.3144483743     -0.5252659548     0.7279194806
O       -2.9548259513     0.4817774580     -0.2531968124
H       -4.0236315555     1.6368013846     1.2091656743
H       -4.2131535773     2.0237249444     -0.6009175682
H       -2.8321989994     -0.2571474683     0.3429193697
9
# Point 2 Energy = 0.018969990000016423
C       -5.3775775238     0.3018511270     0.0299261974
C       -4.1358577250     1.1604769496     0.0908938265
H       -5.4986375649     -0.1085286838     -0.9813858649
H       -6.2542881505     0.8726745027     0.2748612481
H       -5.3159952113     -0.5217268153     0.7233089556
O       -2.9569798944     0.4732084279     -0.2623585318
H       -4.0116422038     1.6721083571     1.2888091210
H       -4.2174814072     2.0310537903     -0.6300263712
H       -2.8343503191     -0.2638976556     0.3362814194

    This sampling was finished on:   2020-07-28 16:03:33
=------------------------------------------------------------------------------=
Sampling finished.
=------------------------------------------------------------------------------=