9
# Point -2 Energy = 0.011484490000015057
C       -5.3956385907     0.3348589971     0.0423788600
C       -4.1648270628     1.2303089795     0.1413995246
H       -5.4922779885     -0.1270292501     -0.9411660996
H       -6.2695698630     0.9321212872     0.3047314758
H       -5.3335588519     -0.5504497856     0.6814623377
O       -2.9595809691     0.5546988669     -0.2271114607
H       -3.9903654212     1.4864270758     1.1854094147
H       -4.1749928380     1.9472740506     -0.6734688630
H       -2.8219984148     -0.1909902214     0.3566748107
9
# Point -1 Energy = 0.0029074200000138717
C       -5.3854230169     0.3223707523     0.0391087428
C       -4.1487220686     1.2037435504     0.1316658255
H       -5.4926035527     -0.1086933159     -0.9566897321
H       -6.2676058631     0.9103099894     0.2959102311
H       -5.3245048903     -0.5404326760     0.7072581358
O       -2.9549745357     0.5226966228     -0.2354775694
H       -4.0124764684     1.5443755127     1.1607924579
H       -4.1922366650     1.9834311703     -0.6253220230
H       -2.8242629392     -0.2205816060     0.3530639315
9
# Point 0 Energy = 0
C       -5.3739015644     0.3103828479     0.0359844482
C       -4.1329966799     1.1797398635     0.1225775852
H       -5.4906299103     -0.0893361133     -0.9711879115
H       -6.2653293757     0.8871742516     0.2871686603
H       -5.3129491568     -0.5289028814     0.7323756746
O       -2.9527694211     0.4903434571     -0.2439521498
H       -4.0351786776     1.6019212828     1.1293639002
H       -4.2089333852     2.0163330192     -0.5715952114
H       -2.8301218289     -0.2504357274     0.3495750043
9
# Point 1 Energy = 0.0029873500000121567
C       -5.3620019351     0.2988653586     0.0329792770
C       -4.1177491555     1.1572048056     0.1139347752
H       -5.4878662427     -0.0689564691     -0.9846361423
H       -6.2630909888     0.8634049602     0.2785771415
H       -5.3005635590     -0.5159724239     0.7567570048
O       -2.9515961336     0.4589392439     -0.2522158324
H       -4.0582828527     1.6578638817     1.0911670728
H       -4.2244940122     2.0450546049     -0.5126124147
H       -2.8371651205     -0.2791839620     0.3463591182
9
# Point 2 Energy = 0.0121190900000272
C       -5.3488593012     0.2878400013     0.0301030311
C       -4.1029441209     1.1374160001     0.1059410578
H       -5.4830457159     -0.0476472240     -0.9970277615
H       -6.2605800829     0.8380480057     0.2700626860
H       -5.2858367765     -0.5016377200     0.7803406701
O       -2.9529927871     0.4274948769     -0.2605211993
H       -4.0815348556     1.7129591926     1.0468182315
H       -4.2391015068     2.0705263503     -0.4487763429
H       -2.8479148532     -0.3077794828     0.3433696273

    This sampling was finished on:   2020-07-28 16:03:33
=------------------------------------------------------------------------------=
Sampling finished.
=------------------------------------------------------------------------------=