9
# Point -3 Energy = 0.020928720000000567
C       -5.3236142633     0.3263901649     0.0722223345
C       -4.1935770050     1.1705768215     0.0843029669
H       -5.3867331671     -0.0296822765     -0.9550998812
H       -6.2137641739     0.9270753000     0.2627888323
H       -5.2921678171     -0.5234728698     0.7519622169
O       -2.8772949979     0.4329677032     -0.2831322883
H       -4.0242901593     1.5294189024     1.1001674715
H       -4.3633070381     2.0302496060     -0.5579359223
H       -2.9280613782     -0.2463033517     0.3950342698
9
# Point -2 Energy = 0.00945319000001632
C       -5.3404155627     0.3208701496     0.0602897783
C       -4.1733592185     1.1743087750     0.0964353466
H       -5.4213652574     -0.0498022805     -0.9608646110
H       -6.2311177403     0.9139662743     0.2717098016
H       -5.2990189955     -0.5259175133     0.7452188900
O       -2.9025491324     0.4527202599     -0.2715702752
H       -4.0283485650     1.5537080151     1.1105525612
H       -4.3121471073     2.0274843401     -0.5635252356
H       -2.8944884207     -0.2501180203     0.3820637443
9
# Point -1 Energy = 0.002415280000036546
C       -5.3571956585     0.3155493536     0.0482057192
C       -4.1531669831     1.1773652765     0.1092028706
H       -5.4560285582     -0.0696987386     -0.9662241485
H       -6.2483321940     0.9006534866     0.2798248040
H       -5.3059524987     -0.5277060845     0.7386958955
O       -2.9277151005     0.4718363980     -0.2584894294
H       -4.0319983748     1.5778834930     1.1202987452
H       -4.2606662057     2.0228595475     -0.5680759581
H       -2.8617544265     -0.2515227321     0.3668715016
9
# Point 0 Energy = 0
C       -5.3739015644     0.3103828479     0.0359844482
C       -4.1329966799     1.1797398635     0.1225775852
H       -5.4906299103     -0.0893361133     -0.9711879115
H       -6.2653293757     0.8871742516     0.2871686603
H       -5.3129491568     -0.5289028814     0.7323756746
O       -2.9527694211     0.4903434571     -0.2439521498
H       -4.0351786776     1.6019212828     1.1293639002
H       -4.2089333852     2.0163330192     -0.5715952114
H       -2.8301218289     -0.2504357274     0.3495750043
9
# Point 1 Energy = 0.0025466200000039407
C       -5.3905130526     0.3053373244     0.0236409144
C       -4.1128309055     1.1813771007     0.1365335546
H       -5.5251419092     -0.1086808888     -0.9757618862
H       -6.2820467624     0.8736030560     0.2937777674
H       -5.3200525147     -0.5295556154     0.7262521720
O       -2.9776185236     0.5083189923     -0.2280246768
H       -4.0378948655     1.6257530634     1.1377119392
H       -4.1569887172     2.0078135984     -0.5740948390
H       -2.7997227491     -0.2467466309     0.3302750545
9
# Point 2 Energy = 0.010604030000024522
C       -5.4069447186     0.3003716223     0.0111777304
C       -4.0926701153     1.1823383097     0.1510382548
H       -5.5594434385     -0.1277036059     -0.9799745701
H       -6.2984125472     0.8599086085     0.2996956159
H       -5.3271503542     -0.5297258663     0.7202929156
O       -3.0023088585     0.5257415868     -0.2107651903
H       -4.0400295078     1.6493987663     1.1452983516
H       -4.1049209652     1.9973381889     -0.5755820135
H       -2.7709294946     -0.2404476103     0.3091289059

    This sampling was finished on:   2020-07-28 16:03:33
=------------------------------------------------------------------------------=
Sampling finished.
=------------------------------------------------------------------------------=