9
# Point -2 Energy = 0.035606650000033824
C       -5.3614784392     0.2987094063     0.0484312939
C       -4.1332046521     1.1930112446     0.1012960775
H       -5.4913552608     -0.1256038155     -1.0088547033
H       -6.3167834729     0.9144209347     0.3095403752
H       -5.3012060982     -0.4600301105     0.6884077920
O       -2.9488448849     0.5010649635     -0.2557430975
H       -4.0255565443     1.6314834280     1.1386174230
H       -4.2064378947     1.8975775461     -0.4909681268
H       -2.8179427528     -0.2334135971     0.3395829659
9
# Point -1 Energy = 0.007863230000026533
C       -5.3677405870     0.3045291618     0.0421433275
C       -4.1330036495     1.1864134421     0.1119929865
H       -5.4909086750     -0.1073979144     -0.9901454575
H       -6.2910362163     0.9008469710     0.2984186274
H       -5.3070612282     -0.4943871715     0.7104541579
O       -2.9507461383     0.4956789071     -0.2498259636
H       -4.0303632934     1.6166860196     1.1340855277
H       -4.2079482955     1.9568392955     -0.5313941848
H       -2.8240019167     -0.2419887113     0.3445809788
9
# Point 0 Energy = 0
C       -5.3739015644     0.3103828479     0.0359844482
C       -4.1329966799     1.1797398635     0.1225775852
H       -5.4906299103     -0.0893361133     -0.9711879115
H       -6.2653293757     0.8871742516     0.2871686603
H       -5.3129491568     -0.5289028814     0.7323756746
O       -2.9527694211     0.4903434571     -0.2439521498
H       -4.0351786776     1.6019212828     1.1293639002
H       -4.2089333852     2.0163330192     -0.5715952114
H       -2.8301218289     -0.2504357274     0.3495750043
9
# Point 1 Energy = 0.006405270000016117
C       -5.3799644665     0.3162653025     0.0299576331
C       -4.1331807703     1.1729927463     0.1330485795
H       -5.4905150141     -0.0714182787     -0.9519847573
H       -6.2396586955     0.8734126140     0.2757926209
H       -5.3188603193     -0.5635719562     0.7541844273
O       -2.9549109448     0.4850613091     -0.2381236518
H       -4.0400132801     1.5871896598     1.1244550454
H       -4.2094104809     2.0760417410     -0.6115835841
H       -2.8362960283     -0.2587531378     0.3545636871
9
# Point 2 Energy = 0.023615630000023202
C       -5.3859313103     0.3221706432     0.0240637525
C       -4.1335553865     1.1661786352     0.1434043152
H       -5.4905579841     -0.0536427230     -0.9325415863
H       -6.2140211105     0.8595663760     0.2642931623
H       -5.3247798593     -0.5983915537     0.7758883927
O       -2.9571729748     0.4798313207     -0.2323390332
H       -4.0448609870     1.5724945109     1.1193597210
H       -4.2094018049     2.1359540218     -0.6513712650
H       -2.8425285826     -0.2669412311     0.3595525408

    This sampling was finished on:   2020-07-28 16:03:33
=------------------------------------------------------------------------------=
Sampling finished.
=------------------------------------------------------------------------------=