9
# Point -2 Energy = 0.013683850000006714
C       -5.3781532541     0.3289591546     -0.0055430877
C       -4.1334329063     1.1900933660     0.0966701140
H       -5.3492007474     -0.1285375333     -0.9905964088
H       -6.2367722935     0.8364381121     0.4375157753
H       -5.4740785395     -0.4872399809     0.7216009705
O       -2.9544096688     0.4889827652     -0.2454098148
H       -4.0476810842     1.6086733914     1.1056946944
H       -4.2096877604     2.0418471084     -0.5807407381
H       -2.8193937458     -0.2619963837     0.3311184953
9
# Point -1 Energy = 0.0034098800000208485
C       -5.3756816244     0.3190321389     0.0148660737
C       -4.1331324616     1.1846716664     0.1095569789
H       -5.4194896158     -0.1092393465     -0.9845316335
H       -6.2537452456     0.8650880271     0.3635367802
H       -5.3924527168     -0.5099705153     0.7297547292
O       -2.9531309533     0.4898485092     -0.2445982717
H       -4.0416409474     1.6049859675     1.1175370729
H       -4.2093582588     2.0289334695     -0.5762044944
H       -2.8241781762     -0.2561299168     0.3403927647
9
# Point 0 Energy = 0
C       -5.3739015644     0.3103828479     0.0359844482
C       -4.1329966799     1.1797398635     0.1225775852
H       -5.4906299103     -0.0893361133     -0.9711879115
H       -6.2653293757     0.8871742516     0.2871686603
H       -5.3129491568     -0.5289028814     0.7323756746
O       -2.9527694211     0.4903434571     -0.2439521498
H       -4.0351786776     1.6019212828     1.1293639002
H       -4.2089333852     2.0163330192     -0.5715952114
H       -2.8301218289     -0.2504357274     0.3495750043
9
# Point 1 Energy = 0.003397980000016787
C       -5.3727763278     0.3031122760     0.0575937376
C       -4.1329525958     1.1753257277     0.1357234448
H       -5.5626293911     -0.0689486421     -0.9508677656
H       -6.2716610573     0.9025067742     0.2087203494
H       -5.2358041577     -0.5438734730     0.7294768899
O       -2.9532244232     0.4904884873     -0.2433903635
H       -4.0283163559     1.5994057786     1.1412069789
H       -4.2082470952     2.0041323293     -0.5668537109
H       -2.8371985960     -0.2449292580     0.3587004396
9
# Point 2 Energy = 0.013597120000014229
C       -5.3723103648     0.2972786642     0.0794710018
C       -4.1329911423     1.1714513230     0.1489847719
H       -5.6353151274     -0.0481834839     -0.9238382121
H       -6.2727057492     0.9110104783     0.1285589692
H       -5.1611917970     -0.5547253899     0.7210321462
O       -2.9544789609     0.4902728770     -0.2428491750
H       -4.0211426346     1.5973676552     1.1530966123
H       -4.2071987390     1.9924060361     -0.5619340544
H       -2.8454754847     -0.2396581600     0.3677879402

    This sampling was finished on:   2020-07-28 16:03:33
=------------------------------------------------------------------------------=
Sampling finished.
=------------------------------------------------------------------------------=