11
# Point -4 Energy = 0.053870000000003415
C       1.2175453464     0.0940616269     0.2982738865
C       -0.0311762085     0.0083429128     -0.5916820686
H       1.2818522608     -0.7835792653     0.9448587762
H       1.3634117052     1.1547337663     0.4670144517
H       2.1575020768     -0.2827685842     -0.1244939243
C       -1.3101621270     -0.0671531738     0.2117725271
H       0.0972822491     -0.8628308407     -1.2384523391
H       -0.0609062007     0.8775949808     -1.2529489049
H       -1.3164376042     -0.9434343789     0.8629114889
H       -2.0829930941     0.3557783434     -0.4190594700
H       -1.3159184644     0.4492552787     1.1828505953
11
# Point -3 Energy = 0.030175739999990014
C       1.2307940080     0.0674278974     0.2895997269
C       -0.0232013774     0.0046639897     -0.5897276754
H       1.2889618322     -0.8115477526     0.9348964352
H       1.3420884874     1.1052521972     0.5890123577
H       2.1680479787     -0.2223431690     -0.1983024831
C       -1.2998899657     -0.0523955937     0.2243654996
H       0.0729097023     -0.8677139811     -1.2404782492
H       -0.0451644005     0.8759715343     -1.2485885145
H       -1.3152213768     -0.9304756437     0.8729807593
H       -2.1119984213     0.2630922673     -0.4227702900
H       -1.3073265275     0.5680689204     1.1300574523
11
# Point -2 Energy = 0.013379459999995902
C       1.2434218426     0.0430368062     0.2802250966
C       -0.0153870382     0.0020667022     -0.5883282519
H       1.2950943488     -0.8369419824     0.9246515181
H       1.3253120520     1.0421454938     0.7027595705
H       2.1725478126     -0.1543666372     -0.2623909662
C       -1.2893432588     -0.0363812069     0.2365384816
H       0.0486018113     -0.8711484550     -1.2419011977
H       -0.0298800685     0.8748090547     -1.2454945271
H       -1.3127686735     -0.9158045246     0.8831438974
H       -2.1350293619     0.1723877255     -0.4137104511
H       -1.3025695272     0.6801976899     1.0655518487
11
# Point -1 Energy = 0.0033424800000005916
C       1.2555380155     0.0206195981     0.2701735725
C       -0.0076704243     0.0005159432     -0.5874881665
H       1.3005036558     -0.8599361692     0.9142592509
H       1.3130634336     0.9668585008     0.8078874491
H       2.1713334689     -0.0799136134     -0.3164333265
C       -1.2784612508     -0.0189587922     0.2482672197
H       0.0243025036     -0.8731935480     -1.2427486049
H       -0.0148740460     0.8741074560     -1.2436457009
H       -1.3093936085     -0.8992464604     0.8934344865
H       -2.1525138717     0.0844072838     -0.3925933243
H       -1.3018279366     0.7847404674     0.9899321633
11
# Point 0 Energy = 0
C       1.2672042126     0.0000000000     0.2594997522
C       0.0000000000     0.0000000000     -0.5872081259
H       1.3052750505     -0.8806643351     0.9038259677
H       1.3052750505     0.8806643351     0.9038259677
H       2.1646165232     0.0000000000     -0.3599948239
C       -1.2672042126     -0.0000000181     0.2594997522
H       0.0000000000     -0.8738729764     -1.2430302913
H       -0.0000000606     0.8738729764     -1.2430302913
H       -1.3052750505     -0.8806643351     0.9038259677
H       -2.1646165232     0.0000006841     -0.3599948239
H       -1.3052750505     0.8806643351     0.9038259677
11
# Point 1 Energy = 0.003342459999998937
C       1.2784611116     -0.0189589218     0.2482672996
C       0.0076704248     0.0005163375     -0.5874881191
H       1.3093935666     -0.8992469058     0.8934340881
H       1.3018292389     0.7847414023     0.9899309228
H       2.1525146518     0.0844052347     -0.3925923689
C       -1.2555378676     0.0206194967     0.2701736846
H       -0.0243025350     -0.8731930144     -1.2427485985
H       0.0148739600     0.8741085901     -1.2436446058
H       -1.3005036447     -0.8599365473     0.9142588828
H       -2.1713340258     -0.0799141610     -0.3164321131
H       -1.3130649410     0.9668591550     0.8078859463
11
# Point 2 Energy = 0.013379439999980036
C       1.2893429846     -0.0363815444     0.2365386086
C       0.0153870391     0.0020675027     -0.5883281574
H       1.3127685489     -0.9158054840     0.8831430631
H       1.3025719193     0.6801997732     1.0655496419
H       2.1350311461     0.1723842163     -0.4137088004
C       -1.2434215345     0.0430366941     0.2802253549
H       -0.0486019400     -0.8711473665     -1.2419011883
H       0.0298800880     0.8748113392     -1.2454923343
H       -1.2950943447     -0.8369426706     0.9246508053
H       -2.1725486987     -0.1543682439     -0.2623882824
H       -1.3253152688     1.0421464499     0.7027563078
11
# Point 3 Energy = 0.030175709999980427
C       1.2998895549     -0.0523961984     0.2243656388
C       0.0232013749     0.0046652238     -0.5897275332
H       1.3152211195     -0.9304771897     0.8729794436
H       1.3073297867     0.5680722987     1.1300545680
H       2.1120014424     0.2630872372     -0.4227682050
C       -1.2307935233     0.0674278632     0.2896001725
H       -0.0729100046     -0.8677122899     -1.2404782431
H       0.0451645960     0.8759750065     -1.2485852154
H       -1.2889618325     -0.8115486808     0.9348953921
H       -2.1680489553     -0.2223456223     -0.1982980662
H       -1.3420936194     1.1052530178     0.5890070666
11
# Point 4 Energy = 0.05386997000000804
C       1.3101615682     -0.0671541070     0.2117726423
C       0.0311761907     0.0083446329     -0.5916818718
H       1.3164371515     -0.9434365922     0.8629096374
H       1.3159223560     0.4492600284     1.1828473379
H       2.0829976065     0.3557717551     -0.4190572111
C       -1.2175446667     0.0940617887     0.2982745761
H       -0.0972828243     -0.8628284576     -1.2384523443
H       0.0609066429     0.8775997115     -1.2529444767
H       -1.2818522263     -0.7835803608     0.9448574009
H       -2.1575028846     -0.2827716294     -0.1244874889
H       -1.3634189745     1.1547338965     0.4670068171

    This sampling was finished on:   2020-07-02 18:36:53
=------------------------------------------------------------------------------=
Sampling finished.
=------------------------------------------------------------------------------=