11
# Point -3 Energy = 0.06789363000000037
C       1.2667735725     -0.0631791821     0.2614544655
C       0.0000014482     -0.0635534242     -0.5856694064
H       1.3051674733     -0.8224149389     0.8213293090
H       1.3031836842     0.9346772583     0.9851967412
H       2.1700329119     -0.0411841176     -0.3623407400
C       -1.2667637354     -0.0631802214     0.2614645414
H       0.0000001450     -0.8511580688     -1.1788816385
H       -0.0000003968     0.8989068502     -1.3056682660
H       -1.3051541119     -0.8223930177     0.8213245860
H       -2.1700655814     -0.0411877428     -0.3623558032
H       -1.3031754703     0.9346672710     0.9851912299
11
# Point -2 Energy = 0.029246330000006537
C       1.2669171557     -0.0421147937     0.2607804340
C       0.0000009616     -0.0423603150     -0.5862047776
H       1.3054021182     -0.8417523451     0.8489032317
H       1.3040729365     0.9166106859     0.9581423072
H       2.1682636622     -0.0274947880     -0.3616156546
C       -1.2669106320     -0.0421154483     0.2607871131
H       0.0000000580     -0.8586937428     -1.2003238980
H       -0.0000002269     0.8905521846     -1.2848368365
H       -1.3053932483     -0.8417376409     0.8489001040
H       -2.1682854449     -0.0274971008     -0.3616257517
H       -1.3040674007     0.9166039701     0.9581387471
11
# Point -1 Energy = 0.007165929999999321
C       1.2670607028     -0.0210549647     0.2601287628
C       0.0000004792     -0.0211755412     -0.5867177835
H       1.3054383702     -0.8611690910     0.8764019400
H       1.3047691118     0.8986057296     0.9310192573
H       2.1664580627     -0.0137665125     -0.3608336605
C       -1.2670574573     -0.0210552790     0.2601320835
H       0.0000000099     -0.8662648393     -1.2217072259
H       -0.0000001154     0.8822079043     -1.2639575396
H       -1.3054339557     -0.8611616942     0.8764003866
H       -2.1664689547     -0.0137673889     -0.3608387357
H       -1.3047663141     0.8986023431     0.9310175339
11
# Point 0 Energy = 0
C       1.2672042126     0.0000000000     0.2594997522
C       0.0000000000     0.0000000000     -0.5872081259
H       1.3052750505     -0.8806643351     0.9038259677
H       1.3052750505     0.8806643351     0.9038259677
H       2.1646165232     0.0000000000     -0.3599948239
C       -1.2672042126     -0.0000000181     0.2594997522
H       0.0000000000     -0.8738729764     -1.2430302913
H       -0.0000000606     0.8738729764     -1.2430302913
H       -1.3052750505     -0.8806643351     0.9038259677
H       -2.1646165232     0.0000006841     -0.3599948239
H       -1.3052750505     0.8806643351     0.9038259677
11
# Point 1 Energy = 0.007104719999986742
C       1.2673476838     0.0210498084     0.2588936411
C       -0.0000004771     0.0211654088     -0.5876755684
H       1.3049109717     -0.9002371264     0.9311759115
H       1.3055936169     0.8627883722     0.8765608626
H       2.1627394469     0.0138040089     -0.3590992500
C       -1.2673508991     0.0210500429     0.2588903573
H       0.0000000277     -0.8815198453     -1.2642917259
H       -0.0000000608     0.8655464140     -1.2220550034
H       -1.3049153405     -0.9002446116     0.9311774443
H       -2.1627285565     0.0138063782     -0.3590941238
H       -1.3055964738     0.8627918157     0.8765624736
11
# Point 2 Energy = 0.028747789999997053
C       1.2674911150     0.0420941713     0.2583106055
C       -0.0000009530     0.0423197787     -0.5881199374
H       1.3043449540     -0.9198864125     0.9584524331
H       1.3057276785     0.8449796249     0.8492224128
H       2.1608272305     0.0276447713     -0.3581470830
C       -1.2674975180     0.0420946153     0.2583040742
H       0.0000000926     -0.8892072107     -1.2854901297
H       -0.0000001142     0.8572272790     -1.2010315760
H       -1.3043536412     -0.9199014704     0.9584554784
H       -2.1608054538     0.0276489507     -0.3581367823
H       -1.3057334509     0.8449865684     0.8492255232
11
# Point 3 Energy = 0.06616444999997384
C       1.2676345051     0.0631327917     0.2577507585
C       -0.0000014288     0.0634621932     -0.5885411230
H       1.3035758473     -0.9396110479     0.9856562629
H       1.3056800919     0.8272397809     0.8218091349
H       2.1588802633     0.0415215686     -0.3571385093
C       -1.2676440705     0.0631334025     0.2577410150
H       0.0000001939     -0.8969369089     -1.3066240776
H       -0.0000002193     0.8489146859     -1.1799598892
H       -1.3035887979     -0.9396337647     0.9856608005
H       -2.1588476073     0.0415276837     -0.3571229880
H       -1.3056888381     0.8272502809     0.8218136341

    This sampling was finished on:   2020-07-02 18:36:53
=------------------------------------------------------------------------------=
Sampling finished.
=------------------------------------------------------------------------------=