11
# Point 0 Energy = 0
C       1.2672042126     0.0000000000     0.2594997522
C       0.0000000000     0.0000000000     -0.5872081259
H       1.3052750505     -0.8806643351     0.9038259677
H       1.3052750505     0.8806643351     0.9038259677
H       2.1646165232     0.0000000000     -0.3599948239
C       -1.2672042126     -0.0000000181     0.2594997522
H       0.0000000000     -0.8738729764     -1.2430302913
H       -0.0000000606     0.8738729764     -1.2430302913
H       -1.3052750505     -0.8806643351     0.9038259677
H       -2.1646165232     0.0000006841     -0.3599948239
H       -1.3052750505     0.8806643351     0.9038259677
11
# Point 1 Energy = 0.0003693600000076458
C       1.2670623111     -0.0247396718     0.2590308905
C       0.0001529818     0.0235031333     -0.5867433882
H       1.2940574316     -0.9299101889     0.8690414890
H       1.3159026030     0.8299828191     0.9367029507
H       2.1645499856     -0.0120718661     -0.3602249418
C       -1.2671511089     0.0066932247     0.2596480791
H       -0.0105324907     -0.8244640890     -1.2756512936
H       0.0111441582     0.9218572736     -1.2085116121
H       -1.2344349643     -0.8005147226     0.9941685237
H       -2.1579811720     -0.1348534676     -0.3531395821
H       -1.3827697963     0.9445182216     0.8067239037
11
# Point 2 Energy = 0.0013154199999831917
C       1.2666364886     -0.0494377582     0.2576250321
C       0.0006115924     0.0469710464     -0.5853500872
H       1.2822650343     -0.9776387000     0.8324068100
H       1.3259247673     0.7779496299     0.9676182306
H       2.1643502230     -0.0241244641     -0.3609149207
C       -1.2669920913     0.0133809953     0.2600926115
H       -0.0204385012     -0.7737082421     -1.3063210231
H       0.0228844835     0.9683416392     -1.1721523031
H       -1.1719603738     -0.7055343865     1.0763676548
H       -2.1382399837     -0.2671253041     -0.3326684795
H       -1.4650416996     0.9909262102     0.7043414935
11
# Point 3 Energy = 0.0026256499999988137
C       1.2659264464     -0.0740527470     0.2552843554
C       0.0013748411     0.0703685210     -0.5830309088
H       1.2699132607     -1.0237706448     0.7939821852
H       1.3353262050     0.7246509118     0.9965208025
H       2.1640168156     -0.0361385038     -0.3620636696
C       -1.2667279938     0.0200576921     0.2608320942
H       -0.0297040990     -0.7216852737     -1.3349894032
H       0.0352043442     1.0132531026     -1.1340126888
H       -1.1193516330     -0.5974736523     1.1491510385
H       -2.1058835462     -0.3942845000     -0.2988650486
H       -1.5500947017     1.0190757600     0.5982362621
11
# Point 4 Energy = 0.003909399999997731
C       1.2649317232     -0.0985432729     0.2520124807
C       0.0024410801     0.0936603439     -0.5797903162
H       1.2570177134     -1.0682293989     0.7538306921
H       1.3440915300     0.6701748089     1.0233629637
H       2.1635490912     -0.0480946574     -0.3636693756
C       -1.2663601904     0.0267174652     0.2618644434
H       -0.0383161227     -0.6684771411     -1.3616099859
H       0.0480861522     1.0565211373     -1.0941562476
H       -1.0778604285     -0.4783326373     1.2113735448
H       -2.0617151659     -0.5139035284     -0.2521995498
H       -1.6358654431     1.0285075468     0.4900263691
11
# Point 5 Energy = 0.004843800000003284
C       1.2636517488     -0.1228681919     0.2478144577
C       0.0038080091     0.1168113101     -0.5756345298
H       1.2435943261     -1.1109410735     0.7120180902
H       1.3522053358     0.6146113067     1.0481003961
H       2.1629461644     -0.0599735507     -0.3657295123
C       -1.2658905719     0.0333541042     0.2631867595
H       -0.0462621518     -0.6141678328     -1.3861400284
H       0.0615112293     1.0980777273     -1.0526494650
H       -1.0484581712     -0.3503205416     1.2620322016
H       -2.0068297787     -0.6237060878     -0.1933254318
H       -1.7202762006     1.0191234960     0.3813720812
11
# Point 6 Energy = 0.005176950000006286
C       1.2620859154     -0.1469866584     0.2426967479
C       0.0054726838     0.1397862260     -0.5705715021
H       1.2296595093     -1.1518346468     0.6686126788
H       1.3596522603     0.5580520747     1.0706922340
H       2.1622069905     -0.0717557667     -0.3682408496
C       -1.2653215137     0.0399609418     0.2647953438
H       -0.0535304921     -0.5588432825     -1.4085405508
H       0.0754597423     1.1378574274     -1.0095616844
H       -1.0318118153     -0.2158107232     1.3002804360
H       -1.9425852524     -0.7216120611     -0.1230741891
H       -1.8012880887     0.9911871347     0.2739563544
11
# Point 7 Energy = 0.004835380000002942
C       1.2602336641     -0.1708582030     0.2366672062
C       0.0074315271     0.1625499141     -0.5646108854
H       1.2152303031     -1.1908420912     0.6236851606
H       1.3664170872     0.5005903089     1.0911011172
H       2.1613304301     -0.0834218625     -0.3711994648
C       -1.2646558359     0.0465307740     0.2666857207
H       -0.0601101792     -0.5025912849     -1.4287763758
H       0.0899106478     1.1757974173     -0.9649649581
H       -1.0282677332     -0.0772926212     1.3254414676
H       -1.8705668770     -0.8057780075     -0.0424484513
H       -1.8769530946     0.9453163220     0.1694644820
11
# Point 8 Energy = 0.003908150000000887
C       1.2580945837     -0.1944428141     0.2297350626
C       0.0096803448     0.1850672205     -0.5577639972
H       1.2003245297     -1.2278984977     0.5773085119
H       1.3724848777     0.4423205760     1.1092932343
H       2.1603153242     -0.0949524017     -0.3746007533
C       -1.2638967554     0.0530558018     0.2688526627
H       -0.0659909961     -0.4455014123     -1.4468161548
H       0.1048416544     1.2118375536     -0.9189339016
H       -1.0378440451     0.0626783430     1.3370206639
H       -1.7925460224     -0.8746323172     0.0473868834
H       -1.9454635562     0.8824686140     0.0695628071
11
# Point 9 Energy = 0.002653439999974694
C       1.2556685163     -0.2177010205     0.2219109051
C       0.0122143474     0.2073030270     -0.5500437806
H       1.1849609388     -1.2629421986     0.5295578616
H       1.3778411293     0.3833386590     1.1252383586
H       2.1591605753     -0.1063280007     -0.3784394383
C       -1.2630478322     0.0595275943     0.2712902209
H       -0.0711635047     -0.3876649310     -1.4626323814
H       0.1202292046     1.2459204221     -0.8715455516
H       -1.0602315714     0.2015317266     1.3347166127
H       -1.7104340946     -0.9269043074     0.1451156577
H       -2.0051977695     0.8039196952     -0.0241234457
11
# Point 10 Energy = 0.0014030600000012328
C       1.2529556678     -0.2405939766     0.2132066662
C       0.0150281758     0.2292222699     -0.5414647631
H       1.1691593400     -1.2959148905     0.4805103807
H       1.3824719533     0.3237414036     1.1389098813
H       2.1578652334     -0.1175293891     -0.3827095783
C       -1.2621129105     0.0659370739     0.2739917580
H       -0.0756190869     -0.3291747146     -1.4762013961
H       0.1360484781     1.2779913945     -0.8228792282
H       -1.0948033387     0.3367327287     1.3184306123
H       -1.6262330434     -0.9616467085     0.2492837833
H       -2.0547605295     0.7112354748     -0.1100330972
11
# Point 11 Energy = 0.0004791699999913135
C       1.2499567178     -0.2630835493     0.2036356123
C       0.0181159334     0.2507899672     -0.5320430119
H       1.1529407165     -1.3267617579     0.4302451795
H       1.3863642659     0.2636265628     1.1502848453
H       2.1564285826     -0.1285374807     -0.3874045714
C       -1.2610960557     0.0722745235     0.2769499860
H       -0.0793499927     -0.2701251487     -1.4875033862
H       0.1522734203     1.3079986916     -0.7730163990
H       -1.1406323380     0.4658314307     1.2882742432
H       -1.5419837564     -0.9782511614     0.3583150280
H       -2.0930175544     0.6062385882     -0.1866925069
11
# Point 12 Energy = 0.00013917999999080166
C       1.2466729263     -0.2851324054     0.1932123371
C       0.0214712238     0.2719712562     -0.5217960864
H       1.1363273178     -1.3554315959     0.3788432105
H       1.3895059838     0.2030926399     1.1593439817
H       2.1548502274     -0.1393334511     -0.3925171565
C       -1.2600014893     0.0785296140     0.2801570069
H       -0.0823493922     -0.2106120240     -1.4965223807
H       0.1688767933     1.3358934562     -0.7220405418
H       -1.1965170179     0.5865095551     1.2445746557
H       -1.4597137207     -0.9764565369     0.4705293555
H       -2.1191229128     0.4909701578     -0.2527393631
11
# Point 13 Energy = 0.00045527999999706026
C       1.2431062333     -0.3067040977     0.1819527585
C       0.0250871925     0.2927314431     -0.5107429871
H       1.1193427279     -1.3818769333     0.3263871736
H       1.3918862186     0.1422387260     1.1660717497
H       2.1531301740     -0.1498988207     -0.3980394118
C       -1.2588335229     0.0846914495     0.2836043581
H       -0.0846114272     -0.1507324127     -1.5032462429
H       0.1858302487     1.3616298378     -0.6700370023
H       -1.2610137902     0.6966237762     1.1878772007
H       -1.3813853431     -0.9563500627     0.5841638471
H       -2.1325387722     0.3676477605     -0.3069464248
11
# Point 14 Energy = 0.0013861599999813734
C       1.2392593493     -0.3277631506     0.1698741170
C       0.0289565732     0.3130360650     -0.4989040993
H       1.1020119076     -1.4060541502     0.2729614189
H       1.3934954637     0.0811643322     1.1704563808
H       2.1512689062     -0.1602155365     -0.4039627501
C       -1.2575964929     0.0907486281     0.2872830609
H       -0.0861312620     -0.0905845250     -1.5076666586
H       0.2031044207     1.3851650867     -0.6170928442
H       -1.3324756452     0.7942447324     1.1189450377
H       -1.3088462899     -0.9183614200     0.6973961601
H       -2.1330469913     0.2386206040     -0.3482448042
11
# Point 15 Energy = 0.00265384000000779
C       1.2351358331     -0.3482751407     0.1569949749
C       0.0330717352     0.3328509641     -0.4863011319
H       1.0843612122     -1.4279235909     0.2186518444
H       1.3943257680     0.0199692149     1.1724899236
H       2.1492674532     -0.1702660507     -0.4102779137
C       -1.2562946980     0.0966893154     0.2911836743
H       -0.0869051298     -0.0302675419     -1.5097791209
H       0.2206690340     1.4064596590     -0.5632966861
H       -1.4090958202     0.8776910248     1.0387553744
H       -1.2437831457     -0.8632501332     0.8083703922
H       -2.1207523025     0.1063229452     -0.3757463123
11
# Point 16 Energy = 0.0039444699999791055
C       1.2307401565     -0.3682067726     0.1433352137
C       0.0374247328     0.3521423749     -0.4729570485
H       1.0664183831     -1.4474496643     0.1635457846
H       1.3943708925     -0.0412468044     1.1721682872
H       2.1471274458     -0.1800333915     -0.4169749680
C       -1.2549323405     0.1025013270     0.2952963533
H       -0.0869303761     0.0301185738     -1.5095829067
H       0.2384930249     1.4254773270     -0.5087385254
H       -1.4889553367     0.9455576302     0.9484920414
H       -1.1876795928     -0.7920867163     0.9152251281
H       -2.0960770503     -0.0267732179     -0.3887643407
11
# Point 17 Energy = 0.004888469999997369
C       1.2260777536     -0.3875259474     0.1289160286
C       0.0420073527     0.3708770200     -0.4588959925
H       1.0482125160     -1.4646009315     0.1077318887
H       1.3936264461     -0.1023840256     1.1694912790
H       2.1448511626     -0.1895012255     -0.4240432985
C       -1.2535134728     0.1081722190     0.2996109127
H       -0.0862054966     0.0904732908     -1.5070810455
H       0.2565446692     1.4421852939     -0.4535095482
H       -1.5700731267     0.9967383154     0.8495341598
H       -1.1417801866     -0.7062281656     1.0161233490
H       -2.0597476780     -0.1582051773     -0.3868327142
11
# Point 18 Energy = 0.0052289699999903405
C       1.2211550536     -0.4062018229     0.1137599177
C       0.0468111589     0.3890222151     -0.4441432045
H       1.0297740052     -1.4793501738     0.0512999871
H       1.3920899999     -0.1633430585     1.1644626333
H       2.1424415611     -0.1986539077     -0.4314716102
C       -1.2520419509     0.1136893812     0.3041168954
H       -0.0847301733     0.1506957400     -1.5022802754
H       0.2747917149     1.4565543060     -0.3977019246
H       -1.6504574110     1.0304417906     0.7434407406
H       -1.1070606490     -0.6072884868     1.1092837856
H       -2.0127733700     -0.2855653171     -0.3697219262
11
# Point 19 Energy = 0.004891569999998069
C       1.2159794977     -0.4242048628     0.0978906650
C       0.0518275326     0.4065459785     -0.4287249339
H       1.0111344670     -1.4916744413     -0.0056590524
H       1.3897611771     -0.2240250105     1.1570900261
H       2.1399022955     -0.2074765195     -0.4392479334
C       -1.2505213948     0.1190401341     0.3088036471
H       -0.0825053070     0.2106849619     -1.4951909868
H       0.2932015146     1.4685587606     -0.3414085956
H       -1.7281569605     1.0462014925     0.6319311483
H       -1.0842054233     -0.4971050177     1.1930132006
H       -1.9564174596     -0.4065448099     -0.3374521661
11
# Point 20 Energy = 0.003935209999994527
C       1.2105595384     -0.4415068763     0.0813333156
C       0.0570477070     0.4234171439     -0.4126683456
H       0.9923266418     -1.5015550776     -0.0630534755
H       1.3866417197     -0.2843316712     1.1473850743
H       2.1372377193     -0.2159548948     -0.4473596366
C       -1.2489551586     0.1242118249     0.3136603951
H       -0.0795330498     0.2703401622     -1.4858271530
H       0.3117411568     1.4781768039     -0.2847230536
H       -1.8013108880     1.0438790321     0.5168614682
H       -1.0735930431     -0.3777013633     1.2657389974
H       -1.8921624042     -0.5189744179     -0.2903025674
11
# Point 21 Energy = 0.0026567399999919417
C       1.2049046215     -0.4580810456     0.0641141438
C       0.0624627942     0.4396054717     -0.3960014233
H       0.9733842766     -1.5089777218     -0.1207907987
H       1.3827355303     -0.3441656883     1.1353633170
H       2.1344528715     -0.2240756343     -0.4557934475
C       -1.2473463075     0.1291919229     0.3186763314
H       -0.0758168376     0.3295609702     -1.4742062474
H       0.3303775915     1.4853904167     -0.2277391231
H       -1.8681956554     1.0236614738     0.4001969403
H       -1.0752896527     -0.2512477832     1.3260414701
H       -1.8216692931     -0.6208617162     -0.2288161437
11
# Point 22 Energy = 0.0013807299999797351
C       1.1990251513     -0.4739019431     0.0462606138
C       0.0680638057     0.4550817581     -0.3787528740
H       0.9543419885     -1.5139322885     -0.1787779660
H       1.3780486909     -0.4034307326     1.1210441792
H       2.1315534475     -0.2318261099     -0.4645354833
C       -1.2456976053     0.1339681131     0.3238406993
H       -0.0713614227     0.3882476947     -1.4603491504
H       0.3490777514     1.4901854865     -0.1705507478
H       -1.9272680652     0.9860527287     0.2839807453
H       -1.0890508070     -0.1200198800     1.3726849514
H       -1.7467329958     -0.7104241610     -0.1537999486
11
# Point 23 Energy = 0.0004549099999877626
C       1.1929324392     -0.4889455382     0.0278013339
C       0.0738416645     0.4698179388     -0.3609520333
H       0.9352351096     -1.5164129282     -0.2369215031
H       1.3725894571     -0.4620316486     1.1044509196
H       2.1285457545     -0.2391944607     -0.4735712904
C       -1.2440115102     0.1385283863     0.3291428800
H       -0.0661729074     0.4463015696     -1.4442800499
H       0.3678086664     1.4925518644     -0.1132517897
H       -1.9772031117     0.9318594506     0.1702995681
H       -1.1143314512     0.0136435771     1.4046470649
H       -1.6692341714     -0.7861175451     -0.0663200811
11
# Point 24 Energy = 0.00013005999998938478
C       1.1866386356     -0.5031891953     0.0087660060
C       0.0797872110     0.4837871859     -0.3426287777
H       0.9160995153     -1.5164179713     -0.2951276657
H       1.3663682299     -0.5198745904     1.0856105641
H       2.1254366521     -0.2461695823     -0.4828858911
C       -1.2422901798     0.1428611260     0.3345724787
H       -0.0602587769     0.5036249873     -1.4260263383
H       0.3865375732     1.4924834084     -0.0559358449
H       -2.0169257099     0.8621719052     0.0612464858
H       -1.1503037702     0.1473828900     1.4211452738
H       -1.5910894410     -0.8466594975     0.0323087281
11
# Point 25 Energy = 0.0004610700000000634
C       1.1801566478     -0.5166116655     -0.0108146291
C       0.0858912026     0.4969639977     -0.3238134432
H       0.8969714369     -1.5139498595     -0.3533025775
H       1.3593975021     -0.5768671403     1.0645538313
H       2.1222334794     -0.2527411131     -0.4924638376
C       -1.2405354836     0.1469551912     0.3401194062
H       -0.0536279298     0.5601217148     -1.4056185116
H       0.4052320181     1.4899780135     0.0013039197
H       -2.0456354827     0.7783403535     -0.0411181422
H       -1.1958823815     0.2788589720     1.4216599178
H       -1.5142010699     -0.8910477982     0.1405390851
11
# Point 26 Energy = 0.0013688500000057502
C       1.1735000424     -0.5291930725     -0.0309088475
C       0.0921443086     0.5093242803     -0.3045367558
H       0.8778872602     -1.5090150711     -0.4113523596
H       1.3516917819     -0.6329184138     1.0413150513
H       2.1189439711     -0.2588994166     -0.5022892694
C       -1.2387490246     0.1507999948     0.3457739542
H       -0.0462907028     0.6156970930     -1.3830900757
H       0.4238599555     1.4850376321     0.0583749086
H       -2.0628239780     0.6819475424     -0.1348070002
H       -1.2497561531     0.4057934887     1.4059529703
H       -1.4404075219     -0.9185733914     0.2566124426
11
# Point 27 Energy = 0.002632910000002653
C       1.1666829366     -0.5409148964     -0.0514839986
C       0.0985371020     0.5208454218     -0.2848297715
H       0.8588833148     -1.5016240412     -0.4691832489
H       1.3432674924     -0.6879391520     1.0159320847
H       2.1155761638     -0.2646355637     -0.5123459723
C       -1.2369321669     0.1543855770     0.3515268592
H       -0.0382588869     0.6702582179     -1.3584774629
H       0.4423898410     1.4776682859     0.1151852183
H       -2.0682838889     0.5747779306     -0.2179464792
H       -1.3104257467     0.5260069660     1.3740818074
H       -1.3714362217     -0.9288280800     0.3785859826
11
# Point 28 Energy = 0.003901560000002746
C       1.1597198799     -0.5517599562     -0.0725065603
C       0.1050600494     0.5315063595     -0.2647238290
H       0.8399956562     -1.4917910830     -0.5267017090
H       1.3341428460     -0.7418418039     0.9884462435
H       2.1121382962     -0.2699413159     -0.5226174349
C       -1.2350860708     0.1577026734     0.3573693538
H       -0.0295457323     0.7237141075     -1.3318199618
H       0.4607907192     1.4678800713     0.1716437385
H       -2.0621100710     0.4587842972     -0.2888167330
H       -1.3762458311     0.6374543033     1.3264073720
H       -1.3088598024     -0.9217069874     0.5043645392
11
# Point 29 Energy = 0.0048478999999872485
C       1.1526257271     -0.5617123930     -0.0939421927
C       0.1117035008     0.5412876407     -0.2442505146
H       0.8212598483     -1.4795343115     -0.5838145354
H       1.3243376978     -0.7945406048     0.9589022188
H       2.1086387063     -0.2748091087     -0.5330869002
C       -1.2332117335     0.1607427766     0.3632932010
H       -0.0201659365     0.7759758554     -1.3031596631
H       0.4790323051     1.4556871604     0.2276602391
H       -2.0446923754     0.3360523880     -0.3458901376
H       -1.4454707786     0.7382572137     1.2635962376
H       -1.2540570220     -0.8974059507     0.6317370661
11
# Point 30 Energy = 0.005211400000007416
C       1.1454155088     -0.5707576568     -0.1157557889
C       0.1184576802     0.5501714773     -0.2234416362
H       0.8027107494     -1.4648755710     -0.6404289588
H       1.3138733757     -0.8459516521     0.9273480141
H       2.1050857290     -0.2792320378     -0.5437374090
C       -1.2313100345     0.1634981920     0.3692907099
H       -0.0101356148     0.8269567750     -1.2725414193
H       0.4970850570     1.4411077983     0.2831454470
H       -2.0167005449     0.2087642426     -0.3878671539
H       -1.5163025638     0.8267331909     1.1866162139
H       -1.2081794028     -0.8564140924     0.7584170002
11
# Point 31 Energy = 0.00486990999999648
C       1.1381043007     -0.5788824949     -0.1379115244
C       0.1253126780     0.5581417961     -0.2023292079
H       0.7843823109     -1.4478403673     -0.6964527510
H       1.3027724933     -0.8959929842     0.8938348861
H       2.1014875968     -0.2832038462     -0.5545518326
C       -1.2293817855     0.1659620856     0.3753547303
H       0.0005277488     0.8765725383     -1.2400128183
H       0.5149202406     1.4241642956     0.3380111191
H       -1.9790616419     0.0791608287     -0.4137086098
H       -1.5869395133     0.9014206903     1.0967252988
H       -1.1721244890     -0.7995018760     0.8820857285
11
# Point 32 Energy = 0.003931819999976938
C       1.1307070961     -0.5860749453     -0.1603729043
C       0.1322584456     0.5651842828     -0.1809454405
H       0.7663073946     -1.4284578025     -0.7517943372
H       1.2910587473     -0.9445846631     0.8584172909
H       2.0978523492     -0.2867189141     -0.5655128940
C       -1.2274277835     0.1681285247     0.3814786263
H       0.0118053715     0.9247413092     -1.2056241673
H       0.5325099788     1.4048830153     0.3921701153
H       -1.9329306950     -0.0504954272     -0.4226634690
H       -1.6556245344     0.9611002902     0.9954539570
H       -1.1465164309     -0.7277050041     1.0004382416
11
# Point 33 Energy = 0.0026337699999885444
C       1.1232386872     -0.5923243329     -0.1831028105
C       0.1392847923     0.5712864217     -0.1593227375
H       0.7485176145     -1.4067605121     -0.8063629164
H       1.2787567063     -0.9916488655     0.8211528318
H       2.0941877506     -0.2897722498     -0.5766031767
C       -1.2254488650     0.1699925097     0.3876562275
H       0.0236772605     0.9713838764     -1.1694284829
H       0.5498272877     1.3832943532     0.4455364776
H       -1.8796554422     -0.1779576579     -0.4142912364
H       -1.7206914594     1.0048116773     0.8845808849
H       -1.1316943930     -0.6423045541     1.1112299576
11
# Point 34 Energy = 0.00134918000000539
C       1.1157135557     -0.5976212703     -0.2060635497
C       0.1463813845     0.5764375290     -0.1374936941
H       0.7310432104     -1.3827846019     -0.8600685955
H       1.2658915959     -1.0371099795     0.7821022069
H       2.0905012237     -0.2923594819     -0.5878051218
C       -1.2234459623     0.1715499978     0.3938817609
H       0.0361223184     1.0164237832     -1.1314814838
H       0.5668460944     1.3594327087     0.4980255171
H       -1.8207362260     -0.3010306194     -0.3884782592
H       -1.7806082006     1.0318663715     0.7661026125
H       -1.1277090545     -0.5448037712     1.2123236256
11
# Point 35 Energy = 0.000414880000008111
C       1.1081457803     -0.6019576598     -0.2292169034
C       0.1535377460     0.5806287806     -0.1154910970
H       0.7139129570     -1.3565695827     -0.9128225344
H       1.2524890884     -1.0808947089     0.7413291512
H       2.0867997961     -0.2944768531     -0.5991010149
C       -1.2214201578     0.1727979174     0.4001497635
H       0.0491184606     1.0597874554     -1.0918415816
H       0.5835412358     1.3333364447     0.5495539111
H       -1.7577822346     -0.4176053419     -0.3454473221
H       -1.8340155017     1.0418561648     0.6421974701
H       -1.1343272306     -0.4369019505     1.3017351764
11
# Point 36 Energy = 8.478999997407755e-05
C       1.1005489611     -0.6053266992     -0.2525241826
C       0.1607432592     0.5838532320     -0.0933479244
H       0.6971541119     -1.3281583019     -0.9645371050
H       1.2385751042     -1.1229321824     0.6989003701
H       2.0830900651     -0.2961212141     -0.6104729665
C       -1.2193727365     0.1737341744     0.4064549808
H       0.0626427400     1.1014043254     -1.0505698660
H       0.5998884377     1.3050478354     0.6000398083
H       -1.6924653935     -0.5256919639     -0.2857600977
H       -1.8797602085     1.0346573048     0.5151846245
H       -1.1510444012     -0.3204658444     1.3776773774

    This sampling was finished on:   2020-07-02 18:36:53
=------------------------------------------------------------------------------=
Sampling finished.
=------------------------------------------------------------------------------=