11
# Point -5 Energy = 0.07331961999999237
C       1.2611424629     -0.1342076345     0.2566219675
C       -0.0000000193     0.0000001551     -0.5884986826
H       1.3412903070     -0.9363453520     0.9918825599
H       1.2671929848     0.8174248516     0.7935149900
H       2.1546262026     -0.0497871322     -0.3627990294
C       -1.2611426050     0.1342074301     0.2566219107
H       0.4092056617     -0.7965513739     -1.2144484315
H       -0.4092060795     0.7965515038     -1.2144484447
H       -1.2671927148     -0.8174248912     0.7935152155
H       -2.1546261486     0.0497877880     -0.3627994360
H       -1.3412901126     0.9363453212     0.9918823996
11
# Point -4 Energy = 0.04739556999999195
C       1.2628274263     -0.1073813935     0.2577813745
C       -0.0000000169     0.0000001339     -0.5886564608
H       1.3329226190     -0.9243880184     0.9777724805
H       1.2748666762     0.8318395956     0.8156971830
H       2.1580614429     -0.0416285875     -0.3613753179
C       -1.2628275367     0.1073812263     0.2577813283
H       0.3326496672     -0.8234901413     -1.2250248017
H       -0.3326500262     0.8234902770     -1.2250248275
H       -1.2748664425     -0.8318396237     0.8156973614
H       -2.1580613918     0.0416292015     -0.3613756400
H       -1.3329224780     0.9243879961     0.9777723391
11
# Point -3 Energy = 0.02686370000000693
C       1.2645165343     -0.0805458507     0.2585896174
C       -0.0000000141     0.0000001142     -0.5883053866
H       1.3255858931     -0.9130995426     0.9616322246
H       1.2827561043     0.8452394658     0.8380686239
H       2.1608560715     -0.0323092666     -0.3605800295
C       -1.2645166148     0.0805457240     0.2585895828
H       0.2526446720     -0.8451335933     -1.2330350859
H       -0.2526449643     0.8451337267     -1.2330351253
H       -1.2827559041     -0.8452394826     0.8380687545
H       -2.1608560279     0.0323098429     -0.3605802682
H       -1.3255858105     0.9130995281     0.9616321113
11
# Point -2 Energy = 0.012011990000004857
C       1.2659365899     -0.0536996634     0.2591136898
C       -0.0000000106     0.0000000960     -0.5877875498
H       1.3187832639     -0.9022204657     0.9437357905
H       1.2905727415     0.8577401224     0.8603903925
H       2.1629216665     -0.0220718026     -0.3601922413
C       -1.2659366421     0.0536995804     0.2591136671
H       0.1699519535     -0.8609734981     -1.2386312342
H       -0.1699521729     0.8609736210     -1.2386312861
H       -1.2905725716     -0.8577401283     0.8603904748
H       -2.1629216342     0.0220723450     -0.3601923979
H       -1.3187832443     0.9022204593     0.9437357135
11
# Point -1 Energy = 0.003017739999975788
C       1.2668763015     -0.0268477111     0.2594060371
C       -0.0000000060     0.0000000794     -0.5873669055
H       1.3121086087     -0.8914916857     0.9243694561
H       1.2981108167     0.8694890022     0.8824020971
H       2.1641893458     -0.0111984781     -0.3600346680
C       -1.2668763269     0.0268476745     0.2594060265
H       0.0854286950     -0.8706300223     -1.2419368860
H       -0.0854288370     0.8706301266     -1.2419369477
H       -1.2981106736     -0.8694889979     0.8824021308
H       -2.1641893284     0.0111989900     -0.3600347444
H       -1.3121086563     0.8914916884     0.9243694229
11
# Point 0 Energy = 0
C       1.2672042126     0.0000000000     0.2594997522
C       0.0000000000     0.0000000000     -0.5872081259
H       1.3052750505     -0.8806643351     0.9038259677
H       1.3052750505     0.8806643351     0.9038259677
H       2.1646165232     0.0000000000     -0.3599948239
C       -1.2672042126     -0.0000000181     0.2594997522
H       0.0000000000     -0.8738729764     -1.2430302913
H       -0.0000000606     0.8738729764     -1.2430302913
H       -1.3052750505     -0.8806643351     0.9038259677
H       -2.1646165232     0.0000006841     -0.3599948239
H       -1.3052750505     0.8806643351     0.9038259677
11
# Point 1 Energy = 0.003017739999975788
C       1.2668763157     0.0268476677     0.2594059574
C       0.0000000075     0.0000000507     -0.5873669289
H       1.2981107679     -0.8694890255     0.8824020582
H       1.3121087360     0.8914915491     0.9243694982
H       2.1641894418     0.0111983803     -0.3600346276
C       -1.2668762911     -0.0268476041     0.2594059674
H       -0.0854286214     -0.8706300426     -1.2419369226
H       0.0854286434     0.8706300871     -1.2419369912
H       -1.3121086373     -0.8914915274     0.9243694323
H       -2.1641894614     -0.0111979214     -0.3600345539
H       -1.2981109617     0.8694890521     0.8824021296
11
# Point 2 Energy = 0.012011979999982714
C       1.2659366182     0.0536996200     0.2591135301
C       0.0000000164     0.0000000384     -0.5877875973
H       1.2905727358     -0.8577400962     0.8603903579
H       1.3187834267     0.9022202661     0.9437358300
H       2.1629218578     0.0220717131     -0.3601921620
C       -1.2659365695     -0.0536995035     0.2591135501
H       -0.1699518812     -0.8609735376     -1.2386313079
H       0.1699519842     0.8609735425     -1.2386313725
H       -1.3187833441     -0.9022202372     0.9437357160
H       -2.1629218988     -0.0220712781     -0.3601920159
H       -1.2905730060     0.8577401384     0.8603904905
11
# Point 3 Energy = 0.026863679999976853
C       1.2645165761     0.0805458070     0.2585893793
C       0.0000000271     0.0000000275     -0.5883054593
H       1.2827561426     -0.8452393954     0.8380685965
H       1.3255860875     0.9130992764     0.9616322601
H       2.1608563570     0.0323091906     -0.3605799113
C       -1.2645165034     -0.0805456363     0.2585894083
H       -0.2526446019     -0.8451336498     -1.2330351979
H       0.2526447836     0.8451336104     -1.2330352533
H       -1.3255860176     -0.9130992413     0.9616320986
H       -2.1608564206     -0.0323087790     -0.3605796966
H       -1.2827564911     0.8452394560     0.8380687945
11
# Point 4 Energy = 0.047395550000004505
C       1.2628274806     0.1073813491     0.2577810604
C       0.0000000399     0.0000000179     -0.5886565608
H       1.2748667587     -0.8318394865     0.8156971659
H       1.3329228405     0.9243876824     0.9777725114
H       2.1580618212     0.0416285297     -0.3613751610
C       -1.2628273834     -0.1073811238     0.2577810974
H       -0.3326495997     -0.8234902117     -1.2250249533
H       0.3326498562     0.8234901246     -1.2250249952
H       -1.3329227800     -0.9243876422     0.9777723036
H       -2.1580619076     -0.0416281419     -0.3613748819
H       -1.2748671869     0.8318395684     0.8156974324
11
# Point 5 Energy = 0.07331958999999699
C       1.2611425283     0.1342075885     0.2566215804
C       0.0000000549     0.0000000097     -0.5884988120
H       1.2671931109     -0.8174247097     0.7935149862
H       1.3412905510     0.9363449433     0.9918825862
H       2.1546266720     0.0497870964     -0.3627988339
C       -1.2611424059     -0.1342073088     0.2566216246
H       -0.4092055968     -0.7965514536     -1.2144486246
H       0.4092059224     0.7965513178     -1.2144486496
H       -1.3412904967     -0.9363448989     0.9918823335
H       -2.1546267810     -0.0497867342     -0.3627984953
H       -1.2671936196     0.8174248155     0.7935153234

    This sampling was finished on:   2020-07-02 18:35:41
=------------------------------------------------------------------------------=
Sampling finished.
=------------------------------------------------------------------------------=