11
# Point -5 Energy = 0.06642605999999773
C       1.1873173745     -0.0000000440     0.1863899729
C       0.1349996054     0.0000000117     -0.5814903750
H       1.2284772239     -0.8906489988     0.8117418317
H       1.2284772670     0.8906488954     0.8117418496
H       2.0566103666     -0.0000000310     -0.4719674446
C       -1.3578811215     0.0000001652     0.3227933856
H       0.2958802601     -0.8680239332     -1.2252360611
H       0.2958800038     0.8680239665     -1.2252361431
H       -1.3952801411     -0.8697868812     0.9864377107
H       -2.2792007357     0.0000004581     -0.2605675717
H       -1.3952801637     0.8697870572     0.9864378639
11
# Point -4 Energy = 0.04128953000001445
C       1.2023312247     -0.0000000351     0.2017608801
C       0.1079732227     0.0000000109     -0.5835387449
H       1.2426440305     -0.8887219846     0.8308822331
H       1.2426440655     0.8887219031     0.8308822457
H       2.0776499785     -0.0000000259     -0.4485662626
C       -1.3390141977     0.0000001281     0.3109273619
H       0.2371985940     -0.8701157797     -1.2315788536
H       0.2371983768     0.8701158058     -1.2315789160
H       -1.3764036312     -0.8720352926     0.9706785459
H       -2.2558180762     0.0000005022     -0.2795021391
H       -1.3764036481     0.8720354337     0.9706786683
11
# Point -3 Energy = 0.02270116999999061
C       1.2178378425     -0.0000000263     0.2167683013
C       0.0809648182     0.0000000093     -0.5851397098
H       1.2574213231     -0.8867602405     0.8496715109
H       1.2574213497     0.8867601804     0.8496715192
H       2.0989724983     -0.0000000202     -0.4256595543
C       -1.3204863953     0.0000000912     0.2986683556
H       0.1781895435     -0.8717535148     -1.2365610942
H       0.1781893656     0.8717535340     -1.2365611384
H       -1.3579282628     -0.8742470040     0.9545414513
H       -2.2326538689     0.0000005468     -0.2988961655
H       -1.3579282746     0.8742471100     0.9545415429
11
# Point -2 Energy = 0.00992562999999791
C       1.2338279856     -0.0000000175     0.2314002408
C       0.0539698984     0.0000000069     -0.5862874696
H       1.2727974916     -0.8847635387     0.8680979946
H       1.2727975096     0.8847634992     0.8680979993
H       2.1205770321     -0.0000000139     -0.4032583112
C       -1.3023250685     0.0000000545     0.2860117426
H       0.1189309745     -0.8729291136     -1.2401463909
H       0.1189308358     0.8729291262     -1.2401464187
H       -1.3398917224     -0.8764222554     0.9380215118
H       -2.2097232676     0.0000005920     -0.3187674523
H       -1.3398917296     0.8764223263     0.9380215726
11
# Point -1 Energy = 0.002456750000007446
C       1.2502888636     -0.0000000087     0.2456466505
C       0.0269834234     0.0000000038     -0.5869777765
H       1.2887559263     -0.8827316480     0.8861519627
H       1.2887559354     0.8827316286     0.8861519647
H       2.1424602786     -0.0000000072     -0.3813693248
C       -1.2845562932     0.0000000181     0.2729553838
H       0.0595057223     -0.8736367456     -1.2423080870
H       0.0595056228     0.8736367518     -1.2423081001
H       -1.3223297160     -0.8785612863     0.9211162918
H       -2.1870401047     0.0000006377     -0.3391302683
H       -1.3223297192     0.8785613218     0.9211163221
11
# Point 0 Energy = 0
C       1.2672042126     0.0000000000     0.2594997522
C       0.0000000000     0.0000000000     -0.5872081259
H       1.3052750505     -0.8806643351     0.9038259677
H       1.3052750505     0.8806643351     0.9038259677
H       2.1646165232     0.0000000000     -0.3599948239
C       -1.2672042126     -0.0000000181     0.2594997522
H       0.0000000000     -0.8738729764     -1.2430302913
H       -0.0000000606     0.8738729764     -1.2430302913
H       -1.3052750505     -0.8806643351     0.9038259677
H       -2.1646165232     0.0000006841     -0.3599948239
H       -1.3052750505     0.8806643351     0.9038259677
11
# Point 1 Energy = 0.002456750000007446
C       1.2845563070     0.0000000087     0.2729554212
C       -0.0269834238     -0.0000000047     -0.5869778116
H       1.3223297885     -0.8785613211     0.9211163110
H       1.3223297790     0.8785613400     0.9211163097
H       2.1870401139     0.0000000078     -0.3391302601
C       -1.2502888776     -0.0000000540     0.2456466872
H       -0.0595057223     -0.8736367522     -1.2423081335
H       -0.0595057442     0.8736367461     -1.2423081219
H       -1.2887559979     -0.8827316818     0.8861519817
H       -2.1424602881     0.0000007312     -0.3813693165
H       -1.2887559951     0.8827316461     0.8861519518
11
# Point 2 Energy = 0.00992562999999791
C       1.3023250964     0.0000000173     0.2860118181
C       -0.0539698997     -0.0000000101     -0.5862875395
H       1.3398918686     -0.8764223258     0.9380215501
H       1.3398918493     0.8764223631     0.9380215482
H       2.2097232860     0.0000000160     -0.3187674362
C       -1.2338280139     -0.0000000896     0.2314003134
H       -0.1189309743     -0.8729291269     -1.2401464838
H       -0.1189309580     0.8729291147     -1.2401464623
H       -1.2727976342     -0.8847636054     0.8680980322
H       -2.1205770514     0.0000007791     -0.4032582944
H       -1.2727976294     0.8847635337     0.8680979730
11
# Point 3 Energy = 0.022701150000003167
C       1.3204864374     0.0000000260     0.2986684700
C       -0.0809648213     -0.0000000164     -0.5851398140
H       1.3579284841     -0.8742471111     0.9545415088
H       1.3579284548     0.8742471663     0.9545415069
H       2.2326538966     0.0000000246     -0.2988961419
C       -1.2178378856     -0.0000001248     0.2167684088
H       -0.1781895431     -0.8717535350     -1.2365612331
H       -0.1781894890     0.8717535167     -1.2365612033
H       -1.2574215362     -0.8867603393     0.8496715667
H       -2.0989725280     0.0000008277     -0.4256595291
H       -1.2574215302     0.8867602313     0.8496714791
11
# Point 4 Energy = 0.04128949999997644
C       1.3390142546     0.0000000347     0.3109275157
C       -0.1079732280     -0.0000000234     -0.5835388828
H       1.3764039291     -0.8720354373     0.9706786224
H       1.3764038898     0.8720355099     0.9706786212
H       2.2558181135     0.0000000336     -0.2795021086
C       -1.2023312835     -0.0000001596     0.2017610217
H       -0.2371985931     -0.8701158071     -1.2315790380
H       -0.2371985018     0.8701157826     -1.2315790014
H       -1.2426443141     -0.8887221143     0.8308823066
H       -2.0776500194     0.0000008770     -0.4485662292
H       -1.2426443078     0.8887219698     0.8308821913
11
# Point 5 Energy = 0.06642598999999905
C       1.3578811941     0.0000000434     0.3227935794
C       -0.1349996137     -0.0000000312     -0.5814905458
H       1.3952805175     -0.8697870644     0.9864378060
H       1.3952804680     0.8697871541     0.9864378060
H       2.2792007832     0.0000000430     -0.2605675348
C       -1.1873174499     -0.0000001940     0.1863901476
H       -0.2958802588     -0.8680239683     -1.2252362901
H       -0.2958801309     0.8680239374     -1.2252362483
H       -1.2284775780     -0.8906491587     0.8117419221
H       -2.0566104196     0.0000009273     -0.4719674035
H       -1.2284775725     0.8906489774     0.8117417803

    This sampling was finished on:   2020-07-02 18:49:52
=------------------------------------------------------------------------------=
Sampling finished.
=------------------------------------------------------------------------------=