11
# Point -10 Energy = 0.060589400000012006
C       1.5283237953     -0.0000007786     0.2674848096
C       -0.0000002017     0.0000032103     -0.0567854495
H       1.9519116012     -0.8852519061     0.7417515845
H       1.9519188589     0.8852465854     0.7417520935
H       1.8744817155     -0.0000044338     -0.7718828581
C       -1.5283242275     0.0000013280     0.2674842635
H       0.0000012308     -0.8238639606     -0.7801929824
H       -0.0000003891     0.8238752453     -0.7801874696
H       -1.9519112855     -0.8852455377     0.7417596197
H       -1.8744827961     -0.0000121370     -0.7718828149
H       -1.9519183624     0.8852530509     0.7417442226
11
# Point -9 Energy = 0.04971095999999875
C       1.5116003446     -0.0000007487     0.2669842401
C       -0.0000001842     0.0000032262     -0.1125375663
H       1.9037343878     -0.8854539842     0.7676271398
H       1.9037414527     0.8854490915     0.7676275825
H       1.9219543687     -0.0000043696     -0.7482098045
C       -1.5116007573     0.0000011654     0.2669837494
H       0.0000011172     -0.8309255929     -0.8272400803
H       -0.0000003726     0.8309361535     -0.8272353284
H       -1.9037338169     -0.8854481318     0.7676343465
H       -1.9219553431     -0.0000111585     -0.7482097243
H       -1.9037412575     0.8854550151     0.7676204645
11
# Point -8 Energy = 0.0398760800000133
C       1.4927499043     -0.0000007094     0.2663141792
C       -0.0000001660     0.0000031445     -0.1681360984
H       1.8515264224     -0.8855292981     0.7916456418
H       1.8515331588     0.8855248905     0.7916460548
H       1.9661329769     -0.0000042276     -0.7205076205
C       -1.4927502918     0.0000010072     0.2663137448
H       0.0000010006     -0.8375205933     -0.8745095655
H       -0.0000003542     0.8375303092     -0.8745055245
H       -1.8515256574     -0.8855239887     0.7916520146
H       -1.9661338414     -0.0000101162     -0.7205075118
H       -1.8515332127     0.8855302478     0.7916397044
11
# Point -7 Energy = 0.031070079999977906
C       1.4717693275     -0.0000006604     0.2655098301
C       -0.0000001470     0.0000029734     -0.2234182026
H       1.7953780405     -0.8854702016     0.8136800095
H       1.7953843165     0.8854663223     0.8136804169
H       2.0066933287     -0.0000040030     -0.6887778835
C       -1.4717696843     0.0000008538     0.2655094525
H       0.0000008814     -0.8436514012     -0.9218623109
H       -0.0000003331     0.8436601622     -0.9218589312
H       -1.7953771442     -0.8854654624     0.8136855470
H       -2.0066940808     -0.0000090064     -0.6887777553
H       -1.7953845659     0.8854710893     0.8136748462
11
# Point -6 Energy = 0.023300400000010768
C       1.4486655935     -0.0000006013     0.2646089072
C       -0.0000001274     0.0000027213     -0.2782162614
H       1.7354068495     -0.8852690209     0.8336112261
H       1.7354125387     0.8852656994     0.8336116388
H       2.0433188863     -0.0000036926     -0.6530493210
C       -1.4486659139     0.0000007060     0.2646085865
H       0.0000007598     -0.8493210615     -0.9691530650
H       -0.0000003086     0.8493287687     -0.9691502983
H       -1.7354058859     -0.8852648789     0.8336159307
H       -2.0433195245     -0.0000078269     -0.6530491826
H       -1.7354129282     0.8852698526     0.8336068579
11
# Point -5 Energy = 0.016600149999987934
C       1.4234562030     -0.0000005316     0.2636512766
C       -0.0000001071     0.0000023970     -0.3323592355
H       1.6717578784     -0.8849181276     0.8513301588
H       1.6717628614     0.8849153808     0.8513305750
H       2.0757044324     -0.0000032943     -0.6133791391
C       -1.4234564817     0.0000005645     0.2636510125
H       0.0000006361     -0.8545331110     -1.0162317292
H       -0.0000002800     0.8545396775     -1.0162295285
H       -1.6717569124     -0.8849146096     0.8513340371
H       -2.0757049566     -0.0000065766     -0.6133789999
H       -1.6717633341     0.8849188970     0.8513265911
11
# Point -4 Energy = 0.010981280000009974
C       1.3961694808     -0.0000004506     0.2626785283
C       -0.0000000863     0.0000020092     -0.3856741038
H       1.6046033208     -0.8844100176     0.8667393264
H       1.6046074867     0.8844078503     0.8667397318
H       2.1035598175     -0.0000028073     -0.5698540297
C       -1.3961697127     0.0000004301     0.2626783200
H       0.0000005106     -0.8592914615     -1.0629447362
H       -0.0000002469     0.8592968127     -1.0629430567
H       -1.6046024179     -0.8844071504     0.8667423891
H       -2.1035602288     -0.0000052557     -0.5698538996
H       -1.6046079845     0.8844107067     0.8667365493
11
# Point -3 Energy = 0.006441799999976183
C       1.3668447889     -0.0000003577     0.2617334863
C       -0.0000000651     0.0000015669     -0.4379873689
H       1.5341418651     -0.8837373936     0.8797545707
H       1.5341451128     0.8837358001     0.8797549394
H       2.1266137594     -0.0000022322     -0.5225908159
C       -1.3668449690     0.0000003036     0.2617333328
H       0.0000003838     -0.8636002840     -1.1091365076
H       -0.0000002086     0.8636043582     -1.1091353063
H       -1.5341410910     -0.8837352039     0.8797568333
H       -2.1266140604     -0.0000038658     -0.5225907044
H       -1.5341455765     0.8837379744     0.8797525596
11
# Point -2 Energy = 0.003015009999984386
C       1.3355326544     -0.0000002522     0.2608596686
C       -0.0000000436     0.0000010790     -0.4891266064
H       1.4605976167     -0.8828932502     0.8903065910
H       1.4605998559     0.8828922146     0.8903068862
H       2.1446176454     -0.0000015707     -0.4717366961
C       -1.3355327784     0.0000001861     0.2608595683
H       0.0000002561     -0.8674638998     -1.1546509619
H       -0.0000001649     0.8674666481     -1.1546501984
H       -1.4605970366     -0.8828917644     0.8903080734
H       -2.1446178401     -0.0000024097     -0.4717366127
H       -1.4606002255     0.8828936851     0.8903053069
11
# Point -1 Energy = 0.0008008900000078256
C       1.3022948191     -0.0000001332     0.2601007082
C       -0.0000000219     0.0000005539     -0.5389220405
H       1.3842186263     -0.8818709563     0.8983423007
H       1.3842197788     0.8818704544     0.8983424757
H       2.1573492805     -0.0000008254     -0.4174690564
C       -1.3022948829     0.0000000786     0.2601006593
H       0.0000001280     -0.8708866824     -1.1993330501
H       -0.0000001155     0.8708880685     -1.1993326861
H       -1.3842183048     -0.8818702006     0.8983430273
H       -2.1573493744     -0.0000008914     -0.4174690103
H       -1.3842199939     0.8818711998     0.8983416910
11
# Point 0 Energy = 0
C       1.2672042126     0.0000000000     0.2594997522
C       0.0000000000     0.0000000000     -0.5872081259
H       1.3052750505     -0.8806643351     0.9038259677
H       1.3052750505     0.8806643351     0.9038259677
H       2.1646165232     0.0000000000     -0.3599948239
C       -1.2672042126     -0.0000000181     0.2594997522
H       0.0000000000     -0.8738729764     -1.2430302913
H       -0.0000000606     0.8738729764     -1.2430302913
H       -1.3052750505     -0.8806643351     0.9038259677
H       -2.1646165232     0.0000006841     -0.3599948239
H       -1.3052750505     0.8806643351     0.9038259677
11
# Point 1 Energy = 0.000942590000008181
C       1.2303405433     0.0000001471     0.2590996703
C       0.0000000220     -0.0000005796     -0.6338302407
H       1.2240437892     -0.8792686062     0.9067396607
H       1.2240425813     0.8792690651     0.9067394277
H       2.1662606560     0.0000009050     -0.2995414489
C       -1.2303404763     -0.0000000996     0.2590997165
H       -0.0000001211     -0.8764269351     -1.2855995522
H       -0.0000000067     0.8764255316     -1.2855998776
H       -1.2240441687     -0.8792693814     0.9067389697
H       -2.1662605703     0.0000023134     -0.2995415032
H       -1.2240423093     0.8792683056     0.9067401965
11
# Point 2 Energy = 0.004078700000007984
C       1.1917934782     0.0000003096     0.2589421317
C       0.0000000440     -0.0000011738     -0.6786399968
H       1.1408183173     -0.8776794046     0.9070826152
H       1.1408158594     0.8776802786     0.9070820818
H       2.1621569453     0.0000018820     -0.2363613882
C       -1.1917933415     -0.0000001681     0.2589422210
H       -0.0000002411     -0.8785521697     -1.3269026974
H       0.0000000523     0.8785493608     -1.3269033165
H       -1.1408191346     -0.8776809785     0.9070812717
H       -2.1621567834     0.0000039880     -0.2363615043
H       -1.1408152564     0.8776787417     0.9070836009
11
# Point 3 Energy = 0.0100830300000041
C       1.1516672231     0.0000004882     0.2590659951
C       0.0000000661     -0.0000017757     -0.7214920835
H       1.0559200691     -0.8758920286     0.9048729131
H       1.0559163321     0.8758932693     0.9048720081
H       2.1522187835     0.0000029253     -0.1707390692
C       -1.1516670146     -0.0000002225     0.2590661240
H       -0.0000003593     -0.8802520329     -1.3668029730
H       0.0000001157     0.8802478272     -1.3668038565
H       -1.0559213794     -0.8758944234     0.9048709602
H       -2.1522185561     0.0000057005     -0.1707392537
H       -1.0559153408     0.8758909386     0.9048742542
11
# Point 4 Energy = 0.01996537999997372
C       1.1100763717     0.0000006832     0.2595073396
C       0.0000000882     -0.0000023788     -0.7622513966
H       0.9696828948     -0.8739024353     0.9001479854
H       0.9696778625     0.8739039904     0.9001466352
H       2.1364014544     0.0000040289     -0.1029814626
C       -1.1100760899     -0.0000002617     0.2595075044
H       -0.0000004747     -0.8815297214     -1.4051718977
H       0.0000001827     0.8815241374     -1.4051730187
H       -0.9696847494     -0.8739056712     0.9001454707
H       -2.1364011733     0.0000074429     -0.1029817210
H       -0.9696764277     0.8739008515     0.9001495802
11
# Point 5 Energy = 0.035449059999976384
C       1.0671454790     0.0000008950     0.2602989456
C       0.0000001103     -0.0000029774     -0.8007944774
H       0.8824499371     -0.8717072709     0.8929643869
H       0.8824436052     0.8717090852     0.8929625176
H       2.1147042346     0.0000051864     -0.0334151234
C       -1.0671451229     -0.0000002846     0.2602991423
H       -0.0000005863     -0.8823883396     -1.4418905347
H       0.0000002522     0.8823814046     -1.4418918689
H       -0.8824523825     -0.8717113659     0.8929613624
H       -2.1147039127     0.0000092068     -0.0334154603
H       -0.8824416745     0.8717051263     0.8929661287
11
# Point 6 Energy = 0.059420339999988414
C       1.0230085181     0.0000011237     0.2614698359
C       0.0000001323     -0.0000035662     -0.8370108825
H       0.7945703587     -0.8693038868     0.8833972539
H       0.7945627344     0.8693059024     0.8833947929
H       2.0871719452     0.0000063914     0.0376172053
C       -1.0230080873     -0.0000002899     0.2614700604
H       -0.0000006927     -0.8828310059     -1.4768506583
H       0.0000003230     0.8828227550     -1.4768521834
H       -0.7945734365     -0.8693088557     0.8833937757
H       -2.0871715963     0.0000109835     0.0376167869
H       -0.7945602593     0.8693011146     0.8833990320

    This sampling was finished on:   2020-07-02 18:35:41
=------------------------------------------------------------------------------=
Sampling finished.
=------------------------------------------------------------------------------=