11
# Point -5 Energy = 0.050554849999997487
C       1.2363036657     0.1136270064     0.2595249037
C       -0.0000000134     0.2014687693     -0.6273561871
H       1.0485832405     -0.8887803731     0.6575361835
H       1.4464600775     0.7825392485     1.0927628164
H       2.1346912063     -0.0045540031     -0.3471508483
C       -1.2363037351     0.1136280468     0.2595247610
H       -0.0000007651     -0.8897603207     -0.7554846999
H       0.0000005664     0.6826263951     -1.6014599761
H       -1.0485821212     -0.8887791712     0.6575361491
H       -2.1346911693     -0.0045547404     -0.3471508380
H       -1.4464610129     0.7825398085     1.0927627546
11
# Point -4 Energy = 0.03069846000001064
C       1.2467301664     0.0927723784     0.2595710073
C       -0.0000000067     0.1645237683     -0.6140631200
H       1.1044507823     -0.8943856907     0.7095568472
H       1.4289967194     0.8080475049     1.0610134043
H       2.1452736257     -0.0013725030     -0.3510670066
C       -1.2467302104     0.0927732277     0.2595708819
H       -0.0000005999     -0.9050453641     -0.8600823544
H       0.0000004634     0.7303970693     -1.5429578437
H       -1.1044498669     -0.8943847431     0.7095568123
H       -2.1452736465     -0.0013729577     -0.3510669934
H       -1.4289974875     0.8080479760     1.0610133840
11
# Point -3 Energy = 0.016523719999995023
C       1.2553880631     0.0706970255     0.2595698083
C       -0.0000000024     0.1253692887     -0.6028295576
H       1.1592706012     -0.8966151593     0.7605889774
H       1.4065062320     0.8310075753     1.0260527785
H       2.1536694420     0.0003856459     -0.3546526788
C       -1.2553880881     0.0706976797     0.2595697056
H       -0.0000004323     -0.9104444534     -0.9618591443
H       0.0000003442     0.7741240901     -1.4773839391
H       -1.1592698991     -0.8966144509     0.7605889519
H       -2.1536694961     0.0003854625     -0.3546526642
H       -1.4065068252     0.8310079618     1.0260527812
11
# Point -2 Energy = 0.007119570000014619
C       1.2618669655     0.0476706790     0.2595405352
C       -0.0000000002     0.0845126573     -0.5943068110
H       1.2117731612     -0.8951677786     0.8102114522
H       1.3784580461     0.8509976487     0.9880550499
H       2.1597379124     0.0009746195     -0.3575248005
C       -1.2618669771     0.0476711352     0.2595404608
H       -0.0000002674     -0.9065700624     -1.0600096829
H       0.0000002098     0.8131064141     -1.4052028979
H       -1.2117726796     -0.8951672928     0.8102114420
H       -2.1597379744     0.0009746984     -0.3575247872
H       -1.3784584570     0.8509979477     0.9880550583
11
# Point -1 Energy = 0.0017528300000009267
C       1.2658614224     0.0239968644     0.2595107222
C       0.0000000006     0.0425248083     -0.5890011399
H       1.2607680347     -0.8898651304     0.8580620971
H       1.3446543081     0.8676466839     0.9472349013
H       2.1633971497     0.0007187708     -0.3593674041
C       -1.2658614259     0.0239971205     0.2595106820
H       -0.0000001098     -0.8941265617     -1.1539109671
H       0.0000000618     0.8466069694     -1.3269234815
H       -1.2607677781     -0.8898648503     0.8580621048
H       -2.1633971935     0.0007191051     -0.3593673957
H       -1.3446545305     0.8676468861     0.9472348998
11
# Point 0 Energy = 0
C       1.2672042126     0.0000000000     0.2594997522
C       0.0000000000     0.0000000000     -0.5872081259
H       1.3052750505     -0.8806643351     0.9038259677
H       1.3052750505     0.8806643351     0.9038259677
H       2.1646165232     0.0000000000     -0.3599948239
C       -1.2672042126     -0.0000000181     0.2594997522
H       0.0000000000     -0.8738729764     -1.2430302913
H       -0.0000000606     0.8738729764     -1.2430302913
H       -1.3052750505     -0.8806643351     0.9038259677
H       -2.1646165232     0.0000006841     -0.3599948239
H       -1.3052750505     0.8806643351     0.9038259677
11
# Point 1 Energy = 0.0017528300000009267
C       1.2658613919     -0.0239969089     0.2595106979
C       -0.0000000018     -0.0425246797     -0.5890011430
H       1.3446541978     -0.8676467567     0.9472348565
H       1.2607681058     0.8898650476     0.8580621383
H       2.1633971604     -0.0007188709     -0.3593673682
C       -1.2658613929     -0.0239970522     0.2595107437
H       0.0000001707     -0.8466068755     -1.3269234380
H       -0.0000002659     0.8941266282     -1.1539110618
H       -1.3446543944     -0.8676468382     0.9472348977
H       -2.1633970912     -0.0007180381     -0.3593673805
H       -1.2607679411     0.8898650106     0.8580620765
11
# Point 2 Energy = 0.007119570000014619
C       1.2618669039     -0.0476707266     0.2595404868
C       -0.0000000048     -0.0845125290     -0.5943068182
H       1.3784579114     -0.8509977175     0.9880549994
H       1.2117732151     0.8951676911     0.8102114954
H       2.1597379333     -0.0009747178     -0.3575247281
C       -1.2618669102     -0.0476710665     0.2595405835
H       0.0000002896     -0.8131063009     -1.4052028755
H       -0.0000004397     0.9065701226     -1.0600098071
H       -1.3784583319     -0.8509979575     0.9880550523
H       -2.1597377703     -0.0009736379     -0.3575247563
H       -1.2117728569     0.8951675061     0.8102113868
11
# Point 3 Energy = 0.016523719999995023
C       1.2553879695     -0.0706970781     0.2595697355
C       -0.0000000093     -0.1253691608     -0.6028295705
H       1.4065060683     -0.8310076417     1.0260527197
H       1.1592706381     0.8966150684     0.7605890248
H       2.1536694715     -0.0003857414     -0.3546525693
C       -1.2553879855     -0.0706976108     0.2595698879
H       0.0000003925     -0.7741239553     -1.4773839348
H       -0.0000006148     0.9104445131     -0.9618592997
H       -1.4065067085     -0.8310080290     1.0260527786
H       -2.1536691914     -0.0003844124     -0.3546526158
H       -1.1592700910     0.8966147139     0.7605888626
11
# Point 4 Energy = 0.03069845000000271
C       1.2467300396     -0.0927724380     0.2595709100
C       -0.0000000156     -0.1645236400     -0.6140631406
H       1.4289965213     -0.8080475714     1.0610133347
H       1.1044508022     0.8943855980     0.7095569002
H       2.1452736618     0.0013724110     -0.3510668595
C       -1.2467300698     -0.0927731584     0.2595711219
H       0.0000004789     -0.7303969113     -1.5429578546
H       -0.0000007864     0.9050454297     -0.8600825413
H       -1.4289973757     -0.8080480994     1.0610133915
H       -2.1452732429     0.0013739936     -0.3510669250
H       -1.1044500740     0.8943850522     0.7095566817
11
# Point 5 Energy = 0.050554839999989554
C       1.2363035048     -0.1136270748     0.2595247817
C       -0.0000000242     -0.2014686395     -0.6273562175
H       1.4464598400     -0.7825393183     1.0927627338
H       1.0485832436     0.8887802810     0.6575362431
H       2.1346912470     0.0045539149     -0.3471506637
C       -1.2363035542     -0.1136279774     0.2595250561
H       0.0000005486     -0.6826262132     -1.6014599990
H       -0.0000009490     0.8897603987     -0.7554849173
H       -1.4464609026     -0.7825399862     1.0927627783
H       -2.1346906693     0.0045557587     -0.3471507472
H       -1.0485823454     0.8887795222     0.6575359705

    This sampling was finished on:   2020-07-02 18:35:41
=------------------------------------------------------------------------------=
Sampling finished.
=------------------------------------------------------------------------------=