11
# Point -4 Energy = 0.05498849000001371
C       1.2661493617     -0.0516837849     0.2532455714
C       0.0000012118     -0.0000006335     -0.5934636881
H       1.0879924019     -0.8624684710     0.9500601934
H       1.5233651706     0.8433888029     0.8384833264
H       2.1429129361     0.2410836896     -0.3252829223
C       -1.2661473812     0.0516820330     0.2532478159
H       -0.0525399438     -0.8723218051     -1.2492467591
H       0.0525370293     0.8723209959     -1.2492465323
H       -1.5233620099     -0.8433981633     0.8384738117
H       -2.1429163810     -0.2410797316     -0.3252757917
H       -1.0879924561     0.8624777341     0.9500499937
11
# Point -3 Energy = 0.030805030000010447
C       1.2666011362     -0.0390862430     0.2559268902
C       0.0000008898     -0.0000003995     -0.5907817028
H       1.1422413892     -0.8724536446     0.9408077972
H       1.4689830598     0.8577193344     0.8560740406
H       2.1526820072     0.1811038600     -0.3403108040
C       -1.2665996956     0.0390850698     0.2559285584
H       -0.0396346923     -0.8729912257     -1.2465807480
H       0.0396324563     0.8729906880     -1.2465806086
H       -1.4689806827     -0.8577263004     0.8560668934
H       -2.1526844029     -0.1811008711     -0.3403052966
H       -1.1422415257     0.8724603982     0.9407999991
11
# Point -2 Energy = 0.013664099999999735
C       1.2669330877     -0.0262139219     0.2578959412
C       0.0000005858     -0.0000002060     -0.5888122011
H       1.1964663016     -0.8787593245     0.9299103754
H       1.4144496550     0.8687335803     0.8729474574
H       2.1593932010     0.1208916256     -0.3511995237
C       -1.2669321500     0.0262132364     0.2578970385
H       -0.0265342589     -0.8734785724     -1.2446230801
H       0.0265327383     0.8734782691     -1.2446230215
H       -1.4144480287     -0.8687381950     0.8729426857
H       -2.1593946950     -0.1208895361     -0.3511957455
H       -1.1964664974     0.8787637105     0.9299050926
11
# Point -1 Energy = 0.0034153400000036527
C       1.2671360263     -0.0131540007     0.2590965922
C       0.0000002907     -0.0000000515     -0.5876113124
H       1.2508008421     -0.8814723743     0.9175351207
H       1.3598505976     0.8763985009     0.8889173921
H       2.1633220082     0.0604958769     -0.3577897543
C       -1.2671355668     0.0131537111     0.2590971320
H       -0.0133005402     -0.8737744293     -1.2434298865
H       0.0132997490     0.8737743302     -1.2434298978
H       -1.3598497180     -0.8764007920     0.8889149996
H       -2.1633227118     -0.0604946228     -0.3577878139
H       -1.2508010376     0.8814745175     0.9175324471
11
# Point 0 Energy = 0
C       1.2672042126     0.0000000000     0.2594997522
C       0.0000000000     0.0000000000     -0.5872081259
H       1.3052750505     -0.8806643351     0.9038259677
H       1.3052750505     0.8806643351     0.9038259677
H       2.1646165232     0.0000000000     -0.3599948239
C       -1.2672042126     -0.0000000181     0.2594997522
H       0.0000000000     -0.8738729764     -1.2430302913
H       -0.0000000606     0.8738729764     -1.2430302913
H       -1.3052750505     -0.8806643351     0.9038259677
H       -2.1646165232     0.0000006841     -0.3599948239
H       -1.3052750505     0.8806643351     0.9038259677
11
# Point 1 Energy = 0.0034153699999990295
C       1.2671357166     0.0131539544     0.2590970872
C       -0.0000002888     0.0000001408     -0.5876109742
H       1.3598496256     -0.8763993866     0.8889167561
H       1.2507999934     0.8814730669     0.9175345871
H       2.1633217812     -0.0604959224     -0.3577891422
C       -1.2671361592     -0.0131537360     0.2590965687
H       0.0133006191     -0.8737721309     -1.2434325265
H       -0.0132999555     0.8737723587     -1.2434326348
H       -1.2508006573     -0.8814707618     0.9175369368
H       -2.1633211471     0.0604957092     -0.3577911719
H       -1.3598495887     0.8763973738     0.8889195326
11
# Point 2 Energy = 0.013664130000009322
C       1.2669324641     0.0262138662     0.2578969310
C       -0.0000005771     0.0000001771     -0.5888115221
H       1.4144478595     -0.8687353075     0.8729462084
H       1.1964644683     0.8787607446     0.9299092863
H       2.1593927669     -0.1208915063     -0.3511983046
C       -1.2669333334     -0.0262135402     0.2578959178
H       0.0265343532     -0.8734739744     -1.2446283589
H       -0.0265329778     0.8734743233     -1.2446284911
H       -1.1964659390     -0.8787561572     0.9299139829
H       -2.1593915525     0.1208906783     -0.3512024376
H       -1.4144475929     0.8687313619     0.8729518068
11
# Point 3 Energy = 0.030805039999989958
C       1.2666001880     0.0390861704     0.2559283749
C       -0.0000008671     0.0000001721     -0.5907806766
H       1.4689804967     -0.8577219325     0.8560721608
H       1.1422385376     0.8724557451     0.9408061748
H       2.1526814056     -0.1811034673     -0.3403089854
C       -1.2666014698     -0.0390858376     0.2559268930
H       0.0396348163     -0.8729843247     -1.2465886625
H       -0.0396327476     0.8729847631     -1.2465888009
H       -1.1422408327     -0.8724488810     0.9408131894
H       -2.1526796471     0.1811021210     -0.3403152808
H       -1.4689799406     0.8577161375     0.8560806322
11
# Point 4 Energy = 0.05498843999998826
C       1.2661480671     0.0516836856     0.2532475512
C       -0.0000011621     0.0000001240     -0.5934623032
H       1.5233618850     -0.8433923000     0.8384807993
H       1.0879885153     0.8624712017     0.9500580643
H       2.1429122249     -0.2410829167     -0.3252805127
C       -1.2661497519     -0.0516834497     0.2532456292
H       0.0525401190     -0.8723125948     -1.2492573030
H       -0.0525373852     0.8723130862     -1.2492574300
H       -1.0879916354     -0.8624620613     0.9500673552
H       -2.1429099359     0.2410811653     -0.3252890161
H       -1.5233610013     0.8433847256     0.8384921846

    This sampling was finished on:   2020-07-02 18:35:41
=------------------------------------------------------------------------------=
Sampling finished.
=------------------------------------------------------------------------------=