11
# Point -5 Energy = 0.07070201999999881
C       1.1310408428     -0.0000002103     0.2670059334
C       -0.0000000088     0.0000000063     -0.4260001056
H       1.2977803919     -0.8916492734     0.8719411233
H       1.2977796509     0.8916494126     0.8719405278
H       1.8605507617     0.0000001629     -0.5420084071
C       -1.1310407149     0.0000002526     0.2670060092
H       -0.0000010356     -0.8714689800     -1.0853563152
H       0.0000003619     0.8714688278     -1.0853565337
H       -1.2977796370     -0.8916495966     0.8719401990
H       -1.8605503218     0.0000006999     -0.5420086227
H       -1.2977803516     0.8916493642     0.8719412106
11
# Point -4 Energy = 0.04216258999997535
C       1.1590879337     -0.0000001687     0.2653221411
C       -0.0000000063     0.0000000049     -0.4574653366
H       1.3010924295     -0.8899213010     0.8796015174
H       1.3010918381     0.8899214098     0.8796010278
H       1.9254380687     0.0000001318     -0.5091989291
C       -1.1590878273     0.0000001999     0.2653222040
H       -0.0000008217     -0.8719849858     -1.1160703407
H       0.0000002742     0.8719848639     -1.1160705158
H       -1.3010918299     -0.8899215604     0.8796007683
H       -1.9254377250     0.0000006969     -0.5091991094
H       -1.3010923946     0.8899213747     0.8796015920
11
# Point -3 Energy = 0.0221421399999997
C       1.1867335020     -0.0000001266     0.2637066925
C       -0.0000000041     0.0000000036     -0.4893464790
H       1.3034623744     -0.8879706927     0.8866225984
H       1.3034619329     0.8879707725     0.8866222211
H       1.9883966920     0.0000001000     -0.4745332006
C       -1.1867334192     0.0000001462     0.2637067413
H       -0.0000006111     -0.8724833731     -1.1472223843
H       0.0000001880     0.8724832816     -1.1472225158
H       -1.3034619289     -0.8879708881     0.8866220292
H       -1.9883964407     0.0000006936     -0.4745333414
H       -1.3034623460     0.8879707488     0.8866226577
11
# Point -2 Energy = 0.009204319999980726
C       1.2139718201     -0.0000000843     0.2621821280
C       -0.0000000023     0.0000000024     -0.5216162528
H       1.3049241585     -0.8857852387     0.8930003569
H       1.3049238662     0.8857852909     0.8930000987
H       2.0493163369     0.0000000675     -0.4380665708
C       -1.2139717629     0.0000000918     0.2621821616
H       -0.0000004038     -0.8729641572     -1.1787852590
H       0.0000001035     0.8729640962     -1.1787853468
H       -1.3049238650     -0.8857853697     0.8929999725
H       -2.0493161739     0.0000006904     -0.4380666681
H       -1.3049241379     0.8857852768     0.8930003986
11
# Point -1 Energy = 0.0021549299999747973
C       1.2407972433     -0.0000000420     0.2607718046
C       -0.0000000010     0.0000000012     -0.5542464595
H       1.3055150397     -0.8833533707     0.8987339709
H       1.3055148949     0.8833533964     0.8987338385
H       2.1080902745     0.0000000342     -0.3998629596
C       -1.2407972137     0.0000000370     0.2607718218
H       -0.0000002001     -0.8734273534     -1.2107308565
H       0.0000000206     0.8734273229     -1.2107309005
H       -1.3055148950     -0.8833534368     0.8987337763
H       -2.1080901953     0.0000006872     -0.3998630099
H       -1.3055150285     0.8833533901     0.8987339928
11
# Point 0 Energy = 0
C       1.2672042126     0.0000000000     0.2594997522
C       0.0000000000     0.0000000000     -0.5872081259
H       1.3052750505     -0.8806643351     0.9038259677
H       1.3052750505     0.8806643351     0.9038259677
H       2.1646165232     0.0000000000     -0.3599948239
C       -1.2672042126     -0.0000000181     0.2594997522
H       0.0000000000     -0.8738729764     -1.2430302913
H       -0.0000000606     0.8738729764     -1.2430302913
H       -1.3052750505     -0.8806643351     0.9038259677
H       -2.1646165232     0.0000006841     -0.3599948239
H       -1.3052750505     0.8806643351     0.9038259677
11
# Point 1 Energy = 0.001902860000001283
C       1.2931872216     0.0000000412     0.2583903753
C       0.0000000005     -0.0000000011     -0.6204718576
H       1.3042379444     -0.8777095033     0.9082807285
H       1.3042380851     0.8777094779     0.9082808671
H       2.2188013344     -0.0000000351     -0.3185393348
C       -1.2931872533     -0.0000000729     0.2583903573
H       0.0000001965     -0.8743010387     -1.2756542556
H       -0.0000001403     0.8743010694     -1.2756542115
H       -1.3042380835     -0.8777094357     0.9082809274
H       -2.2188014085     0.0000006811     -0.3185392818
H       -1.3042379575     0.8777094832     0.9082807046
11
# Point 2 Energy = 0.007160269999999969
C       1.3187408492     0.0000000817     0.2574686100
C       0.0000000006     -0.0000000023     -0.6540076343
H       1.3024390841     -0.8744809902     0.9121053316
H       1.3024393612     0.8744809395     0.9121056150
H       2.2705575758     -0.0000000709     -0.2755805302
C       -1.3187409145     -0.0000001275     0.2574685733
H       0.0000003891     -0.8747115520     -1.3085728143
H       -0.0000002182     0.8747116134     -1.3085727259
H       -1.3024393565     -0.8744808531     0.9121057338
H       -2.2705577189     0.0000006782     -0.2755804219
H       -1.3024391123     0.8744809492     0.9121052819
11
# Point 3 Energy = 0.015184359999992125
C       1.3438598004     0.0000001211     0.2567598362
C       0.0000000001     -0.0000000033     -0.6877848448
H       1.2999234311     -0.8709707267     0.9153114257
H       1.2999238395     0.8709706504     0.9153118599
H       2.3198035706     -0.0000001073     -0.2312129242
C       -1.3438599015     -0.0000001816     0.2567597803
H       0.0000005777     -0.8751045287     -1.3417554359
H       -0.0000002945     0.8751046209     -1.3417553032
H       -1.2999238300     -0.8709705178     0.9153120353
H       -2.3198037772     0.0000006750     -0.2312127590
H       -1.2999234768     0.8709706639     0.9153113485
11
# Point 4 Energy = 0.02548477999999932
C       1.3685388762     0.0000001592     0.2562894855
C       -0.0000000008     -0.0000000044     -0.7217727300
H       1.2967364853     -0.8671718642     0.9179138486
H       1.2967370188     0.8671717618     0.9179144393
H       2.3664665787     -0.0000001443     -0.1855376848
C       -1.3685390149     -0.0000002349     0.2562894100
H       0.0000007622     -0.8754799811     -1.3751714387
H       -0.0000003691     0.8754801042     -1.3751712615
H       -1.2967370029     -0.8671715808     0.9179146692
H       -2.3664668433     0.0000006715     -0.1855374611
H       -1.2967365508     0.8671717789     0.9179137425
11
# Point 5 Energy = 0.0376492199999916
C       1.3927729759     0.0000001957     0.2560828764
C       -0.0000000023     -0.0000000054     -0.7559405499
H       1.2929236475     -0.8630788188     0.9199303738
H       1.2929242994     0.8630786891     0.9199311261
H       2.4104836650     -0.0000001817     -0.1386617131
C       -1.3927731541     -0.0000002871     0.2560827812
H       0.0000009424     -0.8758379211     -1.4087901566
H       -0.0000004419     0.8758380751     -1.4087899348
H       -1.2929242753     -0.8630784575     0.9199314085
H       -2.4104839818     0.0000006675     -0.1386614303
H       -1.2929237354     0.8630787102     0.9199302376
11
# Point 6 Energy = 0.05133007000000589
C       1.4165570996     0.0000002303     0.2561650547
C       -0.0000000043     -0.0000000063     -0.7902577448
H       1.2885296528     -0.8586872814     0.9213813885
H       1.2885304155     0.8586871227     0.9213823067
H       2.4518023951     -0.0000002192     -0.0906965971
C       -1.4165573191     -0.0000003379     0.2561649398
H       0.0000011184     -0.8761783601     -1.4425811007
H       -0.0000005129     0.8761785450     -1.4425808342
H       -1.2885303816     -0.8586868384     0.9213826396
H       -2.4518027583     0.0000006626     -0.0906962547
H       -1.2885297658     0.8586871486     0.9213812211

    This sampling was finished on:   2020-07-02 18:49:52
=------------------------------------------------------------------------------=
Sampling finished.
=------------------------------------------------------------------------------=