11
# Point -4 Energy = 0.05279063999999778
C       1.1541601023     0.0000000809     0.2444836694
C       -0.0226790111     -0.0000003817     -0.5731713902
H       1.4216421728     -0.8145977043     0.9286144496
H       1.4216415776     0.8145980095     0.9286144794
H       2.1626139598     -0.0000000005     -0.1871637994
C       -1.3862877769     -0.0000006634     0.2923235763
H       -0.1842569242     -0.8636999220     -1.2225344432
H       -0.1842566635     0.8636994228     -1.2225341991
H       -1.1396230541     -0.9078877315     0.8365175712
H       -2.1033298266     0.0000023306     -0.5206222336
H       -1.1396246167     0.9078872256     0.8365173385
11
# Point -3 Energy = 0.029542519999992578
C       1.1823698953     0.0000000729     0.2474427672
C       -0.0159157321     -0.0000002853     -0.5792193502
H       1.3966558744     -0.8337154531     0.9252350727
H       1.3966554232     0.8337156779     0.9252350938
H       2.1676334536     0.0000000035     -0.2310992702
C       -1.3555125369     -0.0000004921     0.2815880076
H       -0.1374733299     -0.8681073312     -1.2314237658
H       -0.1374731422     0.8681069553     -1.2314235732
H       -1.1850727961     -0.9066635067     0.8585531027
H       -2.1267932192     0.0000019386     -0.4823959408
H       -1.1850739507     0.9066630863     0.8585528751
11
# Point -2 Energy = 0.013037639999978978
C       1.2106306936     0.0000000564     0.2507624517
C       -0.0099240474     -0.0000001914     -0.5836771622
H       1.3691390331     -0.8512021755     0.9200806220
H       1.3691387293     0.8512023232     0.9200806330
H       2.1698659288     0.0000000045     -0.2746591084
C       -1.3253463670     -0.0000003279     0.2725982529
H       -0.0911121903     -0.8712967213     -1.2379000100
H       -0.0911120790     0.8712964654     -1.2378998758
H       -1.2284697968     -0.9010797220     0.8770624599
H       -2.1443393953     0.0000015384     -0.4424655257
H       -1.2284705695     0.9010794162     0.8770622816
11
# Point -1 Energy = 0.0032425300000085144
C       1.2388506637     0.0000000321     0.2547123927
C       -0.0047351136     -0.0000000965     -0.5863336474
H       1.3387301656     -0.8669172590     0.9130383476
H       1.3387300130     0.8669173322     0.9130383505
H       2.1689271019     0.0000000028     -0.3176654655
C       -1.2959531815     -0.0000001694     0.2653529028
H       -0.0453669794     -0.8732269764     -1.2417576015
H       -0.0453669501     0.8732268447     -1.2417575321
H       -1.2685931475     -0.8921840265     0.8920095335
H       -2.1566290923     0.0000011209     -0.4016016968
H       -1.2685935405     0.8921838613     0.8920094351
11
# Point 0 Energy = 0
C       1.2672042126     0.0000000000     0.2594997522
C       0.0000000000     0.0000000000     -0.5872081259
H       1.3052750505     -0.8806643351     0.9038259677
H       1.3052750505     0.8806643351     0.9038259677
H       2.1646165232     0.0000000000     -0.3599948239
C       -1.2672042126     -0.0000000181     0.2594997522
H       0.0000000000     -0.8738729764     -1.2430302913
H       -0.0000000606     0.8738729764     -1.2430302913
H       -1.3052750505     -0.8806643351     0.9038259677
H       -2.1646165232     0.0000006841     -0.3599948239
H       -1.3052750505     0.8806643351     0.9038259677
11
# Point 1 Energy = 0.0032425300000085144
C       1.2959529968     -0.0000000402     0.2653525328
C       0.0047350775     0.0000000962     -0.5863339062
H       1.2685939944     -0.8921835773     0.8920097442
H       1.2685941422     0.8921835046     0.8920097485
H       2.1566293756     -0.0000000000     -0.4016014370
C       -1.2388505364     0.0000001221     0.2547120448
H       0.0453669416     -0.8732268772     -1.2417577353
H       0.0453667817     0.8732270164     -1.2417578056
H       -1.3387309594     -0.8669167320     0.9130384634
H       -2.1689273332     0.0000002317     -0.3176652004
H       -1.3387305416     0.8669169218     0.9130385698
11
# Point 2 Energy = 0.013037610000012023
C       1.3253459387     -0.0000000891     0.2725974707
C       0.0099238998     0.0000001922     -0.5836776962
H       1.2284715714     -0.9010789219     0.8770630070
H       1.2284718632     0.9010787758     0.8770630241
H       2.1443400569     0.0000000019     -0.4424650111
C       -1.2106304986     0.0000002512     0.2507617622
H       0.0911120343     -0.8712965229     -1.2379002974
H       0.0911117653     0.8712968089     -1.2379004409
H       -1.3691405867     -0.8512010541     0.9200807755
H       -2.1698663693     -0.0000002358     -0.2746585714
H       -1.3691397354     0.8512014598     0.9200809963
11
# Point 3 Energy = 0.029542419999984304
C       1.3555118082     -0.0000001470     0.2815867545
C       0.0159153966     0.0000002865     -0.5792201869
H       1.1850755810     -0.9066624949     0.8585541404
H       1.1850760119     0.9066622742     0.8585541810
H       2.1267944057     0.0000000079     -0.4823951926
C       -1.1823696912     0.0000003672     0.2474417336
H       0.1374729718     -0.8681070327     -1.2314242416
H       0.1374725831     0.8681074719     -1.2314244606
H       -1.3966581647     -0.8337136774     0.9252352014
H       -2.1676340964     -0.0000007150     -0.2310984512
H       -1.3966568665     0.8337143252     0.9252355408
11
# Point 4 Energy = 0.05279042999998751
C       1.3862867221     -0.0000002144     0.2923218158
C       0.0226784475     0.0000003773     -0.5731725414
H       1.1396268313     -0.9078867109     0.8365192345
H       1.1396273966     0.9078864137     0.8365193113
H       2.1033316771     0.0000000208     -0.5206213466
C       -1.1541599175     0.0000004683     0.2444822963
H       0.1842563196     -0.8636995198     -1.2225351284
H       0.1842558000     0.8637001164     -1.2225354255
H       -1.4216451598     -0.8145952184     0.9286145129
H       -2.1626147717     -0.0000012021     -0.1871626822
H       -1.4216434058     0.8145961351     0.9286149723

    This sampling was finished on:   2020-07-02 18:35:41
=------------------------------------------------------------------------------=
Sampling finished.
=------------------------------------------------------------------------------=