11
# Point -3 Energy = 0.06925173999999856
C       1.3056180990     0.0000023659     0.2197453675
C       0.0118480983     0.0000022946     -0.5874969171
H       1.3483516224     -0.9427569326     0.9212558527
H       1.3483515774     0.9427525769     0.9212500043
H       2.0334495213     0.0000017464     -0.2957605941
C       -1.2276000728     0.0000022862     0.2977887403
H       0.0000988640     -0.8738487227     -1.2432485839
H       0.0000988605     0.8738467952     -1.2432445677
H       -1.2615164241     -0.8175376535     0.8862080731
H       -2.2971839292     0.0000021896     -0.4216550784
H       -1.2615162775     0.8175337201     0.8862027222
11
# Point -2 Energy = 0.02943585999999243
C       1.2929494161     0.0000015841     0.2331547180
C       0.0078989465     0.0000015295     -0.5873365807
H       1.3340677995     -0.9221787974     0.9154601574
H       1.3340677551     0.9221759040     0.9154562661
H       2.0770144564     0.0000011440     -0.3174606586
C       -1.2409299337     0.0000015119     0.2851931538
H       0.0000649976     -0.8738623235     -1.2431277733
H       0.0000649513     0.8738610373     -1.2431250967
H       -1.2761790596     -0.8386914962     0.8921094436
H       -2.2528404151     0.0000017079     -0.4013844803
H       -1.2761789747     0.8386888643     0.8921058697
11
# Point -1 Energy = 0.007165789999973526
C       1.2801440650     0.0000007954     0.2464071770
C       0.0039495300     0.0000007647     -0.5872403095
H       1.3197091534     -0.9014804726     0.9096516703
H       1.3197091241     0.9014790310     0.9096497285
H       2.1207370458     0.0000005621     -0.3388715522
C       -1.2541321118     0.0000007437     0.2724292316
H       0.0000322223     -0.8738704082     -1.2430550090
H       0.0000321570     0.8738697646     -1.2430536710
H       -1.2907651535     -0.8597345000     0.8979806274
H       -2.2086509753     0.0000012063     -0.3808317115
H       -1.2907651176     0.8597331790     0.8979788371
11
# Point 0 Energy = 0
C       1.2672042126     0.0000000000     0.2594997522
C       0.0000000000     0.0000000000     -0.5872081259
H       1.3052750505     -0.8806643351     0.9038259677
H       1.3052750505     0.8806643351     0.9038259677
H       2.1646165232     0.0000000000     -0.3599948239
C       -1.2672042126     -0.0000000181     0.2594997522
H       0.0000000000     -0.8738729764     -1.2430302913
H       -0.0000000606     0.8738729764     -1.2430302913
H       -1.3052750505     -0.8806643351     0.9038259677
H       -2.1646165232     0.0000006841     -0.3599948239
H       -1.3052750505     0.8806643351     0.9038259677
11
# Point 1 Energy = 0.007165760000006571
C       1.2541320330     -0.0000008019     0.2724295688
C       -0.0039495304     -0.0000007644     -0.5872400382
H       1.2907650711     -0.8597327170     0.8979787259
H       1.2907651137     0.8597341490     0.8979806602
H       2.2086519661     -0.0000005430     -0.3808321569
C       -1.2801439868     -0.0000007732     0.2464075184
H       -0.0000322338     -0.8738700280     -1.2430536213
H       -0.0000322658     0.8738706725     -1.2430549586
H       -1.3197090852     -0.9014786843     0.9096497598
H       -2.1207380348     0.0000001407     -0.3388719964
H       -1.3197091077     0.9014800157     0.9096515572
11
# Point 2 Energy = 0.029435570000018174
C       1.2409297756     -0.0000016101     0.2851938243
C       -0.0078989482     -0.0000015285     -0.5873360382
H       1.2761788806     -0.8386879354     0.8921056493
H       1.2761789790     0.8386907902     0.8921095106
H       2.2528423985     -0.0000010674     -0.4013853725
C       -1.2929492604     -0.0000015213     0.2331554050
H       -0.0000650434     -0.8738615634     -1.2431249979
H       -0.0000650231     0.8738628529     -1.2431276719
H       -1.3340676780     -0.9221752149     0.9154563272
H       -2.0770164324     -0.0000004248     -0.3174615462
H       -1.3340677089     0.9221778886     0.9154599292
11
# Point 3 Energy = 0.06925069000000406
C       1.2275998350     -0.0000024240     0.2977897400
C       -0.0118481021     -0.0000022923     -0.5874961031
H       1.2615161348     -0.8175323194     0.8862023946
H       1.2615163015     0.8175365884     0.8862081759
H       2.2971869068     -0.0000015739     -0.4216564188
C       -1.3056178666     -0.0000022623     0.2197464043
H       -0.0000989670     -0.8738475831     -1.2432444202
H       -0.0000988707     0.8738495181     -1.2432484306
H       -1.3483514626     -0.9427515500     0.9212500936
H       -2.0334524822     -0.0000010128     -0.2957619243
H       -1.3483514873     0.9427555774     0.9212555076

    This sampling was finished on:   2020-07-02 18:35:41
=------------------------------------------------------------------------------=
Sampling finished.
=------------------------------------------------------------------------------=