11
# Point -3 Energy = 0.06702549000000602
C       1.2672054001     -0.0642940611     0.2597355428
C       0.0000004010     -0.0607102312     -0.5869637444
H       1.3009101379     -0.8238138385     0.8249234354
H       1.3094255676     0.9388622838     0.9812655231
H       2.1645325175     -0.0506429796     -0.3597115399
C       -1.2672026527     -0.0642951878     0.2597384166
H       0.0000002441     -0.8440355460     -1.1828505766
H       -0.0000004311     0.9045209232     -1.3015621583
H       -1.3009064674     -0.8238066927     0.8249197686
H       -2.1645416277     -0.0506435419     -0.3597156491
H       -1.3094231498     0.9388595377     0.9812660007
11
# Point -2 Energy = 0.028996449999993956
C       1.2672051049     -0.0428624570     0.2596041616
C       0.0000002647     -0.0404764066     -0.5870995292
H       1.3023891520     -0.8426113229     0.8513889370
H       1.3080663755     0.9193182547     0.9556128482
H       2.1645773811     -0.0337640429     -0.3598679327
C       -1.2672032816     -0.0428631814     0.2596060739
H       0.0000001678     -0.8538957881     -1.2030899093
H       -0.0000003051     0.8942099212     -1.2822386263
H       -1.3023866962     -0.8426065155     0.8513865033
H       -2.1645834604     -0.0337642484     -0.3598706794
H       -1.3080647633     0.9193164528     0.9556131719
11
# Point -1 Energy = 0.007135329999996998
C       1.2672047091     -0.0214311612     0.2595254650
C       0.0000001311     -0.0202390556     -0.5871810839
H       1.3038441318     -0.8615621733     0.8776894508
H       1.3066828742     0.8999180042     0.9298001765
H       2.1646053825     -0.0168826573     -0.3599624399
C       -1.2672038015     -0.0214314914     0.2595264194
H       0.0000000989     -0.8638407328     -1.2231505204
H       -0.0000001940     0.8839949830     -1.2627272123
H       -1.3038428899     -0.8615597174     0.8776882480
H       -2.1646084249     -0.0168824803     -0.3599638168
H       -1.3066820780     0.8999171480     0.9298003324
11
# Point 0 Energy = 0
C       1.2672042126     0.0000000000     0.2594997522
C       0.0000000000     0.0000000000     -0.5872081259
H       1.3052750505     -0.8806643351     0.9038259677
H       1.3052750505     0.8806643351     0.9038259677
H       2.1646165232     0.0000000000     -0.3599948239
C       -1.2672042126     -0.0000000181     0.2594997522
H       0.0000000000     -0.8738729764     -1.2430302913
H       -0.0000000606     0.8738729764     -1.2430302913
H       -1.3052750505     -0.8806643351     0.9038259677
H       -2.1646165232     0.0000006841     -0.3599948239
H       -1.3052750505     0.8806643351     0.9038259677
11
# Point 1 Energy = 0.0071353599999923745
C       1.2672036151     0.0214311249     0.2595271230
C       -0.0000001288     0.0202391866     -0.5871805606
H       1.3066816930     -0.8999156410     0.9297995791
H       1.3038431087     0.8615596643     0.8776889473
H       2.1646108033     0.0168825336     -0.3599650054
C       -1.2672045151     0.0214315585     0.2595261720
H       -0.0000000178     -0.8839951651     -1.2627268646
H       -0.0000000160     0.8638410756     -1.2231503074
H       -1.3066828731     -0.8999179278     0.9298008305
H       -2.1646077561     0.0168835517     -0.3599636216
H       -1.3038439737     0.8615607047     0.8776887266
11
# Point 2 Energy = 0.028996700000007536
C       1.2672029164     0.0428624421     0.2596074774
C       -0.0000002556     0.0404765449     -0.5870984826
H       1.3080641237     -0.9193134405     0.9556116847
H       1.3023869967     0.8426063920     0.8513878989
H       2.1645882219     0.0337638494     -0.3598730633
C       -1.2672047094     0.0428632452     0.2596055789
H       -0.0000000658     -0.8942103585     -1.2822379987
H       0.0000000510     0.8538964007     -1.2030894155
H       -1.3080665104     -0.9193181189     0.9556141593
H       -2.1645821232     0.0337653260     -0.3598702893
H       -1.3023887059     0.8426083836     0.8513874692
11
# Point 3 Energy = 0.06702637000000777
C       1.2672021161     0.0642940819     0.2597405167
C       -0.0000003805     0.0607103815     -0.5869621747
H       1.3094222673     -0.9388550084     0.9812637831
H       1.3009068314     0.8238064950     0.8249218733
H       2.1645487769     0.0506426698     -0.3597192350
C       -1.2672047955     0.0642952462     0.2597376737
H       -0.0000001070     -0.9045216111     -1.3015612509
H       0.0000001035     0.8440364332     -1.1828498018
H       -1.3094258567     -0.9388620919     0.9812674782
H       -2.1645396231     0.0506446300     -0.3597150646
H       -1.3009093931     0.8238094398     0.8249212209

    This sampling was finished on:   2020-07-02 18:35:41
=------------------------------------------------------------------------------=
Sampling finished.
=------------------------------------------------------------------------------=