11
# Point -4 Energy = 0.054501620000010575
C       1.2719210025     0.0000014445     0.1836599380
C       0.0000000158     0.0000029200     -0.7043405348
H       1.2570343483     -0.7509938785     0.9811927245
H       1.2570315287     0.7509947055     0.9811944034
H       2.0938459763     -0.0000057854     -0.5254010506
C       -1.2719211098     0.0000019964     0.1836602482
H       -0.0000003302     -1.0128475585     -1.0979508682
H       -0.0000002719     1.0128521800     -1.0979540728
H       -1.2570350023     -0.7509950823     0.9811913951
H       -2.0938462716     -0.0000067955     -0.5254005690
H       -1.2570299463     0.7509965199     0.9811934050
11
# Point -3 Energy = 0.030807519999996202
C       1.2719817824     0.0000010729     0.2023896029
C       0.0000000126     0.0000021897     -0.6735954744
H       1.2702430449     -0.7860603011     0.9641975550
H       1.2702409968     0.7860609892     0.9641988894
H       2.1125939876     -0.0000043252     -0.4863724850
C       -1.2719818501     0.0000014670     0.2023898535
H       -0.0000002478     -0.9844775115     -1.1370915884
H       -0.0000002327     0.9844808357     -1.1370938736
H       -1.2702435461     -0.7860611556     0.9641965155
H       -2.1125941972     -0.0000049009     -0.4863720973
H       -1.2702398110     0.7860623059     0.9641981212
11
# Point -2 Energy = 0.013762710000008838
C       1.2713020605     0.0000007071     0.2213105707
C       0.0000000095     0.0000014582     -0.6436348646
H       1.2828365826     -0.8194219876     0.9456272885
H       1.2828352611     0.8194224917     0.9456282238
H       2.1306690979     -0.0000028760     -0.4459280743
C       -1.2713020966     0.0000009535     0.2213107489
H       -0.0000001651     -0.9516627913     -1.1742969523
H       -0.0000001847     0.9516649199     -1.1742983909
H       -1.2828369240     -0.8194225230     0.9456265682
H       -2.1306692294     -0.0000030244     -0.4459277982
H       -1.2828344724     0.8194233379     0.9456276990
11
# Point -1 Energy = 0.003459609999993063
C       1.2697377031     0.0000003489     0.2403691825
C       0.0000000056     0.0000007277     -0.6147624527
H       1.2945552677     -0.8509859158     0.9254997742
H       1.2945546286     0.8509861902     0.9255002622
H       2.1480279626     -0.0000014350     -0.4038554926
C       -1.2697377164     0.0000004579     0.2403692767
H       -0.0000000824     -0.9146941550     -1.2096094531
H       -0.0000001274     0.9146951793     -1.2096101274
H       -1.2945554421     -0.8509861652     0.9254994009
H       -2.1480280240     -0.0000011633     -0.4038553457
H       -1.2945542358     0.8509865965     0.9254999937
11
# Point 0 Energy = 0
C       1.2672042126     0.0000000000     0.2594997522
C       0.0000000000     0.0000000000     -0.5872081259
H       1.3052750505     -0.8806643351     0.9038259677
H       1.3052750505     0.8806643351     0.9038259677
H       2.1646165232     0.0000000000     -0.3599948239
C       -1.2672042126     -0.0000000181     0.2594997522
H       0.0000000000     -0.8738729764     -1.2430302913
H       -0.0000000606     0.8738729764     -1.2430302913
H       -1.3052750505     -0.8806643351     0.9038259677
H       -2.1646165232     0.0000006841     -0.3599948239
H       -1.3052750505     0.8806643351     0.9038259677
11
# Point 1 Energy = 0.0034696700000012015
C       1.2636819140     -0.0000003369     0.2786252090
C       -0.0000000079     -0.0000007175     -0.5611116255
H       1.3150086198     -0.9083745096     0.8806026561
H       1.3150092263     0.9083741934     0.8806021341
H       2.1803752857     0.0000014251     -0.3142507447
C       -1.2636819110     -0.0000004723     0.2786251056
H       0.0000000799     -0.8295084749     -1.2745014229
H       0.0000000176     0.8295075229     -1.2745008516
H       -1.3150084378     -0.9083743009     0.8806030530
H       -2.1803752338     0.0000025144     -0.3142509096
H       -1.3150096136     0.9083738222     0.8806024154
11
# Point 2 Energy = 0.013934790000007524
C       1.2591660724     -0.0000006603     0.2976702008
C       -0.0000000186     -0.0000014287     -0.5365793423
H       1.3238057604     -0.9340395694     0.8558182448
H       1.3238069346     0.9340388968     0.8558171738
H       2.1952264064     0.0000028462     -0.2665363309
C       -1.2591660771     -0.0000009020     0.2976699858
H       0.0000001590     -0.7819182418     -1.3039580448
H       0.0000001053     0.7819163929     -1.3039569993
H       -1.3238053879     -0.9340391938     0.8558190613
H       -2.1952263132     0.0000043328     -0.2665366790
H       -1.3238077018     0.9340381934     0.8558177485
11
# Point 3 Energy = 0.031467530000000465
C       1.2536467487     -0.0000009682     0.3165685047
C       -0.0000000325     -0.0000021320     -0.5137057131
H       1.3317095221     -0.9575895008     0.8294521447
H       1.3317112279     0.9575884343     0.8294505043
H       2.2090633733     0.0000042635     -0.2167507562
C       -1.2536467726     -0.0000013050     0.3165681710
H       0.0000002372     -0.7314308762     -1.3313463693
H       0.0000002023     0.7314281732     -1.3313449479
H       -1.3317089507     -0.9575890025     0.8294534022
H       -2.2090632504     0.0000061393     -0.2167513060
H       -1.3317123658     0.9575874404     0.8294513846
11
# Point 4 Energy = 0.056172939999996174
C       1.2471277911     -0.0000012586     0.3352638006
C       -0.0000000498     -0.0000028258     -0.4925429714
H       1.3387784223     -0.9789613755     0.8014624679
H       1.3387806264     0.9789598815     0.8014602432
H       2.2217582449     0.0000056765     -0.1647975120
C       -1.2471278455     -0.0000016787     0.3352633416
H       0.0000003148     -0.6783833258     -1.3565966993
H       0.0000003083     0.6783797993     -1.3565949992
H       -1.3387776435     -0.9789608009     0.8014641873
H       -2.2217581053     0.0000079336     -0.1647982824
H       -1.3387821242     0.9789586404     0.8014614425

    This sampling was finished on:   2020-07-02 18:49:52
=------------------------------------------------------------------------------=
Sampling finished.
=------------------------------------------------------------------------------=