11
# Point -5 Energy = 0.05162506000000633
C       1.2590060265     0.1427382492     0.2743561042
C       -0.0000001224     0.0000003629     -0.5725496613
H       1.0941138091     -0.8635738016     0.6774679551
H       1.5158694740     0.8270178928     1.0792311934
H       2.1306340851     -0.0403532550     -0.3548214851
C       -1.2590065981     -0.1427378304     0.2743553363
H       0.3675157367     -0.8001422535     -1.2194349255
H       -0.3675149000     0.8001417043     -1.2194371552
H       -1.5158687425     -0.8270184460     1.0792299397
H       -2.1306354741     0.0403545024     -0.3548207809
H       -1.0941133550     0.8635735410     0.6774684982
11
# Point -4 Energy = 0.033219989999992094
C       1.2617997953     0.1154935013     0.2693045157
C       -0.0000000997     0.0000003036     -0.5775971705
H       1.1346389082     -0.8738186234     0.7225211037
H       1.4754791840     0.8404299873     1.0521665166
H       2.1425260375     -0.0300656415     -0.3569991067
C       -1.2618002475     -0.1154931606     0.2693039182
H       0.2979169287     -0.8260786749     -1.2276707282
H       -0.2979162775     0.8260782107     -1.2276725098
H       -1.4754785765     -0.8404303858     1.0521654578
H       -2.1425271429     0.0300667506     -0.3569985280
H       -1.1346385703     0.8738183988     0.7225215501
11
# Point -3 Energy = 0.0187714599999822
C       1.2640956056     0.0873695333     0.2651470656
C       -0.0000000758     0.0000002441     -0.5816994330
H       1.1763302688     -0.8808144174     0.7683304875
H       1.4339463659     0.8532042486     1.0206188867
H       2.1520502239     -0.0212029140     -0.3584481714
C       -1.2640959403     -0.0873692743     0.2651466304
H       0.2257453692     -0.8467232186     -1.2342751324
H       -0.2257449037     0.8467228593     -1.2342764681
H       -1.4339458843     -0.8532045099     1.0206180510
H       -2.1520510473     0.0212038786     -0.3584477281
H       -1.1763300426     0.8808142363     0.7683308307
11
# Point -2 Energy = 0.008387299999995435
C       1.2658014299     0.0585880079     0.2620509593
C       -0.0000000511     0.0000001843     -0.5847279440
H       1.2188843731     -0.8843041929     0.8143136833
H       1.3915331448     0.8646217083     0.9849740301
H       2.1589929207     -0.0134812561     -0.3593485717
C       -1.2658016495     -0.0585878322     0.2620506783
H       0.1515970187     -0.8617238355     -1.2391030048
H       -0.1515967358     0.8617236017     -1.2391039026
H       -1.3915327884     -0.8646218538     0.9849734444
H       -2.1589934649     0.0134820688     -0.3593482723
H       -1.2188842580     0.8843040655     0.8143139188
11
# Point -1 Energy = 0.0021094399999981306
C       1.2668505714     0.0293845939     0.2601431874
C       -0.0000000258     0.0000001244     -0.5865838689
H       1.2619772282     -0.8842109667     0.8597486556
H       1.3485372882     0.8739799818     0.9458041752
H       2.1632070553     -0.0065470985     -0.3598377457
C       -1.2668506792     -0.0293845011     0.2601430516
H       0.0761211483     -0.8708241492     -1.2420435063
H       -0.0761210419     0.8708240613     -1.2420439795
H       -1.3485370535     -0.8739800353     0.9458038638
H       -2.1632073244     0.0065477512     -0.3598375957
H       -1.2619772271     0.8842109042     0.8597487814
11
# Point 0 Energy = 0
C       1.2672042126     0.0000000000     0.2594997522
C       0.0000000000     0.0000000000     -0.5872081259
H       1.3052750505     -0.8806643351     0.9038259677
H       1.3052750505     0.8806643351     0.9038259677
H       2.1646165232     0.0000000000     -0.3599948239
C       -1.2672042126     -0.0000000181     0.2594997522
H       0.0000000000     -0.8738729764     -1.2430302913
H       -0.0000000606     0.8738729764     -1.2430302913
H       -1.3052750505     -0.8806643351     0.9038259677
H       -2.1646165232     0.0000006841     -0.3599948239
H       -1.3052750505     0.8806643351     0.9038259677
11
# Point 1 Energy = 0.0021094299999901978
C       1.2668507935     -0.0293846345     0.2601430436
C       0.0000000258     0.0000000042     -0.5865839369
H       1.3485370648     -0.8739800468     0.9458040539
H       1.2619771876     0.8842108628     0.8597486056
H       2.1632075305     0.0065469952     -0.3598375191
C       -1.2668506909     0.0293845712     0.2601431686
H       -0.0761210669     -0.8708239986     -1.2420439537
H       0.0761208516     0.8708242616     -1.2420436388
H       -1.2619771762     -0.8842108073     0.8597489008
H       -2.1632072681     -0.0065466874     -0.3598376664
H       -1.3485373123     0.8739801456     0.9458039614
11
# Point 2 Energy = 0.008387280000022201
C       1.2658018732     -0.0585880404     0.2620506729
C       0.0000000511     -0.0000000560     -0.5847280800
H       1.3915327839     -0.8646217751     0.9849738445
H       1.2188842066     0.8843040501     0.8143135324
H       2.1589938701     0.0134811452     -0.3593481235
C       -1.2658016742     0.0585879076     0.2620509111
H       -0.1515969153     -0.8617235361     -1.2391038959
H       0.1515965604     0.8617240023     -1.2391032252
H       -1.2188842953     -0.8843039767     0.8143141508
H       -2.1589933531     -0.0134810209     -0.3593484120
H       -1.3915331680     0.8646219659     0.9849736437
11
# Point 3 Energy = 0.018771439999994755
C       1.2640962687     -0.0873695526     0.2651466384
C       0.0000000757     -0.0000001161     -0.5816996371
H       1.4339458653     -0.8532043323     1.0206186547
H       1.1763299789     0.8808142238     0.7683302277
H       2.1520516448     0.0212027913     -0.3584475133
C       -1.2640959800     0.0873693583     0.2651469778
H       -0.2257452303     -0.8467227740     -1.2342764593
H       0.2257447529     0.8467234606     -1.2342754620
H       -1.1763301602     -0.8808141548     0.7683311777
H       -2.1520508819     -0.0212028564     -0.3584479314
H       -1.4339463944     0.8532046184     1.0206183458
11
# Point 4 Energy = 0.03321993999999506
C       1.2618006764     -0.1154935030     0.2693039497
C       0.0000000989     -0.0000001759     -0.5775974429
H       1.4754785426     -0.8404301033     1.0521662588
H       1.1346384952     0.8738183672     0.7225207276
H       2.1425279264     0.0300655036     -0.3569982550
C       -1.2618003052     0.1154932562     0.2693043782
H       -0.2979167421     -0.8260780901     -1.2276724797
H       0.2979161608     0.8260790131     -1.2276711866
H       -1.1346387629     -0.8738183231     0.7225220148
H       -2.1425269261     -0.0300657629     -0.3569987872
H       -1.4754792246     0.8404304842     1.0521658410
11
# Point 5 Energy = 0.05162498999997922
C       1.2590071236     -0.1427382295     0.2743554008
C       0.0000001202     -0.0000002351     -0.5725500024
H       1.5158686917     -0.8270180556     1.0792309329
H       1.0941132713     0.8635734704     0.6774674555
H       2.1306364388     0.0403530999     -0.3548204583
C       -1.2590066769     0.1427379402     0.2743559075
H       -0.3675154925     -0.8001415342     -1.2194370873
H       0.3675148262     0.8001427086     -1.2194355301
H       -1.0941136207     -0.8635734698     0.6774690836
H       -2.1306352088     -0.0403535566     -0.3548210866
H       -1.5158695335     0.8270185276     1.0792304034

    This sampling was finished on:   2020-07-02 18:49:52
=------------------------------------------------------------------------------=
Sampling finished.
=------------------------------------------------------------------------------=