                  Welcome to Q-Chem
     A Quantum Leap Into The Future Of Chemistry


 Q-Chem 5.3 (devel), Q-Chem, Inc., Pleasanton, CA (2020)

 Yihan Shao,  Zhengting Gan,  E. Epifanovsky,  A. T. B. Gilbert,  M. Wormit,  
 J. Kussmann,  A. W. Lange,  A. Behn,  Jia Deng,  Xintian Feng,  D. Ghosh,  
 M. Goldey,  P. R. Horn,  L. D. Jacobson,  I. Kaliman,  T. Kus,  A. Landau,  
 Jie Liu,  E. I. Proynov,  R. M. Richard,  R. P. Steele,  E. J. Sundstrom,  
 H. L. Woodcock III,  P. M. Zimmerman,  D. Zuev,  B. Alam,  B. Albrecht,  
 E. Alguire,  S. A. Baeppler,  D. Barton,  Z. Benda,  Y. A. Bernard,  
 E. J. Berquist,  K. B. Bravaya,  H. Burton,  K. Carter-Fenk,  D. Casanova,  
 Chun-Min Chang,  Yunqing Chen,  A. Chien,  K. D. Closser,  M. P. Coons,  
 S. Coriani,  S. Dasgupta,  A. L. Dempwolff,  M. Diedenhofen,  Hainam Do,  
 R. G. Edgar,  Po-Tung Fang,  S. Faraji,  S. Fatehi,  Qingguo Feng,  
 J. Fosso-Tande,  J. Gayvert,  Qinghui Ge,  A. Ghysels,  G. Gidofalvi,  
 J. Gomes,  J. Gonthier,  A. Gunina,  D. Hait,  M. W. D. Hanson-Heine,  
 P. H. P. Harbach,  A. W. Hauser,  M. F. Herbst,  J. E. Herr,  
 E. G. Hohenstein,  Z. C. Holden,  Kerwin Hui,  B. C. Huynh,  T.-C. Jagau,  
 Hyunjun Ji,  B. Kaduk,  K. Khistyaev,  Jaehoon Kim,  P. Klunzinger,  K. Koh,  
 D. Kosenkov,  L. Koulias,  T. Kowalczyk,  C. M. Krauter,  A. Kunitsa,  
 Ka Un Lao,  A. Laurent,  K. V. Lawler,  Joonho Lee,  D. Lefrancois,  
 S. Lehtola,  D. S. Levine,  Yi-Pei Li,  You-Sheng Lin,  Fenglai Liu,  
 Kuan-Yu Liu,  E. Livshits,  M. Loipersberger,  A. Luenser,  P. Manohar,  
 E. Mansoor,  S. F. Manzer,  Shan-Ping Mao,  Yuezhi Mao,  N. Mardirossian,  
 A. V. Marenich,  T. Markovich,  L. A. Martinez-Martinez,  S. A. Maurer,  
 N. J. Mayhall,  S. C. McKenzie,  J.-M. Mewes,  P. Morgante,  A. F. Morrison,  
 J. W. Mullinax,  K. Nanda,  T. S. Nguyen-Beck,  R. Olivares-Amaya,  
 K. J. Oosterbaan,  J. A. Parkhill,  S. K. Paul,  F. Pavosevic,  Zheng Pei,  
 T. M. Perrine,  F. Plasser,  P. Pokhilko,  S. Prager,  A. Prociuk,  
 E. Ramos,  B. Rana,  D. R. Rehn,  F. Rob,  M. Scheurer,  M. Schneider,  
 N. Sergueev,  S. M. Sharada,  S. Sharma,  D. W. Small,  T. Stauch,  
 C. J. Stein,  T. Stein,  Yu-Chuan Su,  S. P. Veccham,  Zhen Tao,  
 A. J. W. Thom,  A. Tkatchenko,  T. Tsuchimochi,  N. M. Tubman,  L. Vogt,  
 M. L. Vidal,  O. Vydrov,  M. A. Watson,  J. Wenzel,  M. de Wergifosse,  
 T. A. Wesolowski,  A. White,  J. Witte,  A. Yamada,  Jun Yang,  K. Yao,  
 S. Yeganeh,  S. R. Yost,  Zhi-Qiang You,  A. Zech,  Igor Ying Zhang,  
 Xing Zhang,  Yan Zhao,  Ying Zhu,  B. R. Brooks,  G. K. L. Chan,  
 C. J. Cramer,  M. S. Gordon,  W. J. Hehre,  A. Klamt,  M. W. Schmidt,  
 C. D. Sherrill,  D. G. Truhlar,  A. Aspuru-Guzik,  R. Baer,  A. T. Bell,  
 N. A. Besley,  Jeng-Da Chai,  A. E. DePrince, III,  R. A. DiStasio Jr.,  
 A. Dreuw,  B. D. Dunietz,  T. R. Furlani,  Chao-Ping Hsu,  Yousung Jung,  
 Jing Kong,  D. S. Lambrecht,  WanZhen Liang,  C. Ochsenfeld,  
 V. A. Rassolov,  L. V. Slipchenko,  J. E. Subotnik,  T. Van Voorhis,  
 J. M. Herbert,  A. I. Krylov,  P. M. W. Gill,  M. Head-Gordon

 Contributors to earlier versions of Q-Chem not listed above: 
 R. D. Adamson,  B. Austin,  J. Baker,  G. J. O. Beran,  K. Brandhorst,  
 S. T. Brown,  E. F. C. Byrd,  A. K. Chakraborty,  C.-L. Cheng,  
 Siu Hung Chien,  D. M. Chipman,  D. L. Crittenden,  H. Dachsel,  
 R. J. Doerksen,  A. D. Dutoi,  L. Fusti-Molnar,  W. A. Goddard III,  
 A. Golubeva-Zadorozhnaya,  S. R. Gwaltney,  G. Hawkins,  A. Heyden,  
 S. Hirata,  G. Kedziora,  F. J. Keil,  C. Kelley,  Jihan Kim,  R. A. King,  
 R. Z. Khaliullin,  P. P. Korambath,  W. Kurlancheek,  A. M. Lee,  M. S. Lee,  
 S. V. Levchenko,  Ching Yeh Lin,  D. Liotard,  R. C. Lochan,  I. Lotan,  
 P. E. Maslen,  N. Nair,  D. P. O'Neill,  D. Neuhauser,  E. Neuscamman,  
 C. M. Oana,  R. Olson,  B. Peters,  R. Peverati,  P. A. Pieniazek,  
 Y. M. Rhee,  J. Ritchie,  M. A. Rohrdanz,  E. Rosta,  N. J. Russ,  
 H. F. Schaefer III,  N. E. Schultz,  N. Shenvi,  A. C. Simmonett,  A. Sodt,  
 D. Stuck,  K. S. Thanthiriwatte,  V. Vanovschi,  Tao Wang,  A. Warshel,  
 C. F. Williams,  Q. Wu,  X. Xu,  W. Zhang

 Please cite Q-Chem as follows:
 Y. Shao et al., Mol. Phys. 113, 184-215 (2015)
 DOI: 10.1080/00268976.2014.952696

 Q-Chem 5.3.0 for Intel X86 EM64T Linux

 Parts of Q-Chem use Armadillo 9.800.1 (Horizon Scraper).
 http://arma.sourceforge.net/

 Q-Chem begins on Wed Jul 29 00:06:16 2020  

Host: centos77-c1
0

     Scratch files written to /tmp/30084.centos77-h1/qchem24663//
Processing $rem in /opt/qchem-5.3.0-intel2020u1//config/preferences:
Processing $rem in /home/shihchengli/.qchemrc:

Checking the input file for inconsistencies... 	...done.

--------------------------------------------------------------
User input:
--------------------------------------------------------------
$rem
   JOBTYPE  sp
   EXCHANGE   omegaB97X-D
   BASIS   6-311+G(2df,2pd)
   UNRESTRICTED   False
   max_scf_cycles   250
   geom_opt_max_cycles   1500
   basis2 6-31G*
   scf_algorithm rca_diis
   SYM_IGNORE  TRUE
   print_input   true
   geom_opt_dmax   80
   pop_mulliken false
   XC_GRID 000075000302
$end

$molecule
0 1
C       -5.5483782011     0.5254647604     -0.1727005592
C       -4.4007562862     1.3463036191     -0.2044367087
H       -5.8319778204     0.0061809801     -1.0790379300
H       -6.3545734242     0.7964908089     0.4957746725
H       -4.5263947261     -0.1778133559     0.5182237407
O       -3.3692384723     0.1818539544     0.8055772462
H       -3.4827416289     1.0401021070     0.2770901337
H       -4.4876541926     2.4123890401     -0.3732006464
H       -2.6790176456     -0.2678346569     0.3056002146
$end
--------------------------------------------------------------
 ----------------------------------------------------------------
             Standard Nuclear Orientation (Angstroms)
    I     Atom           X                Y                Z
 ----------------------------------------------------------------
    1      C      -5.5483782011     0.5254647604    -0.1727005592
    2      C      -4.4007562862     1.3463036191    -0.2044367087
    3      H      -5.8319778204     0.0061809801    -1.0790379300
    4      H      -6.3545734242     0.7964908089     0.4957746725
    5      H      -4.5263947261    -0.1778133559     0.5182237407
    6      O      -3.3692384723     0.1818539544     0.8055772462
    7      H      -3.4827416289     1.0401021070     0.2770901337
    8      H      -4.4876541926     2.4123890401    -0.3732006464
    9      H      -2.6790176456    -0.2678346569     0.3056002146
 ----------------------------------------------------------------
 Nuclear Repulsion Energy =          81.50079051 hartrees
 There are       13 alpha and       13 beta electrons
 Requested basis set is 6-311+G(2df,2pd)
 There are 60 shells and 186 basis functions

 Total QAlloc Memory Limit   2000 MB
 Mega-Array Size       188 MB
 MEM_STATIC part       192 MB

                       Distance Matrix (Angstroms)
             C (  1)   C (  2)   H (  3)   H (  4)   H (  5)   O (  6)
   C (  2)  1.411318
   H (  3)  1.082373  2.146917
   H (  4)  1.081788  2.147089  1.837860
   H (  5)  1.420009  1.691436  2.071146  2.071717
   O (  6)  2.413244  1.854751  3.106078  3.063655  1.245369
   H (  7)  2.175780  1.080916  2.902927  2.890430  1.621936  1.014284
   H (  8)  2.173895  1.082853  2.845215  2.617562  2.739578  2.759648
   H (  9)  3.015183  2.414532  3.454485  3.831275  1.861750  0.963640
             H (  7)   H (  8)
   H (  8)  1.820961
   H (  9)  1.535410  3.303867
 
 A cutoff of  1.0D-09 yielded   1768 shell pairs
 There are     17172 function pairs (     21339 Cartesian)
 Smallest overlap matrix eigenvalue = 1.28E-04

 Scale SEOQF with 1.000000e-02/1.000000e-01/1.000000e-01

 Standard Electronic Orientation quadrupole field applied
 Nucleus-field energy     =     0.0000000025 hartrees
 Requested basis set is 6-31G(d)
 There are 24 shells and 54 basis functions
 A cutoff of  1.0D-09 yielded    297 shell pairs
 There are      1548 function pairs (      1731 Cartesian)
 Smallest overlap matrix eigenvalue = 7.36E-03
 Guess from superposition of atomic densities
 Warning:  Energy on first SCF cycle will be non-variational
 SAD guess density has 26.000000 electrons
 Long-range K will be added via erf
 Coulomb attenuation parameter = 0.2 bohr**(-1)
 A restricted hybrid HF-DFT SCF calculation will be
 performed using Relaxed Constraint Minimization + Pulay DIIS
 Exchange:     0.2220 Hartree-Fock + 1.0000 wB97X-D + LR-HF
 Correlation:  1.0000 wB97X-D
 Using Euler-Maclaurin-Lebedev (75,302) quadrature formula
 Dispersion:   Grimme D
 SCF converges when DIIS error is below 1.0E-04
 using 6 threads for integral computing
 -------------------------------------------------------
 OpenMP Integral computing Module                
 Release: version 1.0, May 2013, Q-Chem Inc. Pittsburgh 
 -------------------------------------------------------
 using 6 threads for integral computing
 -------------------------------------------------------
 OpenMP Integral computing Module                
 Release: version 1.0, May 2013, Q-Chem Inc. Pittsburgh 
 -------------------------------------------------------
 ---------------------------------------
  Cycle       Energy         DIIS Error
 ---------------------------------------
    1    -155.6078722677      1.13E-01
    2    -154.5721480117      1.39E-02
    3    -154.6039241217      3.65E-03
    4    -154.6301192806      4.11E-03
    5    -154.6321034563      6.10E-04 Done RCA. Switching to DIIS
    6    -154.6346531759      7.50E-04
    7    -154.6348068557      4.09E-05 Convergence criterion met
 ---------------------------------------
 SCF time:  CPU 15.84 s  wall 2.66 s
 SCF   energy in the small basis set = -154.63480686
 Total energy in the small basis set = -154.63480686
 ----------------------------------------------------
  Cycle       Energy    
 ----------------------------------------------------
    1     -18.7802645891     -1.88E+01
 Long-range K will be added via erf
 Coulomb attenuation parameter = 0.2 bohr**(-1)
 A restricted hybrid HF-DFT SCF calculation will be
 performed using Relaxed Constraint Minimization + Pulay DIIS
 Exchange:     0.2220 Hartree-Fock + 1.0000 wB97X-D + LR-HF
 Correlation:  1.0000 wB97X-D
 Using Euler-Maclaurin-Lebedev (75,302) quadrature formula
 Dispersion:   Grimme D
 SCF converges when DIIS error is below 1.0E-05
 Basis2 calculation detected. Using small basis as guess for larger.
 SCFMinFind is unable to tell whether the solution found is close.
 Resetting ReadMinima to 0 and attempting to follow guess.
 SCFMinFind following SCF Guess.
 using 6 threads for integral computing
 -------------------------------------------------------
 OpenMP Integral computing Module                
 Release: version 1.0, May 2013, Q-Chem Inc. Pittsburgh 
 -------------------------------------------------------
 using 6 threads for integral computing
 -------------------------------------------------------
 OpenMP Integral computing Module                
 Release: version 1.0, May 2013, Q-Chem Inc. Pittsburgh 
 -------------------------------------------------------
 ---------------------------------------
  Cycle       Energy         DIIS Error
 ---------------------------------------
    1    -154.5740961251      7.17E-03
    2    -154.5505802939      7.30E-03
    3    -154.6096189504      1.65E-03
    4    -154.6980675997      1.52E-03
    5    -154.7026423612      3.99E-04 Done RCA. Switching to DIIS
    6    -154.7115704315      3.10E-04
    7    -154.7155922631      1.61E-04
    8    -154.7174862255      1.05E-04
    9    -154.7181529473      4.99E-05
   10    -154.7181901299      1.28E-05
   11    -154.7181979217      5.44E-06 Convergence criterion met
 ---------------------------------------
 SCF time:  CPU 81.18 s  wall 13.57 s
 SCF   energy in the final basis set = -154.71819792
 Total energy in the final basis set = -154.71819792
 
 --------------------------------------------------------------
 
                    Orbital Energies (a.u.)
 --------------------------------------------------------------
 
 Alpha MOs
 -- Occupied --
-19.2711 -10.2924 -10.2620  -1.1854  -0.8687  -0.7269  -0.6456  -0.5809
 -0.5390  -0.4984  -0.4666  -0.3249  -0.2623
 -- Virtual --
 -0.0225   0.0716   0.0889   0.0961   0.1102   0.1331   0.1420   0.1488
  0.1776   0.1840   0.2201   0.2386   0.2539   0.2690   0.2831   0.3020
  0.3050   0.3467   0.3767   0.3872   0.4693   0.5127   0.5289   0.5394
  0.5594   0.5759   0.5997   0.6101   0.6178   0.6374   0.6602   0.6757
  0.7014   0.7640   0.7782   0.8072   0.8260   0.8446   0.9045   0.9624
  0.9718   1.0213   1.0370   1.0563   1.0780   1.1340   1.1722   1.1758
  1.2205   1.2724   1.3024   1.3099   1.3424   1.4000   1.4137   1.4431
  1.4486   1.4559   1.5036   1.5181   1.5300   1.5959   1.6326   1.6731
  1.8358   1.9005   2.0340   2.1094   2.2274   2.2454   2.3570   2.4728
  2.5375   2.5454   2.5881   2.6313   2.7074   2.7806   2.8379   2.8694
  2.8754   2.8987   2.9437   2.9627   3.0200   3.0381   3.0476   3.0685
  3.1160   3.1529   3.1836   3.2126   3.2381   3.2853   3.3225   3.3346
  3.3543   3.3728   3.4326   3.4554   3.4656   3.4838   3.5103   3.5419
  3.5896   3.6062   3.6349   3.6732   3.7168   3.7854   3.8073   3.8371
  3.8585   3.8878   3.9019   3.9495   3.9814   4.0056   4.0580   4.0685
  4.1099   4.1355   4.1902   4.2114   4.2307   4.2438   4.2889   4.3076
  4.3523   4.3830   4.4421   4.4747   4.6277   4.6354   4.6686   4.7441
  4.8229   4.8762   4.8912   4.9362   5.0456   5.0723   5.1310   5.1640
  5.1757   5.2522   5.3211   5.3795   5.4097   5.6228   5.6817   5.7793
  5.8601   5.8796   6.1083   6.1689   6.3515   6.4596   6.6134   6.6887
  6.7051   6.9110   7.0516   7.2494   7.3898   7.4490   7.6787   7.8413
  8.0145   8.4595  25.0556  25.3246  50.6380
 --------------------------------------------------------------
 
 -----------------------------------------------------------------
                    Cartesian Multipole Moments
 -----------------------------------------------------------------
    Charge (ESU x 10^10)
                 0.0000
    Dipole Moment (Debye)
         X       0.8800      Y      -0.4518      Z      -0.5670
       Tot       1.1402
    Quadrupole Moments (Debye-Ang)
        XX     -26.8126     XY       1.2526     YY     -20.5000
        XZ       1.8401     YZ       0.7335     ZZ     -22.9351
    Octopole Moments (Debye-Ang^2)
       XXX     314.1616    XXY     -19.4746    XYY      93.7299
       YYY     -41.1028    XXZ      -8.8571    XYZ      -3.4542
       YYZ      -2.5056    XZZ      98.0959    YZZ     -14.7980
       ZZZ     -10.3265
    Hexadecapole Moments (Debye-Ang^3)
      XXXX   -2846.0279   XXXY     230.2569   XXYY    -475.9433
      XYYY     192.2394   YYYY    -124.8083   XXXZ      36.8258
      XXYZ      20.1628   XYYZ       5.0987   YYYZ       1.4534
      XXZZ    -455.0558   XYZZ      67.5336   YYZZ     -30.7599
      XZZZ      23.8954   YZZZ       6.1293   ZZZZ     -61.2990
 -----------------------------------------------------------------
Archival summary:
1\1\centos77-c1\SP\ProcedureUnspecified\BasisUnspecified\126\shihchen\WedJul2900:06:342020WedJul2900:06:342020\0\\#,ProcedureUnspecified,BasisUnspecified,\\0,1\O\H,1,0.96364\H,1,1.01428,2,101.811\C,3,1.08092,1,124.531,2,119.196,0\H,4,1.08285,3,114.612,1,156.56,0\H,1,1.24537,2,114.27,3,96.7127,0\C,4,1.41132,3,121.053,1,-2.14686,0\H,7,1.08179,4,118.306,3,104.122,0\H,7,1.08237,4,118.247,3,-106.594,0\\\@

 Total job time:  18.63s(wall), 101.17s(cpu) 
 Wed Jul 29 00:06:34 2020

        *************************************************************
        *                                                           *
        *  Thank you very much for using Q-Chem.  Have a nice day.  *
        *                                                           *
        *************************************************************


