                  Welcome to Q-Chem
     A Quantum Leap Into The Future Of Chemistry


 Q-Chem 5.3 (devel), Q-Chem, Inc., Pleasanton, CA (2020)

 Yihan Shao,  Zhengting Gan,  E. Epifanovsky,  A. T. B. Gilbert,  M. Wormit,  
 J. Kussmann,  A. W. Lange,  A. Behn,  Jia Deng,  Xintian Feng,  D. Ghosh,  
 M. Goldey,  P. R. Horn,  L. D. Jacobson,  I. Kaliman,  T. Kus,  A. Landau,  
 Jie Liu,  E. I. Proynov,  R. M. Richard,  R. P. Steele,  E. J. Sundstrom,  
 H. L. Woodcock III,  P. M. Zimmerman,  D. Zuev,  B. Alam,  B. Albrecht,  
 E. Alguire,  S. A. Baeppler,  D. Barton,  Z. Benda,  Y. A. Bernard,  
 E. J. Berquist,  K. B. Bravaya,  H. Burton,  K. Carter-Fenk,  D. Casanova,  
 Chun-Min Chang,  Yunqing Chen,  A. Chien,  K. D. Closser,  M. P. Coons,  
 S. Coriani,  S. Dasgupta,  A. L. Dempwolff,  M. Diedenhofen,  Hainam Do,  
 R. G. Edgar,  Po-Tung Fang,  S. Faraji,  S. Fatehi,  Qingguo Feng,  
 J. Fosso-Tande,  J. Gayvert,  Qinghui Ge,  A. Ghysels,  G. Gidofalvi,  
 J. Gomes,  J. Gonthier,  A. Gunina,  D. Hait,  M. W. D. Hanson-Heine,  
 P. H. P. Harbach,  A. W. Hauser,  M. F. Herbst,  J. E. Herr,  
 E. G. Hohenstein,  Z. C. Holden,  Kerwin Hui,  B. C. Huynh,  T.-C. Jagau,  
 Hyunjun Ji,  B. Kaduk,  K. Khistyaev,  Jaehoon Kim,  P. Klunzinger,  K. Koh,  
 D. Kosenkov,  L. Koulias,  T. Kowalczyk,  C. M. Krauter,  A. Kunitsa,  
 Ka Un Lao,  A. Laurent,  K. V. Lawler,  Joonho Lee,  D. Lefrancois,  
 S. Lehtola,  D. S. Levine,  Yi-Pei Li,  You-Sheng Lin,  Fenglai Liu,  
 Kuan-Yu Liu,  E. Livshits,  M. Loipersberger,  A. Luenser,  P. Manohar,  
 E. Mansoor,  S. F. Manzer,  Shan-Ping Mao,  Yuezhi Mao,  N. Mardirossian,  
 A. V. Marenich,  T. Markovich,  L. A. Martinez-Martinez,  S. A. Maurer,  
 N. J. Mayhall,  S. C. McKenzie,  J.-M. Mewes,  P. Morgante,  A. F. Morrison,  
 J. W. Mullinax,  K. Nanda,  T. S. Nguyen-Beck,  R. Olivares-Amaya,  
 K. J. Oosterbaan,  J. A. Parkhill,  S. K. Paul,  F. Pavosevic,  Zheng Pei,  
 T. M. Perrine,  F. Plasser,  P. Pokhilko,  S. Prager,  A. Prociuk,  
 E. Ramos,  B. Rana,  D. R. Rehn,  F. Rob,  M. Scheurer,  M. Schneider,  
 N. Sergueev,  S. M. Sharada,  S. Sharma,  D. W. Small,  T. Stauch,  
 C. J. Stein,  T. Stein,  Yu-Chuan Su,  S. P. Veccham,  Zhen Tao,  
 A. J. W. Thom,  A. Tkatchenko,  T. Tsuchimochi,  N. M. Tubman,  L. Vogt,  
 M. L. Vidal,  O. Vydrov,  M. A. Watson,  J. Wenzel,  M. de Wergifosse,  
 T. A. Wesolowski,  A. White,  J. Witte,  A. Yamada,  Jun Yang,  K. Yao,  
 S. Yeganeh,  S. R. Yost,  Zhi-Qiang You,  A. Zech,  Igor Ying Zhang,  
 Xing Zhang,  Yan Zhao,  Ying Zhu,  B. R. Brooks,  G. K. L. Chan,  
 C. J. Cramer,  M. S. Gordon,  W. J. Hehre,  A. Klamt,  M. W. Schmidt,  
 C. D. Sherrill,  D. G. Truhlar,  A. Aspuru-Guzik,  R. Baer,  A. T. Bell,  
 N. A. Besley,  Jeng-Da Chai,  A. E. DePrince, III,  R. A. DiStasio Jr.,  
 A. Dreuw,  B. D. Dunietz,  T. R. Furlani,  Chao-Ping Hsu,  Yousung Jung,  
 Jing Kong,  D. S. Lambrecht,  WanZhen Liang,  C. Ochsenfeld,  
 V. A. Rassolov,  L. V. Slipchenko,  J. E. Subotnik,  T. Van Voorhis,  
 J. M. Herbert,  A. I. Krylov,  P. M. W. Gill,  M. Head-Gordon

 Contributors to earlier versions of Q-Chem not listed above: 
 R. D. Adamson,  B. Austin,  J. Baker,  G. J. O. Beran,  K. Brandhorst,  
 S. T. Brown,  E. F. C. Byrd,  A. K. Chakraborty,  C.-L. Cheng,  
 Siu Hung Chien,  D. M. Chipman,  D. L. Crittenden,  H. Dachsel,  
 R. J. Doerksen,  A. D. Dutoi,  L. Fusti-Molnar,  W. A. Goddard III,  
 A. Golubeva-Zadorozhnaya,  S. R. Gwaltney,  G. Hawkins,  A. Heyden,  
 S. Hirata,  G. Kedziora,  F. J. Keil,  C. Kelley,  Jihan Kim,  R. A. King,  
 R. Z. Khaliullin,  P. P. Korambath,  W. Kurlancheek,  A. M. Lee,  M. S. Lee,  
 S. V. Levchenko,  Ching Yeh Lin,  D. Liotard,  R. C. Lochan,  I. Lotan,  
 P. E. Maslen,  N. Nair,  D. P. O'Neill,  D. Neuhauser,  E. Neuscamman,  
 C. M. Oana,  R. Olson,  B. Peters,  R. Peverati,  P. A. Pieniazek,  
 Y. M. Rhee,  J. Ritchie,  M. A. Rohrdanz,  E. Rosta,  N. J. Russ,  
 H. F. Schaefer III,  N. E. Schultz,  N. Shenvi,  A. C. Simmonett,  A. Sodt,  
 D. Stuck,  K. S. Thanthiriwatte,  V. Vanovschi,  Tao Wang,  A. Warshel,  
 C. F. Williams,  Q. Wu,  X. Xu,  W. Zhang

 Please cite Q-Chem as follows:
 Y. Shao et al., Mol. Phys. 113, 184-215 (2015)
 DOI: 10.1080/00268976.2014.952696

 Q-Chem 5.3.0 for Intel X86 EM64T Linux

 Parts of Q-Chem use Armadillo 9.800.1 (Horizon Scraper).
 http://arma.sourceforge.net/

 Q-Chem begins on Wed Jul 29 00:04:18 2020  

Host: centos77-c1
0

     Scratch files written to /tmp/30084.centos77-h1/qchem24378//
Processing $rem in /opt/qchem-5.3.0-intel2020u1//config/preferences:
Processing $rem in /home/shihchengli/.qchemrc:

Checking the input file for inconsistencies... 	...done.

--------------------------------------------------------------
User input:
--------------------------------------------------------------
$rem
   JOBTYPE  sp
   EXCHANGE   omegaB97X-D
   BASIS   6-311+G(2df,2pd)
   UNRESTRICTED   False
   max_scf_cycles   250
   geom_opt_max_cycles   1500
   basis2 6-31G*
   scf_algorithm rca_diis
   SYM_IGNORE  TRUE
   print_input   true
   geom_opt_dmax   80
   pop_mulliken false
   XC_GRID 000075000302
$end

$molecule
0 1
C       -5.5418768998     0.5360138129     -0.1059681304
C       -4.4002178349     1.3615148427     -0.0224079493
H       -5.8740123259     0.2187914593     -1.0860639704
H       -6.3103641407     0.6455696035     0.6474838464
H       -4.4809258298     -0.2837181722     0.3618448876
O       -3.3106157416     0.0231558264     0.6570496528
H       -3.9969159333     1.6600943909     0.9349719161
H       -4.1177938591     2.0004246062     -0.8498145299
H       -2.6480098323     -0.2987091126     0.0357944404
$end
--------------------------------------------------------------
 ----------------------------------------------------------------
             Standard Nuclear Orientation (Angstroms)
    I     Atom           X                Y                Z
 ----------------------------------------------------------------
    1      C      -5.5418768998     0.5360138129    -0.1059681304
    2      C      -4.4002178349     1.3615148427    -0.0224079493
    3      H      -5.8740123259     0.2187914593    -1.0860639704
    4      H      -6.3103641407     0.6455696035     0.6474838464
    5      H      -4.4809258298    -0.2837181722     0.3618448876
    6      O      -3.3106157416     0.0231558264     0.6570496528
    7      H      -3.9969159333     1.6600943909     0.9349719161
    8      H      -4.1177938591     2.0004246062    -0.8498145299
    9      H      -2.6480098323    -0.2987091126     0.0357944404
 ----------------------------------------------------------------
 Nuclear Repulsion Energy =          79.60635774 hartrees
 There are       13 alpha and       13 beta electrons
 Requested basis set is 6-311+G(2df,2pd)
 There are 60 shells and 186 basis functions

 Total QAlloc Memory Limit   2000 MB
 Mega-Array Size       188 MB
 MEM_STATIC part       192 MB

                       Distance Matrix (Angstroms)
             C (  1)   C (  2)   H (  3)   H (  4)   H (  5)   O (  6)
   C (  2)  1.411318
   H (  3)  1.082373  2.146917
   H (  4)  1.081788  2.147089  1.837860
   H (  5)  1.420009  1.691436  2.071146  2.071717
   O (  6)  2.413244  1.854751  3.106078  3.063655  1.245369
   H (  7)  2.175780  1.080916  3.112143  2.542430  2.083542  1.796613
   H (  8)  2.173895  1.082853  2.512834  2.980755  2.610994  2.613765
   H (  9)  3.015183  2.414532  3.454485  3.831275  1.861750  0.963640
             H (  7)   H (  8)
   H (  8)  1.820961
   H (  9)  2.542632  2.868899
 
 A cutoff of  1.0D-09 yielded   1775 shell pairs
 There are     17236 function pairs (     21415 Cartesian)
 Smallest overlap matrix eigenvalue = 1.13E-04

 Scale SEOQF with 1.000000e-02/1.000000e-01/1.000000e-01

 Standard Electronic Orientation quadrupole field applied
 Nucleus-field energy     =     0.0000000026 hartrees
 Requested basis set is 6-31G(d)
 There are 24 shells and 54 basis functions
 A cutoff of  1.0D-09 yielded    297 shell pairs
 There are      1548 function pairs (      1731 Cartesian)
 Smallest overlap matrix eigenvalue = 6.74E-03
 Guess from superposition of atomic densities
 Warning:  Energy on first SCF cycle will be non-variational
 SAD guess density has 26.000000 electrons
 Long-range K will be added via erf
 Coulomb attenuation parameter = 0.2 bohr**(-1)
 A restricted hybrid HF-DFT SCF calculation will be
 performed using Relaxed Constraint Minimization + Pulay DIIS
 Exchange:     0.2220 Hartree-Fock + 1.0000 wB97X-D + LR-HF
 Correlation:  1.0000 wB97X-D
 Using Euler-Maclaurin-Lebedev (75,302) quadrature formula
 Dispersion:   Grimme D
 SCF converges when DIIS error is below 1.0E-04
 using 6 threads for integral computing
 -------------------------------------------------------
 OpenMP Integral computing Module                
 Release: version 1.0, May 2013, Q-Chem Inc. Pittsburgh 
 -------------------------------------------------------
 using 6 threads for integral computing
 -------------------------------------------------------
 OpenMP Integral computing Module                
 Release: version 1.0, May 2013, Q-Chem Inc. Pittsburgh 
 -------------------------------------------------------
 ---------------------------------------
  Cycle       Energy         DIIS Error
 ---------------------------------------
    1    -155.2862037600      1.00E-01
    2    -154.7572302100      1.56E-02
    3    -154.7902519844      3.42E-03
    4    -154.8308631918      2.51E-03
    5    -154.8318861554      5.69E-04 Done RCA. Switching to DIIS
    6    -154.8331682182      3.84E-04
    7    -154.8332196703      4.52E-05 Convergence criterion met
 ---------------------------------------
 SCF time:  CPU 16.03 s  wall 2.69 s
 SCF   energy in the small basis set = -154.83321967
 Total energy in the small basis set = -154.83321967
 ----------------------------------------------------
  Cycle       Energy    
 ----------------------------------------------------
    1     -18.6783775256     -1.87E+01
 Long-range K will be added via erf
 Coulomb attenuation parameter = 0.2 bohr**(-1)
 A restricted hybrid HF-DFT SCF calculation will be
 performed using Relaxed Constraint Minimization + Pulay DIIS
 Exchange:     0.2220 Hartree-Fock + 1.0000 wB97X-D + LR-HF
 Correlation:  1.0000 wB97X-D
 Using Euler-Maclaurin-Lebedev (75,302) quadrature formula
 Dispersion:   Grimme D
 SCF converges when DIIS error is below 1.0E-05
 Basis2 calculation detected. Using small basis as guess for larger.
 SCFMinFind is unable to tell whether the solution found is close.
 Resetting ReadMinima to 0 and attempting to follow guess.
 SCFMinFind following SCF Guess.
 using 6 threads for integral computing
 -------------------------------------------------------
 OpenMP Integral computing Module                
 Release: version 1.0, May 2013, Q-Chem Inc. Pittsburgh 
 -------------------------------------------------------
 using 6 threads for integral computing
 -------------------------------------------------------
 OpenMP Integral computing Module                
 Release: version 1.0, May 2013, Q-Chem Inc. Pittsburgh 
 -------------------------------------------------------
 ---------------------------------------
  Cycle       Energy         DIIS Error
 ---------------------------------------
    1    -154.8571865312      6.01E-03
    2    -154.8491202299      4.62E-03
    3    -154.8720926705      1.13E-03
    4    -154.9040340035      1.16E-03
    5    -154.9060182166      1.33E-04 Done RCA. Switching to DIIS
    6    -154.9088430740      1.36E-04
    7    -154.9089025783      1.15E-05
    8    -154.9089041819      3.62E-06 Convergence criterion met
 ---------------------------------------
 SCF time:  CPU 62.24 s  wall 10.40 s
 SCF   energy in the final basis set = -154.90890418
 Total energy in the final basis set = -154.90890418
 
 --------------------------------------------------------------
 
                    Orbital Energies (a.u.)
 --------------------------------------------------------------
 
 Alpha MOs
 -- Occupied --
-19.2454 -10.3485 -10.2538  -1.0945  -0.8733  -0.6976  -0.6251  -0.5530
 -0.5073  -0.4665  -0.4536  -0.3992  -0.3040
 -- Virtual --
  0.0369   0.0687   0.0893   0.1009   0.1091   0.1313   0.1393   0.1455
  0.1805   0.1907   0.2192   0.2328   0.2575   0.2691   0.2825   0.2860
  0.3160   0.3380   0.3630   0.3925   0.4628   0.4764   0.4911   0.5553
  0.5614   0.5682   0.5962   0.6013   0.6125   0.6279   0.6497   0.6878
  0.6988   0.7363   0.7831   0.8091   0.8652   0.8912   0.9140   0.9577
  0.9805   1.0211   1.0574   1.0820   1.1040   1.1360   1.1528   1.1894
  1.2253   1.2343   1.2881   1.3006   1.3578   1.3817   1.4108   1.4207
  1.4537   1.4599   1.4849   1.4976   1.5521   1.5769   1.5928   1.6273
  1.6767   1.7789   1.8945   1.9774   2.0361   2.2735   2.3023   2.4629
  2.5060   2.5752   2.5949   2.6462   2.6921   2.7417   2.8056   2.8275
  2.8792   2.9136   2.9583   2.9864   3.0237   3.0439   3.0702   3.0966
  3.1234   3.1539   3.1811   3.2064   3.2264   3.2439   3.2978   3.3302
  3.3502   3.4088   3.4226   3.4271   3.4739   3.4880   3.5217   3.5756
  3.5843   3.5996   3.6371   3.6884   3.7137   3.7560   3.7960   3.8266
  3.8445   3.8556   3.8725   3.8857   3.9168   3.9714   4.0137   4.0330
  4.1304   4.1323   4.1784   4.2139   4.2271   4.2504   4.2863   4.3193
  4.3457   4.3858   4.4328   4.4860   4.4961   4.5373   4.6202   4.6999
  4.7593   4.8413   4.8993   4.9590   5.0167   5.0564   5.0982   5.1170
  5.1317   5.1897   5.2038   5.3059   5.3663   5.4410   5.4903   5.5122
  5.5861   5.6575   5.7893   5.8009   6.0467   6.1254   6.2189   6.3276
  6.4526   6.6387   6.7294   6.9007   7.2060   7.2153   7.4082   7.6633
  7.7713   8.1806  24.9757  25.3084  50.4304
 --------------------------------------------------------------
 
 -----------------------------------------------------------------
                    Cartesian Multipole Moments
 -----------------------------------------------------------------
    Charge (ESU x 10^10)
                 0.0000
    Dipole Moment (Debye)
         X       0.5779      Y       0.7603      Z      -1.4424
       Tot       1.7299
    Quadrupole Moments (Debye-Ang)
        XX     -25.4183     XY      -3.2088     YY     -19.1382
        XZ       3.8064     YZ       0.2536     ZZ     -21.1805
    Octopole Moments (Debye-Ang^2)
       XXX     309.4849    XXY      -2.1398    XYY      88.3493
       YYY     -35.3449    XXZ     -10.9064    XYZ      -1.6819
       YYZ      -3.9849    XZZ      91.8898    YZZ     -11.1003
       ZZZ     -11.2156
    Hexadecapole Moments (Debye-Ang^3)
      XXXX   -2826.1614   XXXY     159.0930   XXYY    -454.3365
      XYYY     171.2097   YYYY    -115.1598   XXXZ      22.1183
      XXYZ      12.8065   XYYZ      11.5580   YYYZ      -1.7034
      XXZZ    -433.1535   XYZZ      53.6204   YYZZ     -25.9160
      XZZZ      31.4772   YZZZ       2.5207   ZZZZ     -51.9251
 -----------------------------------------------------------------
Archival summary:
1\1\centos77-c1\SP\ProcedureUnspecified\BasisUnspecified\126\shihchen\WedJul2900:04:342020WedJul2900:04:342020\0\\#,ProcedureUnspecified,BasisUnspecified,\\0,1\C\H,1,1.08092\H,1,1.08285,2,114.612\C,1,1.41132,2,121.053,3,-158.707,0\H,4,1.08179,1,118.306,2,34.1218,0\H,4,1.08237,1,118.247,2,-176.594,0\H,4,1.42001,1,73.3671,2,-71.2796,0\O,7,1.24537,4,129.64,1,4.34102,0\H,8,0.96364,7,114.27,4,-109.293,0\\\@

 Total job time:  15.66s(wall), 82.78s(cpu) 
 Wed Jul 29 00:04:34 2020

        *************************************************************
        *                                                           *
        *  Thank you very much for using Q-Chem.  Have a nice day.  *
        *                                                           *
        *************************************************************


