                  Welcome to Q-Chem
     A Quantum Leap Into The Future Of Chemistry


 Q-Chem 5.3 (devel), Q-Chem, Inc., Pleasanton, CA (2020)

 Yihan Shao,  Zhengting Gan,  E. Epifanovsky,  A. T. B. Gilbert,  M. Wormit,  
 J. Kussmann,  A. W. Lange,  A. Behn,  Jia Deng,  Xintian Feng,  D. Ghosh,  
 M. Goldey,  P. R. Horn,  L. D. Jacobson,  I. Kaliman,  T. Kus,  A. Landau,  
 Jie Liu,  E. I. Proynov,  R. M. Richard,  R. P. Steele,  E. J. Sundstrom,  
 H. L. Woodcock III,  P. M. Zimmerman,  D. Zuev,  B. Alam,  B. Albrecht,  
 E. Alguire,  S. A. Baeppler,  D. Barton,  Z. Benda,  Y. A. Bernard,  
 E. J. Berquist,  K. B. Bravaya,  H. Burton,  K. Carter-Fenk,  D. Casanova,  
 Chun-Min Chang,  Yunqing Chen,  A. Chien,  K. D. Closser,  M. P. Coons,  
 S. Coriani,  S. Dasgupta,  A. L. Dempwolff,  M. Diedenhofen,  Hainam Do,  
 R. G. Edgar,  Po-Tung Fang,  S. Faraji,  S. Fatehi,  Qingguo Feng,  
 J. Fosso-Tande,  J. Gayvert,  Qinghui Ge,  A. Ghysels,  G. Gidofalvi,  
 J. Gomes,  J. Gonthier,  A. Gunina,  D. Hait,  M. W. D. Hanson-Heine,  
 P. H. P. Harbach,  A. W. Hauser,  M. F. Herbst,  J. E. Herr,  
 E. G. Hohenstein,  Z. C. Holden,  Kerwin Hui,  B. C. Huynh,  T.-C. Jagau,  
 Hyunjun Ji,  B. Kaduk,  K. Khistyaev,  Jaehoon Kim,  P. Klunzinger,  K. Koh,  
 D. Kosenkov,  L. Koulias,  T. Kowalczyk,  C. M. Krauter,  A. Kunitsa,  
 Ka Un Lao,  A. Laurent,  K. V. Lawler,  Joonho Lee,  D. Lefrancois,  
 S. Lehtola,  D. S. Levine,  Yi-Pei Li,  You-Sheng Lin,  Fenglai Liu,  
 Kuan-Yu Liu,  E. Livshits,  M. Loipersberger,  A. Luenser,  P. Manohar,  
 E. Mansoor,  S. F. Manzer,  Shan-Ping Mao,  Yuezhi Mao,  N. Mardirossian,  
 A. V. Marenich,  T. Markovich,  L. A. Martinez-Martinez,  S. A. Maurer,  
 N. J. Mayhall,  S. C. McKenzie,  J.-M. Mewes,  P. Morgante,  A. F. Morrison,  
 J. W. Mullinax,  K. Nanda,  T. S. Nguyen-Beck,  R. Olivares-Amaya,  
 K. J. Oosterbaan,  J. A. Parkhill,  S. K. Paul,  F. Pavosevic,  Zheng Pei,  
 T. M. Perrine,  F. Plasser,  P. Pokhilko,  S. Prager,  A. Prociuk,  
 E. Ramos,  B. Rana,  D. R. Rehn,  F. Rob,  M. Scheurer,  M. Schneider,  
 N. Sergueev,  S. M. Sharada,  S. Sharma,  D. W. Small,  T. Stauch,  
 C. J. Stein,  T. Stein,  Yu-Chuan Su,  S. P. Veccham,  Zhen Tao,  
 A. J. W. Thom,  A. Tkatchenko,  T. Tsuchimochi,  N. M. Tubman,  L. Vogt,  
 M. L. Vidal,  O. Vydrov,  M. A. Watson,  J. Wenzel,  M. de Wergifosse,  
 T. A. Wesolowski,  A. White,  J. Witte,  A. Yamada,  Jun Yang,  K. Yao,  
 S. Yeganeh,  S. R. Yost,  Zhi-Qiang You,  A. Zech,  Igor Ying Zhang,  
 Xing Zhang,  Yan Zhao,  Ying Zhu,  B. R. Brooks,  G. K. L. Chan,  
 C. J. Cramer,  M. S. Gordon,  W. J. Hehre,  A. Klamt,  M. W. Schmidt,  
 C. D. Sherrill,  D. G. Truhlar,  A. Aspuru-Guzik,  R. Baer,  A. T. Bell,  
 N. A. Besley,  Jeng-Da Chai,  A. E. DePrince, III,  R. A. DiStasio Jr.,  
 A. Dreuw,  B. D. Dunietz,  T. R. Furlani,  Chao-Ping Hsu,  Yousung Jung,  
 Jing Kong,  D. S. Lambrecht,  WanZhen Liang,  C. Ochsenfeld,  
 V. A. Rassolov,  L. V. Slipchenko,  J. E. Subotnik,  T. Van Voorhis,  
 J. M. Herbert,  A. I. Krylov,  P. M. W. Gill,  M. Head-Gordon

 Contributors to earlier versions of Q-Chem not listed above: 
 R. D. Adamson,  B. Austin,  J. Baker,  G. J. O. Beran,  K. Brandhorst,  
 S. T. Brown,  E. F. C. Byrd,  A. K. Chakraborty,  C.-L. Cheng,  
 Siu Hung Chien,  D. M. Chipman,  D. L. Crittenden,  H. Dachsel,  
 R. J. Doerksen,  A. D. Dutoi,  L. Fusti-Molnar,  W. A. Goddard III,  
 A. Golubeva-Zadorozhnaya,  S. R. Gwaltney,  G. Hawkins,  A. Heyden,  
 S. Hirata,  G. Kedziora,  F. J. Keil,  C. Kelley,  Jihan Kim,  R. A. King,  
 R. Z. Khaliullin,  P. P. Korambath,  W. Kurlancheek,  A. M. Lee,  M. S. Lee,  
 S. V. Levchenko,  Ching Yeh Lin,  D. Liotard,  R. C. Lochan,  I. Lotan,  
 P. E. Maslen,  N. Nair,  D. P. O'Neill,  D. Neuhauser,  E. Neuscamman,  
 C. M. Oana,  R. Olson,  B. Peters,  R. Peverati,  P. A. Pieniazek,  
 Y. M. Rhee,  J. Ritchie,  M. A. Rohrdanz,  E. Rosta,  N. J. Russ,  
 H. F. Schaefer III,  N. E. Schultz,  N. Shenvi,  A. C. Simmonett,  A. Sodt,  
 D. Stuck,  K. S. Thanthiriwatte,  V. Vanovschi,  Tao Wang,  A. Warshel,  
 C. F. Williams,  Q. Wu,  X. Xu,  W. Zhang

 Please cite Q-Chem as follows:
 Y. Shao et al., Mol. Phys. 113, 184-215 (2015)
 DOI: 10.1080/00268976.2014.952696

 Q-Chem 5.3.0 for Intel X86 EM64T Linux

 Parts of Q-Chem use Armadillo 9.800.1 (Horizon Scraper).
 http://arma.sourceforge.net/

 Q-Chem begins on Wed Jul 29 00:04:34 2020  

Host: centos77-c1
0

     Scratch files written to /tmp/30084.centos77-h1/qchem24417//
Processing $rem in /opt/qchem-5.3.0-intel2020u1//config/preferences:
Processing $rem in /home/shihchengli/.qchemrc:

Checking the input file for inconsistencies... 	...done.

--------------------------------------------------------------
User input:
--------------------------------------------------------------
$rem
   JOBTYPE  sp
   EXCHANGE   omegaB97X-D
   BASIS   6-311+G(2df,2pd)
   UNRESTRICTED   False
   max_scf_cycles   250
   geom_opt_max_cycles   1500
   basis2 6-31G*
   scf_algorithm rca_diis
   SYM_IGNORE  TRUE
   print_input   true
   geom_opt_dmax   80
   pop_mulliken false
   XC_GRID 000075000302
$end

$molecule
0 1
C       -5.5415863456     0.5347213571     -0.1167898405
C       -4.3982876242     1.3595745939     -0.0511785151
H       -5.8672064328     0.1868978011     -1.0886551352
H       -6.3154244711     0.6704826707     0.6268555141
H       -4.4864880120     -0.2721966377     0.3852834372
O       -3.3175844403     0.0410549251     0.6793601373
H       -3.9067558103     1.5573380235     0.8909809613
H       -4.1961848677     2.0876347640     -0.8268417809
H       -2.6512143934     -0.3023702405     0.0738753851
$end
--------------------------------------------------------------
 ----------------------------------------------------------------
             Standard Nuclear Orientation (Angstroms)
    I     Atom           X                Y                Z
 ----------------------------------------------------------------
    1      C      -5.5415863456     0.5347213571    -0.1167898405
    2      C      -4.3982876242     1.3595745939    -0.0511785151
    3      H      -5.8672064328     0.1868978011    -1.0886551352
    4      H      -6.3154244711     0.6704826707     0.6268555141
    5      H      -4.4864880120    -0.2721966377     0.3852834372
    6      O      -3.3175844403     0.0410549251     0.6793601373
    7      H      -3.9067558103     1.5573380235     0.8909809613
    8      H      -4.1961848677     2.0876347640    -0.8268417809
    9      H      -2.6512143934    -0.3023702405     0.0738753851
 ----------------------------------------------------------------
 Nuclear Repulsion Energy =          79.79768195 hartrees
 There are       13 alpha and       13 beta electrons
 Requested basis set is 6-311+G(2df,2pd)
 There are 60 shells and 186 basis functions

 Total QAlloc Memory Limit   2000 MB
 Mega-Array Size       188 MB
 MEM_STATIC part       192 MB

                       Distance Matrix (Angstroms)
             C (  1)   C (  2)   H (  3)   H (  4)   H (  5)   O (  6)
   C (  2)  1.411318
   H (  3)  1.082373  2.146917
   H (  4)  1.081788  2.147089  1.837860
   H (  5)  1.420009  1.691436  2.071146  2.071717
   O (  6)  2.413244  1.854751  3.106078  3.063655  1.245369
   H (  7)  2.175780  1.080916  3.104905  2.580302  1.984696  1.640433
   H (  8)  2.173895  1.082853  2.544339  2.934746  2.668769  2.688693
   H (  9)  3.015183  2.414532  3.454485  3.831275  1.861750  0.963640
             H (  7)   H (  8)
   H (  8)  1.820961
   H (  9)  2.388003  2.985021
 
 A cutoff of  1.0D-09 yielded   1774 shell pairs
 There are     17213 function pairs (     21389 Cartesian)
 Smallest overlap matrix eigenvalue = 1.21E-04

 Scale SEOQF with 1.000000e-02/1.000000e-01/1.000000e-01

 Standard Electronic Orientation quadrupole field applied
 Nucleus-field energy     =     0.0000000026 hartrees
 Requested basis set is 6-31G(d)
 There are 24 shells and 54 basis functions
 A cutoff of  1.0D-09 yielded    297 shell pairs
 There are      1548 function pairs (      1731 Cartesian)
 Smallest overlap matrix eigenvalue = 6.85E-03
 Guess from superposition of atomic densities
 Warning:  Energy on first SCF cycle will be non-variational
 SAD guess density has 26.000000 electrons
 Long-range K will be added via erf
 Coulomb attenuation parameter = 0.2 bohr**(-1)
 A restricted hybrid HF-DFT SCF calculation will be
 performed using Relaxed Constraint Minimization + Pulay DIIS
 Exchange:     0.2220 Hartree-Fock + 1.0000 wB97X-D + LR-HF
 Correlation:  1.0000 wB97X-D
 Using Euler-Maclaurin-Lebedev (75,302) quadrature formula
 Dispersion:   Grimme D
 SCF converges when DIIS error is below 1.0E-04
 using 6 threads for integral computing
 -------------------------------------------------------
 OpenMP Integral computing Module                
 Release: version 1.0, May 2013, Q-Chem Inc. Pittsburgh 
 -------------------------------------------------------
 using 6 threads for integral computing
 -------------------------------------------------------
 OpenMP Integral computing Module                
 Release: version 1.0, May 2013, Q-Chem Inc. Pittsburgh 
 -------------------------------------------------------
 ---------------------------------------
  Cycle       Energy         DIIS Error
 ---------------------------------------
    1    -155.3131274925      1.01E-01
    2    -154.7344499399      1.55E-02
    3    -154.7668037555      3.51E-03
    4    -154.8069286105      2.63E-03
    5    -154.8080405344      6.15E-04 Done RCA. Switching to DIIS
    6    -154.8094773775      4.06E-04
    7    -154.8095383598      4.90E-05 Convergence criterion met
 ---------------------------------------
 SCF time:  CPU 15.95 s  wall 2.67 s
 SCF   energy in the small basis set = -154.80953836
 Total energy in the small basis set = -154.80953836
 ----------------------------------------------------
  Cycle       Energy    
 ----------------------------------------------------
    1     -18.6836805588     -1.87E+01
 Long-range K will be added via erf
 Coulomb attenuation parameter = 0.2 bohr**(-1)
 A restricted hybrid HF-DFT SCF calculation will be
 performed using Relaxed Constraint Minimization + Pulay DIIS
 Exchange:     0.2220 Hartree-Fock + 1.0000 wB97X-D + LR-HF
 Correlation:  1.0000 wB97X-D
 Using Euler-Maclaurin-Lebedev (75,302) quadrature formula
 Dispersion:   Grimme D
 SCF converges when DIIS error is below 1.0E-05
 Basis2 calculation detected. Using small basis as guess for larger.
 SCFMinFind is unable to tell whether the solution found is close.
 Resetting ReadMinima to 0 and attempting to follow guess.
 SCFMinFind following SCF Guess.
 using 6 threads for integral computing
 -------------------------------------------------------
 OpenMP Integral computing Module                
 Release: version 1.0, May 2013, Q-Chem Inc. Pittsburgh 
 -------------------------------------------------------
 using 6 threads for integral computing
 -------------------------------------------------------
 OpenMP Integral computing Module                
 Release: version 1.0, May 2013, Q-Chem Inc. Pittsburgh 
 -------------------------------------------------------
 ---------------------------------------
  Cycle       Energy         DIIS Error
 ---------------------------------------
    1    -154.8326392684      6.04E-03
    2    -154.8216663966      4.78E-03
    3    -154.8459472005      1.22E-03
    4    -154.8799433756      1.14E-03
    5    -154.8822809016      1.12E-04 Done RCA. Switching to DIIS
    6    -154.8857379496      9.78E-05
    7    -154.8857798757      1.65E-05
    8    -154.8857825162      2.51E-06 Convergence criterion met
 ---------------------------------------
 SCF time:  CPU 54.12 s  wall 9.05 s
 SCF   energy in the final basis set = -154.88578252
 Total energy in the final basis set = -154.88578252
 
 --------------------------------------------------------------
 
                    Orbital Energies (a.u.)
 --------------------------------------------------------------
 
 Alpha MOs
 -- Occupied --
-19.2481 -10.3440 -10.2537  -1.1003  -0.8724  -0.6985  -0.6314  -0.5494
 -0.5070  -0.4763  -0.4550  -0.3819  -0.3036
 -- Virtual --
  0.0255   0.0690   0.0894   0.1027   0.1069   0.1330   0.1394   0.1443
  0.1826   0.1913   0.2210   0.2300   0.2570   0.2689   0.2823   0.2849
  0.3139   0.3380   0.3650   0.3917   0.4638   0.4816   0.4944   0.5540
  0.5575   0.5705   0.5954   0.6020   0.6126   0.6284   0.6551   0.6866
  0.6980   0.7248   0.7872   0.8067   0.8628   0.8852   0.9208   0.9664
  0.9873   1.0123   1.0538   1.0804   1.1040   1.1331   1.1545   1.1833
  1.2279   1.2350   1.2825   1.3032   1.3783   1.3880   1.4017   1.4249
  1.4524   1.4622   1.4874   1.5085   1.5415   1.5676   1.5967   1.6289
  1.6742   1.7949   1.9260   1.9884   2.0524   2.2714   2.3017   2.4608
  2.5150   2.5798   2.5853   2.6422   2.6954   2.7511   2.8142   2.8407
  2.8790   2.9153   2.9496   2.9877   3.0340   3.0413   3.0666   3.0926
  3.1299   3.1490   3.1625   3.2125   3.2238   3.2543   3.3110   3.3403
  3.3566   3.3984   3.4102   3.4277   3.4638   3.4935   3.5330   3.5560
  3.5861   3.5945   3.6405   3.6812   3.7388   3.7441   3.7781   3.8277
  3.8463   3.8642   3.8888   3.8908   3.9171   3.9657   4.0095   4.0976
  4.1201   4.1304   4.1804   4.2199   4.2294   4.2464   4.2748   4.3292
  4.3672   4.4171   4.4279   4.4764   4.5088   4.5484   4.6410   4.7249
  4.7376   4.8437   4.9195   4.9653   5.0244   5.0679   5.1113   5.1218
  5.1421   5.1615   5.2011   5.2906   5.3575   5.4568   5.5236   5.5813
  5.6192   5.6744   5.7787   5.8104   6.0460   6.1014   6.2034   6.3490
  6.4461   6.6591   6.7282   6.9003   7.2049   7.2741   7.4046   7.7046
  7.8186   8.1860  24.9865  25.3064  50.4348
 --------------------------------------------------------------
 
 -----------------------------------------------------------------
                    Cartesian Multipole Moments
 -----------------------------------------------------------------
    Charge (ESU x 10^10)
                 0.0000
    Dipole Moment (Debye)
         X       0.6385      Y       0.6575      Z      -1.4131
       Tot       1.6843
    Quadrupole Moments (Debye-Ang)
        XX     -25.7753     XY      -2.9399     YY     -19.2071
        XZ       3.8765     YZ       0.0746     ZZ     -21.4600
    Octopole Moments (Debye-Ang^2)
       XXX     310.8254    XXY      -2.4477    XYY      88.3090
       YYY     -35.5042    XXZ     -11.5967    XYZ      -0.8547
       YYZ      -4.4634    XZZ      93.1672    YZZ     -11.6865
       ZZZ     -10.9801
    Hexadecapole Moments (Debye-Ang^3)
      XXXX   -2827.9388   XXXY     155.5709   XXYY    -452.3002
      XYYY     170.6138   YYYY    -114.2808   XXXZ      23.9717
      XXYZ       9.5819   XYYZ      13.6266   YYYZ      -2.5392
      XXZZ    -439.2645   XYZZ      55.9058   YYZZ     -26.8333
      XZZZ      29.5521   YZZZ       3.2532   ZZZZ     -53.4577
 -----------------------------------------------------------------
Archival summary:
1\1\centos77-c1\SP\ProcedureUnspecified\BasisUnspecified\126\shihchen\WedJul2900:04:482020WedJul2900:04:482020\0\\#,ProcedureUnspecified,BasisUnspecified,\\0,1\C\H,1,1.08092\H,1,1.08285,2,114.612\C,1,1.41132,2,121.053,3,-158.707,0\H,4,1.08179,1,118.306,2,44.1218,0\H,4,1.08237,1,118.247,2,-166.594,0\H,4,1.42001,1,73.3671,2,-61.2796,0\O,7,1.24537,4,129.64,1,4.34102,0\H,8,0.96364,7,114.27,4,-109.293,0\\\@

 Total job time:  14.04s(wall), 74.17s(cpu) 
 Wed Jul 29 00:04:48 2020

        *************************************************************
        *                                                           *
        *  Thank you very much for using Q-Chem.  Have a nice day.  *
        *                                                           *
        *************************************************************


