                  Welcome to Q-Chem
     A Quantum Leap Into The Future Of Chemistry


 Q-Chem 5.3 (devel), Q-Chem, Inc., Pleasanton, CA (2020)

 Yihan Shao,  Zhengting Gan,  E. Epifanovsky,  A. T. B. Gilbert,  M. Wormit,  
 J. Kussmann,  A. W. Lange,  A. Behn,  Jia Deng,  Xintian Feng,  D. Ghosh,  
 M. Goldey,  P. R. Horn,  L. D. Jacobson,  I. Kaliman,  T. Kus,  A. Landau,  
 Jie Liu,  E. I. Proynov,  R. M. Richard,  R. P. Steele,  E. J. Sundstrom,  
 H. L. Woodcock III,  P. M. Zimmerman,  D. Zuev,  B. Alam,  B. Albrecht,  
 E. Alguire,  S. A. Baeppler,  D. Barton,  Z. Benda,  Y. A. Bernard,  
 E. J. Berquist,  K. B. Bravaya,  H. Burton,  K. Carter-Fenk,  D. Casanova,  
 Chun-Min Chang,  Yunqing Chen,  A. Chien,  K. D. Closser,  M. P. Coons,  
 S. Coriani,  S. Dasgupta,  A. L. Dempwolff,  M. Diedenhofen,  Hainam Do,  
 R. G. Edgar,  Po-Tung Fang,  S. Faraji,  S. Fatehi,  Qingguo Feng,  
 J. Fosso-Tande,  J. Gayvert,  Qinghui Ge,  A. Ghysels,  G. Gidofalvi,  
 J. Gomes,  J. Gonthier,  A. Gunina,  D. Hait,  M. W. D. Hanson-Heine,  
 P. H. P. Harbach,  A. W. Hauser,  M. F. Herbst,  J. E. Herr,  
 E. G. Hohenstein,  Z. C. Holden,  Kerwin Hui,  B. C. Huynh,  T.-C. Jagau,  
 Hyunjun Ji,  B. Kaduk,  K. Khistyaev,  Jaehoon Kim,  P. Klunzinger,  K. Koh,  
 D. Kosenkov,  L. Koulias,  T. Kowalczyk,  C. M. Krauter,  A. Kunitsa,  
 Ka Un Lao,  A. Laurent,  K. V. Lawler,  Joonho Lee,  D. Lefrancois,  
 S. Lehtola,  D. S. Levine,  Yi-Pei Li,  You-Sheng Lin,  Fenglai Liu,  
 Kuan-Yu Liu,  E. Livshits,  M. Loipersberger,  A. Luenser,  P. Manohar,  
 E. Mansoor,  S. F. Manzer,  Shan-Ping Mao,  Yuezhi Mao,  N. Mardirossian,  
 A. V. Marenich,  T. Markovich,  L. A. Martinez-Martinez,  S. A. Maurer,  
 N. J. Mayhall,  S. C. McKenzie,  J.-M. Mewes,  P. Morgante,  A. F. Morrison,  
 J. W. Mullinax,  K. Nanda,  T. S. Nguyen-Beck,  R. Olivares-Amaya,  
 K. J. Oosterbaan,  J. A. Parkhill,  S. K. Paul,  F. Pavosevic,  Zheng Pei,  
 T. M. Perrine,  F. Plasser,  P. Pokhilko,  S. Prager,  A. Prociuk,  
 E. Ramos,  B. Rana,  D. R. Rehn,  F. Rob,  M. Scheurer,  M. Schneider,  
 N. Sergueev,  S. M. Sharada,  S. Sharma,  D. W. Small,  T. Stauch,  
 C. J. Stein,  T. Stein,  Yu-Chuan Su,  S. P. Veccham,  Zhen Tao,  
 A. J. W. Thom,  A. Tkatchenko,  T. Tsuchimochi,  N. M. Tubman,  L. Vogt,  
 M. L. Vidal,  O. Vydrov,  M. A. Watson,  J. Wenzel,  M. de Wergifosse,  
 T. A. Wesolowski,  A. White,  J. Witte,  A. Yamada,  Jun Yang,  K. Yao,  
 S. Yeganeh,  S. R. Yost,  Zhi-Qiang You,  A. Zech,  Igor Ying Zhang,  
 Xing Zhang,  Yan Zhao,  Ying Zhu,  B. R. Brooks,  G. K. L. Chan,  
 C. J. Cramer,  M. S. Gordon,  W. J. Hehre,  A. Klamt,  M. W. Schmidt,  
 C. D. Sherrill,  D. G. Truhlar,  A. Aspuru-Guzik,  R. Baer,  A. T. Bell,  
 N. A. Besley,  Jeng-Da Chai,  A. E. DePrince, III,  R. A. DiStasio Jr.,  
 A. Dreuw,  B. D. Dunietz,  T. R. Furlani,  Chao-Ping Hsu,  Yousung Jung,  
 Jing Kong,  D. S. Lambrecht,  WanZhen Liang,  C. Ochsenfeld,  
 V. A. Rassolov,  L. V. Slipchenko,  J. E. Subotnik,  T. Van Voorhis,  
 J. M. Herbert,  A. I. Krylov,  P. M. W. Gill,  M. Head-Gordon

 Contributors to earlier versions of Q-Chem not listed above: 
 R. D. Adamson,  B. Austin,  J. Baker,  G. J. O. Beran,  K. Brandhorst,  
 S. T. Brown,  E. F. C. Byrd,  A. K. Chakraborty,  C.-L. Cheng,  
 Siu Hung Chien,  D. M. Chipman,  D. L. Crittenden,  H. Dachsel,  
 R. J. Doerksen,  A. D. Dutoi,  L. Fusti-Molnar,  W. A. Goddard III,  
 A. Golubeva-Zadorozhnaya,  S. R. Gwaltney,  G. Hawkins,  A. Heyden,  
 S. Hirata,  G. Kedziora,  F. J. Keil,  C. Kelley,  Jihan Kim,  R. A. King,  
 R. Z. Khaliullin,  P. P. Korambath,  W. Kurlancheek,  A. M. Lee,  M. S. Lee,  
 S. V. Levchenko,  Ching Yeh Lin,  D. Liotard,  R. C. Lochan,  I. Lotan,  
 P. E. Maslen,  N. Nair,  D. P. O'Neill,  D. Neuhauser,  E. Neuscamman,  
 C. M. Oana,  R. Olson,  B. Peters,  R. Peverati,  P. A. Pieniazek,  
 Y. M. Rhee,  J. Ritchie,  M. A. Rohrdanz,  E. Rosta,  N. J. Russ,  
 H. F. Schaefer III,  N. E. Schultz,  N. Shenvi,  A. C. Simmonett,  A. Sodt,  
 D. Stuck,  K. S. Thanthiriwatte,  V. Vanovschi,  Tao Wang,  A. Warshel,  
 C. F. Williams,  Q. Wu,  X. Xu,  W. Zhang

 Please cite Q-Chem as follows:
 Y. Shao et al., Mol. Phys. 113, 184-215 (2015)
 DOI: 10.1080/00268976.2014.952696

 Q-Chem 5.3.0 for Intel X86 EM64T Linux

 Parts of Q-Chem use Armadillo 9.800.1 (Horizon Scraper).
 http://arma.sourceforge.net/

 Q-Chem begins on Wed Jul 29 00:20:11 2020  

Host: centos77-c1
0

     Scratch files written to /tmp/30084.centos77-h1/qchem26949//
Processing $rem in /opt/qchem-5.3.0-intel2020u1//config/preferences:
Processing $rem in /home/shihchengli/.qchemrc:

Checking the input file for inconsistencies... 	...done.

--------------------------------------------------------------
User input:
--------------------------------------------------------------
$rem
   JOBTYPE  sp
   EXCHANGE   omegaB97X-D
   BASIS   6-311+G(2df,2pd)
   UNRESTRICTED   False
   max_scf_cycles   250
   geom_opt_max_cycles   1500
   basis2 6-31G*
   scf_algorithm rca_diis
   SYM_IGNORE  TRUE
   print_input   true
   geom_opt_dmax   80
   pop_mulliken false
   XC_GRID 000075000302
$end

$molecule
0 1
C       -5.5459290992     0.5526111455     -0.0870406829
C       -4.4080829000     1.3784885881     -0.2097278923
H       -5.9907575409     0.1558837066     -0.9905155387
H       -6.2195006114     0.7270831734     0.7412864997
H       -4.4311172412     -0.2287213402     0.3168662227
O       -3.2360022637     0.0978837324     0.4432486743
H       -4.1757571641     2.1224757298     0.5391955100
H       -3.9546523004     1.5553966035     -1.1770307833
H       -2.7189332764     -0.4979640820     0.9966081538
$end
--------------------------------------------------------------
 ----------------------------------------------------------------
             Standard Nuclear Orientation (Angstroms)
    I     Atom           X                Y                Z
 ----------------------------------------------------------------
    1      C      -5.5459290992     0.5526111455    -0.0870406829
    2      C      -4.4080829000     1.3784885881    -0.2097278923
    3      H      -5.9907575409     0.1558837066    -0.9905155387
    4      H      -6.2195006114     0.7270831734     0.7412864997
    5      H      -4.4311172412    -0.2287213402     0.3168662227
    6      O      -3.2360022637     0.0978837324     0.4432486743
    7      H      -4.1757571641     2.1224757298     0.5391955100
    8      H      -3.9546523004     1.5553966035    -1.1770307833
    9      H      -2.7189332764    -0.4979640820     0.9966081538
 ----------------------------------------------------------------
 Nuclear Repulsion Energy =          79.05300576 hartrees
 There are       13 alpha and       13 beta electrons
 Requested basis set is 6-311+G(2df,2pd)
 There are 60 shells and 186 basis functions

 Total QAlloc Memory Limit   2000 MB
 Mega-Array Size       188 MB
 MEM_STATIC part       192 MB

                       Distance Matrix (Angstroms)
             C (  1)   C (  2)   H (  3)   H (  4)   H (  5)   O (  6)
   C (  2)  1.411318
   H (  3)  1.082373  2.146917
   H (  4)  1.081788  2.147089  1.837860
   H (  5)  1.420009  1.691436  2.071146  2.071717
   O (  6)  2.413244  1.854751  3.106078  3.063655  1.245369
   H (  7)  2.175780  1.080916  3.082487  2.482911  2.375451  2.234126
   H (  8)  2.173895  1.082853  2.477731  3.081490  2.375252  2.294800
   H (  9)  3.204670  2.798133  3.883428  3.717513  1.861750  0.963640
             H (  7)   H (  8)
   H (  8)  1.820961
   H (  9)  3.032864  3.235429
 
 A cutoff of  1.0D-09 yielded   1763 shell pairs
 There are     17137 function pairs (     21295 Cartesian)
 Smallest overlap matrix eigenvalue = 9.07E-05

 Scale SEOQF with 1.000000e-02/1.000000e-01/1.000000e-01

 Standard Electronic Orientation quadrupole field applied
 Nucleus-field energy     =     0.0000000027 hartrees
 Requested basis set is 6-31G(d)
 There are 24 shells and 54 basis functions
 A cutoff of  1.0D-09 yielded    296 shell pairs
 There are      1547 function pairs (      1730 Cartesian)
 Smallest overlap matrix eigenvalue = 6.61E-03
 Guess from superposition of atomic densities
 Warning:  Energy on first SCF cycle will be non-variational
 SAD guess density has 26.000000 electrons
 Long-range K will be added via erf
 Coulomb attenuation parameter = 0.2 bohr**(-1)
 A restricted hybrid HF-DFT SCF calculation will be
 performed using Relaxed Constraint Minimization + Pulay DIIS
 Exchange:     0.2220 Hartree-Fock + 1.0000 wB97X-D + LR-HF
 Correlation:  1.0000 wB97X-D
 Using Euler-Maclaurin-Lebedev (75,302) quadrature formula
 Dispersion:   Grimme D
 SCF converges when DIIS error is below 1.0E-04
 using 6 threads for integral computing
 -------------------------------------------------------
 OpenMP Integral computing Module                
 Release: version 1.0, May 2013, Q-Chem Inc. Pittsburgh 
 -------------------------------------------------------
 using 6 threads for integral computing
 -------------------------------------------------------
 OpenMP Integral computing Module                
 Release: version 1.0, May 2013, Q-Chem Inc. Pittsburgh 
 -------------------------------------------------------
 ---------------------------------------
  Cycle       Energy         DIIS Error
 ---------------------------------------
    1    -155.2484180106      9.87E-02
    2    -154.7580922887      1.66E-02
    3    -154.7952001838      2.98E-03
    4    -154.8401685024      1.78E-03
    5    -154.8407810783      3.95E-04 Done RCA. Switching to DIIS
    6    -154.8413958503      3.76E-04
    7    -154.8414395790      4.26E-05 Convergence criterion met
 ---------------------------------------
 SCF time:  CPU 16.48 s  wall 2.77 s
 SCF   energy in the small basis set = -154.84143958
 Total energy in the small basis set = -154.84143958
 ----------------------------------------------------
  Cycle       Energy    
 ----------------------------------------------------
    1     -18.6805765223     -1.87E+01
 Long-range K will be added via erf
 Coulomb attenuation parameter = 0.2 bohr**(-1)
 A restricted hybrid HF-DFT SCF calculation will be
 performed using Relaxed Constraint Minimization + Pulay DIIS
 Exchange:     0.2220 Hartree-Fock + 1.0000 wB97X-D + LR-HF
 Correlation:  1.0000 wB97X-D
 Using Euler-Maclaurin-Lebedev (75,302) quadrature formula
 Dispersion:   Grimme D
 SCF converges when DIIS error is below 1.0E-05
 Basis2 calculation detected. Using small basis as guess for larger.
 SCFMinFind is unable to tell whether the solution found is close.
 Resetting ReadMinima to 0 and attempting to follow guess.
 SCFMinFind following SCF Guess.
 using 6 threads for integral computing
 -------------------------------------------------------
 OpenMP Integral computing Module                
 Release: version 1.0, May 2013, Q-Chem Inc. Pittsburgh 
 -------------------------------------------------------
 using 6 threads for integral computing
 -------------------------------------------------------
 OpenMP Integral computing Module                
 Release: version 1.0, May 2013, Q-Chem Inc. Pittsburgh 
 -------------------------------------------------------
 ---------------------------------------
  Cycle       Energy         DIIS Error
 ---------------------------------------
    1    -154.8640243905      6.14E-03
    2    -154.8598935707      4.74E-03
    3    -154.8844735959      9.93E-04 Done RCA. Switching to DIIS
    4    -154.9181159381      1.02E-03
    5    -154.9211288554      8.97E-05
    6    -154.9211693793      2.06E-05
    7    -154.9211733709      1.04E-05
    8    -154.9211740942      3.02E-06 Convergence criterion met
 ---------------------------------------
 SCF time:  CPU 55.48 s  wall 9.28 s
 SCF   energy in the final basis set = -154.92117409
 Total energy in the final basis set = -154.92117409
 
 --------------------------------------------------------------
 
                    Orbital Energies (a.u.)
 --------------------------------------------------------------
 
 Alpha MOs
 -- Occupied --
-19.2160 -10.3554 -10.2630  -1.0657  -0.8780  -0.7005  -0.6049  -0.5706
 -0.5110  -0.4538  -0.4377  -0.3759  -0.3168
 -- Virtual --
  0.0357   0.0756   0.0900   0.1003   0.1120   0.1300   0.1400   0.1508
  0.1662   0.1870   0.2197   0.2482   0.2648   0.2737   0.2862   0.3210
  0.3253   0.3516   0.3637   0.4003   0.4592   0.4619   0.4854   0.5388
  0.5517   0.5719   0.5905   0.6104   0.6211   0.6344   0.6502   0.6821
  0.6890   0.7670   0.8145   0.8396   0.8623   0.8905   0.9198   0.9666
  0.9957   1.0254   1.0579   1.0655   1.1100   1.1764   1.2076   1.2290
  1.2532   1.2710   1.2866   1.3041   1.3250   1.3739   1.3958   1.4064
  1.4393   1.4516   1.4801   1.4863   1.5236   1.5705   1.5916   1.6450
  1.7144   1.8043   1.8362   2.0058   2.0284   2.2196   2.3455   2.4369
  2.4808   2.5648   2.6279   2.6470   2.6823   2.7361   2.7881   2.8140
  2.8774   2.9404   2.9573   2.9735   2.9963   3.0362   3.0594   3.0750
  3.0950   3.1440   3.1772   3.1875   3.2221   3.2685   3.3024   3.3419
  3.3607   3.3817   3.4101   3.4273   3.4645   3.5057   3.5476   3.5554
  3.5624   3.5830   3.6313   3.6644   3.7027   3.7539   3.7742   3.8324
  3.8499   3.8620   3.8972   3.9039   3.9130   3.9859   4.0386   4.0538
  4.0907   4.1355   4.1669   4.2033   4.2226   4.2841   4.2945   4.3032
  4.3415   4.3833   4.4205   4.5070   4.5357   4.5814   4.6301   4.7137
  4.7717   4.8162   4.8653   4.9710   4.9979   5.0041   5.0967   5.1147
  5.1719   5.2105   5.2461   5.2699   5.2850   5.3709   5.4345   5.4830
  5.5875   5.6243   5.7592   5.8503   5.9919   6.1957   6.2270   6.2715
  6.4598   6.6694   6.7686   6.8690   7.0756   7.2251   7.3125   7.6565
  7.8652   8.1438  24.9547  25.3048  50.4998
 --------------------------------------------------------------
 
 -----------------------------------------------------------------
                    Cartesian Multipole Moments
 -----------------------------------------------------------------
    Charge (ESU x 10^10)
                -0.0000
    Dipole Moment (Debye)
         X      -0.2863      Y       0.4660      Z       0.2145
       Tot       0.5875
    Quadrupole Moments (Debye-Ang)
        XX     -18.9806     XY      -2.4113     YY     -18.1834
        XZ      -0.1809     YZ      -1.0145     ZZ     -18.8107
    Octopole Moments (Debye-Ang^2)
       XXX     269.8783    XXY      -5.2858    XYY      84.3921
       YYY     -36.0357    XXZ      -0.1550    XYZ       0.9885
       YYZ       0.1167    XZZ      84.7158    YZZ     -12.8529
       ZZZ      -4.3180
    Hexadecapole Moments (Debye-Ang^3)
      XXXX   -2594.5716   XXXY     178.0240   XXYY    -438.5988
      XYYY     174.6804   YYYY    -114.8215   XXXZ     -14.3427
      XXYZ      11.4480   XYYZ      -5.6838   YYYZ       8.1817
      XXZZ    -408.7570   XYZZ      59.2971   YYZZ     -25.0558
      XZZZ       7.0170   YZZZ       3.8721   ZZZZ     -44.3826
 -----------------------------------------------------------------
Archival summary:
1\1\centos77-c1\SP\ProcedureUnspecified\BasisUnspecified\126\shihchen\WedJul2900:20:262020WedJul2900:20:262020\0\\#,ProcedureUnspecified,BasisUnspecified,\\0,1\C\H,1,1.08092\H,1,1.08285,2,114.612\C,1,1.41132,2,121.053,3,-158.707,0\H,4,1.08179,1,118.306,2,4.12185,0\H,4,1.08237,1,118.247,2,153.406,0\H,4,1.42001,1,73.3671,2,-101.28,0\O,7,1.24537,4,129.64,1,4.34102,0\H,8,0.96364,7,114.27,4,160.707,0\\\@

 Total job time:  14.48s(wall), 76.22s(cpu) 
 Wed Jul 29 00:20:26 2020

        *************************************************************
        *                                                           *
        *  Thank you very much for using Q-Chem.  Have a nice day.  *
        *                                                           *
        *************************************************************


