                  Welcome to Q-Chem
     A Quantum Leap Into The Future Of Chemistry


 Q-Chem 5.3 (devel), Q-Chem, Inc., Pleasanton, CA (2020)

 Yihan Shao,  Zhengting Gan,  E. Epifanovsky,  A. T. B. Gilbert,  M. Wormit,  
 J. Kussmann,  A. W. Lange,  A. Behn,  Jia Deng,  Xintian Feng,  D. Ghosh,  
 M. Goldey,  P. R. Horn,  L. D. Jacobson,  I. Kaliman,  T. Kus,  A. Landau,  
 Jie Liu,  E. I. Proynov,  R. M. Richard,  R. P. Steele,  E. J. Sundstrom,  
 H. L. Woodcock III,  P. M. Zimmerman,  D. Zuev,  B. Alam,  B. Albrecht,  
 E. Alguire,  S. A. Baeppler,  D. Barton,  Z. Benda,  Y. A. Bernard,  
 E. J. Berquist,  K. B. Bravaya,  H. Burton,  K. Carter-Fenk,  D. Casanova,  
 Chun-Min Chang,  Yunqing Chen,  A. Chien,  K. D. Closser,  M. P. Coons,  
 S. Coriani,  S. Dasgupta,  A. L. Dempwolff,  M. Diedenhofen,  Hainam Do,  
 R. G. Edgar,  Po-Tung Fang,  S. Faraji,  S. Fatehi,  Qingguo Feng,  
 J. Fosso-Tande,  J. Gayvert,  Qinghui Ge,  A. Ghysels,  G. Gidofalvi,  
 J. Gomes,  J. Gonthier,  A. Gunina,  D. Hait,  M. W. D. Hanson-Heine,  
 P. H. P. Harbach,  A. W. Hauser,  M. F. Herbst,  J. E. Herr,  
 E. G. Hohenstein,  Z. C. Holden,  Kerwin Hui,  B. C. Huynh,  T.-C. Jagau,  
 Hyunjun Ji,  B. Kaduk,  K. Khistyaev,  Jaehoon Kim,  P. Klunzinger,  K. Koh,  
 D. Kosenkov,  L. Koulias,  T. Kowalczyk,  C. M. Krauter,  A. Kunitsa,  
 Ka Un Lao,  A. Laurent,  K. V. Lawler,  Joonho Lee,  D. Lefrancois,  
 S. Lehtola,  D. S. Levine,  Yi-Pei Li,  You-Sheng Lin,  Fenglai Liu,  
 Kuan-Yu Liu,  E. Livshits,  M. Loipersberger,  A. Luenser,  P. Manohar,  
 E. Mansoor,  S. F. Manzer,  Shan-Ping Mao,  Yuezhi Mao,  N. Mardirossian,  
 A. V. Marenich,  T. Markovich,  L. A. Martinez-Martinez,  S. A. Maurer,  
 N. J. Mayhall,  S. C. McKenzie,  J.-M. Mewes,  P. Morgante,  A. F. Morrison,  
 J. W. Mullinax,  K. Nanda,  T. S. Nguyen-Beck,  R. Olivares-Amaya,  
 K. J. Oosterbaan,  J. A. Parkhill,  S. K. Paul,  F. Pavosevic,  Zheng Pei,  
 T. M. Perrine,  F. Plasser,  P. Pokhilko,  S. Prager,  A. Prociuk,  
 E. Ramos,  B. Rana,  D. R. Rehn,  F. Rob,  M. Scheurer,  M. Schneider,  
 N. Sergueev,  S. M. Sharada,  S. Sharma,  D. W. Small,  T. Stauch,  
 C. J. Stein,  T. Stein,  Yu-Chuan Su,  S. P. Veccham,  Zhen Tao,  
 A. J. W. Thom,  A. Tkatchenko,  T. Tsuchimochi,  N. M. Tubman,  L. Vogt,  
 M. L. Vidal,  O. Vydrov,  M. A. Watson,  J. Wenzel,  M. de Wergifosse,  
 T. A. Wesolowski,  A. White,  J. Witte,  A. Yamada,  Jun Yang,  K. Yao,  
 S. Yeganeh,  S. R. Yost,  Zhi-Qiang You,  A. Zech,  Igor Ying Zhang,  
 Xing Zhang,  Yan Zhao,  Ying Zhu,  B. R. Brooks,  G. K. L. Chan,  
 C. J. Cramer,  M. S. Gordon,  W. J. Hehre,  A. Klamt,  M. W. Schmidt,  
 C. D. Sherrill,  D. G. Truhlar,  A. Aspuru-Guzik,  R. Baer,  A. T. Bell,  
 N. A. Besley,  Jeng-Da Chai,  A. E. DePrince, III,  R. A. DiStasio Jr.,  
 A. Dreuw,  B. D. Dunietz,  T. R. Furlani,  Chao-Ping Hsu,  Yousung Jung,  
 Jing Kong,  D. S. Lambrecht,  WanZhen Liang,  C. Ochsenfeld,  
 V. A. Rassolov,  L. V. Slipchenko,  J. E. Subotnik,  T. Van Voorhis,  
 J. M. Herbert,  A. I. Krylov,  P. M. W. Gill,  M. Head-Gordon

 Contributors to earlier versions of Q-Chem not listed above: 
 R. D. Adamson,  B. Austin,  J. Baker,  G. J. O. Beran,  K. Brandhorst,  
 S. T. Brown,  E. F. C. Byrd,  A. K. Chakraborty,  C.-L. Cheng,  
 Siu Hung Chien,  D. M. Chipman,  D. L. Crittenden,  H. Dachsel,  
 R. J. Doerksen,  A. D. Dutoi,  L. Fusti-Molnar,  W. A. Goddard III,  
 A. Golubeva-Zadorozhnaya,  S. R. Gwaltney,  G. Hawkins,  A. Heyden,  
 S. Hirata,  G. Kedziora,  F. J. Keil,  C. Kelley,  Jihan Kim,  R. A. King,  
 R. Z. Khaliullin,  P. P. Korambath,  W. Kurlancheek,  A. M. Lee,  M. S. Lee,  
 S. V. Levchenko,  Ching Yeh Lin,  D. Liotard,  R. C. Lochan,  I. Lotan,  
 P. E. Maslen,  N. Nair,  D. P. O'Neill,  D. Neuhauser,  E. Neuscamman,  
 C. M. Oana,  R. Olson,  B. Peters,  R. Peverati,  P. A. Pieniazek,  
 Y. M. Rhee,  J. Ritchie,  M. A. Rohrdanz,  E. Rosta,  N. J. Russ,  
 H. F. Schaefer III,  N. E. Schultz,  N. Shenvi,  A. C. Simmonett,  A. Sodt,  
 D. Stuck,  K. S. Thanthiriwatte,  V. Vanovschi,  Tao Wang,  A. Warshel,  
 C. F. Williams,  Q. Wu,  X. Xu,  W. Zhang

 Please cite Q-Chem as follows:
 Y. Shao et al., Mol. Phys. 113, 184-215 (2015)
 DOI: 10.1080/00268976.2014.952696

 Q-Chem 5.3.0 for Intel X86 EM64T Linux

 Parts of Q-Chem use Armadillo 9.800.1 (Horizon Scraper).
 http://arma.sourceforge.net/

 Q-Chem begins on Wed Jul 29 00:19:16 2020  

Host: centos77-c1
0

     Scratch files written to /tmp/30084.centos77-h1/qchem26765//
Processing $rem in /opt/qchem-5.3.0-intel2020u1//config/preferences:
Processing $rem in /home/shihchengli/.qchemrc:

Checking the input file for inconsistencies... 	...done.

--------------------------------------------------------------
User input:
--------------------------------------------------------------
$rem
   JOBTYPE  sp
   EXCHANGE   omegaB97X-D
   BASIS   6-311+G(2df,2pd)
   UNRESTRICTED   False
   max_scf_cycles   250
   geom_opt_max_cycles   1500
   basis2 6-31G*
   scf_algorithm rca_diis
   SYM_IGNORE  TRUE
   print_input   true
   geom_opt_dmax   80
   pop_mulliken false
   XC_GRID 000075000302
$end

$molecule
0 1
C       -5.5400734378     0.5458513541     -0.0843127777
C       -4.3810248023     1.3419045689     -0.2056602717
H       -6.0404593255     0.2281857383     -0.9899806740
H       -6.1674783699     0.6826296714     0.7862730797
H       -4.4355657607     -0.2969403953     0.2092712454
O       -3.2251317053     -0.0180618846     0.2988222403
H       -4.0878755643     2.0234269716     0.5804498453
H       -3.9676058521     1.5722329610     -1.1796234336
H       -2.8355175796     -0.2160917284     1.1576509095
$end
--------------------------------------------------------------
 ----------------------------------------------------------------
             Standard Nuclear Orientation (Angstroms)
    I     Atom           X                Y                Z
 ----------------------------------------------------------------
    1      C      -5.5400734378     0.5458513541    -0.0843127777
    2      C      -4.3810248023     1.3419045689    -0.2056602717
    3      H      -6.0404593255     0.2281857383    -0.9899806740
    4      H      -6.1674783699     0.6826296714     0.7862730797
    5      H      -4.4355657607    -0.2969403953     0.2092712454
    6      O      -3.2251317053    -0.0180618846     0.2988222403
    7      H      -4.0878755643     2.0234269716     0.5804498453
    8      H      -3.9676058521     1.5722329610    -1.1796234336
    9      H      -2.8355175796    -0.2160917284     1.1576509095
 ----------------------------------------------------------------
 Nuclear Repulsion Energy =          79.23105313 hartrees
 There are       13 alpha and       13 beta electrons
 Requested basis set is 6-311+G(2df,2pd)
 There are 60 shells and 186 basis functions

 Total QAlloc Memory Limit   2000 MB
 Mega-Array Size       188 MB
 MEM_STATIC part       192 MB

                       Distance Matrix (Angstroms)
             C (  1)   C (  2)   H (  3)   H (  4)   H (  5)   O (  6)
   C (  2)  1.411318
   H (  3)  1.082373  2.146917
   H (  4)  1.081788  2.147089  1.837860
   H (  5)  1.420009  1.691436  2.071146  2.071717
   O (  6)  2.413244  1.854751  3.106078  3.063655  1.245369
   H (  7)  2.175780  1.080916  3.082487  2.482911  2.375451  2.234126
   H (  8)  2.173895  1.082853  2.477731  3.081490  2.375252  2.294800
   H (  9)  3.072076  2.583517  3.883472  3.470963  1.861750  0.963640
             H (  7)   H (  8)
   H (  8)  1.820961
   H (  9)  2.630020  3.153186
 
 A cutoff of  1.0D-09 yielded   1772 shell pairs
 There are     17216 function pairs (     21392 Cartesian)
 Smallest overlap matrix eigenvalue = 9.02E-05

 Scale SEOQF with 1.000000e-02/1.000000e-01/1.000000e-01

 Standard Electronic Orientation quadrupole field applied
 Nucleus-field energy     =     0.0000000026 hartrees
 Requested basis set is 6-31G(d)
 There are 24 shells and 54 basis functions
 A cutoff of  1.0D-09 yielded    297 shell pairs
 There are      1548 function pairs (      1731 Cartesian)
 Smallest overlap matrix eigenvalue = 6.71E-03
 Guess from superposition of atomic densities
 Warning:  Energy on first SCF cycle will be non-variational
 SAD guess density has 26.000000 electrons
 Long-range K will be added via erf
 Coulomb attenuation parameter = 0.2 bohr**(-1)
 A restricted hybrid HF-DFT SCF calculation will be
 performed using Relaxed Constraint Minimization + Pulay DIIS
 Exchange:     0.2220 Hartree-Fock + 1.0000 wB97X-D + LR-HF
 Correlation:  1.0000 wB97X-D
 Using Euler-Maclaurin-Lebedev (75,302) quadrature formula
 Dispersion:   Grimme D
 SCF converges when DIIS error is below 1.0E-04
 using 6 threads for integral computing
 -------------------------------------------------------
 OpenMP Integral computing Module                
 Release: version 1.0, May 2013, Q-Chem Inc. Pittsburgh 
 -------------------------------------------------------
 using 6 threads for integral computing
 -------------------------------------------------------
 OpenMP Integral computing Module                
 Release: version 1.0, May 2013, Q-Chem Inc. Pittsburgh 
 -------------------------------------------------------
 ---------------------------------------
  Cycle       Energy         DIIS Error
 ---------------------------------------
    1    -155.2527014232      9.90E-02
    2    -154.7795798124      1.59E-02
    3    -154.8140418200      3.20E-03
    4    -154.8551900591      2.22E-03
    5    -154.8560087229      4.62E-04 Done RCA. Switching to DIIS
    6    -154.8569830432      3.17E-04
    7    -154.8570157892      3.88E-05 Convergence criterion met
 ---------------------------------------
 SCF time:  CPU 16.31 s  wall 2.74 s
 SCF   energy in the small basis set = -154.85701579
 Total energy in the small basis set = -154.85701579
 ----------------------------------------------------
  Cycle       Energy    
 ----------------------------------------------------
    1     -18.6747725725     -1.87E+01
 Long-range K will be added via erf
 Coulomb attenuation parameter = 0.2 bohr**(-1)
 A restricted hybrid HF-DFT SCF calculation will be
 performed using Relaxed Constraint Minimization + Pulay DIIS
 Exchange:     0.2220 Hartree-Fock + 1.0000 wB97X-D + LR-HF
 Correlation:  1.0000 wB97X-D
 Using Euler-Maclaurin-Lebedev (75,302) quadrature formula
 Dispersion:   Grimme D
 SCF converges when DIIS error is below 1.0E-05
 Basis2 calculation detected. Using small basis as guess for larger.
 SCFMinFind is unable to tell whether the solution found is close.
 Resetting ReadMinima to 0 and attempting to follow guess.
 SCFMinFind following SCF Guess.
 using 6 threads for integral computing
 -------------------------------------------------------
 OpenMP Integral computing Module                
 Release: version 1.0, May 2013, Q-Chem Inc. Pittsburgh 
 -------------------------------------------------------
 using 6 threads for integral computing
 -------------------------------------------------------
 OpenMP Integral computing Module                
 Release: version 1.0, May 2013, Q-Chem Inc. Pittsburgh 
 -------------------------------------------------------
 ---------------------------------------
  Cycle       Energy         DIIS Error
 ---------------------------------------
    1    -154.8819749192      6.01E-03
    2    -154.8785093548      4.46E-03
    3    -154.9002393855      9.89E-04 Done RCA. Switching to DIIS
    4    -154.9301232571      1.06E-03
    5    -154.9333822902      7.67E-05
    6    -154.9334121295      1.65E-05
    7    -154.9334144622      5.38E-06 Convergence criterion met
 ---------------------------------------
 SCF time:  CPU 50.26 s  wall 8.40 s
 SCF   energy in the final basis set = -154.93341446
 Total energy in the final basis set = -154.93341446
 
 --------------------------------------------------------------
 
                    Orbital Energies (a.u.)
 --------------------------------------------------------------
 
 Alpha MOs
 -- Occupied --
-19.2343 -10.3541 -10.2566  -1.0811  -0.8756  -0.6979  -0.6090  -0.5694
 -0.5090  -0.4529  -0.4419  -0.4118  -0.3072
 -- Virtual --
  0.0489   0.0720   0.0898   0.0969   0.1135   0.1285   0.1392   0.1508
  0.1734   0.1859   0.2168   0.2438   0.2544   0.2779   0.2884   0.2951
  0.3235   0.3324   0.3591   0.3913   0.4612   0.4644   0.4891   0.5458
  0.5651   0.5746   0.5842   0.6075   0.6143   0.6434   0.6716   0.6836
  0.7089   0.7404   0.7943   0.8439   0.8549   0.8885   0.9205   0.9297
  0.9844   1.0077   1.0677   1.0863   1.1206   1.1677   1.1973   1.2049
  1.2374   1.2702   1.2784   1.2980   1.3180   1.3565   1.4009   1.4281
  1.4422   1.4592   1.4819   1.4895   1.5227   1.5780   1.5892   1.6539
  1.7170   1.7821   1.9124   1.9782   2.0398   2.2758   2.3103   2.4247
  2.4730   2.5658   2.6244   2.6590   2.6865   2.7603   2.7810   2.8241
  2.8611   2.8848   2.9461   3.0053   3.0079   3.0139   3.0633   3.0777
  3.1000   3.1396   3.1653   3.2065   3.2298   3.2789   3.3068   3.3340
  3.3642   3.3989   3.4090   3.4428   3.4708   3.4976   3.5193   3.5599
  3.5768   3.5874   3.6461   3.6660   3.6994   3.7396   3.7616   3.8315
  3.8434   3.8543   3.8967   3.9151   3.9512   3.9740   4.0225   4.0684
  4.1065   4.1302   4.2031   4.2202   4.2243   4.2646   4.2849   4.3126
  4.3509   4.3565   4.4315   4.4346   4.4963   4.5951   4.6083   4.7123
  4.7565   4.7952   4.8511   4.9709   4.9899   5.0139   5.0869   5.1104
  5.1150   5.2106   5.2372   5.2871   5.3094   5.3922   5.4500   5.4701
  5.5902   5.6229   5.7830   5.8043   6.0238   6.1977   6.2375   6.2795
  6.4645   6.6613   6.7436   6.8690   7.1360   7.1952   7.3827   7.7295
  7.7778   8.1345  24.9578  25.3102  50.4473
 --------------------------------------------------------------
 
 -----------------------------------------------------------------
                    Cartesian Multipole Moments
 -----------------------------------------------------------------
    Charge (ESU x 10^10)
                 0.0000
    Dipole Moment (Debye)
         X      -0.1071      Y       1.0941      Z       0.9116
       Tot       1.4281
    Quadrupole Moments (Debye-Ang)
        XX     -21.4379     XY      -3.7724     YY     -19.2260
        XZ      -2.1468     YZ      -0.5372     ZZ     -17.4002
    Octopole Moments (Debye-Ang^2)
       XXX     290.1411    XXY      -2.3175    XYY      88.1951
       YYY     -34.4134    XXZ       5.2543    XYZ       0.3450
       YYZ       0.0932    XZZ      80.0932    YZZ     -11.2306
       ZZZ       0.0674
    Hexadecapole Moments (Debye-Ang^3)
      XXXX   -2732.2619   XXXY     169.6944   XXYY    -452.5898
      XYYY     168.6505   YYYY    -113.2856   XXXZ     -26.6974
      XXYZ       9.5921   XYYZ      -4.8399   YYYZ       7.7191
      XXZZ    -392.5927   XYZZ      53.3271   YYZZ     -24.0438
      XZZZ      -6.5116   YZZZ       4.5428   ZZZZ     -38.0970
 -----------------------------------------------------------------
Archival summary:
1\1\centos77-c1\SP\ProcedureUnspecified\BasisUnspecified\126\shihchen\WedJul2900:19:302020WedJul2900:19:302020\0\\#,ProcedureUnspecified,BasisUnspecified,\\0,1\C\H,1,1.08092\H,1,1.08285,2,114.612\C,1,1.41132,2,121.053,3,-158.707,0\H,4,1.08179,1,118.306,2,4.12185,0\H,4,1.08237,1,118.247,2,153.406,0\H,4,1.42001,1,73.3671,2,-101.28,0\O,7,1.24537,4,129.64,1,4.34102,0\H,8,0.96364,7,114.27,4,120.707,0\\\@

 Total job time:  13.57s(wall), 70.67s(cpu) 
 Wed Jul 29 00:19:30 2020

        *************************************************************
        *                                                           *
        *  Thank you very much for using Q-Chem.  Have a nice day.  *
        *                                                           *
        *************************************************************


