                  Welcome to Q-Chem
     A Quantum Leap Into The Future Of Chemistry


 Q-Chem 5.3 (devel), Q-Chem, Inc., Pleasanton, CA (2020)

 Yihan Shao,  Zhengting Gan,  E. Epifanovsky,  A. T. B. Gilbert,  M. Wormit,  
 J. Kussmann,  A. W. Lange,  A. Behn,  Jia Deng,  Xintian Feng,  D. Ghosh,  
 M. Goldey,  P. R. Horn,  L. D. Jacobson,  I. Kaliman,  T. Kus,  A. Landau,  
 Jie Liu,  E. I. Proynov,  R. M. Richard,  R. P. Steele,  E. J. Sundstrom,  
 H. L. Woodcock III,  P. M. Zimmerman,  D. Zuev,  B. Alam,  B. Albrecht,  
 E. Alguire,  S. A. Baeppler,  D. Barton,  Z. Benda,  Y. A. Bernard,  
 E. J. Berquist,  K. B. Bravaya,  H. Burton,  K. Carter-Fenk,  D. Casanova,  
 Chun-Min Chang,  Yunqing Chen,  A. Chien,  K. D. Closser,  M. P. Coons,  
 S. Coriani,  S. Dasgupta,  A. L. Dempwolff,  M. Diedenhofen,  Hainam Do,  
 R. G. Edgar,  Po-Tung Fang,  S. Faraji,  S. Fatehi,  Qingguo Feng,  
 J. Fosso-Tande,  J. Gayvert,  Qinghui Ge,  A. Ghysels,  G. Gidofalvi,  
 J. Gomes,  J. Gonthier,  A. Gunina,  D. Hait,  M. W. D. Hanson-Heine,  
 P. H. P. Harbach,  A. W. Hauser,  M. F. Herbst,  J. E. Herr,  
 E. G. Hohenstein,  Z. C. Holden,  Kerwin Hui,  B. C. Huynh,  T.-C. Jagau,  
 Hyunjun Ji,  B. Kaduk,  K. Khistyaev,  Jaehoon Kim,  P. Klunzinger,  K. Koh,  
 D. Kosenkov,  L. Koulias,  T. Kowalczyk,  C. M. Krauter,  A. Kunitsa,  
 Ka Un Lao,  A. Laurent,  K. V. Lawler,  Joonho Lee,  D. Lefrancois,  
 S. Lehtola,  D. S. Levine,  Yi-Pei Li,  You-Sheng Lin,  Fenglai Liu,  
 Kuan-Yu Liu,  E. Livshits,  M. Loipersberger,  A. Luenser,  P. Manohar,  
 E. Mansoor,  S. F. Manzer,  Shan-Ping Mao,  Yuezhi Mao,  N. Mardirossian,  
 A. V. Marenich,  T. Markovich,  L. A. Martinez-Martinez,  S. A. Maurer,  
 N. J. Mayhall,  S. C. McKenzie,  J.-M. Mewes,  P. Morgante,  A. F. Morrison,  
 J. W. Mullinax,  K. Nanda,  T. S. Nguyen-Beck,  R. Olivares-Amaya,  
 K. J. Oosterbaan,  J. A. Parkhill,  S. K. Paul,  F. Pavosevic,  Zheng Pei,  
 T. M. Perrine,  F. Plasser,  P. Pokhilko,  S. Prager,  A. Prociuk,  
 E. Ramos,  B. Rana,  D. R. Rehn,  F. Rob,  M. Scheurer,  M. Schneider,  
 N. Sergueev,  S. M. Sharada,  S. Sharma,  D. W. Small,  T. Stauch,  
 C. J. Stein,  T. Stein,  Yu-Chuan Su,  S. P. Veccham,  Zhen Tao,  
 A. J. W. Thom,  A. Tkatchenko,  T. Tsuchimochi,  N. M. Tubman,  L. Vogt,  
 M. L. Vidal,  O. Vydrov,  M. A. Watson,  J. Wenzel,  M. de Wergifosse,  
 T. A. Wesolowski,  A. White,  J. Witte,  A. Yamada,  Jun Yang,  K. Yao,  
 S. Yeganeh,  S. R. Yost,  Zhi-Qiang You,  A. Zech,  Igor Ying Zhang,  
 Xing Zhang,  Yan Zhao,  Ying Zhu,  B. R. Brooks,  G. K. L. Chan,  
 C. J. Cramer,  M. S. Gordon,  W. J. Hehre,  A. Klamt,  M. W. Schmidt,  
 C. D. Sherrill,  D. G. Truhlar,  A. Aspuru-Guzik,  R. Baer,  A. T. Bell,  
 N. A. Besley,  Jeng-Da Chai,  A. E. DePrince, III,  R. A. DiStasio Jr.,  
 A. Dreuw,  B. D. Dunietz,  T. R. Furlani,  Chao-Ping Hsu,  Yousung Jung,  
 Jing Kong,  D. S. Lambrecht,  WanZhen Liang,  C. Ochsenfeld,  
 V. A. Rassolov,  L. V. Slipchenko,  J. E. Subotnik,  T. Van Voorhis,  
 J. M. Herbert,  A. I. Krylov,  P. M. W. Gill,  M. Head-Gordon

 Contributors to earlier versions of Q-Chem not listed above: 
 R. D. Adamson,  B. Austin,  J. Baker,  G. J. O. Beran,  K. Brandhorst,  
 S. T. Brown,  E. F. C. Byrd,  A. K. Chakraborty,  C.-L. Cheng,  
 Siu Hung Chien,  D. M. Chipman,  D. L. Crittenden,  H. Dachsel,  
 R. J. Doerksen,  A. D. Dutoi,  L. Fusti-Molnar,  W. A. Goddard III,  
 A. Golubeva-Zadorozhnaya,  S. R. Gwaltney,  G. Hawkins,  A. Heyden,  
 S. Hirata,  G. Kedziora,  F. J. Keil,  C. Kelley,  Jihan Kim,  R. A. King,  
 R. Z. Khaliullin,  P. P. Korambath,  W. Kurlancheek,  A. M. Lee,  M. S. Lee,  
 S. V. Levchenko,  Ching Yeh Lin,  D. Liotard,  R. C. Lochan,  I. Lotan,  
 P. E. Maslen,  N. Nair,  D. P. O'Neill,  D. Neuhauser,  E. Neuscamman,  
 C. M. Oana,  R. Olson,  B. Peters,  R. Peverati,  P. A. Pieniazek,  
 Y. M. Rhee,  J. Ritchie,  M. A. Rohrdanz,  E. Rosta,  N. J. Russ,  
 H. F. Schaefer III,  N. E. Schultz,  N. Shenvi,  A. C. Simmonett,  A. Sodt,  
 D. Stuck,  K. S. Thanthiriwatte,  V. Vanovschi,  Tao Wang,  A. Warshel,  
 C. F. Williams,  Q. Wu,  X. Xu,  W. Zhang

 Please cite Q-Chem as follows:
 Y. Shao et al., Mol. Phys. 113, 184-215 (2015)
 DOI: 10.1080/00268976.2014.952696

 Q-Chem 5.3.0 for Intel X86 EM64T Linux

 Parts of Q-Chem use Armadillo 9.800.1 (Horizon Scraper).
 http://arma.sourceforge.net/

 Q-Chem begins on Wed Jul 29 00:04:03 2020  

Host: centos77-c1
0

     Scratch files written to /tmp/30084.centos77-h1/qchem24330//
Processing $rem in /opt/qchem-5.3.0-intel2020u1//config/preferences:
Processing $rem in /home/shihchengli/.qchemrc:

Checking the input file for inconsistencies... 	...done.

--------------------------------------------------------------
User input:
--------------------------------------------------------------
$rem
   JOBTYPE  sp
   EXCHANGE   omegaB97X-D
   BASIS   6-311+G(2df,2pd)
   UNRESTRICTED   False
   max_scf_cycles   250
   geom_opt_max_cycles   1500
   basis2 6-31G*
   scf_algorithm rca_diis
   SYM_IGNORE  TRUE
   print_input   true
   geom_opt_dmax   80
   pop_mulliken false
   XC_GRID 000075000302
$end

$molecule
0 1
C       -5.5427053053     0.5373090963     -0.0949341549
C       -4.4028856245     1.3633231404     0.0067101717
H       -5.8813822355     0.2509178221     -1.0822587182
H       -6.3057324399     0.6199569362     0.6674462740
H       -4.4757920981     -0.2937361539     0.3380632132
O       -3.3041721836     0.0071659353     0.6342184355
H       -4.0871067359     1.7629172362     0.9601180746
H       -4.0355706809     1.9075802125     -0.8543558008
H       -2.6453850936     -0.2922969680     -0.0021173318
$end
--------------------------------------------------------------
 ----------------------------------------------------------------
             Standard Nuclear Orientation (Angstroms)
    I     Atom           X                Y                Z
 ----------------------------------------------------------------
    1      C      -5.5427053053     0.5373090963    -0.0949341549
    2      C      -4.4028856245     1.3633231404     0.0067101717
    3      H      -5.8813822355     0.2509178221    -1.0822587182
    4      H      -6.3057324399     0.6199569362     0.6674462740
    5      H      -4.4757920981    -0.2937361539     0.3380632132
    6      O      -3.3041721836     0.0071659353     0.6342184355
    7      H      -4.0871067359     1.7629172362     0.9601180746
    8      H      -4.0355706809     1.9075802125    -0.8543558008
    9      H      -2.6453850936    -0.2922969680    -0.0021173318
 ----------------------------------------------------------------
 Nuclear Repulsion Energy =          79.47323772 hartrees
 There are       13 alpha and       13 beta electrons
 Requested basis set is 6-311+G(2df,2pd)
 There are 60 shells and 186 basis functions

 Total QAlloc Memory Limit   2000 MB
 Mega-Array Size       188 MB
 MEM_STATIC part       192 MB

                       Distance Matrix (Angstroms)
             C (  1)   C (  2)   H (  3)   H (  4)   H (  5)   O (  6)
   C (  2)  1.411318
   H (  3)  1.082373  2.146917
   H (  4)  1.081788  2.147089  1.837860
   H (  5)  1.420009  1.691436  2.071146  2.071717
   O (  6)  2.413244  1.854751  3.106078  3.063655  1.245369
   H (  7)  2.175780  1.080916  3.110767  2.512830  2.183541  1.949836
   H (  8)  2.173895  1.082853  2.490681  3.021174  2.541939  2.522374
   H (  9)  3.015183  2.414532  3.454485  3.831275  1.861750  0.963640
             H (  7)   H (  8)
   H (  8)  1.820961
   H (  9)  2.688562  2.738318
 
 A cutoff of  1.0D-09 yielded   1774 shell pairs
 There are     17242 function pairs (     21421 Cartesian)
 Smallest overlap matrix eigenvalue = 1.04E-04

 Scale SEOQF with 1.000000e-02/1.000000e-01/1.000000e-01

 Standard Electronic Orientation quadrupole field applied
 Nucleus-field energy     =     0.0000000026 hartrees
 Requested basis set is 6-31G(d)
 There are 24 shells and 54 basis functions
 A cutoff of  1.0D-09 yielded    297 shell pairs
 There are      1548 function pairs (      1731 Cartesian)
 Smallest overlap matrix eigenvalue = 6.70E-03
 Guess from superposition of atomic densities
 Warning:  Energy on first SCF cycle will be non-variational
 SAD guess density has 26.000000 electrons
 Long-range K will be added via erf
 Coulomb attenuation parameter = 0.2 bohr**(-1)
 A restricted hybrid HF-DFT SCF calculation will be
 performed using Relaxed Constraint Minimization + Pulay DIIS
 Exchange:     0.2220 Hartree-Fock + 1.0000 wB97X-D + LR-HF
 Correlation:  1.0000 wB97X-D
 Using Euler-Maclaurin-Lebedev (75,302) quadrature formula
 Dispersion:   Grimme D
 SCF converges when DIIS error is below 1.0E-04
 using 6 threads for integral computing
 -------------------------------------------------------
 OpenMP Integral computing Module                
 Release: version 1.0, May 2013, Q-Chem Inc. Pittsburgh 
 -------------------------------------------------------
 using 6 threads for integral computing
 -------------------------------------------------------
 OpenMP Integral computing Module                
 Release: version 1.0, May 2013, Q-Chem Inc. Pittsburgh 
 -------------------------------------------------------
 ---------------------------------------
  Cycle       Energy         DIIS Error
 ---------------------------------------
    1    -155.2696589260      9.96E-02
    2    -154.7733353648      1.56E-02
    3    -154.8067708210      3.35E-03
    4    -154.8473100672      2.45E-03
    5    -154.8482743800      5.35E-04 Done RCA. Switching to DIIS
    6    -154.8494732575      3.54E-04
    7    -154.8495167464      4.31E-05 Convergence criterion met
 ---------------------------------------
 SCF time:  CPU 16.11 s  wall 2.70 s
 SCF   energy in the small basis set = -154.84951675
 Total energy in the small basis set = -154.84951675
 ----------------------------------------------------
  Cycle       Energy    
 ----------------------------------------------------
    1     -18.6752437109     -1.87E+01
 Long-range K will be added via erf
 Coulomb attenuation parameter = 0.2 bohr**(-1)
 A restricted hybrid HF-DFT SCF calculation will be
 performed using Relaxed Constraint Minimization + Pulay DIIS
 Exchange:     0.2220 Hartree-Fock + 1.0000 wB97X-D + LR-HF
 Correlation:  1.0000 wB97X-D
 Using Euler-Maclaurin-Lebedev (75,302) quadrature formula
 Dispersion:   Grimme D
 SCF converges when DIIS error is below 1.0E-05
 Basis2 calculation detected. Using small basis as guess for larger.
 SCFMinFind is unable to tell whether the solution found is close.
 Resetting ReadMinima to 0 and attempting to follow guess.
 SCFMinFind following SCF Guess.
 using 6 threads for integral computing
 -------------------------------------------------------
 OpenMP Integral computing Module                
 Release: version 1.0, May 2013, Q-Chem Inc. Pittsburgh 
 -------------------------------------------------------
 using 6 threads for integral computing
 -------------------------------------------------------
 OpenMP Integral computing Module                
 Release: version 1.0, May 2013, Q-Chem Inc. Pittsburgh 
 -------------------------------------------------------
 ---------------------------------------
  Cycle       Energy         DIIS Error
 ---------------------------------------
    1    -154.8743381804      5.99E-03
    2    -154.8685023447      4.50E-03
    3    -154.8904473223      1.06E-03
    4    -154.9207978707      1.17E-03
    5    -154.9225378520      1.86E-04 Done RCA. Switching to DIIS
    6    -154.9248039762      2.25E-04
    7    -154.9249529915      8.33E-06 Convergence criterion met
 ---------------------------------------
 SCF time:  CPU 56.62 s  wall 9.47 s
 SCF   energy in the final basis set = -154.92495299
 Total energy in the final basis set = -154.92495299
 
 --------------------------------------------------------------
 
                    Orbital Energies (a.u.)
 --------------------------------------------------------------
 
 Alpha MOs
 -- Occupied --
-19.2437 -10.3512 -10.2540  -1.0908  -0.8738  -0.6972  -0.6193  -0.5584
 -0.5069  -0.4578  -0.4523  -0.4127  -0.3043
 -- Virtual --
  0.0457   0.0685   0.0893   0.0993   0.1111   0.1297   0.1390   0.1469
  0.1785   0.1898   0.2179   0.2364   0.2584   0.2705   0.2823   0.2889
  0.3185   0.3365   0.3613   0.3931   0.4622   0.4697   0.4920   0.5527
  0.5659   0.5706   0.5930   0.6037   0.6129   0.6312   0.6456   0.6885
  0.6995   0.7424   0.7909   0.8092   0.8615   0.8952   0.9058   0.9493
  0.9790   1.0224   1.0607   1.0857   1.1119   1.1430   1.1540   1.2054
  1.2231   1.2383   1.2756   1.3053   1.3417   1.3694   1.4149   1.4217
  1.4515   1.4601   1.4804   1.4833   1.5519   1.5774   1.5978   1.6367
  1.6864   1.7716   1.8932   1.9814   2.0372   2.2669   2.3057   2.4512
  2.5036   2.5648   2.6155   2.6542   2.6876   2.7443   2.7888   2.8187
  2.8758   2.9082   2.9533   2.9937   3.0158   3.0396   3.0685   3.1006
  3.1139   3.1377   3.1803   3.2204   3.2352   3.2481   3.2933   3.3410
  3.3482   3.4113   3.4165   3.4306   3.4752   3.4975   3.5124   3.5786
  3.5868   3.6105   3.6206   3.6686   3.7047   3.7558   3.7812   3.8179
  3.8408   3.8675   3.8771   3.9024   3.9201   3.9592   3.9899   4.0456
  4.1285   4.1469   4.1811   4.1964   4.2357   4.2516   4.2835   4.3168
  4.3471   4.3544   4.4312   4.4820   4.4925   4.5498   4.6080   4.6878
  4.7558   4.8351   4.8704   4.9629   5.0041   5.0305   5.0781   5.1052
  5.1292   5.2050   5.2189   5.3146   5.3669   5.4245   5.4573   5.4910
  5.5813   5.6459   5.7862   5.8024   6.0416   6.1619   6.2333   6.3047
  6.4607   6.6329   6.7319   6.8964   7.1743   7.2135   7.4090   7.6297
  7.7655   8.1762  24.9671  25.3108  50.4307
 --------------------------------------------------------------
 
 -----------------------------------------------------------------
                    Cartesian Multipole Moments
 -----------------------------------------------------------------
    Charge (ESU x 10^10)
                 0.0000
    Dipole Moment (Debye)
         X       0.5403      Y       0.8368      Z      -1.4529
       Tot       1.7615
    Quadrupole Moments (Debye-Ang)
        XX     -25.1959     XY      -3.3957     YY     -19.1092
        XZ       3.6492     YZ       0.4669     ZZ     -20.9791
    Octopole Moments (Debye-Ang^2)
       XXX     308.6897    XXY      -1.9652    XYY      88.4220
       YYY     -35.1865    XXZ      -9.8192    XYZ      -2.6761
       YYZ      -3.3714    XZZ      90.9610    YZZ     -10.7072
       ZZZ     -11.3983
    Hexadecapole Moments (Debye-Ang^3)
      XXXX   -2826.1822   XXXY     161.9519   XXYY    -455.8721
      XYYY     171.4470   YYYY    -115.7612   XXXZ      18.5935
      XXYZ      16.7581   XYYZ       8.8938   YYYZ      -0.5637
      XXZZ    -428.5484   XYZZ      52.0813   YYZZ     -25.3105
      XZZZ      33.1891   YZZZ       1.8118   ZZZZ     -50.4440
 -----------------------------------------------------------------
Archival summary:
1\1\centos77-c1\SP\ProcedureUnspecified\BasisUnspecified\126\shihchen\WedJul2900:04:182020WedJul2900:04:182020\0\\#,ProcedureUnspecified,BasisUnspecified,\\0,1\C\H,1,1.08092\H,1,1.08285,2,114.612\C,1,1.41132,2,121.053,3,-158.707,0\H,4,1.08179,1,118.306,2,24.1218,0\H,4,1.08237,1,118.247,2,173.406,0\H,4,1.42001,1,73.3671,2,-81.2796,0\O,7,1.24537,4,129.64,1,4.34102,0\H,8,0.96364,7,114.27,4,-109.293,0\\\@

 Total job time:  14.70s(wall), 77.11s(cpu) 
 Wed Jul 29 00:04:18 2020

        *************************************************************
        *                                                           *
        *  Thank you very much for using Q-Chem.  Have a nice day.  *
        *                                                           *
        *************************************************************


