                  Welcome to Q-Chem
     A Quantum Leap Into The Future Of Chemistry


 Q-Chem 5.3 (devel), Q-Chem, Inc., Pleasanton, CA (2020)

 Yihan Shao,  Zhengting Gan,  E. Epifanovsky,  A. T. B. Gilbert,  M. Wormit,  
 J. Kussmann,  A. W. Lange,  A. Behn,  Jia Deng,  Xintian Feng,  D. Ghosh,  
 M. Goldey,  P. R. Horn,  L. D. Jacobson,  I. Kaliman,  T. Kus,  A. Landau,  
 Jie Liu,  E. I. Proynov,  R. M. Richard,  R. P. Steele,  E. J. Sundstrom,  
 H. L. Woodcock III,  P. M. Zimmerman,  D. Zuev,  B. Alam,  B. Albrecht,  
 E. Alguire,  S. A. Baeppler,  D. Barton,  Z. Benda,  Y. A. Bernard,  
 E. J. Berquist,  K. B. Bravaya,  H. Burton,  K. Carter-Fenk,  D. Casanova,  
 Chun-Min Chang,  Yunqing Chen,  A. Chien,  K. D. Closser,  M. P. Coons,  
 S. Coriani,  S. Dasgupta,  A. L. Dempwolff,  M. Diedenhofen,  Hainam Do,  
 R. G. Edgar,  Po-Tung Fang,  S. Faraji,  S. Fatehi,  Qingguo Feng,  
 J. Fosso-Tande,  J. Gayvert,  Qinghui Ge,  A. Ghysels,  G. Gidofalvi,  
 J. Gomes,  J. Gonthier,  A. Gunina,  D. Hait,  M. W. D. Hanson-Heine,  
 P. H. P. Harbach,  A. W. Hauser,  M. F. Herbst,  J. E. Herr,  
 E. G. Hohenstein,  Z. C. Holden,  Kerwin Hui,  B. C. Huynh,  T.-C. Jagau,  
 Hyunjun Ji,  B. Kaduk,  K. Khistyaev,  Jaehoon Kim,  P. Klunzinger,  K. Koh,  
 D. Kosenkov,  L. Koulias,  T. Kowalczyk,  C. M. Krauter,  A. Kunitsa,  
 Ka Un Lao,  A. Laurent,  K. V. Lawler,  Joonho Lee,  D. Lefrancois,  
 S. Lehtola,  D. S. Levine,  Yi-Pei Li,  You-Sheng Lin,  Fenglai Liu,  
 Kuan-Yu Liu,  E. Livshits,  M. Loipersberger,  A. Luenser,  P. Manohar,  
 E. Mansoor,  S. F. Manzer,  Shan-Ping Mao,  Yuezhi Mao,  N. Mardirossian,  
 A. V. Marenich,  T. Markovich,  L. A. Martinez-Martinez,  S. A. Maurer,  
 N. J. Mayhall,  S. C. McKenzie,  J.-M. Mewes,  P. Morgante,  A. F. Morrison,  
 J. W. Mullinax,  K. Nanda,  T. S. Nguyen-Beck,  R. Olivares-Amaya,  
 K. J. Oosterbaan,  J. A. Parkhill,  S. K. Paul,  F. Pavosevic,  Zheng Pei,  
 T. M. Perrine,  F. Plasser,  P. Pokhilko,  S. Prager,  A. Prociuk,  
 E. Ramos,  B. Rana,  D. R. Rehn,  F. Rob,  M. Scheurer,  M. Schneider,  
 N. Sergueev,  S. M. Sharada,  S. Sharma,  D. W. Small,  T. Stauch,  
 C. J. Stein,  T. Stein,  Yu-Chuan Su,  S. P. Veccham,  Zhen Tao,  
 A. J. W. Thom,  A. Tkatchenko,  T. Tsuchimochi,  N. M. Tubman,  L. Vogt,  
 M. L. Vidal,  O. Vydrov,  M. A. Watson,  J. Wenzel,  M. de Wergifosse,  
 T. A. Wesolowski,  A. White,  J. Witte,  A. Yamada,  Jun Yang,  K. Yao,  
 S. Yeganeh,  S. R. Yost,  Zhi-Qiang You,  A. Zech,  Igor Ying Zhang,  
 Xing Zhang,  Yan Zhao,  Ying Zhu,  B. R. Brooks,  G. K. L. Chan,  
 C. J. Cramer,  M. S. Gordon,  W. J. Hehre,  A. Klamt,  M. W. Schmidt,  
 C. D. Sherrill,  D. G. Truhlar,  A. Aspuru-Guzik,  R. Baer,  A. T. Bell,  
 N. A. Besley,  Jeng-Da Chai,  A. E. DePrince, III,  R. A. DiStasio Jr.,  
 A. Dreuw,  B. D. Dunietz,  T. R. Furlani,  Chao-Ping Hsu,  Yousung Jung,  
 Jing Kong,  D. S. Lambrecht,  WanZhen Liang,  C. Ochsenfeld,  
 V. A. Rassolov,  L. V. Slipchenko,  J. E. Subotnik,  T. Van Voorhis,  
 J. M. Herbert,  A. I. Krylov,  P. M. W. Gill,  M. Head-Gordon

 Contributors to earlier versions of Q-Chem not listed above: 
 R. D. Adamson,  B. Austin,  J. Baker,  G. J. O. Beran,  K. Brandhorst,  
 S. T. Brown,  E. F. C. Byrd,  A. K. Chakraborty,  C.-L. Cheng,  
 Siu Hung Chien,  D. M. Chipman,  D. L. Crittenden,  H. Dachsel,  
 R. J. Doerksen,  A. D. Dutoi,  L. Fusti-Molnar,  W. A. Goddard III,  
 A. Golubeva-Zadorozhnaya,  S. R. Gwaltney,  G. Hawkins,  A. Heyden,  
 S. Hirata,  G. Kedziora,  F. J. Keil,  C. Kelley,  Jihan Kim,  R. A. King,  
 R. Z. Khaliullin,  P. P. Korambath,  W. Kurlancheek,  A. M. Lee,  M. S. Lee,  
 S. V. Levchenko,  Ching Yeh Lin,  D. Liotard,  R. C. Lochan,  I. Lotan,  
 P. E. Maslen,  N. Nair,  D. P. O'Neill,  D. Neuhauser,  E. Neuscamman,  
 C. M. Oana,  R. Olson,  B. Peters,  R. Peverati,  P. A. Pieniazek,  
 Y. M. Rhee,  J. Ritchie,  M. A. Rohrdanz,  E. Rosta,  N. J. Russ,  
 H. F. Schaefer III,  N. E. Schultz,  N. Shenvi,  A. C. Simmonett,  A. Sodt,  
 D. Stuck,  K. S. Thanthiriwatte,  V. Vanovschi,  Tao Wang,  A. Warshel,  
 C. F. Williams,  Q. Wu,  X. Xu,  W. Zhang

 Please cite Q-Chem as follows:
 Y. Shao et al., Mol. Phys. 113, 184-215 (2015)
 DOI: 10.1080/00268976.2014.952696

 Q-Chem 5.3.0 for Intel X86 EM64T Linux

 Parts of Q-Chem use Armadillo 9.800.1 (Horizon Scraper).
 http://arma.sourceforge.net/

 Q-Chem begins on Wed Jul 29 00:11:10 2020  

Host: centos77-c1
0

     Scratch files written to /tmp/30084.centos77-h1/qchem25434//
Processing $rem in /opt/qchem-5.3.0-intel2020u1//config/preferences:
Processing $rem in /home/shihchengli/.qchemrc:

Checking the input file for inconsistencies... 	...done.

--------------------------------------------------------------
User input:
--------------------------------------------------------------
$rem
   JOBTYPE  sp
   EXCHANGE   omegaB97X-D
   BASIS   6-311+G(2df,2pd)
   UNRESTRICTED   False
   max_scf_cycles   250
   geom_opt_max_cycles   1500
   basis2 6-31G*
   scf_algorithm rca_diis
   SYM_IGNORE  TRUE
   print_input   true
   geom_opt_dmax   80
   pop_mulliken false
   XC_GRID 000075000302
$end

$molecule
0 1
C       -5.5156738370     0.4642921339     -0.2533981658
C       -4.3396934442     1.2348477427     -0.3764178553
H       -5.6430087956     -0.3848118720     -0.9124429397
H       -6.4216519896     0.9590744416     0.0701123392
H       -4.6927696766     0.1297461440     0.8544531075
O       -3.5970131366     0.6078559357     1.2032680141
H       -4.1958227487     1.9027837273     -1.2139983711
H       -3.4269908549     0.9348684809     0.1231390118
H       -2.8481079142     0.0144805230     1.0781750226
$end
--------------------------------------------------------------
 ----------------------------------------------------------------
             Standard Nuclear Orientation (Angstroms)
    I     Atom           X                Y                Z
 ----------------------------------------------------------------
    1      C      -5.5156738370     0.4642921339    -0.2533981658
    2      C      -4.3396934442     1.2348477427    -0.3764178553
    3      H      -5.6430087956    -0.3848118720    -0.9124429397
    4      H      -6.4216519896     0.9590744416     0.0701123392
    5      H      -4.6927696766     0.1297461440     0.8544531075
    6      O      -3.5970131366     0.6078559357     1.2032680141
    7      H      -4.1958227487     1.9027837273    -1.2139983711
    8      H      -3.4269908549     0.9348684809     0.1231390118
    9      H      -2.8481079142     0.0144805230     1.0781750226
 ----------------------------------------------------------------
 Nuclear Repulsion Energy =          81.02352197 hartrees
 There are       13 alpha and       13 beta electrons
 Requested basis set is 6-311+G(2df,2pd)
 There are 60 shells and 186 basis functions

 Total QAlloc Memory Limit   2000 MB
 Mega-Array Size       188 MB
 MEM_STATIC part       192 MB

                       Distance Matrix (Angstroms)
             C (  1)   C (  2)   H (  3)   H (  4)   H (  5)   O (  6)
   C (  2)  1.411318
   H (  3)  1.082373  2.146917
   H (  4)  1.081788  2.147089  1.837860
   H (  5)  1.420009  1.691436  2.071146  2.071717
   O (  6)  2.413244  1.854751  3.106078  3.063655  1.245369
   H (  7)  2.175780  1.080916  2.723670  2.737489  2.769316  2.806882
   H (  8)  2.173895  1.082853  2.779338  2.995228  1.668903  1.141281
   H (  9)  3.015183  2.414532  3.454485  3.831275  1.861750  0.963640
             H (  7)   H (  8)
   H (  8)  1.820961
   H (  9)  3.261301  1.447174
 
 A cutoff of  1.0D-09 yielded   1769 shell pairs
 There are     17177 function pairs (     21345 Cartesian)
 Smallest overlap matrix eigenvalue = 1.33E-04

 Scale SEOQF with 1.000000e-02/1.000000e-01/1.000000e-01

 Standard Electronic Orientation quadrupole field applied
 Nucleus-field energy     =     0.0000000014 hartrees
 Requested basis set is 6-31G(d)
 There are 24 shells and 54 basis functions
 A cutoff of  1.0D-09 yielded    297 shell pairs
 There are      1548 function pairs (      1731 Cartesian)
 Smallest overlap matrix eigenvalue = 7.34E-03
 Guess from superposition of atomic densities
 Warning:  Energy on first SCF cycle will be non-variational
 SAD guess density has 26.000000 electrons
 Long-range K will be added via erf
 Coulomb attenuation parameter = 0.2 bohr**(-1)
 A restricted hybrid HF-DFT SCF calculation will be
 performed using Relaxed Constraint Minimization + Pulay DIIS
 Exchange:     0.2220 Hartree-Fock + 1.0000 wB97X-D + LR-HF
 Correlation:  1.0000 wB97X-D
 Using Euler-Maclaurin-Lebedev (75,302) quadrature formula
 Dispersion:   Grimme D
 SCF converges when DIIS error is below 1.0E-04
 using 6 threads for integral computing
 -------------------------------------------------------
 OpenMP Integral computing Module                
 Release: version 1.0, May 2013, Q-Chem Inc. Pittsburgh 
 -------------------------------------------------------
 using 6 threads for integral computing
 -------------------------------------------------------
 OpenMP Integral computing Module                
 Release: version 1.0, May 2013, Q-Chem Inc. Pittsburgh 
 -------------------------------------------------------
 ---------------------------------------
  Cycle       Energy         DIIS Error
 ---------------------------------------
    1    -155.5364692000      1.09E-01
    2    -154.5747060725      1.49E-02
    3    -154.6076549912      3.61E-03
    4    -154.6419092158      3.56E-03
    5    -154.6436431461      5.97E-04 Done RCA. Switching to DIIS
    6    -154.6462029998      7.66E-04
    7    -154.6464739018      1.91E-04
    8    -154.6465614433      1.29E-04
    9    -154.6466009257      3.40E-05 Convergence criterion met
 ---------------------------------------
 SCF time:  CPU 18.99 s  wall 3.18 s
 SCF   energy in the small basis set = -154.64660093
 Total energy in the small basis set = -154.64660093
 ----------------------------------------------------
  Cycle       Energy    
 ----------------------------------------------------
    1     -18.7380356050     -1.87E+01
 Long-range K will be added via erf
 Coulomb attenuation parameter = 0.2 bohr**(-1)
 A restricted hybrid HF-DFT SCF calculation will be
 performed using Relaxed Constraint Minimization + Pulay DIIS
 Exchange:     0.2220 Hartree-Fock + 1.0000 wB97X-D + LR-HF
 Correlation:  1.0000 wB97X-D
 Using Euler-Maclaurin-Lebedev (75,302) quadrature formula
 Dispersion:   Grimme D
 SCF converges when DIIS error is below 1.0E-05
 Basis2 calculation detected. Using small basis as guess for larger.
 SCFMinFind is unable to tell whether the solution found is close.
 Resetting ReadMinima to 0 and attempting to follow guess.
 SCFMinFind following SCF Guess.
 using 6 threads for integral computing
 -------------------------------------------------------
 OpenMP Integral computing Module                
 Release: version 1.0, May 2013, Q-Chem Inc. Pittsburgh 
 -------------------------------------------------------
 using 6 threads for integral computing
 -------------------------------------------------------
 OpenMP Integral computing Module                
 Release: version 1.0, May 2013, Q-Chem Inc. Pittsburgh 
 -------------------------------------------------------
 ---------------------------------------
  Cycle       Energy         DIIS Error
 ---------------------------------------
    1    -154.6067529490      6.98E-03
    2    -154.5598055967      7.54E-03
    3    -154.6205110852      2.07E-03
    4    -154.7095653541      1.91E-03
    5    -154.7164119012      2.71E-04 Done RCA. Switching to DIIS
    6    -154.7275583437      2.07E-04
    7    -154.7286301797      1.02E-04
    8    -154.7291993414      7.84E-05
    9    -154.7294360012      3.88E-05
   10    -154.7295165615      8.54E-06 Convergence criterion met
 ---------------------------------------
 SCF time:  CPU 75.17 s  wall 12.57 s
 SCF   energy in the final basis set = -154.72951656
 Total energy in the final basis set = -154.72951656
 
 --------------------------------------------------------------
 
                    Orbital Energies (a.u.)
 --------------------------------------------------------------
 
 Alpha MOs
 -- Occupied --
-19.2706 -10.3100 -10.2592  -1.1654  -0.8666  -0.7082  -0.6449  -0.5728
 -0.5301  -0.5020  -0.4658  -0.3202  -0.2746
 -- Virtual --
 -0.0309   0.0683   0.0891   0.0964   0.1097   0.1341   0.1417   0.1450
  0.1818   0.1860   0.2220   0.2316   0.2544   0.2725   0.2810   0.2993
  0.3054   0.3339   0.3703   0.3883   0.4703   0.4935   0.5172   0.5345
  0.5555   0.5838   0.5968   0.5987   0.6246   0.6557   0.6685   0.6886
  0.6984   0.7221   0.7641   0.8046   0.8387   0.8595   0.8938   0.9785
  0.9846   1.0021   1.0425   1.0514   1.0870   1.1398   1.1675   1.1993
  1.2299   1.2512   1.2759   1.3077   1.3410   1.3962   1.4200   1.4224
  1.4475   1.4687   1.4905   1.5149   1.5750   1.5961   1.6437   1.6584
  1.7577   1.8414   2.0010   2.1108   2.1690   2.2672   2.3872   2.4588
  2.5378   2.5741   2.6137   2.6900   2.7470   2.7696   2.8049   2.8687
  2.8879   2.9166   2.9548   2.9646   2.9967   3.0271   3.0329   3.1071
  3.1305   3.1468   3.1574   3.1996   3.2503   3.2784   3.3154   3.3318
  3.3504   3.3894   3.4206   3.4506   3.4639   3.4802   3.5022   3.5445
  3.5496   3.5966   3.6215   3.6583   3.7382   3.7604   3.8157   3.8211
  3.8670   3.8811   3.9136   3.9404   3.9620   3.9818   4.0069   4.0706
  4.0863   4.1499   4.1912   4.2060   4.2297   4.2495   4.2753   4.3046
  4.3497   4.3711   4.4598   4.4965   4.5785   4.6245   4.6289   4.7372
  4.8130   4.8591   4.8904   4.9514   5.0054   5.0292   5.1051   5.1460
  5.1585   5.2148   5.3098   5.3653   5.4767   5.6053   5.7326   5.7709
  5.8071   5.8277   6.0900   6.1092   6.1585   6.3488   6.3975   6.5346
  6.6951   6.8024   6.8972   7.2477   7.3580   7.3816   7.5973   7.6982
  7.9857   8.2492  25.0379  25.3152  50.4914
 --------------------------------------------------------------
 
 -----------------------------------------------------------------
                    Cartesian Multipole Moments
 -----------------------------------------------------------------
    Charge (ESU x 10^10)
                 0.0000
    Dipole Moment (Debye)
         X       1.2676      Y      -0.7264      Z      -0.7608
       Tot       1.6472
    Quadrupole Moments (Debye-Ang)
        XX     -30.1042     XY       2.6092     YY     -21.3933
        XZ       3.6461     YZ      -1.5445     ZZ     -22.8771
    Octopole Moments (Debye-Ang^2)
       XXX     336.4237    XXY     -25.7041    XYY      96.8381
       YYY     -47.7446    XXZ     -17.9144    XYZ       3.3029
       YYZ      -5.3773    XZZ     101.7455    YZZ     -17.6726
       ZZZ     -16.3623
    Hexadecapole Moments (Debye-Ang^3)
      XXXX   -2970.5466   XXXY     246.9288   XXYY    -479.5314
      XYYY     210.6974   YYYY    -126.0420   XXXZ      69.1469
      XXYZ       1.8139   XYYZ      12.6628   YYYZ      -0.8793
      XXZZ    -490.6319   XYZZ      75.8864   YYZZ     -35.3181
      XZZZ      42.8652   YZZZ      -6.7695   ZZZZ    -106.0018
 -----------------------------------------------------------------
Archival summary:
1\1\centos77-c1\SP\ProcedureUnspecified\BasisUnspecified\126\shihchen\WedJul2900:11:292020WedJul2900:11:292020\0\\#,ProcedureUnspecified,BasisUnspecified,\\0,1\O\H,1,0.96364\H,1,1.14128,2,86.4339\C,3,1.08285,1,112.981,2,149.294,0\H,4,1.08092,3,114.612,1,156.512,0\H,1,1.24537,2,114.27,3,86.877,0\C,4,1.41132,3,120.721,1,-44.7035,0\H,7,1.08179,4,118.306,3,126.706,0\H,7,1.08237,4,118.247,3,-84.0095,0\\\@

 Total job time:  18.41s(wall), 98.24s(cpu) 
 Wed Jul 29 00:11:29 2020

        *************************************************************
        *                                                           *
        *  Thank you very much for using Q-Chem.  Have a nice day.  *
        *                                                           *
        *************************************************************


