                  Welcome to Q-Chem
     A Quantum Leap Into The Future Of Chemistry


 Q-Chem 5.3 (devel), Q-Chem, Inc., Pleasanton, CA (2020)

 Yihan Shao,  Zhengting Gan,  E. Epifanovsky,  A. T. B. Gilbert,  M. Wormit,  
 J. Kussmann,  A. W. Lange,  A. Behn,  Jia Deng,  Xintian Feng,  D. Ghosh,  
 M. Goldey,  P. R. Horn,  L. D. Jacobson,  I. Kaliman,  T. Kus,  A. Landau,  
 Jie Liu,  E. I. Proynov,  R. M. Richard,  R. P. Steele,  E. J. Sundstrom,  
 H. L. Woodcock III,  P. M. Zimmerman,  D. Zuev,  B. Alam,  B. Albrecht,  
 E. Alguire,  S. A. Baeppler,  D. Barton,  Z. Benda,  Y. A. Bernard,  
 E. J. Berquist,  K. B. Bravaya,  H. Burton,  K. Carter-Fenk,  D. Casanova,  
 Chun-Min Chang,  Yunqing Chen,  A. Chien,  K. D. Closser,  M. P. Coons,  
 S. Coriani,  S. Dasgupta,  A. L. Dempwolff,  M. Diedenhofen,  Hainam Do,  
 R. G. Edgar,  Po-Tung Fang,  S. Faraji,  S. Fatehi,  Qingguo Feng,  
 J. Fosso-Tande,  J. Gayvert,  Qinghui Ge,  A. Ghysels,  G. Gidofalvi,  
 J. Gomes,  J. Gonthier,  A. Gunina,  D. Hait,  M. W. D. Hanson-Heine,  
 P. H. P. Harbach,  A. W. Hauser,  M. F. Herbst,  J. E. Herr,  
 E. G. Hohenstein,  Z. C. Holden,  Kerwin Hui,  B. C. Huynh,  T.-C. Jagau,  
 Hyunjun Ji,  B. Kaduk,  K. Khistyaev,  Jaehoon Kim,  P. Klunzinger,  K. Koh,  
 D. Kosenkov,  L. Koulias,  T. Kowalczyk,  C. M. Krauter,  A. Kunitsa,  
 Ka Un Lao,  A. Laurent,  K. V. Lawler,  Joonho Lee,  D. Lefrancois,  
 S. Lehtola,  D. S. Levine,  Yi-Pei Li,  You-Sheng Lin,  Fenglai Liu,  
 Kuan-Yu Liu,  E. Livshits,  M. Loipersberger,  A. Luenser,  P. Manohar,  
 E. Mansoor,  S. F. Manzer,  Shan-Ping Mao,  Yuezhi Mao,  N. Mardirossian,  
 A. V. Marenich,  T. Markovich,  L. A. Martinez-Martinez,  S. A. Maurer,  
 N. J. Mayhall,  S. C. McKenzie,  J.-M. Mewes,  P. Morgante,  A. F. Morrison,  
 J. W. Mullinax,  K. Nanda,  T. S. Nguyen-Beck,  R. Olivares-Amaya,  
 K. J. Oosterbaan,  J. A. Parkhill,  S. K. Paul,  F. Pavosevic,  Zheng Pei,  
 T. M. Perrine,  F. Plasser,  P. Pokhilko,  S. Prager,  A. Prociuk,  
 E. Ramos,  B. Rana,  D. R. Rehn,  F. Rob,  M. Scheurer,  M. Schneider,  
 N. Sergueev,  S. M. Sharada,  S. Sharma,  D. W. Small,  T. Stauch,  
 C. J. Stein,  T. Stein,  Yu-Chuan Su,  S. P. Veccham,  Zhen Tao,  
 A. J. W. Thom,  A. Tkatchenko,  T. Tsuchimochi,  N. M. Tubman,  L. Vogt,  
 M. L. Vidal,  O. Vydrov,  M. A. Watson,  J. Wenzel,  M. de Wergifosse,  
 T. A. Wesolowski,  A. White,  J. Witte,  A. Yamada,  Jun Yang,  K. Yao,  
 S. Yeganeh,  S. R. Yost,  Zhi-Qiang You,  A. Zech,  Igor Ying Zhang,  
 Xing Zhang,  Yan Zhao,  Ying Zhu,  B. R. Brooks,  G. K. L. Chan,  
 C. J. Cramer,  M. S. Gordon,  W. J. Hehre,  A. Klamt,  M. W. Schmidt,  
 C. D. Sherrill,  D. G. Truhlar,  A. Aspuru-Guzik,  R. Baer,  A. T. Bell,  
 N. A. Besley,  Jeng-Da Chai,  A. E. DePrince, III,  R. A. DiStasio Jr.,  
 A. Dreuw,  B. D. Dunietz,  T. R. Furlani,  Chao-Ping Hsu,  Yousung Jung,  
 Jing Kong,  D. S. Lambrecht,  WanZhen Liang,  C. Ochsenfeld,  
 V. A. Rassolov,  L. V. Slipchenko,  J. E. Subotnik,  T. Van Voorhis,  
 J. M. Herbert,  A. I. Krylov,  P. M. W. Gill,  M. Head-Gordon

 Contributors to earlier versions of Q-Chem not listed above: 
 R. D. Adamson,  B. Austin,  J. Baker,  G. J. O. Beran,  K. Brandhorst,  
 S. T. Brown,  E. F. C. Byrd,  A. K. Chakraborty,  C.-L. Cheng,  
 Siu Hung Chien,  D. M. Chipman,  D. L. Crittenden,  H. Dachsel,  
 R. J. Doerksen,  A. D. Dutoi,  L. Fusti-Molnar,  W. A. Goddard III,  
 A. Golubeva-Zadorozhnaya,  S. R. Gwaltney,  G. Hawkins,  A. Heyden,  
 S. Hirata,  G. Kedziora,  F. J. Keil,  C. Kelley,  Jihan Kim,  R. A. King,  
 R. Z. Khaliullin,  P. P. Korambath,  W. Kurlancheek,  A. M. Lee,  M. S. Lee,  
 S. V. Levchenko,  Ching Yeh Lin,  D. Liotard,  R. C. Lochan,  I. Lotan,  
 P. E. Maslen,  N. Nair,  D. P. O'Neill,  D. Neuhauser,  E. Neuscamman,  
 C. M. Oana,  R. Olson,  B. Peters,  R. Peverati,  P. A. Pieniazek,  
 Y. M. Rhee,  J. Ritchie,  M. A. Rohrdanz,  E. Rosta,  N. J. Russ,  
 H. F. Schaefer III,  N. E. Schultz,  N. Shenvi,  A. C. Simmonett,  A. Sodt,  
 D. Stuck,  K. S. Thanthiriwatte,  V. Vanovschi,  Tao Wang,  A. Warshel,  
 C. F. Williams,  Q. Wu,  X. Xu,  W. Zhang

 Please cite Q-Chem as follows:
 Y. Shao et al., Mol. Phys. 113, 184-215 (2015)
 DOI: 10.1080/00268976.2014.952696

 Q-Chem 5.3.0 for Intel X86 EM64T Linux

 Parts of Q-Chem use Armadillo 9.800.1 (Horizon Scraper).
 http://arma.sourceforge.net/

 Q-Chem begins on Wed Jul 29 00:08:05 2020  

Host: centos77-c1
0

     Scratch files written to /tmp/30084.centos77-h1/qchem24958//
Processing $rem in /opt/qchem-5.3.0-intel2020u1//config/preferences:
Processing $rem in /home/shihchengli/.qchemrc:

Checking the input file for inconsistencies... 	...done.

--------------------------------------------------------------
User input:
--------------------------------------------------------------
$rem
   JOBTYPE  sp
   EXCHANGE   omegaB97X-D
   BASIS   6-311+G(2df,2pd)
   UNRESTRICTED   False
   max_scf_cycles   250
   geom_opt_max_cycles   1500
   basis2 6-31G*
   scf_algorithm rca_diis
   SYM_IGNORE  TRUE
   print_input   true
   geom_opt_dmax   80
   pop_mulliken false
   XC_GRID 000075000302
$end

$molecule
0 1
C       -5.5552596432     0.5084389133     -0.2165037390
C       -4.4112150368     1.3297440110     -0.3083707590
H       -5.7714682237     -0.1625084312     -1.0378534387
H       -6.4081568171     0.8769985216     0.3375677527
H       -4.5828349300     -0.0502230136     0.6545380216
O       -3.4504744006     0.3714404106     0.9560389256
H       -3.5020249067     0.9698691051     -0.7690677708
H       -4.2746237310     2.1655361125     0.3664366326
H       -2.7246747083     -0.1461583721     0.5901045383
$end
--------------------------------------------------------------
 ----------------------------------------------------------------
             Standard Nuclear Orientation (Angstroms)
    I     Atom           X                Y                Z
 ----------------------------------------------------------------
    1      C      -5.5552596432     0.5084389133    -0.2165037390
    2      C      -4.4112150368     1.3297440110    -0.3083707590
    3      H      -5.7714682237    -0.1625084312    -1.0378534387
    4      H      -6.4081568171     0.8769985216     0.3375677527
    5      H      -4.5828349300    -0.0502230136     0.6545380216
    6      O      -3.4504744006     0.3714404106     0.9560389256
    7      H      -3.5020249067     0.9698691051    -0.7690677708
    8      H      -4.2746237310     2.1655361125     0.3664366326
    9      H      -2.7246747083    -0.1461583721     0.5901045383
 ----------------------------------------------------------------
 Nuclear Repulsion Energy =          80.10391122 hartrees
 There are       13 alpha and       13 beta electrons
 Requested basis set is 6-311+G(2df,2pd)
 There are 60 shells and 186 basis functions

 Total QAlloc Memory Limit   2000 MB
 Mega-Array Size       188 MB
 MEM_STATIC part       192 MB

                       Distance Matrix (Angstroms)
             C (  1)   C (  2)   H (  3)   H (  4)   H (  5)   O (  6)
   C (  2)  1.411318
   H (  3)  1.082373  2.146917
   H (  4)  1.081788  2.147089  1.837860
   H (  5)  1.420009  1.691436  2.071146  2.071717
   O (  6)  2.413244  1.854751  3.106078  3.063655  1.245369
   H (  7)  2.175780  1.080916  2.550470  3.111088  2.058007  1.826682
   H (  8)  2.173895  1.082853  3.103605  2.492614  2.255568  2.060493
   H (  9)  3.015183  2.414532  3.454485  3.831275  1.861750  0.963640
             H (  7)   H (  8)
   H (  8)  1.820961
   H (  9)  1.922795  2.792186
 
 A cutoff of  1.0D-09 yielded   1776 shell pairs
 There are     17246 function pairs (     21425 Cartesian)
 Smallest overlap matrix eigenvalue = 9.68E-05

 Scale SEOQF with 1.000000e-02/1.000000e-01/1.000000e-01

 Standard Electronic Orientation quadrupole field applied
 Nucleus-field energy     =     0.0000000021 hartrees
 Requested basis set is 6-31G(d)
 There are 24 shells and 54 basis functions
 A cutoff of  1.0D-09 yielded    297 shell pairs
 There are      1548 function pairs (      1731 Cartesian)
 Smallest overlap matrix eigenvalue = 6.27E-03
 Guess from superposition of atomic densities
 Warning:  Energy on first SCF cycle will be non-variational
 SAD guess density has 26.000000 electrons
 Long-range K will be added via erf
 Coulomb attenuation parameter = 0.2 bohr**(-1)
 A restricted hybrid HF-DFT SCF calculation will be
 performed using Relaxed Constraint Minimization + Pulay DIIS
 Exchange:     0.2220 Hartree-Fock + 1.0000 wB97X-D + LR-HF
 Correlation:  1.0000 wB97X-D
 Using Euler-Maclaurin-Lebedev (75,302) quadrature formula
 Dispersion:   Grimme D
 SCF converges when DIIS error is below 1.0E-04
 using 6 threads for integral computing
 -------------------------------------------------------
 OpenMP Integral computing Module                
 Release: version 1.0, May 2013, Q-Chem Inc. Pittsburgh 
 -------------------------------------------------------
 using 6 threads for integral computing
 -------------------------------------------------------
 OpenMP Integral computing Module                
 Release: version 1.0, May 2013, Q-Chem Inc. Pittsburgh 
 -------------------------------------------------------
 ---------------------------------------
  Cycle       Energy         DIIS Error
 ---------------------------------------
    1    -155.3109432310      1.01E-01
    2    -154.7550767439      1.61E-02
    3    -154.7890780581      3.49E-03
    4    -154.8326811111      2.26E-03
    5    -154.8336130773      5.34E-04 Done RCA. Switching to DIIS
    6    -154.8345905897      5.19E-04
    7    -154.8346657395      4.23E-05 Convergence criterion met
 ---------------------------------------
 SCF time:  CPU 14.94 s  wall 2.51 s
 SCF   energy in the small basis set = -154.83466574
 Total energy in the small basis set = -154.83466574
 ----------------------------------------------------
  Cycle       Energy    
 ----------------------------------------------------
    1     -18.6890938838     -1.87E+01
 Long-range K will be added via erf
 Coulomb attenuation parameter = 0.2 bohr**(-1)
 A restricted hybrid HF-DFT SCF calculation will be
 performed using Relaxed Constraint Minimization + Pulay DIIS
 Exchange:     0.2220 Hartree-Fock + 1.0000 wB97X-D + LR-HF
 Correlation:  1.0000 wB97X-D
 Using Euler-Maclaurin-Lebedev (75,302) quadrature formula
 Dispersion:   Grimme D
 SCF converges when DIIS error is below 1.0E-05
 Basis2 calculation detected. Using small basis as guess for larger.
 SCFMinFind is unable to tell whether the solution found is close.
 Resetting ReadMinima to 0 and attempting to follow guess.
 SCFMinFind following SCF Guess.
 using 6 threads for integral computing
 -------------------------------------------------------
 OpenMP Integral computing Module                
 Release: version 1.0, May 2013, Q-Chem Inc. Pittsburgh 
 -------------------------------------------------------
 using 6 threads for integral computing
 -------------------------------------------------------
 OpenMP Integral computing Module                
 Release: version 1.0, May 2013, Q-Chem Inc. Pittsburgh 
 -------------------------------------------------------
 ---------------------------------------
  Cycle       Energy         DIIS Error
 ---------------------------------------
    1    -154.8541826823      6.13E-03
    2    -154.8404964348      5.01E-03
    3    -154.8671719916      1.26E-03
    4    -154.9047778597      1.23E-03
    5    -154.9072799218      1.10E-04 Done RCA. Switching to DIIS
    6    -154.9109142576      8.36E-05
    7    -154.9109453560      1.56E-05
    8    -154.9109482791      3.27E-06 Convergence criterion met
 ---------------------------------------
 SCF time:  CPU 61.49 s  wall 10.28 s
 SCF   energy in the final basis set = -154.91094828
 Total energy in the final basis set = -154.91094828
 
 --------------------------------------------------------------
 
                    Orbital Energies (a.u.)
 --------------------------------------------------------------
 
 Alpha MOs
 -- Occupied --
-19.2326 -10.3475 -10.2628  -1.0904  -0.8756  -0.7018  -0.6033  -0.5752
 -0.5129  -0.4711  -0.4341  -0.4014  -0.3096
 -- Virtual --
  0.0404   0.0681   0.0883   0.0973   0.1128   0.1277   0.1386   0.1486
  0.1792   0.1920   0.2204   0.2295   0.2385   0.2747   0.2794   0.3035
  0.3248   0.3331   0.3571   0.4008   0.4559   0.4631   0.4958   0.5346
  0.5432   0.5850   0.5932   0.6048   0.6216   0.6518   0.6570   0.6838
  0.7044   0.7483   0.7915   0.8087   0.8293   0.8637   0.8962   0.9483
  0.9693   1.0102   1.0504   1.0849   1.1336   1.1424   1.1765   1.1975
  1.2308   1.2520   1.2657   1.3054   1.3224   1.3556   1.4129   1.4446
  1.4468   1.4537   1.4833   1.4990   1.5527   1.5675   1.6150   1.6426
  1.6936   1.7843   1.8962   1.9829   2.0356   2.2541   2.3071   2.4624
  2.5464   2.5783   2.6027   2.6330   2.6924   2.7508   2.8180   2.8573
  2.8801   2.9021   2.9230   2.9725   3.0045   3.0264   3.0474   3.0895
  3.1036   3.1194   3.1618   3.1891   3.2317   3.2533   3.2867   3.3318
  3.3543   3.3846   3.4392   3.4535   3.4777   3.4818   3.5115   3.5440
  3.5915   3.6332   3.6528   3.7007   3.7340   3.7415   3.7725   3.8044
  3.8467   3.8597   3.8902   3.9557   3.9622   3.9751   4.0031   4.0709
  4.0989   4.1421   4.1621   4.1850   4.2150   4.2595   4.2774   4.3251
  4.3769   4.4077   4.4550   4.5096   4.5238   4.5662   4.6569   4.7249
  4.7505   4.8311   4.8639   4.8914   4.9519   5.0270   5.1042   5.1120
  5.1417   5.1553   5.2259   5.2985   5.4189   5.4448   5.4733   5.5662
  5.5984   5.6813   5.7940   5.8372   6.0399   6.0718   6.2393   6.3014
  6.4247   6.6485   6.7364   6.9137   7.2098   7.2666   7.4145   7.6263
  7.7838   8.1902  25.0320  25.3098  50.4590
 --------------------------------------------------------------
 
 -----------------------------------------------------------------
                    Cartesian Multipole Moments
 -----------------------------------------------------------------
    Charge (ESU x 10^10)
                 0.0000
    Dipole Moment (Debye)
         X       0.5949      Y      -0.0235      Z      -1.4181
       Tot       1.5380
    Quadrupole Moments (Debye-Ang)
        XX     -24.4252     XY      -0.7547     YY     -19.3445
        XZ       3.7899     YZ       0.2270     ZZ     -23.6546
    Octopole Moments (Debye-Ang^2)
       XXX     298.3306    XXY      -9.7118    XYY      87.7548
       YYY     -39.3334    XXZ      -9.2635    XYZ      -4.1590
       YYZ      -0.9455    XZZ     103.1745    YZZ     -16.4176
       ZZZ     -12.6295
    Hexadecapole Moments (Debye-Ang^3)
      XXXX   -2741.0319   XXXY     175.9244   XXYY    -442.2050
      XYYY     179.6465   YYYY    -109.0026   XXXZ      -2.5936
      XXYZ      33.1532   XYYZ      -5.1492   YYYZ       6.7190
      XXZZ    -488.1509   XYZZ      73.0942   YYZZ     -32.3463
      XZZZ      28.0796   YZZZ       1.5896   ZZZZ     -79.6538
 -----------------------------------------------------------------
Archival summary:
1\1\centos77-c1\SP\ProcedureUnspecified\BasisUnspecified\126\shihchen\WedJul2900:08:202020WedJul2900:08:202020\0\\#,ProcedureUnspecified,BasisUnspecified,\\0,1\C\H,1,1.08092\H,1,1.08285,2,114.612\C,1,1.41132,2,121.053,3,-158.707,0\H,4,1.08179,1,118.306,2,174.122,0\H,4,1.08237,1,118.247,2,-36.5938,0\H,4,1.42001,1,73.3671,2,68.7204,0\O,7,1.24537,4,129.64,1,4.34102,0\H,8,0.96364,7,114.27,4,-109.293,0\\\@

 Total job time:  15.19s(wall), 80.91s(cpu) 
 Wed Jul 29 00:08:20 2020

        *************************************************************
        *                                                           *
        *  Thank you very much for using Q-Chem.  Have a nice day.  *
        *                                                           *
        *************************************************************


