                  Welcome to Q-Chem
     A Quantum Leap Into The Future Of Chemistry


 Q-Chem 5.3 (devel), Q-Chem, Inc., Pleasanton, CA (2020)

 Yihan Shao,  Zhengting Gan,  E. Epifanovsky,  A. T. B. Gilbert,  M. Wormit,  
 J. Kussmann,  A. W. Lange,  A. Behn,  Jia Deng,  Xintian Feng,  D. Ghosh,  
 M. Goldey,  P. R. Horn,  L. D. Jacobson,  I. Kaliman,  T. Kus,  A. Landau,  
 Jie Liu,  E. I. Proynov,  R. M. Richard,  R. P. Steele,  E. J. Sundstrom,  
 H. L. Woodcock III,  P. M. Zimmerman,  D. Zuev,  B. Alam,  B. Albrecht,  
 E. Alguire,  S. A. Baeppler,  D. Barton,  Z. Benda,  Y. A. Bernard,  
 E. J. Berquist,  K. B. Bravaya,  H. Burton,  K. Carter-Fenk,  D. Casanova,  
 Chun-Min Chang,  Yunqing Chen,  A. Chien,  K. D. Closser,  M. P. Coons,  
 S. Coriani,  S. Dasgupta,  A. L. Dempwolff,  M. Diedenhofen,  Hainam Do,  
 R. G. Edgar,  Po-Tung Fang,  S. Faraji,  S. Fatehi,  Qingguo Feng,  
 J. Fosso-Tande,  J. Gayvert,  Qinghui Ge,  A. Ghysels,  G. Gidofalvi,  
 J. Gomes,  J. Gonthier,  A. Gunina,  D. Hait,  M. W. D. Hanson-Heine,  
 P. H. P. Harbach,  A. W. Hauser,  M. F. Herbst,  J. E. Herr,  
 E. G. Hohenstein,  Z. C. Holden,  Kerwin Hui,  B. C. Huynh,  T.-C. Jagau,  
 Hyunjun Ji,  B. Kaduk,  K. Khistyaev,  Jaehoon Kim,  P. Klunzinger,  K. Koh,  
 D. Kosenkov,  L. Koulias,  T. Kowalczyk,  C. M. Krauter,  A. Kunitsa,  
 Ka Un Lao,  A. Laurent,  K. V. Lawler,  Joonho Lee,  D. Lefrancois,  
 S. Lehtola,  D. S. Levine,  Yi-Pei Li,  You-Sheng Lin,  Fenglai Liu,  
 Kuan-Yu Liu,  E. Livshits,  M. Loipersberger,  A. Luenser,  P. Manohar,  
 E. Mansoor,  S. F. Manzer,  Shan-Ping Mao,  Yuezhi Mao,  N. Mardirossian,  
 A. V. Marenich,  T. Markovich,  L. A. Martinez-Martinez,  S. A. Maurer,  
 N. J. Mayhall,  S. C. McKenzie,  J.-M. Mewes,  P. Morgante,  A. F. Morrison,  
 J. W. Mullinax,  K. Nanda,  T. S. Nguyen-Beck,  R. Olivares-Amaya,  
 K. J. Oosterbaan,  J. A. Parkhill,  S. K. Paul,  F. Pavosevic,  Zheng Pei,  
 T. M. Perrine,  F. Plasser,  P. Pokhilko,  S. Prager,  A. Prociuk,  
 E. Ramos,  B. Rana,  D. R. Rehn,  F. Rob,  M. Scheurer,  M. Schneider,  
 N. Sergueev,  S. M. Sharada,  S. Sharma,  D. W. Small,  T. Stauch,  
 C. J. Stein,  T. Stein,  Yu-Chuan Su,  S. P. Veccham,  Zhen Tao,  
 A. J. W. Thom,  A. Tkatchenko,  T. Tsuchimochi,  N. M. Tubman,  L. Vogt,  
 M. L. Vidal,  O. Vydrov,  M. A. Watson,  J. Wenzel,  M. de Wergifosse,  
 T. A. Wesolowski,  A. White,  J. Witte,  A. Yamada,  Jun Yang,  K. Yao,  
 S. Yeganeh,  S. R. Yost,  Zhi-Qiang You,  A. Zech,  Igor Ying Zhang,  
 Xing Zhang,  Yan Zhao,  Ying Zhu,  B. R. Brooks,  G. K. L. Chan,  
 C. J. Cramer,  M. S. Gordon,  W. J. Hehre,  A. Klamt,  M. W. Schmidt,  
 C. D. Sherrill,  D. G. Truhlar,  A. Aspuru-Guzik,  R. Baer,  A. T. Bell,  
 N. A. Besley,  Jeng-Da Chai,  A. E. DePrince, III,  R. A. DiStasio Jr.,  
 A. Dreuw,  B. D. Dunietz,  T. R. Furlani,  Chao-Ping Hsu,  Yousung Jung,  
 Jing Kong,  D. S. Lambrecht,  WanZhen Liang,  C. Ochsenfeld,  
 V. A. Rassolov,  L. V. Slipchenko,  J. E. Subotnik,  T. Van Voorhis,  
 J. M. Herbert,  A. I. Krylov,  P. M. W. Gill,  M. Head-Gordon

 Contributors to earlier versions of Q-Chem not listed above: 
 R. D. Adamson,  B. Austin,  J. Baker,  G. J. O. Beran,  K. Brandhorst,  
 S. T. Brown,  E. F. C. Byrd,  A. K. Chakraborty,  C.-L. Cheng,  
 Siu Hung Chien,  D. M. Chipman,  D. L. Crittenden,  H. Dachsel,  
 R. J. Doerksen,  A. D. Dutoi,  L. Fusti-Molnar,  W. A. Goddard III,  
 A. Golubeva-Zadorozhnaya,  S. R. Gwaltney,  G. Hawkins,  A. Heyden,  
 S. Hirata,  G. Kedziora,  F. J. Keil,  C. Kelley,  Jihan Kim,  R. A. King,  
 R. Z. Khaliullin,  P. P. Korambath,  W. Kurlancheek,  A. M. Lee,  M. S. Lee,  
 S. V. Levchenko,  Ching Yeh Lin,  D. Liotard,  R. C. Lochan,  I. Lotan,  
 P. E. Maslen,  N. Nair,  D. P. O'Neill,  D. Neuhauser,  E. Neuscamman,  
 C. M. Oana,  R. Olson,  B. Peters,  R. Peverati,  P. A. Pieniazek,  
 Y. M. Rhee,  J. Ritchie,  M. A. Rohrdanz,  E. Rosta,  N. J. Russ,  
 H. F. Schaefer III,  N. E. Schultz,  N. Shenvi,  A. C. Simmonett,  A. Sodt,  
 D. Stuck,  K. S. Thanthiriwatte,  V. Vanovschi,  Tao Wang,  A. Warshel,  
 C. F. Williams,  Q. Wu,  X. Xu,  W. Zhang

 Please cite Q-Chem as follows:
 Y. Shao et al., Mol. Phys. 113, 184-215 (2015)
 DOI: 10.1080/00268976.2014.952696

 Q-Chem 5.3.0 for Intel X86 EM64T Linux

 Parts of Q-Chem use Armadillo 9.800.1 (Horizon Scraper).
 http://arma.sourceforge.net/

 Q-Chem begins on Wed Jul 29 00:19:03 2020  

Host: centos77-c1
0

     Scratch files written to /tmp/30084.centos77-h1/qchem26723//
Processing $rem in /opt/qchem-5.3.0-intel2020u1//config/preferences:
Processing $rem in /home/shihchengli/.qchemrc:

Checking the input file for inconsistencies... 	...done.

--------------------------------------------------------------
User input:
--------------------------------------------------------------
$rem
   JOBTYPE  sp
   EXCHANGE   omegaB97X-D
   BASIS   6-311+G(2df,2pd)
   UNRESTRICTED   False
   max_scf_cycles   250
   geom_opt_max_cycles   1500
   basis2 6-31G*
   scf_algorithm rca_diis
   SYM_IGNORE  TRUE
   print_input   true
   geom_opt_dmax   80
   pop_mulliken false
   XC_GRID 000075000302
$end

$molecule
0 1
C       -5.5384039682     0.5436841322     -0.0831458507
C       -4.3712161225     1.3284379264     -0.1999948558
H       -6.0484885560     0.2460440444     -0.9902047848
H       -6.1583077302     0.6737418830     0.7938201117
H       -4.4416008790     -0.3160453064     0.1894619190
O       -3.2274926163     -0.0522835160     0.2749841449
H       -4.0650168937     1.9940936594     0.5946892667
H       -3.9618000105     1.5694653259     -1.1730595388
H       -2.8684056210     -0.1240008919     1.1663397512
$end
--------------------------------------------------------------
 ----------------------------------------------------------------
             Standard Nuclear Orientation (Angstroms)
    I     Atom           X                Y                Z
 ----------------------------------------------------------------
    1      C      -5.5384039682     0.5436841322    -0.0831458507
    2      C      -4.3712161225     1.3284379264    -0.1999948558
    3      H      -6.0484885560     0.2460440444    -0.9902047848
    4      H      -6.1583077302     0.6737418830     0.7938201117
    5      H      -4.4416008790    -0.3160453064     0.1894619190
    6      O      -3.2274926163    -0.0522835160     0.2749841449
    7      H      -4.0650168937     1.9940936594     0.5946892667
    8      H      -3.9618000105     1.5694653259    -1.1730595388
    9      H      -2.8684056210    -0.1240008919     1.1663397512
 ----------------------------------------------------------------
 Nuclear Repulsion Energy =          79.30838943 hartrees
 There are       13 alpha and       13 beta electrons
 Requested basis set is 6-311+G(2df,2pd)
 There are 60 shells and 186 basis functions

 Total QAlloc Memory Limit   2000 MB
 Mega-Array Size       188 MB
 MEM_STATIC part       192 MB

                       Distance Matrix (Angstroms)
             C (  1)   C (  2)   H (  3)   H (  4)   H (  5)   O (  6)
   C (  2)  1.411318
   H (  3)  1.082373  2.146917
   H (  4)  1.081788  2.147089  1.837860
   H (  5)  1.420009  1.691436  2.071146  2.071717
   O (  6)  2.413244  1.854751  3.106078  3.063655  1.245369
   H (  7)  2.175780  1.080916  3.082487  2.482911  2.375451  2.234126
   H (  8)  2.173895  1.082853  2.477731  3.081490  2.375252  2.294800
   H (  9)  3.022567  2.496976  3.860122  3.405675  1.861750  0.963640
             H (  7)   H (  8)
   H (  8)  1.820961
   H (  9)  2.498997  3.088062
 
 A cutoff of  1.0D-09 yielded   1774 shell pairs
 There are     17232 function pairs (     21411 Cartesian)
 Smallest overlap matrix eigenvalue = 8.88E-05

 Scale SEOQF with 1.000000e-02/1.000000e-01/1.000000e-01

 Standard Electronic Orientation quadrupole field applied
 Nucleus-field energy     =     0.0000000026 hartrees
 Requested basis set is 6-31G(d)
 There are 24 shells and 54 basis functions
 A cutoff of  1.0D-09 yielded    297 shell pairs
 There are      1548 function pairs (      1731 Cartesian)
 Smallest overlap matrix eigenvalue = 6.73E-03
 Guess from superposition of atomic densities
 Warning:  Energy on first SCF cycle will be non-variational
 SAD guess density has 26.000000 electrons
 Long-range K will be added via erf
 Coulomb attenuation parameter = 0.2 bohr**(-1)
 A restricted hybrid HF-DFT SCF calculation will be
 performed using Relaxed Constraint Minimization + Pulay DIIS
 Exchange:     0.2220 Hartree-Fock + 1.0000 wB97X-D + LR-HF
 Correlation:  1.0000 wB97X-D
 Using Euler-Maclaurin-Lebedev (75,302) quadrature formula
 Dispersion:   Grimme D
 SCF converges when DIIS error is below 1.0E-04
 using 6 threads for integral computing
 -------------------------------------------------------
 OpenMP Integral computing Module                
 Release: version 1.0, May 2013, Q-Chem Inc. Pittsburgh 
 -------------------------------------------------------
 using 6 threads for integral computing
 -------------------------------------------------------
 OpenMP Integral computing Module                
 Release: version 1.0, May 2013, Q-Chem Inc. Pittsburgh 
 -------------------------------------------------------
 ---------------------------------------
  Cycle       Energy         DIIS Error
 ---------------------------------------
    1    -155.2555084917      9.91E-02
    2    -154.7834397592      1.57E-02
    3    -154.8174881067      3.24E-03
    4    -154.8579671692      2.33E-03
    5    -154.8588405519      4.83E-04 Done RCA. Switching to DIIS
    6    -154.8599106527      3.10E-04
    7    -154.8599439953      3.99E-05 Convergence criterion met
 ---------------------------------------
 SCF time:  CPU 16.20 s  wall 2.72 s
 SCF   energy in the small basis set = -154.85994400
 Total energy in the small basis set = -154.85994400
 ----------------------------------------------------
  Cycle       Energy    
 ----------------------------------------------------
    1     -18.6737040892     -1.87E+01
 Long-range K will be added via erf
 Coulomb attenuation parameter = 0.2 bohr**(-1)
 A restricted hybrid HF-DFT SCF calculation will be
 performed using Relaxed Constraint Minimization + Pulay DIIS
 Exchange:     0.2220 Hartree-Fock + 1.0000 wB97X-D + LR-HF
 Correlation:  1.0000 wB97X-D
 Using Euler-Maclaurin-Lebedev (75,302) quadrature formula
 Dispersion:   Grimme D
 SCF converges when DIIS error is below 1.0E-05
 Basis2 calculation detected. Using small basis as guess for larger.
 SCFMinFind is unable to tell whether the solution found is close.
 Resetting ReadMinima to 0 and attempting to follow guess.
 SCFMinFind following SCF Guess.
 using 6 threads for integral computing
 -------------------------------------------------------
 OpenMP Integral computing Module                
 Release: version 1.0, May 2013, Q-Chem Inc. Pittsburgh 
 -------------------------------------------------------
 using 6 threads for integral computing
 -------------------------------------------------------
 OpenMP Integral computing Module                
 Release: version 1.0, May 2013, Q-Chem Inc. Pittsburgh 
 -------------------------------------------------------
 ---------------------------------------
  Cycle       Energy         DIIS Error
 ---------------------------------------
    1    -154.8853399284      5.99E-03
    2    -154.8819429471      4.41E-03
    3    -154.9031371581      9.90E-04 Done RCA. Switching to DIIS
    4    -154.9322947992      1.07E-03
    5    -154.9356292841      7.43E-05
    6    -154.9356574676      1.61E-05
    7    -154.9356596360      4.62E-06 Convergence criterion met
 ---------------------------------------
 SCF time:  CPU 50.79 s  wall 8.50 s
 SCF   energy in the final basis set = -154.93565964
 Total energy in the final basis set = -154.93565964
 
 --------------------------------------------------------------
 
                    Orbital Energies (a.u.)
 --------------------------------------------------------------
 
 Alpha MOs
 -- Occupied --
-19.2386 -10.3542 -10.2554  -1.0851  -0.8750  -0.6977  -0.6100  -0.5695
 -0.5085  -0.4543  -0.4419  -0.4203  -0.3057
 -- Virtual --
  0.0513   0.0702   0.0895   0.0963   0.1137   0.1279   0.1387   0.1504
  0.1760   0.1866   0.2157   0.2416   0.2524   0.2775   0.2874   0.2960
  0.3233   0.3329   0.3595   0.3903   0.4609   0.4646   0.4906   0.5486
  0.5657   0.5763   0.5828   0.6072   0.6142   0.6457   0.6565   0.6839
  0.7063   0.7523   0.7922   0.8422   0.8449   0.8888   0.9160   0.9207
  0.9857   1.0051   1.0694   1.0931   1.1228   1.1642   1.1855   1.1940
  1.2370   1.2635   1.2799   1.2909   1.3206   1.3530   1.4052   1.4276
  1.4432   1.4580   1.4776   1.4880   1.5319   1.5779   1.5898   1.6610
  1.7169   1.7828   1.9079   1.9934   2.0464   2.2762   2.3046   2.4265
  2.4808   2.5615   2.6288   2.6647   2.6899   2.7564   2.7765   2.8121
  2.8660   2.8793   2.9477   2.9951   3.0049   3.0318   3.0711   3.0762
  3.0981   3.1336   3.1617   3.2153   3.2288   3.2834   3.3135   3.3470
  3.3600   3.4048   3.4186   3.4464   3.4709   3.5040   3.5139   3.5631
  3.5753   3.5999   3.6401   3.6739   3.7028   3.7329   3.7612   3.8263
  3.8443   3.8486   3.8916   3.9157   3.9366   3.9541   4.0301   4.0819
  4.0945   4.1263   4.1912   4.2187   4.2255   4.2445   4.2830   4.3164
  4.3308   4.3616   4.4302   4.4436   4.4959   4.5932   4.6088   4.7156
  4.7422   4.7983   4.8498   4.9681   4.9846   5.0112   5.0719   5.1042
  5.1089   5.2132   5.2370   5.2907   5.3382   5.3984   5.4400   5.4826
  5.5874   5.6243   5.7835   5.8090   6.0347   6.1976   6.2413   6.2808
  6.4669   6.6400   6.7356   6.8773   7.1484   7.2127   7.3969   7.6743
  7.7736   8.1651  24.9578  25.3110  50.4438
 --------------------------------------------------------------
 
 -----------------------------------------------------------------
                    Cartesian Multipole Moments
 -----------------------------------------------------------------
    Charge (ESU x 10^10)
                 0.0000
    Dipole Moment (Debye)
         X      -0.0644      Y       1.2698      Z       0.9738
       Tot       1.6015
    Quadrupole Moments (Debye-Ang)
        XX     -21.9711     XY      -4.1758     YY     -19.4382
        XZ      -2.3479     YZ      -0.2831     ZZ     -17.2816
    Octopole Moments (Debye-Ang^2)
       XXX     294.3677    XXY      -1.2817    XYY      88.9869
       YYY     -33.8780    XXZ       5.7967    XYZ      -0.2897
       YYZ       0.0601    XZZ      79.6445    YZZ     -10.6942
       ZZZ       0.5379
    Hexadecapole Moments (Debye-Ang^3)
      XXXX   -2759.7421   XXXY     165.6870   XXYY    -455.3345
      XYYY     166.4210   YYYY    -112.3929   XXXZ     -27.0936
      XXYZ      10.7661   XYYZ      -4.5516   YYYZ       7.4657
      XXZZ    -390.7681   XYZZ      51.4570   YYZZ     -23.8844
      XZZZ      -7.8388   YZZZ       4.7552   ZZZZ     -37.3422
 -----------------------------------------------------------------
Archival summary:
1\1\centos77-c1\SP\ProcedureUnspecified\BasisUnspecified\126\shihchen\WedJul2900:19:162020WedJul2900:19:162020\0\\#,ProcedureUnspecified,BasisUnspecified,\\0,1\C\H,1,1.08092\H,1,1.08285,2,114.612\C,1,1.41132,2,121.053,3,-158.707,0\H,4,1.08179,1,118.306,2,4.12185,0\H,4,1.08237,1,118.247,2,153.406,0\H,4,1.42001,1,73.3671,2,-101.28,0\O,7,1.24537,4,129.64,1,4.34102,0\H,8,0.96364,7,114.27,4,110.707,0\\\@

 Total job time:  13.69s(wall), 71.41s(cpu) 
 Wed Jul 29 00:19:16 2020

        *************************************************************
        *                                                           *
        *  Thank you very much for using Q-Chem.  Have a nice day.  *
        *                                                           *
        *************************************************************


