                  Welcome to Q-Chem
     A Quantum Leap Into The Future Of Chemistry


 Q-Chem 5.3 (devel), Q-Chem, Inc., Pleasanton, CA (2020)

 Yihan Shao,  Zhengting Gan,  E. Epifanovsky,  A. T. B. Gilbert,  M. Wormit,  
 J. Kussmann,  A. W. Lange,  A. Behn,  Jia Deng,  Xintian Feng,  D. Ghosh,  
 M. Goldey,  P. R. Horn,  L. D. Jacobson,  I. Kaliman,  T. Kus,  A. Landau,  
 Jie Liu,  E. I. Proynov,  R. M. Richard,  R. P. Steele,  E. J. Sundstrom,  
 H. L. Woodcock III,  P. M. Zimmerman,  D. Zuev,  B. Alam,  B. Albrecht,  
 E. Alguire,  S. A. Baeppler,  D. Barton,  Z. Benda,  Y. A. Bernard,  
 E. J. Berquist,  K. B. Bravaya,  H. Burton,  K. Carter-Fenk,  D. Casanova,  
 Chun-Min Chang,  Yunqing Chen,  A. Chien,  K. D. Closser,  M. P. Coons,  
 S. Coriani,  S. Dasgupta,  A. L. Dempwolff,  M. Diedenhofen,  Hainam Do,  
 R. G. Edgar,  Po-Tung Fang,  S. Faraji,  S. Fatehi,  Qingguo Feng,  
 J. Fosso-Tande,  J. Gayvert,  Qinghui Ge,  A. Ghysels,  G. Gidofalvi,  
 J. Gomes,  J. Gonthier,  A. Gunina,  D. Hait,  M. W. D. Hanson-Heine,  
 P. H. P. Harbach,  A. W. Hauser,  M. F. Herbst,  J. E. Herr,  
 E. G. Hohenstein,  Z. C. Holden,  Kerwin Hui,  B. C. Huynh,  T.-C. Jagau,  
 Hyunjun Ji,  B. Kaduk,  K. Khistyaev,  Jaehoon Kim,  P. Klunzinger,  K. Koh,  
 D. Kosenkov,  L. Koulias,  T. Kowalczyk,  C. M. Krauter,  A. Kunitsa,  
 Ka Un Lao,  A. Laurent,  K. V. Lawler,  Joonho Lee,  D. Lefrancois,  
 S. Lehtola,  D. S. Levine,  Yi-Pei Li,  You-Sheng Lin,  Fenglai Liu,  
 Kuan-Yu Liu,  E. Livshits,  M. Loipersberger,  A. Luenser,  P. Manohar,  
 E. Mansoor,  S. F. Manzer,  Shan-Ping Mao,  Yuezhi Mao,  N. Mardirossian,  
 A. V. Marenich,  T. Markovich,  L. A. Martinez-Martinez,  S. A. Maurer,  
 N. J. Mayhall,  S. C. McKenzie,  J.-M. Mewes,  P. Morgante,  A. F. Morrison,  
 J. W. Mullinax,  K. Nanda,  T. S. Nguyen-Beck,  R. Olivares-Amaya,  
 K. J. Oosterbaan,  J. A. Parkhill,  S. K. Paul,  F. Pavosevic,  Zheng Pei,  
 T. M. Perrine,  F. Plasser,  P. Pokhilko,  S. Prager,  A. Prociuk,  
 E. Ramos,  B. Rana,  D. R. Rehn,  F. Rob,  M. Scheurer,  M. Schneider,  
 N. Sergueev,  S. M. Sharada,  S. Sharma,  D. W. Small,  T. Stauch,  
 C. J. Stein,  T. Stein,  Yu-Chuan Su,  S. P. Veccham,  Zhen Tao,  
 A. J. W. Thom,  A. Tkatchenko,  T. Tsuchimochi,  N. M. Tubman,  L. Vogt,  
 M. L. Vidal,  O. Vydrov,  M. A. Watson,  J. Wenzel,  M. de Wergifosse,  
 T. A. Wesolowski,  A. White,  J. Witte,  A. Yamada,  Jun Yang,  K. Yao,  
 S. Yeganeh,  S. R. Yost,  Zhi-Qiang You,  A. Zech,  Igor Ying Zhang,  
 Xing Zhang,  Yan Zhao,  Ying Zhu,  B. R. Brooks,  G. K. L. Chan,  
 C. J. Cramer,  M. S. Gordon,  W. J. Hehre,  A. Klamt,  M. W. Schmidt,  
 C. D. Sherrill,  D. G. Truhlar,  A. Aspuru-Guzik,  R. Baer,  A. T. Bell,  
 N. A. Besley,  Jeng-Da Chai,  A. E. DePrince, III,  R. A. DiStasio Jr.,  
 A. Dreuw,  B. D. Dunietz,  T. R. Furlani,  Chao-Ping Hsu,  Yousung Jung,  
 Jing Kong,  D. S. Lambrecht,  WanZhen Liang,  C. Ochsenfeld,  
 V. A. Rassolov,  L. V. Slipchenko,  J. E. Subotnik,  T. Van Voorhis,  
 J. M. Herbert,  A. I. Krylov,  P. M. W. Gill,  M. Head-Gordon

 Contributors to earlier versions of Q-Chem not listed above: 
 R. D. Adamson,  B. Austin,  J. Baker,  G. J. O. Beran,  K. Brandhorst,  
 S. T. Brown,  E. F. C. Byrd,  A. K. Chakraborty,  C.-L. Cheng,  
 Siu Hung Chien,  D. M. Chipman,  D. L. Crittenden,  H. Dachsel,  
 R. J. Doerksen,  A. D. Dutoi,  L. Fusti-Molnar,  W. A. Goddard III,  
 A. Golubeva-Zadorozhnaya,  S. R. Gwaltney,  G. Hawkins,  A. Heyden,  
 S. Hirata,  G. Kedziora,  F. J. Keil,  C. Kelley,  Jihan Kim,  R. A. King,  
 R. Z. Khaliullin,  P. P. Korambath,  W. Kurlancheek,  A. M. Lee,  M. S. Lee,  
 S. V. Levchenko,  Ching Yeh Lin,  D. Liotard,  R. C. Lochan,  I. Lotan,  
 P. E. Maslen,  N. Nair,  D. P. O'Neill,  D. Neuhauser,  E. Neuscamman,  
 C. M. Oana,  R. Olson,  B. Peters,  R. Peverati,  P. A. Pieniazek,  
 Y. M. Rhee,  J. Ritchie,  M. A. Rohrdanz,  E. Rosta,  N. J. Russ,  
 H. F. Schaefer III,  N. E. Schultz,  N. Shenvi,  A. C. Simmonett,  A. Sodt,  
 D. Stuck,  K. S. Thanthiriwatte,  V. Vanovschi,  Tao Wang,  A. Warshel,  
 C. F. Williams,  Q. Wu,  X. Xu,  W. Zhang

 Please cite Q-Chem as follows:
 Y. Shao et al., Mol. Phys. 113, 184-215 (2015)
 DOI: 10.1080/00268976.2014.952696

 Q-Chem 5.3.0 for Intel X86 EM64T Linux

 Parts of Q-Chem use Armadillo 9.800.1 (Horizon Scraper).
 http://arma.sourceforge.net/

 Q-Chem begins on Wed Jul 29 00:11:29 2020  

Host: centos77-c1
0

     Scratch files written to /tmp/30084.centos77-h1/qchem25481//
Processing $rem in /opt/qchem-5.3.0-intel2020u1//config/preferences:
Processing $rem in /home/shihchengli/.qchemrc:

Checking the input file for inconsistencies... 	...done.

--------------------------------------------------------------
User input:
--------------------------------------------------------------
$rem
   JOBTYPE  sp
   EXCHANGE   omegaB97X-D
   BASIS   6-311+G(2df,2pd)
   UNRESTRICTED   False
   max_scf_cycles   250
   geom_opt_max_cycles   1500
   basis2 6-31G*
   scf_algorithm rca_diis
   SYM_IGNORE  TRUE
   print_input   true
   geom_opt_dmax   80
   pop_mulliken false
   XC_GRID 000075000302
$end

$molecule
0 1
C       -5.5098040620     0.4581001533     -0.2557855002
C       -4.3274143689     1.2178375867     -0.3845229099
H       -5.6345117053     -0.4074671498     -0.8935731340
H       -6.4164711902     0.9669061583     0.0431060519
H       -4.7028215389     0.1481343261     0.8707699195
O       -3.6083690823     0.6286063577     1.2204321194
H       -4.2337406029     1.9786894151     -1.1465649678
H       -3.3857517233     0.8448291534     -0.0014996626
H       -2.8618481234     0.0275012562     1.1205282469
$end
--------------------------------------------------------------
 ----------------------------------------------------------------
             Standard Nuclear Orientation (Angstroms)
    I     Atom           X                Y                Z
 ----------------------------------------------------------------
    1      C      -5.5098040620     0.4581001533    -0.2557855002
    2      C      -4.3274143689     1.2178375867    -0.3845229099
    3      H      -5.6345117053    -0.4074671498    -0.8935731340
    4      H      -6.4164711902     0.9669061583     0.0431060519
    5      H      -4.7028215389     0.1481343261     0.8707699195
    6      O      -3.6083690823     0.6286063577     1.2204321194
    7      H      -4.2337406029     1.9786894151    -1.1465649678
    8      H      -3.3857517233     0.8448291534    -0.0014996626
    9      H      -2.8618481234     0.0275012562     1.1205282469
 ----------------------------------------------------------------
 Nuclear Repulsion Energy =          80.65901896 hartrees
 There are       13 alpha and       13 beta electrons
 Requested basis set is 6-311+G(2df,2pd)
 There are 60 shells and 186 basis functions

 Total QAlloc Memory Limit   2000 MB
 Mega-Array Size       188 MB
 MEM_STATIC part       192 MB

                       Distance Matrix (Angstroms)
             C (  1)   C (  2)   H (  3)   H (  4)   H (  5)   O (  6)
   C (  2)  1.411318
   H (  3)  1.082373  2.146917
   H (  4)  1.081788  2.147089  1.837860
   H (  5)  1.420009  1.691436  2.071146  2.071717
   O (  6)  2.413244  1.854751  3.106078  3.063655  1.245369
   H (  7)  2.175780  1.080916  2.778472  2.683903  2.764165  2.795798
   H (  8)  2.173895  1.082853  2.724144  3.033505  1.726531  1.260725
   H (  9)  3.015183  2.414532  3.454485  3.831275  1.861750  0.963640
             H (  7)   H (  8)
   H (  8)  1.820961
   H (  9)  3.290735  1.483727
 
 A cutoff of  1.0D-09 yielded   1768 shell pairs
 There are     17176 function pairs (     21345 Cartesian)
 Smallest overlap matrix eigenvalue = 1.32E-04

 Scale SEOQF with 1.000000e-02/1.000000e-01/1.000000e-01

 Standard Electronic Orientation quadrupole field applied
 Nucleus-field energy     =     0.0000000014 hartrees
 Requested basis set is 6-31G(d)
 There are 24 shells and 54 basis functions
 A cutoff of  1.0D-09 yielded    297 shell pairs
 There are      1548 function pairs (      1731 Cartesian)
 Smallest overlap matrix eigenvalue = 7.28E-03
 Guess from superposition of atomic densities
 Warning:  Energy on first SCF cycle will be non-variational
 SAD guess density has 26.000000 electrons
 Long-range K will be added via erf
 Coulomb attenuation parameter = 0.2 bohr**(-1)
 A restricted hybrid HF-DFT SCF calculation will be
 performed using Relaxed Constraint Minimization + Pulay DIIS
 Exchange:     0.2220 Hartree-Fock + 1.0000 wB97X-D + LR-HF
 Correlation:  1.0000 wB97X-D
 Using Euler-Maclaurin-Lebedev (75,302) quadrature formula
 Dispersion:   Grimme D
 SCF converges when DIIS error is below 1.0E-04
 using 6 threads for integral computing
 -------------------------------------------------------
 OpenMP Integral computing Module                
 Release: version 1.0, May 2013, Q-Chem Inc. Pittsburgh 
 -------------------------------------------------------
 using 6 threads for integral computing
 -------------------------------------------------------
 OpenMP Integral computing Module                
 Release: version 1.0, May 2013, Q-Chem Inc. Pittsburgh 
 -------------------------------------------------------
 ---------------------------------------
  Cycle       Energy         DIIS Error
 ---------------------------------------
    1    -155.4707939070      1.07E-01
    2    -154.6231910728      1.49E-02
    3    -154.6553482773      3.58E-03
    4    -154.6904821883      3.39E-03
    5    -154.6920771152      6.43E-04 Done RCA. Switching to DIIS
    6    -154.6943722059      7.11E-04
    7    -154.6945705931      1.17E-04
    8    -154.6945919374      7.07E-05 Convergence criterion met
 ---------------------------------------
 SCF time:  CPU 17.44 s  wall 2.93 s
 SCF   energy in the small basis set = -154.69459194
 Total energy in the small basis set = -154.69459194
 ----------------------------------------------------
  Cycle       Energy    
 ----------------------------------------------------
    1     -18.7173650835     -1.87E+01
 Long-range K will be added via erf
 Coulomb attenuation parameter = 0.2 bohr**(-1)
 A restricted hybrid HF-DFT SCF calculation will be
 performed using Relaxed Constraint Minimization + Pulay DIIS
 Exchange:     0.2220 Hartree-Fock + 1.0000 wB97X-D + LR-HF
 Correlation:  1.0000 wB97X-D
 Using Euler-Maclaurin-Lebedev (75,302) quadrature formula
 Dispersion:   Grimme D
 SCF converges when DIIS error is below 1.0E-05
 Basis2 calculation detected. Using small basis as guess for larger.
 SCFMinFind is unable to tell whether the solution found is close.
 Resetting ReadMinima to 0 and attempting to follow guess.
 SCFMinFind following SCF Guess.
 using 6 threads for integral computing
 -------------------------------------------------------
 OpenMP Integral computing Module                
 Release: version 1.0, May 2013, Q-Chem Inc. Pittsburgh 
 -------------------------------------------------------
 using 6 threads for integral computing
 -------------------------------------------------------
 OpenMP Integral computing Module                
 Release: version 1.0, May 2013, Q-Chem Inc. Pittsburgh 
 -------------------------------------------------------
 ---------------------------------------
  Cycle       Energy         DIIS Error
 ---------------------------------------
    1    -154.7073169116      6.28E-03
    2    -154.6850308921      5.63E-03
    3    -154.7182787180      1.53E-03
    4    -154.7659162787      1.31E-03
    5    -154.7696557731      2.21E-04 Done RCA. Switching to DIIS
    6    -154.7751641450      2.46E-04
    7    -154.7754666315      3.69E-05
    8    -154.7755182297      2.35E-05
    9    -154.7755280298      9.46E-06 Convergence criterion met
 ---------------------------------------
 SCF time:  CPU 68.59 s  wall 11.47 s
 SCF   energy in the final basis set = -154.77552803
 Total energy in the final basis set = -154.77552803
 
 --------------------------------------------------------------
 
                    Orbital Energies (a.u.)
 --------------------------------------------------------------
 
 Alpha MOs
 -- Occupied --
-19.2620 -10.3237 -10.2579  -1.1434  -0.8685  -0.7028  -0.6383  -0.5688
 -0.5226  -0.4990  -0.4634  -0.3179  -0.3001
 -- Virtual --
 -0.0151   0.0688   0.0890   0.0952   0.1104   0.1336   0.1408   0.1463
  0.1840   0.1871   0.2240   0.2336   0.2520   0.2713   0.2777   0.2980
  0.3073   0.3296   0.3652   0.3949   0.4688   0.4836   0.5085   0.5285
  0.5603   0.5838   0.5945   0.5971   0.6237   0.6527   0.6674   0.6729
  0.6977   0.7037   0.7737   0.8154   0.8487   0.8645   0.9026   0.9771
  0.9939   1.0142   1.0375   1.0611   1.0916   1.1300   1.1662   1.1904
  1.2198   1.2544   1.2761   1.3187   1.3434   1.3991   1.4145   1.4226
  1.4490   1.4644   1.4799   1.5128   1.5710   1.5778   1.6198   1.6472
  1.7339   1.8230   1.9845   2.0626   2.1802   2.2805   2.3472   2.4628
  2.5417   2.5608   2.6209   2.6855   2.7355   2.7998   2.8006   2.8325
  2.8773   2.9294   2.9497   2.9783   2.9964   3.0239   3.0457   3.0881
  3.1027   3.1526   3.1892   3.2050   3.2498   3.2878   3.3130   3.3324
  3.3665   3.3729   3.4167   3.4404   3.4578   3.4796   3.5380   3.5520
  3.5689   3.5878   3.6178   3.6668   3.6909   3.7701   3.7939   3.8281
  3.8467   3.8679   3.8840   3.9230   3.9538   3.9783   4.0147   4.0775
  4.0832   4.1556   4.1807   4.2189   4.2296   4.2436   4.2660   4.3005
  4.3424   4.3990   4.4649   4.4858   4.5521   4.6077   4.6314   4.7404
  4.8038   4.8725   4.8906   4.9345   4.9860   5.0200   5.1181   5.1418
  5.1563   5.1940   5.2789   5.3648   5.4614   5.5445   5.6667   5.7369
  5.7985   5.8512   5.8938   6.0059   6.1134   6.1867   6.3594   6.4914
  6.6829   6.7199   6.8390   6.9565   7.3545   7.3841   7.5148   7.6240
  7.9923   8.2135  25.0241  25.3078  50.4715
 --------------------------------------------------------------
 
 -----------------------------------------------------------------
                    Cartesian Multipole Moments
 -----------------------------------------------------------------
    Charge (ESU x 10^10)
                 0.0000
    Dipole Moment (Debye)
         X       1.1555      Y      -0.5990      Z      -0.9921
       Tot       1.6366
    Quadrupole Moments (Debye-Ang)
        XX     -29.0918     XY       1.7440     YY     -20.8331
        XZ       4.5050     YZ      -2.0804     ZZ     -23.2078
    Octopole Moments (Debye-Ang^2)
       XXX     329.0369    XXY     -20.3828    XYY      93.5563
       YYY     -45.6466    XXZ     -21.1465    XYZ       5.6153
       YYZ      -6.7239    XZZ     103.2170    YZZ     -17.8277
       ZZZ     -16.4859
    Hexadecapole Moments (Debye-Ang^3)
      XXXX   -2918.3900   XXXY     215.2362   XXYY    -461.0581
      XYYY     199.7477   YYYY    -118.8870   XXXZ      81.3021
      XXYZ      -8.7206   XYYZ      18.5365   YYYZ      -4.5356
      XXZZ    -497.2920   XYZZ      75.9198   YYZZ     -35.1372
      XZZZ      43.4771   YZZZ      -7.8370   ZZZZ    -108.7490
 -----------------------------------------------------------------
Archival summary:
1\1\centos77-c1\SP\ProcedureUnspecified\BasisUnspecified\126\shihchen\WedJul2900:11:462020WedJul2900:11:462020\0\\#,ProcedureUnspecified,BasisUnspecified,\\0,1\O\H,1,0.96364\H,1,1.24537,2,114.27\H,1,1.26073,2,82.5134,3,-83.3712,0\C,4,1.08285,1,104.38,2,157.027,0\H,5,1.08092,4,114.612,1,144.381,0\C,5,1.41132,4,120.721,1,-56.8352,0\H,7,1.08179,5,118.306,4,136.706,0\H,7,1.08237,5,118.247,4,-74.0095,0\\\@

 Total job time:  16.94s(wall), 90.66s(cpu) 
 Wed Jul 29 00:11:46 2020

        *************************************************************
        *                                                           *
        *  Thank you very much for using Q-Chem.  Have a nice day.  *
        *                                                           *
        *************************************************************


