                  Welcome to Q-Chem
     A Quantum Leap Into The Future Of Chemistry


 Q-Chem 5.3 (devel), Q-Chem, Inc., Pleasanton, CA (2020)

 Yihan Shao,  Zhengting Gan,  E. Epifanovsky,  A. T. B. Gilbert,  M. Wormit,  
 J. Kussmann,  A. W. Lange,  A. Behn,  Jia Deng,  Xintian Feng,  D. Ghosh,  
 M. Goldey,  P. R. Horn,  L. D. Jacobson,  I. Kaliman,  T. Kus,  A. Landau,  
 Jie Liu,  E. I. Proynov,  R. M. Richard,  R. P. Steele,  E. J. Sundstrom,  
 H. L. Woodcock III,  P. M. Zimmerman,  D. Zuev,  B. Alam,  B. Albrecht,  
 E. Alguire,  S. A. Baeppler,  D. Barton,  Z. Benda,  Y. A. Bernard,  
 E. J. Berquist,  K. B. Bravaya,  H. Burton,  K. Carter-Fenk,  D. Casanova,  
 Chun-Min Chang,  Yunqing Chen,  A. Chien,  K. D. Closser,  M. P. Coons,  
 S. Coriani,  S. Dasgupta,  A. L. Dempwolff,  M. Diedenhofen,  Hainam Do,  
 R. G. Edgar,  Po-Tung Fang,  S. Faraji,  S. Fatehi,  Qingguo Feng,  
 J. Fosso-Tande,  J. Gayvert,  Qinghui Ge,  A. Ghysels,  G. Gidofalvi,  
 J. Gomes,  J. Gonthier,  A. Gunina,  D. Hait,  M. W. D. Hanson-Heine,  
 P. H. P. Harbach,  A. W. Hauser,  M. F. Herbst,  J. E. Herr,  
 E. G. Hohenstein,  Z. C. Holden,  Kerwin Hui,  B. C. Huynh,  T.-C. Jagau,  
 Hyunjun Ji,  B. Kaduk,  K. Khistyaev,  Jaehoon Kim,  P. Klunzinger,  K. Koh,  
 D. Kosenkov,  L. Koulias,  T. Kowalczyk,  C. M. Krauter,  A. Kunitsa,  
 Ka Un Lao,  A. Laurent,  K. V. Lawler,  Joonho Lee,  D. Lefrancois,  
 S. Lehtola,  D. S. Levine,  Yi-Pei Li,  You-Sheng Lin,  Fenglai Liu,  
 Kuan-Yu Liu,  E. Livshits,  M. Loipersberger,  A. Luenser,  P. Manohar,  
 E. Mansoor,  S. F. Manzer,  Shan-Ping Mao,  Yuezhi Mao,  N. Mardirossian,  
 A. V. Marenich,  T. Markovich,  L. A. Martinez-Martinez,  S. A. Maurer,  
 N. J. Mayhall,  S. C. McKenzie,  J.-M. Mewes,  P. Morgante,  A. F. Morrison,  
 J. W. Mullinax,  K. Nanda,  T. S. Nguyen-Beck,  R. Olivares-Amaya,  
 K. J. Oosterbaan,  J. A. Parkhill,  S. K. Paul,  F. Pavosevic,  Zheng Pei,  
 T. M. Perrine,  F. Plasser,  P. Pokhilko,  S. Prager,  A. Prociuk,  
 E. Ramos,  B. Rana,  D. R. Rehn,  F. Rob,  M. Scheurer,  M. Schneider,  
 N. Sergueev,  S. M. Sharada,  S. Sharma,  D. W. Small,  T. Stauch,  
 C. J. Stein,  T. Stein,  Yu-Chuan Su,  S. P. Veccham,  Zhen Tao,  
 A. J. W. Thom,  A. Tkatchenko,  T. Tsuchimochi,  N. M. Tubman,  L. Vogt,  
 M. L. Vidal,  O. Vydrov,  M. A. Watson,  J. Wenzel,  M. de Wergifosse,  
 T. A. Wesolowski,  A. White,  J. Witte,  A. Yamada,  Jun Yang,  K. Yao,  
 S. Yeganeh,  S. R. Yost,  Zhi-Qiang You,  A. Zech,  Igor Ying Zhang,  
 Xing Zhang,  Yan Zhao,  Ying Zhu,  B. R. Brooks,  G. K. L. Chan,  
 C. J. Cramer,  M. S. Gordon,  W. J. Hehre,  A. Klamt,  M. W. Schmidt,  
 C. D. Sherrill,  D. G. Truhlar,  A. Aspuru-Guzik,  R. Baer,  A. T. Bell,  
 N. A. Besley,  Jeng-Da Chai,  A. E. DePrince, III,  R. A. DiStasio Jr.,  
 A. Dreuw,  B. D. Dunietz,  T. R. Furlani,  Chao-Ping Hsu,  Yousung Jung,  
 Jing Kong,  D. S. Lambrecht,  WanZhen Liang,  C. Ochsenfeld,  
 V. A. Rassolov,  L. V. Slipchenko,  J. E. Subotnik,  T. Van Voorhis,  
 J. M. Herbert,  A. I. Krylov,  P. M. W. Gill,  M. Head-Gordon

 Contributors to earlier versions of Q-Chem not listed above: 
 R. D. Adamson,  B. Austin,  J. Baker,  G. J. O. Beran,  K. Brandhorst,  
 S. T. Brown,  E. F. C. Byrd,  A. K. Chakraborty,  C.-L. Cheng,  
 Siu Hung Chien,  D. M. Chipman,  D. L. Crittenden,  H. Dachsel,  
 R. J. Doerksen,  A. D. Dutoi,  L. Fusti-Molnar,  W. A. Goddard III,  
 A. Golubeva-Zadorozhnaya,  S. R. Gwaltney,  G. Hawkins,  A. Heyden,  
 S. Hirata,  G. Kedziora,  F. J. Keil,  C. Kelley,  Jihan Kim,  R. A. King,  
 R. Z. Khaliullin,  P. P. Korambath,  W. Kurlancheek,  A. M. Lee,  M. S. Lee,  
 S. V. Levchenko,  Ching Yeh Lin,  D. Liotard,  R. C. Lochan,  I. Lotan,  
 P. E. Maslen,  N. Nair,  D. P. O'Neill,  D. Neuhauser,  E. Neuscamman,  
 C. M. Oana,  R. Olson,  B. Peters,  R. Peverati,  P. A. Pieniazek,  
 Y. M. Rhee,  J. Ritchie,  M. A. Rohrdanz,  E. Rosta,  N. J. Russ,  
 H. F. Schaefer III,  N. E. Schultz,  N. Shenvi,  A. C. Simmonett,  A. Sodt,  
 D. Stuck,  K. S. Thanthiriwatte,  V. Vanovschi,  Tao Wang,  A. Warshel,  
 C. F. Williams,  Q. Wu,  X. Xu,  W. Zhang

 Please cite Q-Chem as follows:
 Y. Shao et al., Mol. Phys. 113, 184-215 (2015)
 DOI: 10.1080/00268976.2014.952696

 Q-Chem 5.3.0 for Intel X86 EM64T Linux

 Parts of Q-Chem use Armadillo 9.800.1 (Horizon Scraper).
 http://arma.sourceforge.net/

 Q-Chem begins on Wed Jul 29 00:19:44 2020  

Host: centos77-c1
0

     Scratch files written to /tmp/30084.centos77-h1/qchem26855//
Processing $rem in /opt/qchem-5.3.0-intel2020u1//config/preferences:
Processing $rem in /home/shihchengli/.qchemrc:

Checking the input file for inconsistencies... 	...done.

--------------------------------------------------------------
User input:
--------------------------------------------------------------
$rem
   JOBTYPE  sp
   EXCHANGE   omegaB97X-D
   BASIS   6-311+G(2df,2pd)
   UNRESTRICTED   False
   max_scf_cycles   250
   geom_opt_max_cycles   1500
   basis2 6-31G*
   scf_algorithm rca_diis
   SYM_IGNORE  TRUE
   print_input   true
   geom_opt_dmax   80
   pop_mulliken false
   XC_GRID 000075000302
$end

$molecule
0 1
C       -5.5432594919     0.5497359451     -0.0861030759
C       -4.3974331235     1.3641320367     -0.2112454510
H       -6.0184842344     0.1917112544     -0.9902665475
H       -6.1911693665     0.7033847741     0.7664635337
H       -4.4291273704     -0.2604939187     0.2583731991
O       -3.2263984760     0.0452852567     0.3627068438
H       -4.1338581059     2.0775636824     0.5568182665
H       -3.9683189660     1.5695508188     -1.1839914616
H       -2.7726832627     -0.3777325924     1.1001348563
$end
--------------------------------------------------------------
 ----------------------------------------------------------------
             Standard Nuclear Orientation (Angstroms)
    I     Atom           X                Y                Z
 ----------------------------------------------------------------
    1      C      -5.5432594919     0.5497359451    -0.0861030759
    2      C      -4.3974331235     1.3641320367    -0.2112454510
    3      H      -6.0184842344     0.1917112544    -0.9902665475
    4      H      -6.1911693665     0.7033847741     0.7664635337
    5      H      -4.4291273704    -0.2604939187     0.2583731991
    6      O      -3.2263984760     0.0452852567     0.3627068438
    7      H      -4.1338581059     2.0775636824     0.5568182665
    8      H      -3.9683189660     1.5695508188    -1.1839914616
    9      H      -2.7726832627    -0.3777325924     1.1001348563
 ----------------------------------------------------------------
 Nuclear Repulsion Energy =          79.11683694 hartrees
 There are       13 alpha and       13 beta electrons
 Requested basis set is 6-311+G(2df,2pd)
 There are 60 shells and 186 basis functions

 Total QAlloc Memory Limit   2000 MB
 Mega-Array Size       188 MB
 MEM_STATIC part       192 MB

                       Distance Matrix (Angstroms)
             C (  1)   C (  2)   H (  3)   H (  4)   H (  5)   O (  6)
   C (  2)  1.411318
   H (  3)  1.082373  2.146917
   H (  4)  1.081788  2.147089  1.837860
   H (  5)  1.420009  1.691436  2.071146  2.071717
   O (  6)  2.413244  1.854751  3.106078  3.063655  1.245369
   H (  7)  2.175780  1.080916  3.082487  2.482911  2.375451  2.234126
   H (  8)  2.173895  1.082853  2.477731  3.081490  2.375252  2.294800
   H (  9)  3.153324  2.719122  3.902470  3.600861  1.861750  0.963640
             H (  7)   H (  8)
   H (  8)  1.820961
   H (  9)  2.859453  3.230896
 
 A cutoff of  1.0D-09 yielded   1767 shell pairs
 There are     17153 function pairs (     21311 Cartesian)
 Smallest overlap matrix eigenvalue = 9.15E-05

 Scale SEOQF with 1.000000e-02/1.000000e-01/1.000000e-01

 Standard Electronic Orientation quadrupole field applied
 Nucleus-field energy     =     0.0000000027 hartrees
 Requested basis set is 6-31G(d)
 There are 24 shells and 54 basis functions
 A cutoff of  1.0D-09 yielded    297 shell pairs
 There are      1548 function pairs (      1731 Cartesian)
 Smallest overlap matrix eigenvalue = 6.66E-03
 Guess from superposition of atomic densities
 Warning:  Energy on first SCF cycle will be non-variational
 SAD guess density has 26.000000 electrons
 Long-range K will be added via erf
 Coulomb attenuation parameter = 0.2 bohr**(-1)
 A restricted hybrid HF-DFT SCF calculation will be
 performed using Relaxed Constraint Minimization + Pulay DIIS
 Exchange:     0.2220 Hartree-Fock + 1.0000 wB97X-D + LR-HF
 Correlation:  1.0000 wB97X-D
 Using Euler-Maclaurin-Lebedev (75,302) quadrature formula
 Dispersion:   Grimme D
 SCF converges when DIIS error is below 1.0E-04
 using 6 threads for integral computing
 -------------------------------------------------------
 OpenMP Integral computing Module                
 Release: version 1.0, May 2013, Q-Chem Inc. Pittsburgh 
 -------------------------------------------------------
 using 6 threads for integral computing
 -------------------------------------------------------
 OpenMP Integral computing Module                
 Release: version 1.0, May 2013, Q-Chem Inc. Pittsburgh 
 -------------------------------------------------------
 ---------------------------------------
  Cycle       Energy         DIIS Error
 ---------------------------------------
    1    -155.2496414128      9.88E-02
    2    -154.7681595580      1.63E-02
    3    -154.8039452696      3.10E-03
    4    -154.8471663283      1.98E-03
    5    -154.8478716512      4.23E-04 Done RCA. Switching to DIIS
    6    -154.8486396305      3.56E-04
    7    -154.8486777674      3.88E-05 Convergence criterion met
 ---------------------------------------
 SCF time:  CPU 15.91 s  wall 2.67 s
 SCF   energy in the small basis set = -154.84867777
 Total energy in the small basis set = -154.84867777
 ----------------------------------------------------
  Cycle       Energy    
 ----------------------------------------------------
    1     -18.6777936958     -1.87E+01
 Long-range K will be added via erf
 Coulomb attenuation parameter = 0.2 bohr**(-1)
 A restricted hybrid HF-DFT SCF calculation will be
 performed using Relaxed Constraint Minimization + Pulay DIIS
 Exchange:     0.2220 Hartree-Fock + 1.0000 wB97X-D + LR-HF
 Correlation:  1.0000 wB97X-D
 Using Euler-Maclaurin-Lebedev (75,302) quadrature formula
 Dispersion:   Grimme D
 SCF converges when DIIS error is below 1.0E-05
 Basis2 calculation detected. Using small basis as guess for larger.
 SCFMinFind is unable to tell whether the solution found is close.
 Resetting ReadMinima to 0 and attempting to follow guess.
 SCFMinFind following SCF Guess.
 using 6 threads for integral computing
 -------------------------------------------------------
 OpenMP Integral computing Module                
 Release: version 1.0, May 2013, Q-Chem Inc. Pittsburgh 
 -------------------------------------------------------
 using 6 threads for integral computing
 -------------------------------------------------------
 OpenMP Integral computing Module                
 Release: version 1.0, May 2013, Q-Chem Inc. Pittsburgh 
 -------------------------------------------------------
 ---------------------------------------
  Cycle       Energy         DIIS Error
 ---------------------------------------
    1    -154.8723729800      6.08E-03
    2    -154.8684596151      4.61E-03
    3    -154.8917090360      9.95E-04 Done RCA. Switching to DIIS
    4    -154.9236424930      1.04E-03
    5    -154.9267936350      8.33E-05
    6    -154.9268288297      1.84E-05
    7    -154.9268318712      7.83E-06 Convergence criterion met
 ---------------------------------------
 SCF time:  CPU 49.16 s  wall 8.22 s
 SCF   energy in the final basis set = -154.92683187
 Total energy in the final basis set = -154.92683187
 
 --------------------------------------------------------------
 
                    Orbital Energies (a.u.)
 --------------------------------------------------------------
 
 Alpha MOs
 -- Occupied --
-19.2243 -10.3547 -10.2599  -1.0726  -0.8770  -0.6992  -0.6067  -0.5699
 -0.5101  -0.4526  -0.4402  -0.3924  -0.3116
 -- Virtual --
  0.0419   0.0745   0.0900   0.0984   0.1127   0.1294   0.1399   0.1511
  0.1685   0.1864   0.2185   0.2467   0.2597   0.2770   0.2873   0.3066
  0.3244   0.3327   0.3588   0.3952   0.4615   0.4631   0.4866   0.5412
  0.5618   0.5700   0.5905   0.6093   0.6163   0.6395   0.6742   0.6824
  0.6937   0.7445   0.8048   0.8406   0.8627   0.8857   0.9232   0.9581
  0.9870   1.0177   1.0641   1.0704   1.1160   1.1727   1.2060   1.2288
  1.2485   1.2692   1.2832   1.3085   1.3140   1.3653   1.3965   1.4202
  1.4396   1.4570   1.4799   1.4966   1.5066   1.5760   1.5886   1.6379
  1.7172   1.7911   1.8752   1.9960   2.0242   2.2416   2.3285   2.4297
  2.4755   2.5614   2.6237   2.6528   2.6844   2.7662   2.7797   2.8107
  2.8627   2.9102   2.9466   2.9791   3.0081   3.0238   3.0618   3.0808
  3.1001   3.1458   3.1802   3.1875   3.2288   3.2712   3.2936   3.3324
  3.3632   3.3869   3.4033   3.4308   3.4704   3.5020   3.5303   3.5461
  3.5660   3.5888   3.6323   3.6624   3.7016   3.7508   3.7668   3.8320
  3.8440   3.8602   3.9005   3.9170   3.9526   3.9948   4.0292   4.0554
  4.0949   4.1319   4.1913   4.2061   4.2277   4.2845   4.2891   4.3170
  4.3407   4.3681   4.4261   4.4775   4.5106   4.5907   4.6126   4.7108
  4.7723   4.7988   4.8569   4.9727   4.9980   5.0128   5.0961   5.1111
  5.1540   5.2076   5.2411   5.2692   5.2915   5.3800   5.4451   5.4708
  5.5935   5.6187   5.7399   5.8268   6.0042   6.1970   6.2310   6.2753
  6.4606   6.6898   6.7592   6.8610   7.1025   7.2023   7.3524   7.7111
  7.8453   8.0950  24.9563  25.3070  50.4655
 --------------------------------------------------------------
 
 -----------------------------------------------------------------
                    Cartesian Multipole Moments
 -----------------------------------------------------------------
    Charge (ESU x 10^10)
                -0.0000
    Dipole Moment (Debye)
         X      -0.2182      Y       0.7585      Z       0.6457
       Tot       1.0197
    Quadrupole Moments (Debye-Ang)
        XX     -20.0608     XY      -3.0297     YY     -18.7043
        XZ      -1.3745     YZ      -0.8998     ZZ     -17.9366
    Octopole Moments (Debye-Ang^2)
       XXX     279.1740    XXY      -4.0603    XYY      86.2911
       YYY     -35.3524    XXZ       3.1433    XYZ       1.0780
       YYZ       0.1500    XZZ      81.8782    YZZ     -12.1672
       ZZZ      -1.7064
    Hexadecapole Moments (Debye-Ang^3)
      XXXX   -2659.2448   XXXY     175.4891   XXYY    -445.7695
      XYYY     172.3749   YYYY    -114.5369   XXXZ     -22.6401
      XXYZ       9.1809   XYYZ      -5.3960   YYYZ       8.0551
      XXZZ    -398.8993   XYZZ      56.6656   YYZZ     -24.4103
      XZZZ      -1.1538   YZZZ       4.1649   ZZZZ     -40.6163
 -----------------------------------------------------------------
Archival summary:
1\1\centos77-c1\SP\ProcedureUnspecified\BasisUnspecified\126\shihchen\WedJul2900:19:582020WedJul2900:19:582020\0\\#,ProcedureUnspecified,BasisUnspecified,\\0,1\C\H,1,1.08092\H,1,1.08285,2,114.612\C,1,1.41132,2,121.053,3,-158.707,0\H,4,1.08179,1,118.306,2,4.12185,0\H,4,1.08237,1,118.247,2,153.406,0\H,4,1.42001,1,73.3671,2,-101.28,0\O,7,1.24537,4,129.64,1,4.34102,0\H,8,0.96364,7,114.27,4,140.707,0\\\@

 Total job time:  13.39s(wall), 69.44s(cpu) 
 Wed Jul 29 00:19:58 2020

        *************************************************************
        *                                                           *
        *  Thank you very much for using Q-Chem.  Have a nice day.  *
        *                                                           *
        *************************************************************


