                  Welcome to Q-Chem
     A Quantum Leap Into The Future Of Chemistry


 Q-Chem 5.3 (devel), Q-Chem, Inc., Pleasanton, CA (2020)

 Yihan Shao,  Zhengting Gan,  E. Epifanovsky,  A. T. B. Gilbert,  M. Wormit,  
 J. Kussmann,  A. W. Lange,  A. Behn,  Jia Deng,  Xintian Feng,  D. Ghosh,  
 M. Goldey,  P. R. Horn,  L. D. Jacobson,  I. Kaliman,  T. Kus,  A. Landau,  
 Jie Liu,  E. I. Proynov,  R. M. Richard,  R. P. Steele,  E. J. Sundstrom,  
 H. L. Woodcock III,  P. M. Zimmerman,  D. Zuev,  B. Alam,  B. Albrecht,  
 E. Alguire,  S. A. Baeppler,  D. Barton,  Z. Benda,  Y. A. Bernard,  
 E. J. Berquist,  K. B. Bravaya,  H. Burton,  K. Carter-Fenk,  D. Casanova,  
 Chun-Min Chang,  Yunqing Chen,  A. Chien,  K. D. Closser,  M. P. Coons,  
 S. Coriani,  S. Dasgupta,  A. L. Dempwolff,  M. Diedenhofen,  Hainam Do,  
 R. G. Edgar,  Po-Tung Fang,  S. Faraji,  S. Fatehi,  Qingguo Feng,  
 J. Fosso-Tande,  J. Gayvert,  Qinghui Ge,  A. Ghysels,  G. Gidofalvi,  
 J. Gomes,  J. Gonthier,  A. Gunina,  D. Hait,  M. W. D. Hanson-Heine,  
 P. H. P. Harbach,  A. W. Hauser,  M. F. Herbst,  J. E. Herr,  
 E. G. Hohenstein,  Z. C. Holden,  Kerwin Hui,  B. C. Huynh,  T.-C. Jagau,  
 Hyunjun Ji,  B. Kaduk,  K. Khistyaev,  Jaehoon Kim,  P. Klunzinger,  K. Koh,  
 D. Kosenkov,  L. Koulias,  T. Kowalczyk,  C. M. Krauter,  A. Kunitsa,  
 Ka Un Lao,  A. Laurent,  K. V. Lawler,  Joonho Lee,  D. Lefrancois,  
 S. Lehtola,  D. S. Levine,  Yi-Pei Li,  You-Sheng Lin,  Fenglai Liu,  
 Kuan-Yu Liu,  E. Livshits,  M. Loipersberger,  A. Luenser,  P. Manohar,  
 E. Mansoor,  S. F. Manzer,  Shan-Ping Mao,  Yuezhi Mao,  N. Mardirossian,  
 A. V. Marenich,  T. Markovich,  L. A. Martinez-Martinez,  S. A. Maurer,  
 N. J. Mayhall,  S. C. McKenzie,  J.-M. Mewes,  P. Morgante,  A. F. Morrison,  
 J. W. Mullinax,  K. Nanda,  T. S. Nguyen-Beck,  R. Olivares-Amaya,  
 K. J. Oosterbaan,  J. A. Parkhill,  S. K. Paul,  F. Pavosevic,  Zheng Pei,  
 T. M. Perrine,  F. Plasser,  P. Pokhilko,  S. Prager,  A. Prociuk,  
 E. Ramos,  B. Rana,  D. R. Rehn,  F. Rob,  M. Scheurer,  M. Schneider,  
 N. Sergueev,  S. M. Sharada,  S. Sharma,  D. W. Small,  T. Stauch,  
 C. J. Stein,  T. Stein,  Yu-Chuan Su,  S. P. Veccham,  Zhen Tao,  
 A. J. W. Thom,  A. Tkatchenko,  T. Tsuchimochi,  N. M. Tubman,  L. Vogt,  
 M. L. Vidal,  O. Vydrov,  M. A. Watson,  J. Wenzel,  M. de Wergifosse,  
 T. A. Wesolowski,  A. White,  J. Witte,  A. Yamada,  Jun Yang,  K. Yao,  
 S. Yeganeh,  S. R. Yost,  Zhi-Qiang You,  A. Zech,  Igor Ying Zhang,  
 Xing Zhang,  Yan Zhao,  Ying Zhu,  B. R. Brooks,  G. K. L. Chan,  
 C. J. Cramer,  M. S. Gordon,  W. J. Hehre,  A. Klamt,  M. W. Schmidt,  
 C. D. Sherrill,  D. G. Truhlar,  A. Aspuru-Guzik,  R. Baer,  A. T. Bell,  
 N. A. Besley,  Jeng-Da Chai,  A. E. DePrince, III,  R. A. DiStasio Jr.,  
 A. Dreuw,  B. D. Dunietz,  T. R. Furlani,  Chao-Ping Hsu,  Yousung Jung,  
 Jing Kong,  D. S. Lambrecht,  WanZhen Liang,  C. Ochsenfeld,  
 V. A. Rassolov,  L. V. Slipchenko,  J. E. Subotnik,  T. Van Voorhis,  
 J. M. Herbert,  A. I. Krylov,  P. M. W. Gill,  M. Head-Gordon

 Contributors to earlier versions of Q-Chem not listed above: 
 R. D. Adamson,  B. Austin,  J. Baker,  G. J. O. Beran,  K. Brandhorst,  
 S. T. Brown,  E. F. C. Byrd,  A. K. Chakraborty,  C.-L. Cheng,  
 Siu Hung Chien,  D. M. Chipman,  D. L. Crittenden,  H. Dachsel,  
 R. J. Doerksen,  A. D. Dutoi,  L. Fusti-Molnar,  W. A. Goddard III,  
 A. Golubeva-Zadorozhnaya,  S. R. Gwaltney,  G. Hawkins,  A. Heyden,  
 S. Hirata,  G. Kedziora,  F. J. Keil,  C. Kelley,  Jihan Kim,  R. A. King,  
 R. Z. Khaliullin,  P. P. Korambath,  W. Kurlancheek,  A. M. Lee,  M. S. Lee,  
 S. V. Levchenko,  Ching Yeh Lin,  D. Liotard,  R. C. Lochan,  I. Lotan,  
 P. E. Maslen,  N. Nair,  D. P. O'Neill,  D. Neuhauser,  E. Neuscamman,  
 C. M. Oana,  R. Olson,  B. Peters,  R. Peverati,  P. A. Pieniazek,  
 Y. M. Rhee,  J. Ritchie,  M. A. Rohrdanz,  E. Rosta,  N. J. Russ,  
 H. F. Schaefer III,  N. E. Schultz,  N. Shenvi,  A. C. Simmonett,  A. Sodt,  
 D. Stuck,  K. S. Thanthiriwatte,  V. Vanovschi,  Tao Wang,  A. Warshel,  
 C. F. Williams,  Q. Wu,  X. Xu,  W. Zhang

 Please cite Q-Chem as follows:
 Y. Shao et al., Mol. Phys. 113, 184-215 (2015)
 DOI: 10.1080/00268976.2014.952696

 Q-Chem 5.3.0 for Intel X86 EM64T Linux

 Parts of Q-Chem use Armadillo 9.800.1 (Horizon Scraper).
 http://arma.sourceforge.net/

 Q-Chem begins on Wed Jul 29 00:05:16 2020  

Host: centos77-c1
0

     Scratch files written to /tmp/30084.centos77-h1/qchem24536//
Processing $rem in /opt/qchem-5.3.0-intel2020u1//config/preferences:
Processing $rem in /home/shihchengli/.qchemrc:

Checking the input file for inconsistencies... 	...done.

--------------------------------------------------------------
User input:
--------------------------------------------------------------
$rem
   JOBTYPE  sp
   EXCHANGE   omegaB97X-D
   BASIS   6-311+G(2df,2pd)
   UNRESTRICTED   False
   max_scf_cycles   250
   geom_opt_max_cycles   1500
   basis2 6-31G*
   scf_algorithm rca_diis
   SYM_IGNORE  TRUE
   print_input   true
   geom_opt_dmax   80
   pop_mulliken false
   XC_GRID 000075000302
$end

$molecule
0 1
C       -5.5435800576     0.5306007775     -0.1469888692
C       -4.3968165407     1.3531360317     -0.1332460023
H       -5.8492887596     0.0936223398     -1.0888613940
H       -6.3332028735     0.7394783430     0.5623283822
H       -4.5053183269     -0.2295466852     0.4535235235
O       -3.3414079132     0.1052353639     0.7436557957
H       -3.6582415589     1.2670089876     0.6512713689
H       -4.3891924619     2.3004268810     -0.6577958644
H       -2.6636839049     -0.2968247822     0.1890032229
$end
--------------------------------------------------------------
 ----------------------------------------------------------------
             Standard Nuclear Orientation (Angstroms)
    I     Atom           X                Y                Z
 ----------------------------------------------------------------
    1      C      -5.5435800576     0.5306007775    -0.1469888692
    2      C      -4.3968165407     1.3531360317    -0.1332460023
    3      H      -5.8492887596     0.0936223398    -1.0888613940
    4      H      -6.3332028735     0.7394783430     0.5623283822
    5      H      -4.5053183269    -0.2295466852     0.4535235235
    6      O      -3.3414079132     0.1052353639     0.7436557957
    7      H      -3.6582415589     1.2670089876     0.6512713689
    8      H      -4.3891924619     2.3004268810    -0.6577958644
    9      H      -2.6636839049    -0.2968247822     0.1890032229
 ----------------------------------------------------------------
 Nuclear Repulsion Energy =          80.72263157 hartrees
 There are       13 alpha and       13 beta electrons
 Requested basis set is 6-311+G(2df,2pd)
 There are 60 shells and 186 basis functions

 Total QAlloc Memory Limit   2000 MB
 Mega-Array Size       188 MB
 MEM_STATIC part       192 MB

                       Distance Matrix (Angstroms)
             C (  1)   C (  2)   H (  3)   H (  4)   H (  5)   O (  6)
   C (  2)  1.411318
   H (  3)  1.082373  2.146917
   H (  4)  1.081788  2.147089  1.837860
   H (  5)  1.420009  1.691436  2.071146  2.071717
   O (  6)  2.413244  1.854751  3.106078  3.063655  1.245369
   H (  7)  2.175780  1.080916  3.034071  2.727933  1.730989  1.207740
   H (  8)  2.173895  1.082853  2.680986  2.775687  2.765734  2.807274
   H (  9)  3.015183  2.414532  3.454485  3.831275  1.861750  0.963640
             H (  7)   H (  8)
   H (  8)  1.820961
   H (  9)  1.910082  3.231124
 
 A cutoff of  1.0D-09 yielded   1767 shell pairs
 There are     17171 function pairs (     21339 Cartesian)
 Smallest overlap matrix eigenvalue = 1.34E-04

 Scale SEOQF with 1.000000e-02/1.000000e-01/1.000000e-01

 Standard Electronic Orientation quadrupole field applied
 Nucleus-field energy     =     0.0000000025 hartrees
 Requested basis set is 6-31G(d)
 There are 24 shells and 54 basis functions
 A cutoff of  1.0D-09 yielded    297 shell pairs
 There are      1548 function pairs (      1731 Cartesian)
 Smallest overlap matrix eigenvalue = 7.29E-03
 Guess from superposition of atomic densities
 Warning:  Energy on first SCF cycle will be non-variational
 SAD guess density has 26.000000 electrons
 Long-range K will be added via erf
 Coulomb attenuation parameter = 0.2 bohr**(-1)
 A restricted hybrid HF-DFT SCF calculation will be
 performed using Relaxed Constraint Minimization + Pulay DIIS
 Exchange:     0.2220 Hartree-Fock + 1.0000 wB97X-D + LR-HF
 Correlation:  1.0000 wB97X-D
 Using Euler-Maclaurin-Lebedev (75,302) quadrature formula
 Dispersion:   Grimme D
 SCF converges when DIIS error is below 1.0E-04
 using 6 threads for integral computing
 -------------------------------------------------------
 OpenMP Integral computing Module                
 Release: version 1.0, May 2013, Q-Chem Inc. Pittsburgh 
 -------------------------------------------------------
 using 6 threads for integral computing
 -------------------------------------------------------
 OpenMP Integral computing Module                
 Release: version 1.0, May 2013, Q-Chem Inc. Pittsburgh 
 -------------------------------------------------------
 ---------------------------------------
  Cycle       Energy         DIIS Error
 ---------------------------------------
    1    -155.4722162413      1.06E-01
    2    -154.6248227546      1.46E-02
    3    -154.6559727670      3.54E-03
    4    -154.6887679475      3.73E-03
    5    -154.6905952386      7.32E-04 Done RCA. Switching to DIIS
    6    -154.6932017094      9.45E-04
    7    -154.6935113832      1.26E-04
    8    -154.6935368079      7.32E-05 Convergence criterion met
 ---------------------------------------
 SCF time:  CPU 17.50 s  wall 2.94 s
 SCF   energy in the small basis set = -154.69353681
 Total energy in the small basis set = -154.69353681
 ----------------------------------------------------
  Cycle       Energy    
 ----------------------------------------------------
    1     -18.7226439020     -1.87E+01
 Long-range K will be added via erf
 Coulomb attenuation parameter = 0.2 bohr**(-1)
 A restricted hybrid HF-DFT SCF calculation will be
 performed using Relaxed Constraint Minimization + Pulay DIIS
 Exchange:     0.2220 Hartree-Fock + 1.0000 wB97X-D + LR-HF
 Correlation:  1.0000 wB97X-D
 Using Euler-Maclaurin-Lebedev (75,302) quadrature formula
 Dispersion:   Grimme D
 SCF converges when DIIS error is below 1.0E-05
 Basis2 calculation detected. Using small basis as guess for larger.
 SCFMinFind is unable to tell whether the solution found is close.
 Resetting ReadMinima to 0 and attempting to follow guess.
 SCFMinFind following SCF Guess.
 using 6 threads for integral computing
 -------------------------------------------------------
 OpenMP Integral computing Module                
 Release: version 1.0, May 2013, Q-Chem Inc. Pittsburgh 
 -------------------------------------------------------
 using 6 threads for integral computing
 -------------------------------------------------------
 OpenMP Integral computing Module                
 Release: version 1.0, May 2013, Q-Chem Inc. Pittsburgh 
 -------------------------------------------------------
 ---------------------------------------
  Cycle       Energy         DIIS Error
 ---------------------------------------
    1    -154.7070670845      6.27E-03
    2    -154.6852402460      5.60E-03
    3    -154.7178871715      1.55E-03
    4    -154.7647968429      1.27E-03
    5    -154.7686224211      2.57E-04 Done RCA. Switching to DIIS
    6    -154.7741516781      3.16E-04
    7    -154.7745925953      3.59E-05
    8    -154.7746496598      4.06E-05
    9    -154.7746649121      1.73E-05
   10    -154.7746697638      9.18E-06 Convergence criterion met
 ---------------------------------------
 SCF time:  CPU 69.98 s  wall 11.70 s
 SCF   energy in the final basis set = -154.77466976
 Total energy in the final basis set = -154.77466976
 
 --------------------------------------------------------------
 
                    Orbital Energies (a.u.)
 --------------------------------------------------------------
 
 Alpha MOs
 -- Occupied --
-19.2682 -10.3144 -10.2542  -1.1432  -0.8675  -0.7126  -0.6481  -0.5616
 -0.5118  -0.4994  -0.4638  -0.3234  -0.2908
 -- Virtual --
 -0.0178   0.0695   0.0896   0.0982   0.1088   0.1360   0.1400   0.1441
  0.1805   0.1869   0.2266   0.2310   0.2633   0.2736   0.2785   0.2961
  0.3050   0.3364   0.3737   0.3823   0.4715   0.4833   0.5258   0.5395
  0.5575   0.5784   0.5965   0.6112   0.6190   0.6552   0.6751   0.6814
  0.6983   0.7218   0.7847   0.8043   0.8185   0.8725   0.9006   0.9727
  0.9836   1.0301   1.0448   1.0726   1.0946   1.1500   1.1669   1.1909
  1.2065   1.2425   1.2893   1.3196   1.3841   1.3945   1.4083   1.4405
  1.4455   1.4545   1.4912   1.5069   1.5459   1.5928   1.6328   1.6411
  1.7252   1.8033   1.9830   2.1308   2.2118   2.2535   2.3244   2.4901
  2.5411   2.5702   2.6314   2.6454   2.7135   2.7934   2.8137   2.8366
  2.8707   2.9148   2.9576   2.9640   2.9988   3.0400   3.0474   3.0851
  3.1368   3.1677   3.2013   3.2277   3.2484   3.2918   3.3151   3.3406
  3.3558   3.3714   3.3899   3.4187   3.4741   3.4782   3.5146   3.5367
  3.5701   3.5943   3.6023   3.6576   3.6857   3.7546   3.7702   3.7942
  3.8777   3.8904   3.8970   3.9438   3.9555   4.0120   4.0464   4.0912
  4.1149   4.1356   4.1917   4.2179   4.2382   4.2534   4.2873   4.3271
  4.3539   4.3754   4.4448   4.4961   4.5696   4.6105   4.6591   4.7166
  4.7905   4.8435   4.9178   4.9389   4.9607   5.0460   5.0777   5.1320
  5.1905   5.2461   5.2662   5.3309   5.3897   5.5187   5.6900   5.7182
  5.7620   5.7932   5.8675   6.0794   6.1397   6.1985   6.3565   6.4865
  6.7307   6.7543   6.9128   7.1862   7.2396   7.3762   7.4737   7.7429
  7.9420   8.2327  25.0315  25.3125  50.4254
 --------------------------------------------------------------
 
 -----------------------------------------------------------------
                    Cartesian Multipole Moments
 -----------------------------------------------------------------
    Charge (ESU x 10^10)
                -0.0000
    Dipole Moment (Debye)
         X       1.0386      Y       0.0704      Z      -1.1041
       Tot       1.5174
    Quadrupole Moments (Debye-Ang)
        XX     -28.2893     XY      -1.0266     YY     -19.8827
        XZ       2.9447     YZ      -0.0223     ZZ     -22.7225
    Octopole Moments (Debye-Ang^2)
       XXX     321.9985    XXY      -7.3313    XYY      89.8646
       YYY     -37.0624    XXZ      -7.9103    XYZ      -0.6349
       YYZ      -4.2464    XZZ      99.0565    YZZ     -14.5290
       ZZZ      -9.5321
    Hexadecapole Moments (Debye-Ang^3)
      XXXX   -2865.1106   XXXY     156.9326   XXYY    -451.7323
      XYYY     172.3289   YYYY    -113.2885   XXXZ       1.9536
      XXYZ      10.5400   XYYZ      12.2979   YYYZ      -1.1686
      XXZZ    -467.5011   XYZZ      67.3142   YYZZ     -31.7381
      XZZZ      20.8157   YZZZ       6.0513   ZZZZ     -58.4178
 -----------------------------------------------------------------
Archival summary:
1\1\centos77-c1\SP\ProcedureUnspecified\BasisUnspecified\126\shihchen\WedJul2900:05:332020WedJul2900:05:332020\0\\#,ProcedureUnspecified,BasisUnspecified,\\0,1\O\H,1,0.96364\H,1,1.20774,2,122.808\C,3,1.08092,1,108.145,2,84.7786,0\H,4,1.08285,3,114.612,1,-149.846,0\H,1,1.24537,2,114.27,3,106.554,0\C,4,1.41132,3,121.053,1,51.4477,0\H,7,1.08179,4,118.306,3,74.1218,0\H,7,1.08237,4,118.247,3,-136.594,0\\\@

 Total job time:  17.16s(wall), 91.95s(cpu) 
 Wed Jul 29 00:05:33 2020

        *************************************************************
        *                                                           *
        *  Thank you very much for using Q-Chem.  Have a nice day.  *
        *                                                           *
        *************************************************************


