                  Welcome to Q-Chem
     A Quantum Leap Into The Future Of Chemistry


 Q-Chem 5.3 (devel), Q-Chem, Inc., Pleasanton, CA (2020)

 Yihan Shao,  Zhengting Gan,  E. Epifanovsky,  A. T. B. Gilbert,  M. Wormit,  
 J. Kussmann,  A. W. Lange,  A. Behn,  Jia Deng,  Xintian Feng,  D. Ghosh,  
 M. Goldey,  P. R. Horn,  L. D. Jacobson,  I. Kaliman,  T. Kus,  A. Landau,  
 Jie Liu,  E. I. Proynov,  R. M. Richard,  R. P. Steele,  E. J. Sundstrom,  
 H. L. Woodcock III,  P. M. Zimmerman,  D. Zuev,  B. Alam,  B. Albrecht,  
 E. Alguire,  S. A. Baeppler,  D. Barton,  Z. Benda,  Y. A. Bernard,  
 E. J. Berquist,  K. B. Bravaya,  H. Burton,  K. Carter-Fenk,  D. Casanova,  
 Chun-Min Chang,  Yunqing Chen,  A. Chien,  K. D. Closser,  M. P. Coons,  
 S. Coriani,  S. Dasgupta,  A. L. Dempwolff,  M. Diedenhofen,  Hainam Do,  
 R. G. Edgar,  Po-Tung Fang,  S. Faraji,  S. Fatehi,  Qingguo Feng,  
 J. Fosso-Tande,  J. Gayvert,  Qinghui Ge,  A. Ghysels,  G. Gidofalvi,  
 J. Gomes,  J. Gonthier,  A. Gunina,  D. Hait,  M. W. D. Hanson-Heine,  
 P. H. P. Harbach,  A. W. Hauser,  M. F. Herbst,  J. E. Herr,  
 E. G. Hohenstein,  Z. C. Holden,  Kerwin Hui,  B. C. Huynh,  T.-C. Jagau,  
 Hyunjun Ji,  B. Kaduk,  K. Khistyaev,  Jaehoon Kim,  P. Klunzinger,  K. Koh,  
 D. Kosenkov,  L. Koulias,  T. Kowalczyk,  C. M. Krauter,  A. Kunitsa,  
 Ka Un Lao,  A. Laurent,  K. V. Lawler,  Joonho Lee,  D. Lefrancois,  
 S. Lehtola,  D. S. Levine,  Yi-Pei Li,  You-Sheng Lin,  Fenglai Liu,  
 Kuan-Yu Liu,  E. Livshits,  M. Loipersberger,  A. Luenser,  P. Manohar,  
 E. Mansoor,  S. F. Manzer,  Shan-Ping Mao,  Yuezhi Mao,  N. Mardirossian,  
 A. V. Marenich,  T. Markovich,  L. A. Martinez-Martinez,  S. A. Maurer,  
 N. J. Mayhall,  S. C. McKenzie,  J.-M. Mewes,  P. Morgante,  A. F. Morrison,  
 J. W. Mullinax,  K. Nanda,  T. S. Nguyen-Beck,  R. Olivares-Amaya,  
 K. J. Oosterbaan,  J. A. Parkhill,  S. K. Paul,  F. Pavosevic,  Zheng Pei,  
 T. M. Perrine,  F. Plasser,  P. Pokhilko,  S. Prager,  A. Prociuk,  
 E. Ramos,  B. Rana,  D. R. Rehn,  F. Rob,  M. Scheurer,  M. Schneider,  
 N. Sergueev,  S. M. Sharada,  S. Sharma,  D. W. Small,  T. Stauch,  
 C. J. Stein,  T. Stein,  Yu-Chuan Su,  S. P. Veccham,  Zhen Tao,  
 A. J. W. Thom,  A. Tkatchenko,  T. Tsuchimochi,  N. M. Tubman,  L. Vogt,  
 M. L. Vidal,  O. Vydrov,  M. A. Watson,  J. Wenzel,  M. de Wergifosse,  
 T. A. Wesolowski,  A. White,  J. Witte,  A. Yamada,  Jun Yang,  K. Yao,  
 S. Yeganeh,  S. R. Yost,  Zhi-Qiang You,  A. Zech,  Igor Ying Zhang,  
 Xing Zhang,  Yan Zhao,  Ying Zhu,  B. R. Brooks,  G. K. L. Chan,  
 C. J. Cramer,  M. S. Gordon,  W. J. Hehre,  A. Klamt,  M. W. Schmidt,  
 C. D. Sherrill,  D. G. Truhlar,  A. Aspuru-Guzik,  R. Baer,  A. T. Bell,  
 N. A. Besley,  Jeng-Da Chai,  A. E. DePrince, III,  R. A. DiStasio Jr.,  
 A. Dreuw,  B. D. Dunietz,  T. R. Furlani,  Chao-Ping Hsu,  Yousung Jung,  
 Jing Kong,  D. S. Lambrecht,  WanZhen Liang,  C. Ochsenfeld,  
 V. A. Rassolov,  L. V. Slipchenko,  J. E. Subotnik,  T. Van Voorhis,  
 J. M. Herbert,  A. I. Krylov,  P. M. W. Gill,  M. Head-Gordon

 Contributors to earlier versions of Q-Chem not listed above: 
 R. D. Adamson,  B. Austin,  J. Baker,  G. J. O. Beran,  K. Brandhorst,  
 S. T. Brown,  E. F. C. Byrd,  A. K. Chakraborty,  C.-L. Cheng,  
 Siu Hung Chien,  D. M. Chipman,  D. L. Crittenden,  H. Dachsel,  
 R. J. Doerksen,  A. D. Dutoi,  L. Fusti-Molnar,  W. A. Goddard III,  
 A. Golubeva-Zadorozhnaya,  S. R. Gwaltney,  G. Hawkins,  A. Heyden,  
 S. Hirata,  G. Kedziora,  F. J. Keil,  C. Kelley,  Jihan Kim,  R. A. King,  
 R. Z. Khaliullin,  P. P. Korambath,  W. Kurlancheek,  A. M. Lee,  M. S. Lee,  
 S. V. Levchenko,  Ching Yeh Lin,  D. Liotard,  R. C. Lochan,  I. Lotan,  
 P. E. Maslen,  N. Nair,  D. P. O'Neill,  D. Neuhauser,  E. Neuscamman,  
 C. M. Oana,  R. Olson,  B. Peters,  R. Peverati,  P. A. Pieniazek,  
 Y. M. Rhee,  J. Ritchie,  M. A. Rohrdanz,  E. Rosta,  N. J. Russ,  
 H. F. Schaefer III,  N. E. Schultz,  N. Shenvi,  A. C. Simmonett,  A. Sodt,  
 D. Stuck,  K. S. Thanthiriwatte,  V. Vanovschi,  Tao Wang,  A. Warshel,  
 C. F. Williams,  Q. Wu,  X. Xu,  W. Zhang

 Please cite Q-Chem as follows:
 Y. Shao et al., Mol. Phys. 113, 184-215 (2015)
 DOI: 10.1080/00268976.2014.952696

 Q-Chem 5.3.0 for Intel X86 EM64T Linux

 Parts of Q-Chem use Armadillo 9.800.1 (Horizon Scraper).
 http://arma.sourceforge.net/

 Q-Chem begins on Wed Jul 29 00:18:22 2020  

Host: centos77-c1
0

     Scratch files written to /tmp/30084.centos77-h1/qchem26606//
Processing $rem in /opt/qchem-5.3.0-intel2020u1//config/preferences:
Processing $rem in /home/shihchengli/.qchemrc:

Checking the input file for inconsistencies... 	...done.

--------------------------------------------------------------
User input:
--------------------------------------------------------------
$rem
   JOBTYPE  sp
   EXCHANGE   omegaB97X-D
   BASIS   6-311+G(2df,2pd)
   UNRESTRICTED   False
   max_scf_cycles   250
   geom_opt_max_cycles   1500
   basis2 6-31G*
   scf_algorithm rca_diis
   SYM_IGNORE  TRUE
   print_input   true
   geom_opt_dmax   80
   pop_mulliken false
   XC_GRID 000075000302
$end

$molecule
0 1
C       -5.5336807641     0.5371176289     -0.0790305606
C       -4.3389569334     1.2827555175     -0.1711108637
H       -6.0579252945     0.2944978187     -0.9943638979
H       -6.1449225826     0.6548425230     0.8057232359
H       -4.4680907568     -0.3722108081     0.1534913745
O       -3.2447937282     -0.1565449518     0.2427988491
H       -4.0054005434     1.9047548584     0.6475681526
H       -3.9248240663     1.5470708341     -1.1360989565
H       -2.9621377280     0.1708538363     1.1039128300
$end
--------------------------------------------------------------
 ----------------------------------------------------------------
             Standard Nuclear Orientation (Angstroms)
    I     Atom           X                Y                Z
 ----------------------------------------------------------------
    1      C      -5.5336807641     0.5371176289    -0.0790305606
    2      C      -4.3389569334     1.2827555175    -0.1711108637
    3      H      -6.0579252945     0.2944978187    -0.9943638979
    4      H      -6.1449225826     0.6548425230     0.8057232359
    5      H      -4.4680907568    -0.3722108081     0.1534913745
    6      O      -3.2447937282    -0.1565449518     0.2427988491
    7      H      -4.0054005434     1.9047548584     0.6475681526
    8      H      -3.9248240663     1.5470708341    -1.1360989565
    9      H      -2.9621377280     0.1708538363     1.1039128300
 ----------------------------------------------------------------
 Nuclear Repulsion Energy =          79.62808009 hartrees
 There are       13 alpha and       13 beta electrons
 Requested basis set is 6-311+G(2df,2pd)
 There are 60 shells and 186 basis functions

 Total QAlloc Memory Limit   2000 MB
 Mega-Array Size       188 MB
 MEM_STATIC part       192 MB

                       Distance Matrix (Angstroms)
             C (  1)   C (  2)   H (  3)   H (  4)   H (  5)   O (  6)
   C (  2)  1.411318
   H (  3)  1.082373  2.146917
   H (  4)  1.081788  2.147089  1.837860
   H (  5)  1.420009  1.691436  2.071146  2.071717
   O (  6)  2.413244  1.854751  3.106078  3.063655  1.245369
   H (  7)  2.175780  1.080916  3.082487  2.482911  2.375451  2.234126
   H (  8)  2.173895  1.082853  2.477731  3.081490  2.375252  2.294800
   H (  9)  2.854179  2.181202  3.741918  3.233153  1.861750  0.963640
             H (  7)   H (  8)
   H (  8)  1.820961
   H (  9)  2.074382  2.799713
 
 A cutoff of  1.0D-09 yielded   1782 shell pairs
 There are     17278 function pairs (     21460 Cartesian)
 Smallest overlap matrix eigenvalue = 8.67E-05

 Scale SEOQF with 1.000000e-02/1.000000e-01/1.000000e-01

 Standard Electronic Orientation quadrupole field applied
 Nucleus-field energy     =     0.0000000026 hartrees
 Requested basis set is 6-31G(d)
 There are 24 shells and 54 basis functions
 A cutoff of  1.0D-09 yielded    297 shell pairs
 There are      1548 function pairs (      1731 Cartesian)
 Smallest overlap matrix eigenvalue = 6.75E-03
 Guess from superposition of atomic densities
 Warning:  Energy on first SCF cycle will be non-variational
 SAD guess density has 26.000000 electrons
 Long-range K will be added via erf
 Coulomb attenuation parameter = 0.2 bohr**(-1)
 A restricted hybrid HF-DFT SCF calculation will be
 performed using Relaxed Constraint Minimization + Pulay DIIS
 Exchange:     0.2220 Hartree-Fock + 1.0000 wB97X-D + LR-HF
 Correlation:  1.0000 wB97X-D
 Using Euler-Maclaurin-Lebedev (75,302) quadrature formula
 Dispersion:   Grimme D
 SCF converges when DIIS error is below 1.0E-04
 using 6 threads for integral computing
 -------------------------------------------------------
 OpenMP Integral computing Module                
 Release: version 1.0, May 2013, Q-Chem Inc. Pittsburgh 
 -------------------------------------------------------
 using 6 threads for integral computing
 -------------------------------------------------------
 OpenMP Integral computing Module                
 Release: version 1.0, May 2013, Q-Chem Inc. Pittsburgh 
 -------------------------------------------------------
 ---------------------------------------
  Cycle       Energy         DIIS Error
 ---------------------------------------
    1    -155.2749975236      9.98E-02
    2    -154.7789212421      1.58E-02
    3    -154.8133540307      3.41E-03
    4    -154.8552586533      2.48E-03
    5    -154.8562474204      5.46E-04 Done RCA. Switching to DIIS
    6    -154.8574739964      3.61E-04
    7    -154.8575191920      4.57E-05 Convergence criterion met
 ---------------------------------------
 SCF time:  CPU 14.53 s  wall 2.44 s
 SCF   energy in the small basis set = -154.85751919
 Total energy in the small basis set = -154.85751919
 ----------------------------------------------------
  Cycle       Energy    
 ----------------------------------------------------
    1     -18.6741679725     -1.87E+01
 Long-range K will be added via erf
 Coulomb attenuation parameter = 0.2 bohr**(-1)
 A restricted hybrid HF-DFT SCF calculation will be
 performed using Relaxed Constraint Minimization + Pulay DIIS
 Exchange:     0.2220 Hartree-Fock + 1.0000 wB97X-D + LR-HF
 Correlation:  1.0000 wB97X-D
 Using Euler-Maclaurin-Lebedev (75,302) quadrature formula
 Dispersion:   Grimme D
 SCF converges when DIIS error is below 1.0E-05
 Basis2 calculation detected. Using small basis as guess for larger.
 SCFMinFind is unable to tell whether the solution found is close.
 Resetting ReadMinima to 0 and attempting to follow guess.
 SCFMinFind following SCF Guess.
 using 6 threads for integral computing
 -------------------------------------------------------
 OpenMP Integral computing Module                
 Release: version 1.0, May 2013, Q-Chem Inc. Pittsburgh 
 -------------------------------------------------------
 using 6 threads for integral computing
 -------------------------------------------------------
 OpenMP Integral computing Module                
 Release: version 1.0, May 2013, Q-Chem Inc. Pittsburgh 
 -------------------------------------------------------
 ---------------------------------------
  Cycle       Energy         DIIS Error
 ---------------------------------------
    1    -154.8830053478      5.98E-03
    2    -154.8778657011      4.44E-03
    3    -154.8992152339      1.04E-03
    4    -154.9287157814      1.16E-03
    5    -154.9303941712      1.90E-04 Done RCA. Switching to DIIS
    6    -154.9325606088      2.31E-04
    7    -154.9327167803      7.91E-06 Convergence criterion met
 ---------------------------------------
 SCF time:  CPU 49.78 s  wall 8.32 s
 SCF   energy in the final basis set = -154.93271678
 Total energy in the final basis set = -154.93271678
 
 --------------------------------------------------------------
 
                    Orbital Energies (a.u.)
 --------------------------------------------------------------
 
 Alpha MOs
 -- Occupied --
-19.2451 -10.3573 -10.2552  -1.0940  -0.8744  -0.7008  -0.6117  -0.5719
 -0.5081  -0.4649  -0.4455  -0.4278  -0.3031
 -- Virtual --
  0.0506   0.0649   0.0883   0.0946   0.1128   0.1260   0.1365   0.1484
  0.1774   0.1954   0.2111   0.2313   0.2512   0.2785   0.2853   0.3021
  0.3228   0.3290   0.3599   0.3920   0.4560   0.4608   0.4908   0.5328
  0.5578   0.5843   0.5871   0.6013   0.6110   0.6229   0.6450   0.6848
  0.6982   0.7431   0.7900   0.8258   0.8418   0.8801   0.9008   0.9640
  1.0013   1.0101   1.0679   1.0916   1.1266   1.1477   1.1630   1.1807
  1.2318   1.2328   1.2759   1.3107   1.3197   1.3486   1.4090   1.4275
  1.4309   1.4417   1.4796   1.4924   1.5343   1.5775   1.5877   1.6569
  1.7160   1.7629   1.9563   2.0241   2.0508   2.2703   2.3081   2.4200
  2.4466   2.5522   2.6331   2.6758   2.6934   2.7328   2.7692   2.8067
  2.8731   2.8935   2.9423   2.9584   3.0081   3.0358   3.0570   3.0861
  3.1132   3.1422   3.1739   3.2120   3.2386   3.2751   3.3222   3.3266
  3.3561   3.4025   3.4104   3.4487   3.4544   3.5127   3.5464   3.5696
  3.5816   3.6018   3.6182   3.6625   3.7035   3.7434   3.7746   3.8144
  3.8320   3.8524   3.8857   3.9053   3.9370   3.9628   4.0247   4.0752
  4.0987   4.1079   4.1888   4.2028   4.2445   4.2690   4.2711   4.2955
  4.3342   4.4066   4.4360   4.4812   4.4944   4.5819   4.6029   4.7101
  4.7378   4.7885   4.8585   4.9648   4.9735   5.0167   5.0458   5.1037
  5.1085   5.2173   5.2351   5.2925   5.3799   5.3999   5.4778   5.5389
  5.5732   5.6235   5.7633   5.7698   6.0610   6.1958   6.2483   6.2779
  6.4713   6.6339   6.7235   6.8742   7.1882   7.3043   7.4102   7.5163
  7.7764   8.1615  24.9593  25.3099  50.4533
 --------------------------------------------------------------
 
 -----------------------------------------------------------------
                    Cartesian Multipole Moments
 -----------------------------------------------------------------
    Charge (ESU x 10^10)
                -0.0000
    Dipole Moment (Debye)
         X      -0.0527      Y       1.7985      Z       0.8865
       Tot       2.0058
    Quadrupole Moments (Debye-Ang)
        XX     -22.3966     XY      -5.4686     YY     -19.7100
        XZ      -2.2051     YZ       0.5709     ZZ     -17.5303
    Octopole Moments (Debye-Ang^2)
       XXX     298.3554    XXY       2.4018    XYY      90.1126
       YYY     -32.1271    XXZ       5.3150    XYZ      -2.6969
       YYZ      -0.0029    XZZ      80.0854    YZZ      -9.0725
       ZZZ       0.1212
    Hexadecapole Moments (Debye-Ang^3)
      XXXX   -2784.1117   XXXY     149.9340   XXYY    -458.8826
      XYYY     158.9825   YYYY    -109.2347   XXXZ     -21.9691
      XXYZ      16.6340   XYYZ      -3.7982   YYYZ       6.5347
      XXZZ    -390.3868   XYZZ      45.7075   YYZZ     -23.1668
      XZZZ      -5.8481   YZZZ       5.1152   ZZZZ     -36.9140
 -----------------------------------------------------------------
Archival summary:
1\1\centos77-c1\SP\ProcedureUnspecified\BasisUnspecified\126\shihchen\WedJul2900:18:352020WedJul2900:18:352020\0\\#,ProcedureUnspecified,BasisUnspecified,\\0,1\C\H,1,1.08092\H,1,1.08285,2,114.612\C,1,1.41132,2,121.053,3,-158.707,0\H,4,1.08179,1,118.306,2,4.12185,0\H,4,1.08237,1,118.247,2,153.406,0\H,4,1.42001,1,73.3671,2,-101.28,0\O,7,1.24537,4,129.64,1,4.34102,0\H,8,0.96364,7,114.27,4,80.7075,0\\\@

 Total job time:  12.98s(wall), 68.38s(cpu) 
 Wed Jul 29 00:18:35 2020

        *************************************************************
        *                                                           *
        *  Thank you very much for using Q-Chem.  Have a nice day.  *
        *                                                           *
        *************************************************************


