                  Welcome to Q-Chem
     A Quantum Leap Into The Future Of Chemistry


 Q-Chem 5.3 (devel), Q-Chem, Inc., Pleasanton, CA (2020)

 Yihan Shao,  Zhengting Gan,  E. Epifanovsky,  A. T. B. Gilbert,  M. Wormit,  
 J. Kussmann,  A. W. Lange,  A. Behn,  Jia Deng,  Xintian Feng,  D. Ghosh,  
 M. Goldey,  P. R. Horn,  L. D. Jacobson,  I. Kaliman,  T. Kus,  A. Landau,  
 Jie Liu,  E. I. Proynov,  R. M. Richard,  R. P. Steele,  E. J. Sundstrom,  
 H. L. Woodcock III,  P. M. Zimmerman,  D. Zuev,  B. Alam,  B. Albrecht,  
 E. Alguire,  S. A. Baeppler,  D. Barton,  Z. Benda,  Y. A. Bernard,  
 E. J. Berquist,  K. B. Bravaya,  H. Burton,  K. Carter-Fenk,  D. Casanova,  
 Chun-Min Chang,  Yunqing Chen,  A. Chien,  K. D. Closser,  M. P. Coons,  
 S. Coriani,  S. Dasgupta,  A. L. Dempwolff,  M. Diedenhofen,  Hainam Do,  
 R. G. Edgar,  Po-Tung Fang,  S. Faraji,  S. Fatehi,  Qingguo Feng,  
 J. Fosso-Tande,  J. Gayvert,  Qinghui Ge,  A. Ghysels,  G. Gidofalvi,  
 J. Gomes,  J. Gonthier,  A. Gunina,  D. Hait,  M. W. D. Hanson-Heine,  
 P. H. P. Harbach,  A. W. Hauser,  M. F. Herbst,  J. E. Herr,  
 E. G. Hohenstein,  Z. C. Holden,  Kerwin Hui,  B. C. Huynh,  T.-C. Jagau,  
 Hyunjun Ji,  B. Kaduk,  K. Khistyaev,  Jaehoon Kim,  P. Klunzinger,  K. Koh,  
 D. Kosenkov,  L. Koulias,  T. Kowalczyk,  C. M. Krauter,  A. Kunitsa,  
 Ka Un Lao,  A. Laurent,  K. V. Lawler,  Joonho Lee,  D. Lefrancois,  
 S. Lehtola,  D. S. Levine,  Yi-Pei Li,  You-Sheng Lin,  Fenglai Liu,  
 Kuan-Yu Liu,  E. Livshits,  M. Loipersberger,  A. Luenser,  P. Manohar,  
 E. Mansoor,  S. F. Manzer,  Shan-Ping Mao,  Yuezhi Mao,  N. Mardirossian,  
 A. V. Marenich,  T. Markovich,  L. A. Martinez-Martinez,  S. A. Maurer,  
 N. J. Mayhall,  S. C. McKenzie,  J.-M. Mewes,  P. Morgante,  A. F. Morrison,  
 J. W. Mullinax,  K. Nanda,  T. S. Nguyen-Beck,  R. Olivares-Amaya,  
 K. J. Oosterbaan,  J. A. Parkhill,  S. K. Paul,  F. Pavosevic,  Zheng Pei,  
 T. M. Perrine,  F. Plasser,  P. Pokhilko,  S. Prager,  A. Prociuk,  
 E. Ramos,  B. Rana,  D. R. Rehn,  F. Rob,  M. Scheurer,  M. Schneider,  
 N. Sergueev,  S. M. Sharada,  S. Sharma,  D. W. Small,  T. Stauch,  
 C. J. Stein,  T. Stein,  Yu-Chuan Su,  S. P. Veccham,  Zhen Tao,  
 A. J. W. Thom,  A. Tkatchenko,  T. Tsuchimochi,  N. M. Tubman,  L. Vogt,  
 M. L. Vidal,  O. Vydrov,  M. A. Watson,  J. Wenzel,  M. de Wergifosse,  
 T. A. Wesolowski,  A. White,  J. Witte,  A. Yamada,  Jun Yang,  K. Yao,  
 S. Yeganeh,  S. R. Yost,  Zhi-Qiang You,  A. Zech,  Igor Ying Zhang,  
 Xing Zhang,  Yan Zhao,  Ying Zhu,  B. R. Brooks,  G. K. L. Chan,  
 C. J. Cramer,  M. S. Gordon,  W. J. Hehre,  A. Klamt,  M. W. Schmidt,  
 C. D. Sherrill,  D. G. Truhlar,  A. Aspuru-Guzik,  R. Baer,  A. T. Bell,  
 N. A. Besley,  Jeng-Da Chai,  A. E. DePrince, III,  R. A. DiStasio Jr.,  
 A. Dreuw,  B. D. Dunietz,  T. R. Furlani,  Chao-Ping Hsu,  Yousung Jung,  
 Jing Kong,  D. S. Lambrecht,  WanZhen Liang,  C. Ochsenfeld,  
 V. A. Rassolov,  L. V. Slipchenko,  J. E. Subotnik,  T. Van Voorhis,  
 J. M. Herbert,  A. I. Krylov,  P. M. W. Gill,  M. Head-Gordon

 Contributors to earlier versions of Q-Chem not listed above: 
 R. D. Adamson,  B. Austin,  J. Baker,  G. J. O. Beran,  K. Brandhorst,  
 S. T. Brown,  E. F. C. Byrd,  A. K. Chakraborty,  C.-L. Cheng,  
 Siu Hung Chien,  D. M. Chipman,  D. L. Crittenden,  H. Dachsel,  
 R. J. Doerksen,  A. D. Dutoi,  L. Fusti-Molnar,  W. A. Goddard III,  
 A. Golubeva-Zadorozhnaya,  S. R. Gwaltney,  G. Hawkins,  A. Heyden,  
 S. Hirata,  G. Kedziora,  F. J. Keil,  C. Kelley,  Jihan Kim,  R. A. King,  
 R. Z. Khaliullin,  P. P. Korambath,  W. Kurlancheek,  A. M. Lee,  M. S. Lee,  
 S. V. Levchenko,  Ching Yeh Lin,  D. Liotard,  R. C. Lochan,  I. Lotan,  
 P. E. Maslen,  N. Nair,  D. P. O'Neill,  D. Neuhauser,  E. Neuscamman,  
 C. M. Oana,  R. Olson,  B. Peters,  R. Peverati,  P. A. Pieniazek,  
 Y. M. Rhee,  J. Ritchie,  M. A. Rohrdanz,  E. Rosta,  N. J. Russ,  
 H. F. Schaefer III,  N. E. Schultz,  N. Shenvi,  A. C. Simmonett,  A. Sodt,  
 D. Stuck,  K. S. Thanthiriwatte,  V. Vanovschi,  Tao Wang,  A. Warshel,  
 C. F. Williams,  Q. Wu,  X. Xu,  W. Zhang

 Please cite Q-Chem as follows:
 Y. Shao et al., Mol. Phys. 113, 184-215 (2015)
 DOI: 10.1080/00268976.2014.952696

 Q-Chem 5.3.0 for Intel X86 EM64T Linux

 Parts of Q-Chem use Armadillo 9.800.1 (Horizon Scraper).
 http://arma.sourceforge.net/

 Q-Chem begins on Wed Jul 29 00:20:54 2020  

Host: centos77-c1
0

     Scratch files written to /tmp/30084.centos77-h1/qchem27074//
Processing $rem in /opt/qchem-5.3.0-intel2020u1//config/preferences:
Processing $rem in /home/shihchengli/.qchemrc:

Checking the input file for inconsistencies... 	...done.

--------------------------------------------------------------
User input:
--------------------------------------------------------------
$rem
   JOBTYPE  sp
   EXCHANGE   omegaB97X-D
   BASIS   6-311+G(2df,2pd)
   UNRESTRICTED   False
   max_scf_cycles   250
   geom_opt_max_cycles   1500
   basis2 6-31G*
   scf_algorithm rca_diis
   SYM_IGNORE  TRUE
   print_input   true
   geom_opt_dmax   80
   pop_mulliken false
   XC_GRID 000075000302
$end

$molecule
0 1
C       -5.5482873831     0.5542996312     -0.0868635925
C       -4.4108908932     1.3826525409     -0.1963184070
H       -5.9448646278     0.1068577712     -0.9891130532
H       -6.2635423811     0.7659642772     0.6966371142
H       -4.4502435050     -0.1948994502     0.4125631774
O       -3.2650076139     0.1484434355     0.5807141572
H       -4.2209732793     2.1668849450     0.5229097998
H       -3.9107291676     1.5126414541     -1.1479022279
H       -2.6661935463     -0.5797073476     0.7802631952
$end
--------------------------------------------------------------
 ----------------------------------------------------------------
             Standard Nuclear Orientation (Angstroms)
    I     Atom           X                Y                Z
 ----------------------------------------------------------------
    1      C      -5.5482873831     0.5542996312    -0.0868635925
    2      C      -4.4108908932     1.3826525409    -0.1963184070
    3      H      -5.9448646278     0.1068577712    -0.9891130532
    4      H      -6.2635423811     0.7659642772     0.6966371142
    5      H      -4.4502435050    -0.1948994502     0.4125631774
    6      O      -3.2650076139     0.1484434355     0.5807141572
    7      H      -4.2209732793     2.1668849450     0.5229097998
    8      H      -3.9107291676     1.5126414541    -1.1479022279
    9      H      -2.6661935463    -0.5797073476     0.7802631952
 ----------------------------------------------------------------
 Nuclear Repulsion Energy =          79.04635324 hartrees
 There are       13 alpha and       13 beta electrons
 Requested basis set is 6-311+G(2df,2pd)
 There are 60 shells and 186 basis functions

 Total QAlloc Memory Limit   2000 MB
 Mega-Array Size       188 MB
 MEM_STATIC part       192 MB

                       Distance Matrix (Angstroms)
             C (  1)   C (  2)   H (  3)   H (  4)   H (  5)   O (  6)
   C (  2)  1.411318
   H (  3)  1.082373  2.146917
   H (  4)  1.081788  2.147089  1.837860
   H (  5)  1.420009  1.691436  2.071146  2.071717
   O (  6)  2.413244  1.854751  3.106078  3.063655  1.245369
   H (  7)  2.175780  1.080916  3.082487  2.482911  2.375451  2.234126
   H (  8)  2.173895  1.082853  2.477731  3.081490  2.375252  2.294800
   H (  9)  3.216263  2.801524  3.788370  3.841711  1.861750  0.963640
             H (  7)   H (  8)
   H (  8)  1.820961
   H (  9)  3.166598  3.105578
 
 A cutoff of  1.0D-09 yielded   1763 shell pairs
 There are     17146 function pairs (     21306 Cartesian)
 Smallest overlap matrix eigenvalue = 9.03E-05

 Scale SEOQF with 1.000000e-02/1.000000e-01/1.000000e-01

 Standard Electronic Orientation quadrupole field applied
 Nucleus-field energy     =     0.0000000027 hartrees
 Requested basis set is 6-31G(d)
 There are 24 shells and 54 basis functions
 A cutoff of  1.0D-09 yielded    296 shell pairs
 There are      1547 function pairs (      1730 Cartesian)
 Smallest overlap matrix eigenvalue = 6.61E-03
 Guess from superposition of atomic densities
 Warning:  Energy on first SCF cycle will be non-variational
 SAD guess density has 26.000000 electrons
 Long-range K will be added via erf
 Coulomb attenuation parameter = 0.2 bohr**(-1)
 A restricted hybrid HF-DFT SCF calculation will be
 performed using Relaxed Constraint Minimization + Pulay DIIS
 Exchange:     0.2220 Hartree-Fock + 1.0000 wB97X-D + LR-HF
 Correlation:  1.0000 wB97X-D
 Using Euler-Maclaurin-Lebedev (75,302) quadrature formula
 Dispersion:   Grimme D
 SCF converges when DIIS error is below 1.0E-04
 using 6 threads for integral computing
 -------------------------------------------------------
 OpenMP Integral computing Module                
 Release: version 1.0, May 2013, Q-Chem Inc. Pittsburgh 
 -------------------------------------------------------
 using 6 threads for integral computing
 -------------------------------------------------------
 OpenMP Integral computing Module                
 Release: version 1.0, May 2013, Q-Chem Inc. Pittsburgh 
 -------------------------------------------------------
 ---------------------------------------
  Cycle       Energy         DIIS Error
 ---------------------------------------
    1    -155.2483264085      9.87E-02
    2    -154.7587112392      1.66E-02
    3    -154.7957524010      2.98E-03
    4    -154.8406814303      1.78E-03
    5    -154.8412958051      3.95E-04 Done RCA. Switching to DIIS
    6    -154.8419116911      3.78E-04
    7    -154.8419556627      4.25E-05 Convergence criterion met
 ---------------------------------------
 SCF time:  CPU 14.17 s  wall 2.38 s
 SCF   energy in the small basis set = -154.84195566
 Total energy in the small basis set = -154.84195566
 ----------------------------------------------------
  Cycle       Energy    
 ----------------------------------------------------
    1     -18.6803934698     -1.87E+01
 Long-range K will be added via erf
 Coulomb attenuation parameter = 0.2 bohr**(-1)
 A restricted hybrid HF-DFT SCF calculation will be
 performed using Relaxed Constraint Minimization + Pulay DIIS
 Exchange:     0.2220 Hartree-Fock + 1.0000 wB97X-D + LR-HF
 Correlation:  1.0000 wB97X-D
 Using Euler-Maclaurin-Lebedev (75,302) quadrature formula
 Dispersion:   Grimme D
 SCF converges when DIIS error is below 1.0E-05
 Basis2 calculation detected. Using small basis as guess for larger.
 SCFMinFind is unable to tell whether the solution found is close.
 Resetting ReadMinima to 0 and attempting to follow guess.
 SCFMinFind following SCF Guess.
 using 6 threads for integral computing
 -------------------------------------------------------
 OpenMP Integral computing Module                
 Release: version 1.0, May 2013, Q-Chem Inc. Pittsburgh 
 -------------------------------------------------------
 using 6 threads for integral computing
 -------------------------------------------------------
 OpenMP Integral computing Module                
 Release: version 1.0, May 2013, Q-Chem Inc. Pittsburgh 
 -------------------------------------------------------
 ---------------------------------------
  Cycle       Energy         DIIS Error
 ---------------------------------------
    1    -154.8645199451      6.14E-03
    2    -154.8601930918      4.75E-03
    3    -154.8848548474      9.98E-04 Done RCA. Switching to DIIS
    4    -154.9186242807      1.03E-03
    5    -154.9216782968      8.98E-05
    6    -154.9217190144      2.06E-05
    7    -154.9217230334      1.03E-05
    8    -154.9217237548      3.04E-06 Convergence criterion met
 ---------------------------------------
 SCF time:  CPU 48.11 s  wall 8.05 s
 SCF   energy in the final basis set = -154.92172375
 Total energy in the final basis set = -154.92172375
 
 --------------------------------------------------------------
 
                    Orbital Energies (a.u.)
 --------------------------------------------------------------
 
 Alpha MOs
 -- Occupied --
-19.2165 -10.3553 -10.2628  -1.0658  -0.8780  -0.7004  -0.6052  -0.5703
 -0.5106  -0.4538  -0.4372  -0.3762  -0.3174
 -- Virtual --
  0.0360   0.0757   0.0900   0.1009   0.1119   0.1302   0.1401   0.1508
  0.1662   0.1870   0.2202   0.2476   0.2666   0.2712   0.2861   0.3227
  0.3244   0.3550   0.3742   0.3977   0.4568   0.4642   0.4862   0.5408
  0.5454   0.5725   0.5915   0.6126   0.6185   0.6298   0.6489   0.6823
  0.6896   0.7687   0.8141   0.8408   0.8632   0.8948   0.9199   0.9655
  1.0005   1.0180   1.0556   1.0670   1.1160   1.1764   1.2121   1.2195
  1.2502   1.2746   1.2835   1.3048   1.3293   1.3702   1.4021   1.4051
  1.4407   1.4507   1.4821   1.4840   1.5242   1.5629   1.5935   1.6471
  1.7160   1.8069   1.8422   2.0033   2.0296   2.2211   2.3445   2.4369
  2.4803   2.5664   2.6266   2.6499   2.6833   2.7377   2.7908   2.8075
  2.8770   2.9327   2.9622   2.9677   3.0006   3.0373   3.0599   3.0741
  3.0965   3.1407   3.1799   3.1885   3.2193   3.2719   3.3128   3.3404
  3.3540   3.3805   3.4107   3.4325   3.4649   3.5084   3.5363   3.5533
  3.5629   3.5863   3.6339   3.6656   3.7008   3.7543   3.7739   3.8359
  3.8463   3.8711   3.8955   3.9041   3.9182   3.9824   4.0374   4.0489
  4.0808   4.1534   4.1734   4.2054   4.2195   4.2831   4.2998   4.3047
  4.3454   4.3842   4.4120   4.5060   4.5296   4.5918   4.6295   4.7160
  4.7714   4.8168   4.8684   4.9705   4.9939   5.0102   5.0945   5.1145
  5.1751   5.2085   5.2453   5.2678   5.2858   5.3742   5.4356   5.4778
  5.5843   5.6212   5.7618   5.8527   5.9921   6.1962   6.2258   6.2710
  6.4599   6.6673   6.7704   6.8698   7.0738   7.2275   7.3095   7.6560
  7.8668   8.1456  24.9547  25.3061  50.4988
 --------------------------------------------------------------
 
 -----------------------------------------------------------------
                    Cartesian Multipole Moments
 -----------------------------------------------------------------
    Charge (ESU x 10^10)
                 0.0000
    Dipole Moment (Debye)
         X      -0.1057      Y       0.1709      Z      -0.5592
       Tot       0.5942
    Quadrupole Moments (Debye-Ang)
        XX     -19.8740     XY      -1.8030     YY     -17.7665
        XZ       1.8645     YZ      -0.7355     ZZ     -20.3772
    Octopole Moments (Debye-Ang^2)
       XXX     273.3396    XXY      -6.2170    XYY      82.8507
       YYY     -36.5474    XXZ      -5.8034    XYZ      -0.4478
       YYZ      -0.2689    XZZ      89.8992    YZZ     -13.3522
       ZZZ      -8.7346
    Hexadecapole Moments (Debye-Ang^3)
      XXXX   -2607.5505   XXXY     177.2144   XXYY    -432.0764
      XYYY     175.4505   YYYY    -113.8655   XXXZ       2.1140
      XXYZ      18.3544   XYYZ      -4.9091   YYYZ       8.0223
      XXZZ    -427.7426   XYZZ      61.5843   YYZZ     -26.5439
      XZZZ      21.3899   YZZZ       3.3701   ZZZZ     -51.5460
 -----------------------------------------------------------------
Archival summary:
1\1\centos77-c1\SP\ProcedureUnspecified\BasisUnspecified\126\shihchen\WedJul2900:21:072020WedJul2900:21:072020\0\\#,ProcedureUnspecified,BasisUnspecified,\\0,1\C\H,1,1.08092\H,1,1.08285,2,114.612\C,1,1.41132,2,121.053,3,-158.707,0\H,4,1.08179,1,118.306,2,4.12185,0\H,4,1.08237,1,118.247,2,153.406,0\H,4,1.42001,1,73.3671,2,-101.28,0\O,7,1.24537,4,129.64,1,4.34102,0\H,8,0.96364,7,114.27,4,-169.293,0\\\@

 Total job time:  12.60s(wall), 66.16s(cpu) 
 Wed Jul 29 00:21:07 2020

        *************************************************************
        *                                                           *
        *  Thank you very much for using Q-Chem.  Have a nice day.  *
        *                                                           *
        *************************************************************


