                  Welcome to Q-Chem
     A Quantum Leap Into The Future Of Chemistry


 Q-Chem 5.3 (devel), Q-Chem, Inc., Pleasanton, CA (2020)

 Yihan Shao,  Zhengting Gan,  E. Epifanovsky,  A. T. B. Gilbert,  M. Wormit,  
 J. Kussmann,  A. W. Lange,  A. Behn,  Jia Deng,  Xintian Feng,  D. Ghosh,  
 M. Goldey,  P. R. Horn,  L. D. Jacobson,  I. Kaliman,  T. Kus,  A. Landau,  
 Jie Liu,  E. I. Proynov,  R. M. Richard,  R. P. Steele,  E. J. Sundstrom,  
 H. L. Woodcock III,  P. M. Zimmerman,  D. Zuev,  B. Alam,  B. Albrecht,  
 E. Alguire,  S. A. Baeppler,  D. Barton,  Z. Benda,  Y. A. Bernard,  
 E. J. Berquist,  K. B. Bravaya,  H. Burton,  K. Carter-Fenk,  D. Casanova,  
 Chun-Min Chang,  Yunqing Chen,  A. Chien,  K. D. Closser,  M. P. Coons,  
 S. Coriani,  S. Dasgupta,  A. L. Dempwolff,  M. Diedenhofen,  Hainam Do,  
 R. G. Edgar,  Po-Tung Fang,  S. Faraji,  S. Fatehi,  Qingguo Feng,  
 J. Fosso-Tande,  J. Gayvert,  Qinghui Ge,  A. Ghysels,  G. Gidofalvi,  
 J. Gomes,  J. Gonthier,  A. Gunina,  D. Hait,  M. W. D. Hanson-Heine,  
 P. H. P. Harbach,  A. W. Hauser,  M. F. Herbst,  J. E. Herr,  
 E. G. Hohenstein,  Z. C. Holden,  Kerwin Hui,  B. C. Huynh,  T.-C. Jagau,  
 Hyunjun Ji,  B. Kaduk,  K. Khistyaev,  Jaehoon Kim,  P. Klunzinger,  K. Koh,  
 D. Kosenkov,  L. Koulias,  T. Kowalczyk,  C. M. Krauter,  A. Kunitsa,  
 Ka Un Lao,  A. Laurent,  K. V. Lawler,  Joonho Lee,  D. Lefrancois,  
 S. Lehtola,  D. S. Levine,  Yi-Pei Li,  You-Sheng Lin,  Fenglai Liu,  
 Kuan-Yu Liu,  E. Livshits,  M. Loipersberger,  A. Luenser,  P. Manohar,  
 E. Mansoor,  S. F. Manzer,  Shan-Ping Mao,  Yuezhi Mao,  N. Mardirossian,  
 A. V. Marenich,  T. Markovich,  L. A. Martinez-Martinez,  S. A. Maurer,  
 N. J. Mayhall,  S. C. McKenzie,  J.-M. Mewes,  P. Morgante,  A. F. Morrison,  
 J. W. Mullinax,  K. Nanda,  T. S. Nguyen-Beck,  R. Olivares-Amaya,  
 K. J. Oosterbaan,  J. A. Parkhill,  S. K. Paul,  F. Pavosevic,  Zheng Pei,  
 T. M. Perrine,  F. Plasser,  P. Pokhilko,  S. Prager,  A. Prociuk,  
 E. Ramos,  B. Rana,  D. R. Rehn,  F. Rob,  M. Scheurer,  M. Schneider,  
 N. Sergueev,  S. M. Sharada,  S. Sharma,  D. W. Small,  T. Stauch,  
 C. J. Stein,  T. Stein,  Yu-Chuan Su,  S. P. Veccham,  Zhen Tao,  
 A. J. W. Thom,  A. Tkatchenko,  T. Tsuchimochi,  N. M. Tubman,  L. Vogt,  
 M. L. Vidal,  O. Vydrov,  M. A. Watson,  J. Wenzel,  M. de Wergifosse,  
 T. A. Wesolowski,  A. White,  J. Witte,  A. Yamada,  Jun Yang,  K. Yao,  
 S. Yeganeh,  S. R. Yost,  Zhi-Qiang You,  A. Zech,  Igor Ying Zhang,  
 Xing Zhang,  Yan Zhao,  Ying Zhu,  B. R. Brooks,  G. K. L. Chan,  
 C. J. Cramer,  M. S. Gordon,  W. J. Hehre,  A. Klamt,  M. W. Schmidt,  
 C. D. Sherrill,  D. G. Truhlar,  A. Aspuru-Guzik,  R. Baer,  A. T. Bell,  
 N. A. Besley,  Jeng-Da Chai,  A. E. DePrince, III,  R. A. DiStasio Jr.,  
 A. Dreuw,  B. D. Dunietz,  T. R. Furlani,  Chao-Ping Hsu,  Yousung Jung,  
 Jing Kong,  D. S. Lambrecht,  WanZhen Liang,  C. Ochsenfeld,  
 V. A. Rassolov,  L. V. Slipchenko,  J. E. Subotnik,  T. Van Voorhis,  
 J. M. Herbert,  A. I. Krylov,  P. M. W. Gill,  M. Head-Gordon

 Contributors to earlier versions of Q-Chem not listed above: 
 R. D. Adamson,  B. Austin,  J. Baker,  G. J. O. Beran,  K. Brandhorst,  
 S. T. Brown,  E. F. C. Byrd,  A. K. Chakraborty,  C.-L. Cheng,  
 Siu Hung Chien,  D. M. Chipman,  D. L. Crittenden,  H. Dachsel,  
 R. J. Doerksen,  A. D. Dutoi,  L. Fusti-Molnar,  W. A. Goddard III,  
 A. Golubeva-Zadorozhnaya,  S. R. Gwaltney,  G. Hawkins,  A. Heyden,  
 S. Hirata,  G. Kedziora,  F. J. Keil,  C. Kelley,  Jihan Kim,  R. A. King,  
 R. Z. Khaliullin,  P. P. Korambath,  W. Kurlancheek,  A. M. Lee,  M. S. Lee,  
 S. V. Levchenko,  Ching Yeh Lin,  D. Liotard,  R. C. Lochan,  I. Lotan,  
 P. E. Maslen,  N. Nair,  D. P. O'Neill,  D. Neuhauser,  E. Neuscamman,  
 C. M. Oana,  R. Olson,  B. Peters,  R. Peverati,  P. A. Pieniazek,  
 Y. M. Rhee,  J. Ritchie,  M. A. Rohrdanz,  E. Rosta,  N. J. Russ,  
 H. F. Schaefer III,  N. E. Schultz,  N. Shenvi,  A. C. Simmonett,  A. Sodt,  
 D. Stuck,  K. S. Thanthiriwatte,  V. Vanovschi,  Tao Wang,  A. Warshel,  
 C. F. Williams,  Q. Wu,  X. Xu,  W. Zhang

 Please cite Q-Chem as follows:
 Y. Shao et al., Mol. Phys. 113, 184-215 (2015)
 DOI: 10.1080/00268976.2014.952696

 Q-Chem 5.3.0 for Intel X86 EM64T Linux

 Parts of Q-Chem use Armadillo 9.800.1 (Horizon Scraper).
 http://arma.sourceforge.net/

 Q-Chem begins on Wed Jul 29 00:17:05 2020  

Host: centos77-c1
0

     Scratch files written to /tmp/30084.centos77-h1/qchem26392//
Processing $rem in /opt/qchem-5.3.0-intel2020u1//config/preferences:
Processing $rem in /home/shihchengli/.qchemrc:

Checking the input file for inconsistencies... 	...done.

--------------------------------------------------------------
User input:
--------------------------------------------------------------
$rem
   JOBTYPE  sp
   EXCHANGE   omegaB97X-D
   BASIS   6-311+G(2df,2pd)
   UNRESTRICTED   False
   max_scf_cycles   250
   geom_opt_max_cycles   1500
   basis2 6-31G*
   scf_algorithm rca_diis
   SYM_IGNORE  TRUE
   print_input   true
   geom_opt_dmax   80
   pop_mulliken false
   XC_GRID 000075000302
$end

$molecule
0 1
C       -5.5292970448     0.5293966558     -0.0733024360
C       -4.2973450886     1.2177924565     -0.0883115634
H       -6.0215380482     0.3395097861     -1.0183810516
H       -6.1745720222     0.6512702055     0.7863672875
H       -4.5202734050     -0.4375574470     0.1782880602
O       -3.2935287359     -0.2849409146     0.3291155040
H       -3.9727716253     1.7986162641     0.7635535366
H       -3.8267782698     1.4893508539     -1.0250044391
H       -3.0446281574     0.5596993967     0.7205652650
$end
--------------------------------------------------------------
 ----------------------------------------------------------------
             Standard Nuclear Orientation (Angstroms)
    I     Atom           X                Y                Z
 ----------------------------------------------------------------
    1      C      -5.5292970448     0.5293966558    -0.0733024360
    2      C      -4.2973450886     1.2177924565    -0.0883115634
    3      H      -6.0215380482     0.3395097861    -1.0183810516
    4      H      -6.1745720222     0.6512702055     0.7863672875
    5      H      -4.5202734050    -0.4375574470     0.1782880602
    6      O      -3.2935287359    -0.2849409146     0.3291155040
    7      H      -3.9727716253     1.7986162641     0.7635535366
    8      H      -3.8267782698     1.4893508539    -1.0250044391
    9      H      -3.0446281574     0.5596993967     0.7205652650
 ----------------------------------------------------------------
 Nuclear Repulsion Energy =          80.38872329 hartrees
 There are       13 alpha and       13 beta electrons
 Requested basis set is 6-311+G(2df,2pd)
 There are 60 shells and 186 basis functions

 Total QAlloc Memory Limit   2000 MB
 Mega-Array Size       188 MB
 MEM_STATIC part       192 MB

                       Distance Matrix (Angstroms)
             C (  1)   C (  2)   H (  3)   H (  4)   H (  5)   O (  6)
   C (  2)  1.411318
   H (  3)  1.082373  2.146917
   H (  4)  1.081788  2.147089  1.837860
   H (  5)  1.420009  1.691436  2.071146  2.071717
   O (  6)  2.413244  1.854751  3.106078  3.063655  1.245369
   H (  7)  2.175780  1.080916  3.082487  2.482911  2.375451  2.234126
   H (  8)  2.173895  1.082853  2.477731  3.081490  2.375252  2.294800
   H (  9)  2.608587  1.629929  3.454622  3.131974  1.861750  0.963640
             H (  7)   H (  8)
   H (  8)  1.820961
   H (  9)  1.548617  2.126740
 
 A cutoff of  1.0D-09 yielded   1787 shell pairs
 There are     17337 function pairs (     21536 Cartesian)
 Smallest overlap matrix eigenvalue = 8.99E-05

 Scale SEOQF with 1.000000e-02/1.000000e-01/1.000000e-01

 Standard Electronic Orientation quadrupole field applied
 Nucleus-field energy     =     0.0000000026 hartrees
 Requested basis set is 6-31G(d)
 There are 24 shells and 54 basis functions
 A cutoff of  1.0D-09 yielded    297 shell pairs
 There are      1548 function pairs (      1731 Cartesian)
 Smallest overlap matrix eigenvalue = 6.82E-03
 Guess from superposition of atomic densities
 Warning:  Energy on first SCF cycle will be non-variational
 SAD guess density has 26.000000 electrons
 Long-range K will be added via erf
 Coulomb attenuation parameter = 0.2 bohr**(-1)
 A restricted hybrid HF-DFT SCF calculation will be
 performed using Relaxed Constraint Minimization + Pulay DIIS
 Exchange:     0.2220 Hartree-Fock + 1.0000 wB97X-D + LR-HF
 Correlation:  1.0000 wB97X-D
 Using Euler-Maclaurin-Lebedev (75,302) quadrature formula
 Dispersion:   Grimme D
 SCF converges when DIIS error is below 1.0E-04
 using 6 threads for integral computing
 -------------------------------------------------------
 OpenMP Integral computing Module                
 Release: version 1.0, May 2013, Q-Chem Inc. Pittsburgh 
 -------------------------------------------------------
 using 6 threads for integral computing
 -------------------------------------------------------
 OpenMP Integral computing Module                
 Release: version 1.0, May 2013, Q-Chem Inc. Pittsburgh 
 -------------------------------------------------------
 ---------------------------------------
  Cycle       Energy         DIIS Error
 ---------------------------------------
    1    -155.3775682698      1.03E-01
    2    -154.7118860388      1.79E-02
    3    -154.7530925698      3.96E-03
    4    -154.8092934725      2.43E-03
    5    -154.8104856328      5.33E-04 Done RCA. Switching to DIIS
    6    -154.8115013831      6.02E-04
    7    -154.8116126762      5.83E-05 Convergence criterion met
 ---------------------------------------
 SCF time:  CPU 16.19 s  wall 2.71 s
 SCF   energy in the small basis set = -154.81161268
 Total energy in the small basis set = -154.81161268
 ----------------------------------------------------
  Cycle       Energy    
 ----------------------------------------------------
    1     -18.6953955183     -1.87E+01
 Long-range K will be added via erf
 Coulomb attenuation parameter = 0.2 bohr**(-1)
 A restricted hybrid HF-DFT SCF calculation will be
 performed using Relaxed Constraint Minimization + Pulay DIIS
 Exchange:     0.2220 Hartree-Fock + 1.0000 wB97X-D + LR-HF
 Correlation:  1.0000 wB97X-D
 Using Euler-Maclaurin-Lebedev (75,302) quadrature formula
 Dispersion:   Grimme D
 SCF converges when DIIS error is below 1.0E-05
 Basis2 calculation detected. Using small basis as guess for larger.
 SCFMinFind is unable to tell whether the solution found is close.
 Resetting ReadMinima to 0 and attempting to follow guess.
 SCFMinFind following SCF Guess.
 using 6 threads for integral computing
 -------------------------------------------------------
 OpenMP Integral computing Module                
 Release: version 1.0, May 2013, Q-Chem Inc. Pittsburgh 
 -------------------------------------------------------
 using 6 threads for integral computing
 -------------------------------------------------------
 OpenMP Integral computing Module                
 Release: version 1.0, May 2013, Q-Chem Inc. Pittsburgh 
 -------------------------------------------------------
 ---------------------------------------
  Cycle       Energy         DIIS Error
 ---------------------------------------
    1    -154.8347079402      6.14E-03
    2    -154.8218062092      5.00E-03
    3    -154.8483366232      1.27E-03
    4    -154.8858072902      1.23E-03
    5    -154.8882835196      1.20E-04 Done RCA. Switching to DIIS
    6    -154.8918861049      9.51E-05
    7    -154.8919249342      2.13E-05
    8    -154.8919299063      3.34E-06 Convergence criterion met
 ---------------------------------------
 SCF time:  CPU 64.37 s  wall 10.76 s
 SCF   energy in the final basis set = -154.89192991
 Total energy in the final basis set = -154.89192991
 
 --------------------------------------------------------------
 
                    Orbital Energies (a.u.)
 --------------------------------------------------------------
 
 Alpha MOs
 -- Occupied --
-19.2300 -10.3778 -10.2632  -1.1007  -0.8801  -0.7277  -0.6109  -0.5821
 -0.5125  -0.4863  -0.4622  -0.3938  -0.3017
 -- Virtual --
  0.0305   0.0617   0.0845   0.0920   0.1115   0.1251   0.1321   0.1435
  0.1717   0.1937   0.2031   0.2270   0.2581   0.2773   0.2942   0.3105
  0.3188   0.3237   0.3445   0.3886   0.4419   0.4522   0.4871   0.5284
  0.5333   0.5577   0.5812   0.5960   0.6040   0.6288   0.6601   0.6733
  0.6900   0.7473   0.8053   0.8304   0.8529   0.8909   0.9145   0.9781
  0.9992   1.0020   1.0894   1.0941   1.1262   1.1567   1.1821   1.2076
  1.2253   1.2458   1.2785   1.2907   1.3343   1.3523   1.4030   1.4276
  1.4324   1.4650   1.4731   1.5082   1.5248   1.5740   1.6306   1.6335
  1.7026   1.7232   1.9469   1.9970   2.0725   2.2626   2.3476   2.4390
  2.4838   2.5381   2.6107   2.6398   2.6667   2.7083   2.7655   2.8265
  2.8778   2.8905   2.9177   2.9522   2.9983   3.0084   3.0497   3.0735
  3.0934   3.1561   3.1946   3.2155   3.2649   3.2919   3.3227   3.3678
  3.3738   3.3816   3.4303   3.4481   3.4810   3.5079   3.5554   3.5581
  3.5767   3.6145   3.6423   3.7152   3.7493   3.7893   3.8318   3.8612
  3.8680   3.9017   3.9202   3.9416   3.9708   3.9930   4.0385   4.1361
  4.1529   4.1847   4.1887   4.1985   4.2710   4.2837   4.3199   4.3508
  4.4013   4.4515   4.4742   4.5396   4.5901   4.6202   4.6954   4.7302
  4.8382   4.8478   4.8614   4.9669   5.0183   5.0583   5.0849   5.1154
  5.1678   5.2246   5.2444   5.3041   5.3146   5.3974   5.4554   5.5508
  5.6037   5.6184   5.7193   5.9050   6.0081   6.1956   6.2111   6.2633
  6.4514   6.6491   6.8426   6.8907   7.1556   7.2633   7.4672   7.5686
  7.7626   8.0561  24.9651  25.2992  50.4808
 --------------------------------------------------------------
 
 -----------------------------------------------------------------
                    Cartesian Multipole Moments
 -----------------------------------------------------------------
    Charge (ESU x 10^10)
                -0.0000
    Dipole Moment (Debye)
         X      -0.4214      Y       2.6196      Z       0.0640
       Tot       2.6541
    Quadrupole Moments (Debye-Ang)
        XX     -19.2391     XY      -7.7932     YY     -18.9595
        XZ      -0.0685     YZ       1.2493     ZZ     -19.2409
    Octopole Moments (Debye-Ang^2)
       XXX     277.0102    XXY      10.0865    XYY      87.5048
       YYY     -29.0486    XXZ      -0.8507    XYZ      -4.9580
       YYZ      -0.2747    XZZ      84.8405    YZZ      -7.5407
       ZZZ      -4.9068
    Hexadecapole Moments (Debye-Ang^3)
      XXXX   -2645.3304   XXXY     116.1016   XXYY    -447.6959
      XYYY     146.3701   YYYY    -103.5594   XXXZ       0.9141
      XXYZ      23.5587   XYYZ      -2.3370   YYYZ       5.5895
      XXZZ    -401.8760   XYZZ      39.5343   YYZZ     -21.8830
      XZZZ      12.2111   YZZZ       4.0928   ZZZZ     -39.3680
 -----------------------------------------------------------------
Archival summary:
1\1\centos77-c1\SP\ProcedureUnspecified\BasisUnspecified\126\shihchen\WedJul2900:17:212020WedJul2900:17:212020\0\\#,ProcedureUnspecified,BasisUnspecified,\\0,1\C\H,1,1.08092\H,1,1.08285,2,114.612\C,1,1.41132,2,121.053,3,-158.707,0\H,4,1.08179,1,118.306,2,4.12185,0\H,4,1.08237,1,118.247,2,153.406,0\H,4,1.42001,1,73.3671,2,-101.28,0\O,7,1.24537,4,129.64,1,4.34102,0\H,8,0.96364,7,114.27,4,30.7075,0\\\@

 Total job time:  16.06s(wall), 84.94s(cpu) 
 Wed Jul 29 00:17:21 2020

        *************************************************************
        *                                                           *
        *  Thank you very much for using Q-Chem.  Have a nice day.  *
        *                                                           *
        *************************************************************


