                  Welcome to Q-Chem
     A Quantum Leap Into The Future Of Chemistry


 Q-Chem 5.3 (devel), Q-Chem, Inc., Pleasanton, CA (2020)

 Yihan Shao,  Zhengting Gan,  E. Epifanovsky,  A. T. B. Gilbert,  M. Wormit,  
 J. Kussmann,  A. W. Lange,  A. Behn,  Jia Deng,  Xintian Feng,  D. Ghosh,  
 M. Goldey,  P. R. Horn,  L. D. Jacobson,  I. Kaliman,  T. Kus,  A. Landau,  
 Jie Liu,  E. I. Proynov,  R. M. Richard,  R. P. Steele,  E. J. Sundstrom,  
 H. L. Woodcock III,  P. M. Zimmerman,  D. Zuev,  B. Alam,  B. Albrecht,  
 E. Alguire,  S. A. Baeppler,  D. Barton,  Z. Benda,  Y. A. Bernard,  
 E. J. Berquist,  K. B. Bravaya,  H. Burton,  K. Carter-Fenk,  D. Casanova,  
 Chun-Min Chang,  Yunqing Chen,  A. Chien,  K. D. Closser,  M. P. Coons,  
 S. Coriani,  S. Dasgupta,  A. L. Dempwolff,  M. Diedenhofen,  Hainam Do,  
 R. G. Edgar,  Po-Tung Fang,  S. Faraji,  S. Fatehi,  Qingguo Feng,  
 J. Fosso-Tande,  J. Gayvert,  Qinghui Ge,  A. Ghysels,  G. Gidofalvi,  
 J. Gomes,  J. Gonthier,  A. Gunina,  D. Hait,  M. W. D. Hanson-Heine,  
 P. H. P. Harbach,  A. W. Hauser,  M. F. Herbst,  J. E. Herr,  
 E. G. Hohenstein,  Z. C. Holden,  Kerwin Hui,  B. C. Huynh,  T.-C. Jagau,  
 Hyunjun Ji,  B. Kaduk,  K. Khistyaev,  Jaehoon Kim,  P. Klunzinger,  K. Koh,  
 D. Kosenkov,  L. Koulias,  T. Kowalczyk,  C. M. Krauter,  A. Kunitsa,  
 Ka Un Lao,  A. Laurent,  K. V. Lawler,  Joonho Lee,  D. Lefrancois,  
 S. Lehtola,  D. S. Levine,  Yi-Pei Li,  You-Sheng Lin,  Fenglai Liu,  
 Kuan-Yu Liu,  E. Livshits,  M. Loipersberger,  A. Luenser,  P. Manohar,  
 E. Mansoor,  S. F. Manzer,  Shan-Ping Mao,  Yuezhi Mao,  N. Mardirossian,  
 A. V. Marenich,  T. Markovich,  L. A. Martinez-Martinez,  S. A. Maurer,  
 N. J. Mayhall,  S. C. McKenzie,  J.-M. Mewes,  P. Morgante,  A. F. Morrison,  
 J. W. Mullinax,  K. Nanda,  T. S. Nguyen-Beck,  R. Olivares-Amaya,  
 K. J. Oosterbaan,  J. A. Parkhill,  S. K. Paul,  F. Pavosevic,  Zheng Pei,  
 T. M. Perrine,  F. Plasser,  P. Pokhilko,  S. Prager,  A. Prociuk,  
 E. Ramos,  B. Rana,  D. R. Rehn,  F. Rob,  M. Scheurer,  M. Schneider,  
 N. Sergueev,  S. M. Sharada,  S. Sharma,  D. W. Small,  T. Stauch,  
 C. J. Stein,  T. Stein,  Yu-Chuan Su,  S. P. Veccham,  Zhen Tao,  
 A. J. W. Thom,  A. Tkatchenko,  T. Tsuchimochi,  N. M. Tubman,  L. Vogt,  
 M. L. Vidal,  O. Vydrov,  M. A. Watson,  J. Wenzel,  M. de Wergifosse,  
 T. A. Wesolowski,  A. White,  J. Witte,  A. Yamada,  Jun Yang,  K. Yao,  
 S. Yeganeh,  S. R. Yost,  Zhi-Qiang You,  A. Zech,  Igor Ying Zhang,  
 Xing Zhang,  Yan Zhao,  Ying Zhu,  B. R. Brooks,  G. K. L. Chan,  
 C. J. Cramer,  M. S. Gordon,  W. J. Hehre,  A. Klamt,  M. W. Schmidt,  
 C. D. Sherrill,  D. G. Truhlar,  A. Aspuru-Guzik,  R. Baer,  A. T. Bell,  
 N. A. Besley,  Jeng-Da Chai,  A. E. DePrince, III,  R. A. DiStasio Jr.,  
 A. Dreuw,  B. D. Dunietz,  T. R. Furlani,  Chao-Ping Hsu,  Yousung Jung,  
 Jing Kong,  D. S. Lambrecht,  WanZhen Liang,  C. Ochsenfeld,  
 V. A. Rassolov,  L. V. Slipchenko,  J. E. Subotnik,  T. Van Voorhis,  
 J. M. Herbert,  A. I. Krylov,  P. M. W. Gill,  M. Head-Gordon

 Contributors to earlier versions of Q-Chem not listed above: 
 R. D. Adamson,  B. Austin,  J. Baker,  G. J. O. Beran,  K. Brandhorst,  
 S. T. Brown,  E. F. C. Byrd,  A. K. Chakraborty,  C.-L. Cheng,  
 Siu Hung Chien,  D. M. Chipman,  D. L. Crittenden,  H. Dachsel,  
 R. J. Doerksen,  A. D. Dutoi,  L. Fusti-Molnar,  W. A. Goddard III,  
 A. Golubeva-Zadorozhnaya,  S. R. Gwaltney,  G. Hawkins,  A. Heyden,  
 S. Hirata,  G. Kedziora,  F. J. Keil,  C. Kelley,  Jihan Kim,  R. A. King,  
 R. Z. Khaliullin,  P. P. Korambath,  W. Kurlancheek,  A. M. Lee,  M. S. Lee,  
 S. V. Levchenko,  Ching Yeh Lin,  D. Liotard,  R. C. Lochan,  I. Lotan,  
 P. E. Maslen,  N. Nair,  D. P. O'Neill,  D. Neuhauser,  E. Neuscamman,  
 C. M. Oana,  R. Olson,  B. Peters,  R. Peverati,  P. A. Pieniazek,  
 Y. M. Rhee,  J. Ritchie,  M. A. Rohrdanz,  E. Rosta,  N. J. Russ,  
 H. F. Schaefer III,  N. E. Schultz,  N. Shenvi,  A. C. Simmonett,  A. Sodt,  
 D. Stuck,  K. S. Thanthiriwatte,  V. Vanovschi,  Tao Wang,  A. Warshel,  
 C. F. Williams,  Q. Wu,  X. Xu,  W. Zhang

 Please cite Q-Chem as follows:
 Y. Shao et al., Mol. Phys. 113, 184-215 (2015)
 DOI: 10.1080/00268976.2014.952696

 Q-Chem 5.3.0 for Intel X86 EM64T Linux

 Parts of Q-Chem use Armadillo 9.800.1 (Horizon Scraper).
 http://arma.sourceforge.net/

 Q-Chem begins on Wed Jul 29 00:08:20 2020  

Host: centos77-c1
0

     Scratch files written to /tmp/30084.centos77-h1/qchem25006//
Processing $rem in /opt/qchem-5.3.0-intel2020u1//config/preferences:
Processing $rem in /home/shihchengli/.qchemrc:

Checking the input file for inconsistencies... 	...done.

--------------------------------------------------------------
User input:
--------------------------------------------------------------
$rem
   JOBTYPE  sp
   EXCHANGE   omegaB97X-D
   BASIS   6-311+G(2df,2pd)
   UNRESTRICTED   False
   max_scf_cycles   250
   geom_opt_max_cycles   1500
   basis2 6-31G*
   scf_algorithm rca_diis
   SYM_IGNORE  TRUE
   print_input   true
   geom_opt_dmax   80
   pop_mulliken false
   XC_GRID 000075000302
$end

$molecule
0 1
C       -5.5544545066     0.5055410000     -0.2212017294
C       -4.4103762073     1.3264000388     -0.3165692202
H       -5.7599414497     -0.1828417573     -1.0307918195
H       -6.4144098533     0.8844248879     0.3146982548
H       -4.5919243675     -0.0332650985     0.6730300302
O       -3.4637880264     0.3962947319     0.9791835128
H       -3.5512705699     1.0202536041     -0.8967331983
H       -4.2015590216     2.0741547086     0.4383009502
H       -2.7330083950     -0.1278248584     0.6329733826
$end
--------------------------------------------------------------
 ----------------------------------------------------------------
             Standard Nuclear Orientation (Angstroms)
    I     Atom           X                Y                Z
 ----------------------------------------------------------------
    1      C      -5.5544545066     0.5055410000    -0.2212017294
    2      C      -4.4103762073     1.3264000388    -0.3165692202
    3      H      -5.7599414497    -0.1828417573    -1.0307918195
    4      H      -6.4144098533     0.8844248879     0.3146982548
    5      H      -4.5919243675    -0.0332650985     0.6730300302
    6      O      -3.4637880264     0.3962947319     0.9791835128
    7      H      -3.5512705699     1.0202536041    -0.8967331983
    8      H      -4.2015590216     2.0741547086     0.4383009502
    9      H      -2.7330083950    -0.1278248584     0.6329733826
 ----------------------------------------------------------------
 Nuclear Repulsion Energy =          80.07442435 hartrees
 There are       13 alpha and       13 beta electrons
 Requested basis set is 6-311+G(2df,2pd)
 There are 60 shells and 186 basis functions

 Total QAlloc Memory Limit   2000 MB
 Mega-Array Size       188 MB
 MEM_STATIC part       192 MB

                       Distance Matrix (Angstroms)
             C (  1)   C (  2)   H (  3)   H (  4)   H (  5)   O (  6)
   C (  2)  1.411318
   H (  3)  1.082373  2.146917
   H (  4)  1.081788  2.147089  1.837860
   H (  5)  1.420009  1.691436  2.071146  2.071717
   O (  6)  2.413244  1.854751  3.106078  3.063655  1.245369
   H (  7)  2.175780  1.080916  2.518658  3.111845  2.158013  1.978899
   H (  8)  2.173895  1.082853  3.111402  2.515441  2.156085  1.911040
   H (  9)  3.015183  2.414532  3.454485  3.831275  1.861750  0.963640
             H (  7)   H (  8)
   H (  8)  1.820961
   H (  9)  2.080298  2.653913
 
 A cutoff of  1.0D-09 yielded   1775 shell pairs
 There are     17245 function pairs (     21424 Cartesian)
 Smallest overlap matrix eigenvalue = 9.59E-05

 Scale SEOQF with 1.000000e-02/1.000000e-01/1.000000e-01

 Standard Electronic Orientation quadrupole field applied
 Nucleus-field energy     =     0.0000000021 hartrees
 Requested basis set is 6-31G(d)
 There are 24 shells and 54 basis functions
 A cutoff of  1.0D-09 yielded    297 shell pairs
 There are      1548 function pairs (      1731 Cartesian)
 Smallest overlap matrix eigenvalue = 6.19E-03
 Guess from superposition of atomic densities
 Warning:  Energy on first SCF cycle will be non-variational
 SAD guess density has 26.000000 electrons
 Long-range K will be added via erf
 Coulomb attenuation parameter = 0.2 bohr**(-1)
 A restricted hybrid HF-DFT SCF calculation will be
 performed using Relaxed Constraint Minimization + Pulay DIIS
 Exchange:     0.2220 Hartree-Fock + 1.0000 wB97X-D + LR-HF
 Correlation:  1.0000 wB97X-D
 Using Euler-Maclaurin-Lebedev (75,302) quadrature formula
 Dispersion:   Grimme D
 SCF converges when DIIS error is below 1.0E-04
 using 6 threads for integral computing
 -------------------------------------------------------
 OpenMP Integral computing Module                
 Release: version 1.0, May 2013, Q-Chem Inc. Pittsburgh 
 -------------------------------------------------------
 using 6 threads for integral computing
 -------------------------------------------------------
 OpenMP Integral computing Module                
 Release: version 1.0, May 2013, Q-Chem Inc. Pittsburgh 
 -------------------------------------------------------
 ---------------------------------------
  Cycle       Energy         DIIS Error
 ---------------------------------------
    1    -155.3034006823      1.01E-01
    2    -154.7594959957      1.62E-02
    3    -154.7934930031      3.48E-03
    4    -154.8372463881      2.22E-03
    5    -154.8381619760      5.24E-04 Done RCA. Switching to DIIS
    6    -154.8390944574      5.28E-04
    7    -154.8391718435      4.18E-05 Convergence criterion met
 ---------------------------------------
 SCF time:  CPU 16.45 s  wall 2.76 s
 SCF   energy in the small basis set = -154.83917184
 Total energy in the small basis set = -154.83917184
 ----------------------------------------------------
  Cycle       Energy    
 ----------------------------------------------------
    1     -18.6881292635     -1.87E+01
 Long-range K will be added via erf
 Coulomb attenuation parameter = 0.2 bohr**(-1)
 A restricted hybrid HF-DFT SCF calculation will be
 performed using Relaxed Constraint Minimization + Pulay DIIS
 Exchange:     0.2220 Hartree-Fock + 1.0000 wB97X-D + LR-HF
 Correlation:  1.0000 wB97X-D
 Using Euler-Maclaurin-Lebedev (75,302) quadrature formula
 Dispersion:   Grimme D
 SCF converges when DIIS error is below 1.0E-05
 Basis2 calculation detected. Using small basis as guess for larger.
 SCFMinFind is unable to tell whether the solution found is close.
 Resetting ReadMinima to 0 and attempting to follow guess.
 SCFMinFind following SCF Guess.
 using 6 threads for integral computing
 -------------------------------------------------------
 OpenMP Integral computing Module                
 Release: version 1.0, May 2013, Q-Chem Inc. Pittsburgh 
 -------------------------------------------------------
 using 6 threads for integral computing
 -------------------------------------------------------
 OpenMP Integral computing Module                
 Release: version 1.0, May 2013, Q-Chem Inc. Pittsburgh 
 -------------------------------------------------------
 ---------------------------------------
  Cycle       Energy         DIIS Error
 ---------------------------------------
    1    -154.8589180349      6.12E-03
    2    -154.8459968556      4.97E-03
    3    -154.8722811741      1.24E-03
    4    -154.9092613905      1.23E-03
    5    -154.9116747272      1.14E-04 Done RCA. Switching to DIIS
    6    -154.9151580044      9.63E-05
    7    -154.9151939406      1.48E-05
    8    -154.9151965365      3.69E-06 Convergence criterion met
 ---------------------------------------
 SCF time:  CPU 60.97 s  wall 10.19 s
 SCF   energy in the final basis set = -154.91519654
 Total energy in the final basis set = -154.91519654
 
 --------------------------------------------------------------
 
                    Orbital Energies (a.u.)
 --------------------------------------------------------------
 
 Alpha MOs
 -- Occupied --
-19.2317 -10.3476 -10.2628  -1.0882  -0.8757  -0.7018  -0.6067  -0.5696
 -0.5131  -0.4667  -0.4331  -0.4068  -0.3095
 -- Virtual --
  0.0411   0.0673   0.0882   0.0986   0.1126   0.1278   0.1387   0.1480
  0.1784   0.1931   0.2216   0.2338   0.2367   0.2712   0.2779   0.3027
  0.3261   0.3359   0.3574   0.3994   0.4550   0.4634   0.4981   0.5362
  0.5509   0.5814   0.5934   0.6031   0.6201   0.6457   0.6663   0.6871
  0.7024   0.7581   0.7888   0.8008   0.8231   0.8677   0.9033   0.9430
  0.9751   1.0040   1.0526   1.0851   1.1257   1.1441   1.1796   1.2002
  1.2174   1.2427   1.2557   1.3162   1.3354   1.3597   1.4145   1.4421
  1.4470   1.4585   1.4864   1.5019   1.5615   1.5667   1.6126   1.6387
  1.6966   1.7694   1.8785   1.9884   2.0318   2.2677   2.3100   2.4584
  2.5536   2.5638   2.5989   2.6335   2.7189   2.7525   2.8105   2.8634
  2.8829   2.8979   2.9205   2.9741   2.9826   3.0316   3.0483   3.0802
  3.1049   3.1195   3.1541   3.1890   3.2332   3.2510   3.2951   3.3240
  3.3583   3.3949   3.4397   3.4583   3.4683   3.4834   3.5040   3.5360
  3.5852   3.6320   3.6860   3.6969   3.7394   3.7591   3.7687   3.7845
  3.8505   3.8638   3.8918   3.9326   3.9468   3.9908   4.0091   4.0106
  4.1039   4.1396   4.1547   4.1760   4.2392   4.2625   4.2863   4.3200
  4.3484   4.4093   4.4678   4.4921   4.5286   4.5426   4.6421   4.7202
  4.7404   4.8201   4.8796   4.9100   4.9635   5.0485   5.0985   5.1203
  5.1428   5.1660   5.2279   5.3200   5.4260   5.4429   5.4819   5.5638
  5.5779   5.6857   5.7990   5.8280   6.0420   6.0757   6.2437   6.3012
  6.4247   6.6480   6.7362   6.9186   7.2086   7.2425   7.4177   7.6414
  7.7778   8.1941  25.0363  25.3106  50.4451
 --------------------------------------------------------------
 
 -----------------------------------------------------------------
                    Cartesian Multipole Moments
 -----------------------------------------------------------------
    Charge (ESU x 10^10)
                 0.0000
    Dipole Moment (Debye)
         X       0.6371      Y      -0.0873      Z      -1.4612
       Tot       1.5964
    Quadrupole Moments (Debye-Ang)
        XX     -24.8115     XY      -0.3547     YY     -19.6578
        XZ       4.0128     YZ       0.0855     ZZ     -23.4462
    Octopole Moments (Debye-Ang^2)
       XXX     300.9527    XXY     -11.9293    XYY      89.3930
       YYY     -40.8437    XXZ     -10.2466    XYZ      -3.6437
       YYZ      -1.1533    XZZ     102.7392    YZZ     -16.2919
       ZZZ     -13.1555
    Hexadecapole Moments (Debye-Ang^3)
      XXXX   -2755.2944   XXXY     186.4502   XXYY    -449.9457
      XYYY     186.1718   YYYY    -112.1724   XXXZ       1.1531
      XXYZ      31.1035   XYYZ      -4.3297   YYYZ       6.1804
      XXZZ    -488.4727   XYZZ      72.5055   YYZZ     -32.2603
      XZZZ      29.6310   YZZZ       0.8211   ZZZZ     -82.7148
 -----------------------------------------------------------------
Archival summary:
1\1\centos77-c1\SP\ProcedureUnspecified\BasisUnspecified\126\shihchen\WedJul2900:08:362020WedJul2900:08:362020\0\\#,ProcedureUnspecified,BasisUnspecified,\\0,1\C\H,1,1.08092\H,1,1.08285,2,114.612\C,1,1.41132,2,121.053,3,-158.707,0\H,4,1.08179,1,118.306,2,-175.878,0\H,4,1.08237,1,118.247,2,-26.5938,0\H,4,1.42001,1,73.3671,2,78.7204,0\O,7,1.24537,4,129.64,1,4.34102,0\H,8,0.96364,7,114.27,4,-109.293,0\\\@

 Total job time:  15.57s(wall), 81.96s(cpu) 
 Wed Jul 29 00:08:36 2020

        *************************************************************
        *                                                           *
        *  Thank you very much for using Q-Chem.  Have a nice day.  *
        *                                                           *
        *************************************************************


