                  Welcome to Q-Chem
     A Quantum Leap Into The Future Of Chemistry


 Q-Chem 5.3 (devel), Q-Chem, Inc., Pleasanton, CA (2020)

 Yihan Shao,  Zhengting Gan,  E. Epifanovsky,  A. T. B. Gilbert,  M. Wormit,  
 J. Kussmann,  A. W. Lange,  A. Behn,  Jia Deng,  Xintian Feng,  D. Ghosh,  
 M. Goldey,  P. R. Horn,  L. D. Jacobson,  I. Kaliman,  T. Kus,  A. Landau,  
 Jie Liu,  E. I. Proynov,  R. M. Richard,  R. P. Steele,  E. J. Sundstrom,  
 H. L. Woodcock III,  P. M. Zimmerman,  D. Zuev,  B. Alam,  B. Albrecht,  
 E. Alguire,  S. A. Baeppler,  D. Barton,  Z. Benda,  Y. A. Bernard,  
 E. J. Berquist,  K. B. Bravaya,  H. Burton,  K. Carter-Fenk,  D. Casanova,  
 Chun-Min Chang,  Yunqing Chen,  A. Chien,  K. D. Closser,  M. P. Coons,  
 S. Coriani,  S. Dasgupta,  A. L. Dempwolff,  M. Diedenhofen,  Hainam Do,  
 R. G. Edgar,  Po-Tung Fang,  S. Faraji,  S. Fatehi,  Qingguo Feng,  
 J. Fosso-Tande,  J. Gayvert,  Qinghui Ge,  A. Ghysels,  G. Gidofalvi,  
 J. Gomes,  J. Gonthier,  A. Gunina,  D. Hait,  M. W. D. Hanson-Heine,  
 P. H. P. Harbach,  A. W. Hauser,  M. F. Herbst,  J. E. Herr,  
 E. G. Hohenstein,  Z. C. Holden,  Kerwin Hui,  B. C. Huynh,  T.-C. Jagau,  
 Hyunjun Ji,  B. Kaduk,  K. Khistyaev,  Jaehoon Kim,  P. Klunzinger,  K. Koh,  
 D. Kosenkov,  L. Koulias,  T. Kowalczyk,  C. M. Krauter,  A. Kunitsa,  
 Ka Un Lao,  A. Laurent,  K. V. Lawler,  Joonho Lee,  D. Lefrancois,  
 S. Lehtola,  D. S. Levine,  Yi-Pei Li,  You-Sheng Lin,  Fenglai Liu,  
 Kuan-Yu Liu,  E. Livshits,  M. Loipersberger,  A. Luenser,  P. Manohar,  
 E. Mansoor,  S. F. Manzer,  Shan-Ping Mao,  Yuezhi Mao,  N. Mardirossian,  
 A. V. Marenich,  T. Markovich,  L. A. Martinez-Martinez,  S. A. Maurer,  
 N. J. Mayhall,  S. C. McKenzie,  J.-M. Mewes,  P. Morgante,  A. F. Morrison,  
 J. W. Mullinax,  K. Nanda,  T. S. Nguyen-Beck,  R. Olivares-Amaya,  
 K. J. Oosterbaan,  J. A. Parkhill,  S. K. Paul,  F. Pavosevic,  Zheng Pei,  
 T. M. Perrine,  F. Plasser,  P. Pokhilko,  S. Prager,  A. Prociuk,  
 E. Ramos,  B. Rana,  D. R. Rehn,  F. Rob,  M. Scheurer,  M. Schneider,  
 N. Sergueev,  S. M. Sharada,  S. Sharma,  D. W. Small,  T. Stauch,  
 C. J. Stein,  T. Stein,  Yu-Chuan Su,  S. P. Veccham,  Zhen Tao,  
 A. J. W. Thom,  A. Tkatchenko,  T. Tsuchimochi,  N. M. Tubman,  L. Vogt,  
 M. L. Vidal,  O. Vydrov,  M. A. Watson,  J. Wenzel,  M. de Wergifosse,  
 T. A. Wesolowski,  A. White,  J. Witte,  A. Yamada,  Jun Yang,  K. Yao,  
 S. Yeganeh,  S. R. Yost,  Zhi-Qiang You,  A. Zech,  Igor Ying Zhang,  
 Xing Zhang,  Yan Zhao,  Ying Zhu,  B. R. Brooks,  G. K. L. Chan,  
 C. J. Cramer,  M. S. Gordon,  W. J. Hehre,  A. Klamt,  M. W. Schmidt,  
 C. D. Sherrill,  D. G. Truhlar,  A. Aspuru-Guzik,  R. Baer,  A. T. Bell,  
 N. A. Besley,  Jeng-Da Chai,  A. E. DePrince, III,  R. A. DiStasio Jr.,  
 A. Dreuw,  B. D. Dunietz,  T. R. Furlani,  Chao-Ping Hsu,  Yousung Jung,  
 Jing Kong,  D. S. Lambrecht,  WanZhen Liang,  C. Ochsenfeld,  
 V. A. Rassolov,  L. V. Slipchenko,  J. E. Subotnik,  T. Van Voorhis,  
 J. M. Herbert,  A. I. Krylov,  P. M. W. Gill,  M. Head-Gordon

 Contributors to earlier versions of Q-Chem not listed above: 
 R. D. Adamson,  B. Austin,  J. Baker,  G. J. O. Beran,  K. Brandhorst,  
 S. T. Brown,  E. F. C. Byrd,  A. K. Chakraborty,  C.-L. Cheng,  
 Siu Hung Chien,  D. M. Chipman,  D. L. Crittenden,  H. Dachsel,  
 R. J. Doerksen,  A. D. Dutoi,  L. Fusti-Molnar,  W. A. Goddard III,  
 A. Golubeva-Zadorozhnaya,  S. R. Gwaltney,  G. Hawkins,  A. Heyden,  
 S. Hirata,  G. Kedziora,  F. J. Keil,  C. Kelley,  Jihan Kim,  R. A. King,  
 R. Z. Khaliullin,  P. P. Korambath,  W. Kurlancheek,  A. M. Lee,  M. S. Lee,  
 S. V. Levchenko,  Ching Yeh Lin,  D. Liotard,  R. C. Lochan,  I. Lotan,  
 P. E. Maslen,  N. Nair,  D. P. O'Neill,  D. Neuhauser,  E. Neuscamman,  
 C. M. Oana,  R. Olson,  B. Peters,  R. Peverati,  P. A. Pieniazek,  
 Y. M. Rhee,  J. Ritchie,  M. A. Rohrdanz,  E. Rosta,  N. J. Russ,  
 H. F. Schaefer III,  N. E. Schultz,  N. Shenvi,  A. C. Simmonett,  A. Sodt,  
 D. Stuck,  K. S. Thanthiriwatte,  V. Vanovschi,  Tao Wang,  A. Warshel,  
 C. F. Williams,  Q. Wu,  X. Xu,  W. Zhang

 Please cite Q-Chem as follows:
 Y. Shao et al., Mol. Phys. 113, 184-215 (2015)
 DOI: 10.1080/00268976.2014.952696

 Q-Chem 5.3.0 for Intel X86 EM64T Linux

 Parts of Q-Chem use Armadillo 9.800.1 (Horizon Scraper).
 http://arma.sourceforge.net/

 Q-Chem begins on Wed Jul 29 00:21:37 2020  

Host: centos77-c1
0

     Scratch files written to /tmp/30084.centos77-h1/qchem27200//
Processing $rem in /opt/qchem-5.3.0-intel2020u1//config/preferences:
Processing $rem in /home/shihchengli/.qchemrc:

Checking the input file for inconsistencies... 	...done.

--------------------------------------------------------------
User input:
--------------------------------------------------------------
$rem
   JOBTYPE  sp
   EXCHANGE   omegaB97X-D
   BASIS   6-311+G(2df,2pd)
   UNRESTRICTED   False
   max_scf_cycles   250
   geom_opt_max_cycles   1500
   basis2 6-31G*
   scf_algorithm rca_diis
   SYM_IGNORE  TRUE
   print_input   true
   geom_opt_dmax   80
   pop_mulliken false
   XC_GRID 000075000302
$end

$molecule
0 1
C       -5.5481252443     0.5526228443     -0.0852714524
C       -4.3972932275     1.3647538795     -0.1738633565
H       -5.9031773705     0.0673836942     -0.9852785486
H       -6.2999980717     0.8068274062     0.6498015263
H       -4.4855866650     -0.1824329306     0.5039072095
O       -3.3066594509     0.1576797267     0.7169734223
H       -4.2354506692     2.1797726092     0.5174613384
H       -3.8477594885     1.4459553032     -1.1033737846
H       -2.6566822097     -0.5294252755     0.5325338090
$end
--------------------------------------------------------------
 ----------------------------------------------------------------
             Standard Nuclear Orientation (Angstroms)
    I     Atom           X                Y                Z
 ----------------------------------------------------------------
    1      C      -5.5481252443     0.5526228443    -0.0852714524
    2      C      -4.3972932275     1.3647538795    -0.1738633565
    3      H      -5.9031773705     0.0673836942    -0.9852785486
    4      H      -6.2999980717     0.8068274062     0.6498015263
    5      H      -4.4855866650    -0.1824329306     0.5039072095
    6      O      -3.3066594509     0.1576797267     0.7169734223
    7      H      -4.2354506692     2.1797726092     0.5174613384
    8      H      -3.8477594885     1.4459553032    -1.1033737846
    9      H      -2.6566822097    -0.5294252755     0.5325338090
 ----------------------------------------------------------------
 Nuclear Repulsion Energy =          79.14731757 hartrees
 There are       13 alpha and       13 beta electrons
 Requested basis set is 6-311+G(2df,2pd)
 There are 60 shells and 186 basis functions

 Total QAlloc Memory Limit   2000 MB
 Mega-Array Size       188 MB
 MEM_STATIC part       192 MB

                       Distance Matrix (Angstroms)
             C (  1)   C (  2)   H (  3)   H (  4)   H (  5)   O (  6)
   C (  2)  1.411318
   H (  3)  1.082373  2.146917
   H (  4)  1.081788  2.147089  1.837860
   H (  5)  1.420009  1.691436  2.071146  2.071717
   O (  6)  2.413244  1.854751  3.106078  3.063655  1.245369
   H (  7)  2.175780  1.080916  3.082487  2.482911  2.375451  2.234126
   H (  8)  2.173895  1.082853  2.477731  3.081490  2.375252  2.294800
   H (  9)  3.148484  2.667703  3.633134  3.882406  1.861750  0.963640
             H (  7)   H (  8)
   H (  8)  1.820961
   H (  9)  3.135680  2.827894
 
 A cutoff of  1.0D-09 yielded   1769 shell pairs
 There are     17183 function pairs (     21347 Cartesian)
 Smallest overlap matrix eigenvalue = 9.14E-05

 Scale SEOQF with 1.000000e-02/1.000000e-01/1.000000e-01

 Standard Electronic Orientation quadrupole field applied
 Nucleus-field energy     =     0.0000000025 hartrees
 Requested basis set is 6-31G(d)
 There are 24 shells and 54 basis functions
 A cutoff of  1.0D-09 yielded    297 shell pairs
 There are      1548 function pairs (      1731 Cartesian)
 Smallest overlap matrix eigenvalue = 6.69E-03
 Guess from superposition of atomic densities
 Warning:  Energy on first SCF cycle will be non-variational
 SAD guess density has 26.000000 electrons
 Long-range K will be added via erf
 Coulomb attenuation parameter = 0.2 bohr**(-1)
 A restricted hybrid HF-DFT SCF calculation will be
 performed using Relaxed Constraint Minimization + Pulay DIIS
 Exchange:     0.2220 Hartree-Fock + 1.0000 wB97X-D + LR-HF
 Correlation:  1.0000 wB97X-D
 Using Euler-Maclaurin-Lebedev (75,302) quadrature formula
 Dispersion:   Grimme D
 SCF converges when DIIS error is below 1.0E-04
 using 6 threads for integral computing
 -------------------------------------------------------
 OpenMP Integral computing Module                
 Release: version 1.0, May 2013, Q-Chem Inc. Pittsburgh 
 -------------------------------------------------------
 using 6 threads for integral computing
 -------------------------------------------------------
 OpenMP Integral computing Module                
 Release: version 1.0, May 2013, Q-Chem Inc. Pittsburgh 
 -------------------------------------------------------
 ---------------------------------------
  Cycle       Energy         DIIS Error
 ---------------------------------------
    1    -155.2504382155      9.89E-02
    2    -154.7753240195      1.61E-02
    3    -154.8103085404      3.15E-03
    4    -154.8523478623      2.10E-03
    5    -154.8531080866      4.41E-04 Done RCA. Switching to DIIS
    6    -154.8539764707      3.35E-04
    7    -154.8540110564      3.78E-05 Convergence criterion met
 ---------------------------------------
 SCF time:  CPU 16.04 s  wall 2.69 s
 SCF   energy in the small basis set = -154.85401106
 Total energy in the small basis set = -154.85401106
 ----------------------------------------------------
  Cycle       Energy    
 ----------------------------------------------------
    1     -18.6759445200     -1.87E+01
 Long-range K will be added via erf
 Coulomb attenuation parameter = 0.2 bohr**(-1)
 A restricted hybrid HF-DFT SCF calculation will be
 performed using Relaxed Constraint Minimization + Pulay DIIS
 Exchange:     0.2220 Hartree-Fock + 1.0000 wB97X-D + LR-HF
 Correlation:  1.0000 wB97X-D
 Using Euler-Maclaurin-Lebedev (75,302) quadrature formula
 Dispersion:   Grimme D
 SCF converges when DIIS error is below 1.0E-05
 Basis2 calculation detected. Using small basis as guess for larger.
 SCFMinFind is unable to tell whether the solution found is close.
 Resetting ReadMinima to 0 and attempting to follow guess.
 SCFMinFind following SCF Guess.
 using 6 threads for integral computing
 -------------------------------------------------------
 OpenMP Integral computing Module                
 Release: version 1.0, May 2013, Q-Chem Inc. Pittsburgh 
 -------------------------------------------------------
 using 6 threads for integral computing
 -------------------------------------------------------
 OpenMP Integral computing Module                
 Release: version 1.0, May 2013, Q-Chem Inc. Pittsburgh 
 -------------------------------------------------------
 ---------------------------------------
  Cycle       Energy         DIIS Error
 ---------------------------------------
    1    -154.8784168982      6.05E-03
    2    -154.8744640446      4.55E-03
    3    -154.8970375126      9.97E-04 Done RCA. Switching to DIIS
    4    -154.9280666355      1.06E-03
    5    -154.9313248951      8.00E-05
    6    -154.9313571584      1.74E-05
    7    -154.9313597857      6.39E-06 Convergence criterion met
 ---------------------------------------
 SCF time:  CPU 50.32 s  wall 8.42 s
 SCF   energy in the final basis set = -154.93135979
 Total energy in the final basis set = -154.93135979
 
 --------------------------------------------------------------
 
                    Orbital Energies (a.u.)
 --------------------------------------------------------------
 
 Alpha MOs
 -- Occupied --
-19.2300 -10.3540 -10.2577  -1.0769  -0.8762  -0.6981  -0.6085  -0.5690
 -0.5083  -0.4532  -0.4389  -0.4035  -0.3102
 -- Virtual --
  0.0460   0.0734   0.0899   0.0986   0.1129   0.1294   0.1398   0.1507
  0.1708   0.1859   0.2190   0.2440   0.2581   0.2757   0.2877   0.3045
  0.3245   0.3324   0.3590   0.3943   0.4608   0.4648   0.4885   0.5443
  0.5626   0.5695   0.5911   0.6070   0.6139   0.6401   0.6755   0.6842
  0.7046   0.7377   0.7983   0.8415   0.8625   0.8949   0.9213   0.9507
  0.9810   1.0111   1.0642   1.0746   1.1282   1.1679   1.2040   1.2197
  1.2441   1.2689   1.2755   1.3072   1.3159   1.3558   1.4021   1.4286
  1.4463   1.4598   1.4807   1.4972   1.5112   1.5672   1.5889   1.6422
  1.7174   1.7874   1.9019   1.9796   2.0338   2.2650   2.3264   2.4378
  2.4512   2.5655   2.6313   2.6579   2.6852   2.7694   2.7885   2.8187
  2.8616   2.8894   2.9527   2.9816   3.0049   3.0192   3.0623   3.0828
  3.1019   3.1436   3.1674   3.2142   3.2255   3.2740   3.3044   3.3303
  3.3702   3.3866   3.4063   3.4247   3.4677   3.5084   3.5170   3.5595
  3.5697   3.5850   3.6243   3.6552   3.7008   3.7471   3.7602   3.8379
  3.8400   3.8701   3.8987   3.9205   3.9681   3.9859   4.0336   4.0608
  4.1131   4.1379   4.2025   4.2084   4.2222   4.2838   4.2896   4.3102
  4.3377   4.3698   4.4143   4.4568   4.4962   4.6017   4.6081   4.7125
  4.7647   4.7987   4.8572   4.9739   4.9921   5.0187   5.0906   5.1019
  5.1500   5.2064   5.2390   5.2736   5.2912   5.3930   5.4478   5.4618
  5.5837   5.6217   5.7592   5.8267   6.0081   6.1977   6.2356   6.2768
  6.4609   6.6810   6.7557   6.8595   7.1123   7.1968   7.3667   7.7351
  7.8313   8.0942  24.9571  25.3096  50.4508
 --------------------------------------------------------------
 
 -----------------------------------------------------------------
                    Cartesian Multipole Moments
 -----------------------------------------------------------------
    Charge (ESU x 10^10)
                 0.0000
    Dipole Moment (Debye)
         X       0.3088      Y       0.1542      Z      -1.2157
       Tot       1.2638
    Quadrupole Moments (Debye-Ang)
        XX     -23.0859     XY      -1.7876     YY     -17.9988
        XZ       3.4635     YZ      -0.1454     ZZ     -21.6107
    Octopole Moments (Debye-Ang^2)
       XXX     293.7937    XXY      -5.7857    XYY      83.6381
       YYY     -36.4187    XXZ     -10.0669    XYZ      -2.5223
       YYZ      -1.0675    XZZ      94.0694    YZZ     -13.1989
       ZZZ     -12.3940
    Hexadecapole Moments (Debye-Ang^3)
      XXXX   -2730.9054   XXXY     171.3665   XXYY    -433.7159
      XYYY     173.6659   YYYY    -112.0132   XXXZ      16.2509
      XXYZ      25.8515   XYYZ      -2.3402   YYYZ       7.4147
      XXZZ    -444.1040   XYZZ      61.3826   YYZZ     -27.8016
      XZZZ      34.0473   YZZZ       2.7487   ZZZZ     -58.6927
 -----------------------------------------------------------------
Archival summary:
1\1\centos77-c1\SP\ProcedureUnspecified\BasisUnspecified\126\shihchen\WedJul2900:21:512020WedJul2900:21:512020\0\\#,ProcedureUnspecified,BasisUnspecified,\\0,1\C\H,1,1.08092\H,1,1.08285,2,114.612\C,1,1.41132,2,121.053,3,-158.707,0\H,4,1.08179,1,118.306,2,4.12185,0\H,4,1.08237,1,118.247,2,153.406,0\H,4,1.42001,1,73.3671,2,-101.28,0\O,7,1.24537,4,129.64,1,4.34102,0\H,8,0.96364,7,114.27,4,-139.293,0\\\@

 Total job time:  13.50s(wall), 70.52s(cpu) 
 Wed Jul 29 00:21:51 2020

        *************************************************************
        *                                                           *
        *  Thank you very much for using Q-Chem.  Have a nice day.  *
        *                                                           *
        *************************************************************


