                  Welcome to Q-Chem
     A Quantum Leap Into The Future Of Chemistry


 Q-Chem 5.3 (devel), Q-Chem, Inc., Pleasanton, CA (2020)

 Yihan Shao,  Zhengting Gan,  E. Epifanovsky,  A. T. B. Gilbert,  M. Wormit,  
 J. Kussmann,  A. W. Lange,  A. Behn,  Jia Deng,  Xintian Feng,  D. Ghosh,  
 M. Goldey,  P. R. Horn,  L. D. Jacobson,  I. Kaliman,  T. Kus,  A. Landau,  
 Jie Liu,  E. I. Proynov,  R. M. Richard,  R. P. Steele,  E. J. Sundstrom,  
 H. L. Woodcock III,  P. M. Zimmerman,  D. Zuev,  B. Alam,  B. Albrecht,  
 E. Alguire,  S. A. Baeppler,  D. Barton,  Z. Benda,  Y. A. Bernard,  
 E. J. Berquist,  K. B. Bravaya,  H. Burton,  K. Carter-Fenk,  D. Casanova,  
 Chun-Min Chang,  Yunqing Chen,  A. Chien,  K. D. Closser,  M. P. Coons,  
 S. Coriani,  S. Dasgupta,  A. L. Dempwolff,  M. Diedenhofen,  Hainam Do,  
 R. G. Edgar,  Po-Tung Fang,  S. Faraji,  S. Fatehi,  Qingguo Feng,  
 J. Fosso-Tande,  J. Gayvert,  Qinghui Ge,  A. Ghysels,  G. Gidofalvi,  
 J. Gomes,  J. Gonthier,  A. Gunina,  D. Hait,  M. W. D. Hanson-Heine,  
 P. H. P. Harbach,  A. W. Hauser,  M. F. Herbst,  J. E. Herr,  
 E. G. Hohenstein,  Z. C. Holden,  Kerwin Hui,  B. C. Huynh,  T.-C. Jagau,  
 Hyunjun Ji,  B. Kaduk,  K. Khistyaev,  Jaehoon Kim,  P. Klunzinger,  K. Koh,  
 D. Kosenkov,  L. Koulias,  T. Kowalczyk,  C. M. Krauter,  A. Kunitsa,  
 Ka Un Lao,  A. Laurent,  K. V. Lawler,  Joonho Lee,  D. Lefrancois,  
 S. Lehtola,  D. S. Levine,  Yi-Pei Li,  You-Sheng Lin,  Fenglai Liu,  
 Kuan-Yu Liu,  E. Livshits,  M. Loipersberger,  A. Luenser,  P. Manohar,  
 E. Mansoor,  S. F. Manzer,  Shan-Ping Mao,  Yuezhi Mao,  N. Mardirossian,  
 A. V. Marenich,  T. Markovich,  L. A. Martinez-Martinez,  S. A. Maurer,  
 N. J. Mayhall,  S. C. McKenzie,  J.-M. Mewes,  P. Morgante,  A. F. Morrison,  
 J. W. Mullinax,  K. Nanda,  T. S. Nguyen-Beck,  R. Olivares-Amaya,  
 K. J. Oosterbaan,  J. A. Parkhill,  S. K. Paul,  F. Pavosevic,  Zheng Pei,  
 T. M. Perrine,  F. Plasser,  P. Pokhilko,  S. Prager,  A. Prociuk,  
 E. Ramos,  B. Rana,  D. R. Rehn,  F. Rob,  M. Scheurer,  M. Schneider,  
 N. Sergueev,  S. M. Sharada,  S. Sharma,  D. W. Small,  T. Stauch,  
 C. J. Stein,  T. Stein,  Yu-Chuan Su,  S. P. Veccham,  Zhen Tao,  
 A. J. W. Thom,  A. Tkatchenko,  T. Tsuchimochi,  N. M. Tubman,  L. Vogt,  
 M. L. Vidal,  O. Vydrov,  M. A. Watson,  J. Wenzel,  M. de Wergifosse,  
 T. A. Wesolowski,  A. White,  J. Witte,  A. Yamada,  Jun Yang,  K. Yao,  
 S. Yeganeh,  S. R. Yost,  Zhi-Qiang You,  A. Zech,  Igor Ying Zhang,  
 Xing Zhang,  Yan Zhao,  Ying Zhu,  B. R. Brooks,  G. K. L. Chan,  
 C. J. Cramer,  M. S. Gordon,  W. J. Hehre,  A. Klamt,  M. W. Schmidt,  
 C. D. Sherrill,  D. G. Truhlar,  A. Aspuru-Guzik,  R. Baer,  A. T. Bell,  
 N. A. Besley,  Jeng-Da Chai,  A. E. DePrince, III,  R. A. DiStasio Jr.,  
 A. Dreuw,  B. D. Dunietz,  T. R. Furlani,  Chao-Ping Hsu,  Yousung Jung,  
 Jing Kong,  D. S. Lambrecht,  WanZhen Liang,  C. Ochsenfeld,  
 V. A. Rassolov,  L. V. Slipchenko,  J. E. Subotnik,  T. Van Voorhis,  
 J. M. Herbert,  A. I. Krylov,  P. M. W. Gill,  M. Head-Gordon

 Contributors to earlier versions of Q-Chem not listed above: 
 R. D. Adamson,  B. Austin,  J. Baker,  G. J. O. Beran,  K. Brandhorst,  
 S. T. Brown,  E. F. C. Byrd,  A. K. Chakraborty,  C.-L. Cheng,  
 Siu Hung Chien,  D. M. Chipman,  D. L. Crittenden,  H. Dachsel,  
 R. J. Doerksen,  A. D. Dutoi,  L. Fusti-Molnar,  W. A. Goddard III,  
 A. Golubeva-Zadorozhnaya,  S. R. Gwaltney,  G. Hawkins,  A. Heyden,  
 S. Hirata,  G. Kedziora,  F. J. Keil,  C. Kelley,  Jihan Kim,  R. A. King,  
 R. Z. Khaliullin,  P. P. Korambath,  W. Kurlancheek,  A. M. Lee,  M. S. Lee,  
 S. V. Levchenko,  Ching Yeh Lin,  D. Liotard,  R. C. Lochan,  I. Lotan,  
 P. E. Maslen,  N. Nair,  D. P. O'Neill,  D. Neuhauser,  E. Neuscamman,  
 C. M. Oana,  R. Olson,  B. Peters,  R. Peverati,  P. A. Pieniazek,  
 Y. M. Rhee,  J. Ritchie,  M. A. Rohrdanz,  E. Rosta,  N. J. Russ,  
 H. F. Schaefer III,  N. E. Schultz,  N. Shenvi,  A. C. Simmonett,  A. Sodt,  
 D. Stuck,  K. S. Thanthiriwatte,  V. Vanovschi,  Tao Wang,  A. Warshel,  
 C. F. Williams,  Q. Wu,  X. Xu,  W. Zhang

 Please cite Q-Chem as follows:
 Y. Shao et al., Mol. Phys. 113, 184-215 (2015)
 DOI: 10.1080/00268976.2014.952696

 Q-Chem 5.3.0 for Intel X86 EM64T Linux

 Parts of Q-Chem use Armadillo 9.800.1 (Horizon Scraper).
 http://arma.sourceforge.net/

 Q-Chem begins on Wed Jul 29 00:03:48 2020  

Host: centos77-c1
0

     Scratch files written to /tmp/30084.centos77-h1/qchem24291//
Processing $rem in /opt/qchem-5.3.0-intel2020u1//config/preferences:
Processing $rem in /home/shihchengli/.qchemrc:

Checking the input file for inconsistencies... 	...done.

--------------------------------------------------------------
User input:
--------------------------------------------------------------
$rem
   JOBTYPE  sp
   EXCHANGE   omegaB97X-D
   BASIS   6-311+G(2df,2pd)
   UNRESTRICTED   False
   max_scf_cycles   250
   geom_opt_max_cycles   1500
   basis2 6-31G*
   scf_algorithm rca_diis
   SYM_IGNORE  TRUE
   print_input   true
   geom_opt_dmax   80
   pop_mulliken false
   XC_GRID 000075000302
$end

$molecule
0 1
C       -5.5440799003     0.5386182650     -0.0838109910
C       -4.4062804193     1.3649872216     0.0359653143
H       -5.8893551808     0.2831672031     -1.0773207062
H       -6.3015135409     0.5937733306     0.6865896780
H       -4.4711092908     -0.3021926003     0.3139299803
O       -3.2982657653     -0.0068470293     0.6108344523
H       -4.1751129393     1.8640799006     0.9664740306
H       -3.9516371358     1.8107123194     -0.8399338006
H       -2.6433782248     -0.2831613535     -0.0398377944
$end
--------------------------------------------------------------
 ----------------------------------------------------------------
             Standard Nuclear Orientation (Angstroms)
    I     Atom           X                Y                Z
 ----------------------------------------------------------------
    1      C      -5.5440799003     0.5386182650    -0.0838109910
    2      C      -4.4062804193     1.3649872216     0.0359653143
    3      H      -5.8893551808     0.2831672031    -1.0773207062
    4      H      -6.3015135409     0.5937733306     0.6865896780
    5      H      -4.4711092908    -0.3021926003     0.3139299803
    6      O      -3.2982657653    -0.0068470293     0.6108344523
    7      H      -4.1751129393     1.8640799006     0.9664740306
    8      H      -3.9516371358     1.8107123194    -0.8399338006
    9      H      -2.6433782248    -0.2831613535    -0.0398377944
 ----------------------------------------------------------------
 Nuclear Repulsion Energy =          79.39426253 hartrees
 There are       13 alpha and       13 beta electrons
 Requested basis set is 6-311+G(2df,2pd)
 There are 60 shells and 186 basis functions

 Total QAlloc Memory Limit   2000 MB
 Mega-Array Size       188 MB
 MEM_STATIC part       192 MB

                       Distance Matrix (Angstroms)
             C (  1)   C (  2)   H (  3)   H (  4)   H (  5)   O (  6)
   C (  2)  1.411318
   H (  3)  1.082373  2.146917
   H (  4)  1.081788  2.147089  1.837860
   H (  5)  1.420009  1.691436  2.071146  2.071717
   O (  6)  2.413244  1.854751  3.106078  3.063655  1.245369
   H (  7)  2.175780  1.080916  3.100808  2.492708  2.281702  2.096594
   H (  8)  2.173895  1.082853  2.478810  3.055018  2.462848  2.415604
   H (  9)  3.015183  2.414532  3.454485  3.831275  1.861750  0.963640
             H (  7)   H (  8)
   H (  8)  1.820961
   H (  9)  2.823034  2.595381
 
 A cutoff of  1.0D-09 yielded   1776 shell pairs
 There are     17244 function pairs (     21423 Cartesian)
 Smallest overlap matrix eigenvalue = 9.47E-05

 Scale SEOQF with 1.000000e-02/1.000000e-01/1.000000e-01

 Standard Electronic Orientation quadrupole field applied
 Nucleus-field energy     =     0.0000000026 hartrees
 Requested basis set is 6-31G(d)
 There are 24 shells and 54 basis functions
 A cutoff of  1.0D-09 yielded    297 shell pairs
 There are      1548 function pairs (      1731 Cartesian)
 Smallest overlap matrix eigenvalue = 6.71E-03
 Guess from superposition of atomic densities
 Warning:  Energy on first SCF cycle will be non-variational
 SAD guess density has 26.000000 electrons
 Long-range K will be added via erf
 Coulomb attenuation parameter = 0.2 bohr**(-1)
 A restricted hybrid HF-DFT SCF calculation will be
 performed using Relaxed Constraint Minimization + Pulay DIIS
 Exchange:     0.2220 Hartree-Fock + 1.0000 wB97X-D + LR-HF
 Correlation:  1.0000 wB97X-D
 Using Euler-Maclaurin-Lebedev (75,302) quadrature formula
 Dispersion:   Grimme D
 SCF converges when DIIS error is below 1.0E-04
 using 6 threads for integral computing
 -------------------------------------------------------
 OpenMP Integral computing Module                
 Release: version 1.0, May 2013, Q-Chem Inc. Pittsburgh 
 -------------------------------------------------------
 using 6 threads for integral computing
 -------------------------------------------------------
 OpenMP Integral computing Module                
 Release: version 1.0, May 2013, Q-Chem Inc. Pittsburgh 
 -------------------------------------------------------
 ---------------------------------------
  Cycle       Energy         DIIS Error
 ---------------------------------------
    1    -155.2609505620      9.93E-02
    2    -154.7828704731      1.57E-02
    3    -154.8165573049      3.29E-03
    4    -154.8568864125      2.42E-03
    5    -154.8578176227      5.12E-04 Done RCA. Switching to DIIS
    6    -154.8589759364      3.29E-04
    7    -154.8590142146      4.17E-05 Convergence criterion met
 ---------------------------------------
 SCF time:  CPU 16.53 s  wall 2.77 s
 SCF   energy in the small basis set = -154.85901421
 Total energy in the small basis set = -154.85901421
 ----------------------------------------------------
  Cycle       Energy    
 ----------------------------------------------------
    1     -18.6735735228     -1.87E+01
 Long-range K will be added via erf
 Coulomb attenuation parameter = 0.2 bohr**(-1)
 A restricted hybrid HF-DFT SCF calculation will be
 performed using Relaxed Constraint Minimization + Pulay DIIS
 Exchange:     0.2220 Hartree-Fock + 1.0000 wB97X-D + LR-HF
 Correlation:  1.0000 wB97X-D
 Using Euler-Maclaurin-Lebedev (75,302) quadrature formula
 Dispersion:   Grimme D
 SCF converges when DIIS error is below 1.0E-05
 Basis2 calculation detected. Using small basis as guess for larger.
 SCFMinFind is unable to tell whether the solution found is close.
 Resetting ReadMinima to 0 and attempting to follow guess.
 SCFMinFind following SCF Guess.
 using 6 threads for integral computing
 -------------------------------------------------------
 OpenMP Integral computing Module                
 Release: version 1.0, May 2013, Q-Chem Inc. Pittsburgh 
 -------------------------------------------------------
 using 6 threads for integral computing
 -------------------------------------------------------
 OpenMP Integral computing Module                
 Release: version 1.0, May 2013, Q-Chem Inc. Pittsburgh 
 -------------------------------------------------------
 ---------------------------------------
  Cycle       Energy         DIIS Error
 ---------------------------------------
    1    -154.8844405447      5.98E-03
    2    -154.8800428275      4.42E-03
    3    -154.9013210659      1.02E-03
    4    -154.9306473498      1.13E-03
    5    -154.9322151662      1.85E-04 Done RCA. Switching to DIIS
    6    -154.9342117399      2.24E-04
    7    -154.9343586347      7.44E-06 Convergence criterion met
 ---------------------------------------
 SCF time:  CPU 55.92 s  wall 9.35 s
 SCF   energy in the final basis set = -154.93435863
 Total energy in the final basis set = -154.93435863
 
 --------------------------------------------------------------
 
                    Orbital Energies (a.u.)
 --------------------------------------------------------------
 
 Alpha MOs
 -- Occupied --
-19.2428 -10.3529 -10.2541  -1.0889  -0.8741  -0.6972  -0.6145  -0.5642
 -0.5064  -0.4554  -0.4462  -0.4231  -0.3047
 -- Virtual --
  0.0510   0.0683   0.0893   0.0979   0.1126   0.1285   0.1387   0.1482
  0.1773   0.1890   0.2167   0.2390   0.2558   0.2744   0.2839   0.2927
  0.3219   0.3336   0.3599   0.3940   0.4622   0.4651   0.4930   0.5515
  0.5676   0.5740   0.5884   0.6051   0.6132   0.6365   0.6443   0.6870
  0.7012   0.7451   0.8056   0.8131   0.8511   0.8867   0.9115   0.9379
  0.9849   1.0157   1.0650   1.0903   1.1249   1.1512   1.1578   1.2154
  1.2268   1.2478   1.2597   1.3077   1.3317   1.3501   1.4103   1.4288
  1.4476   1.4580   1.4735   1.4838   1.5400   1.5737   1.5944   1.6589
  1.7075   1.7794   1.9028   1.9928   2.0492   2.2605   2.3092   2.4405
  2.4897   2.5560   2.6415   2.6580   2.6858   2.7512   2.7779   2.8113
  2.8721   2.8927   2.9500   2.9928   3.0091   3.0347   3.0738   3.0922
  3.1043   3.1278   3.1736   3.2223   3.2420   3.2692   3.3036   3.3452
  3.3636   3.3977   3.4122   3.4431   3.4656   3.5092   3.5188   3.5712
  3.5734   3.6075   3.6288   3.6548   3.7056   3.7403   3.7614   3.8324
  3.8386   3.8621   3.8857   3.9114   3.9374   3.9517   3.9996   4.0642
  4.1218   4.1447   4.1734   4.1961   4.2370   4.2424   4.2784   4.3259
  4.3287   4.3564   4.4218   4.4737   4.4938   4.5752   4.6076   4.6936
  4.7341   4.8233   4.8553   4.9670   4.9853   5.0150   5.0608   5.1020
  5.1170   5.2080   5.2342   5.3063   5.3679   5.3981   5.4569   5.4702
  5.5924   5.6334   5.7786   5.8081   6.0395   6.1897   6.2442   6.2866
  6.4656   6.6299   6.7330   6.8856   7.1632   7.2196   7.4088   7.6224
  7.7715   8.1739  24.9607  25.3124  50.4361
 --------------------------------------------------------------
 
 -----------------------------------------------------------------
                    Cartesian Multipole Moments
 -----------------------------------------------------------------
    Charge (ESU x 10^10)
                 0.0000
    Dipole Moment (Debye)
         X       0.5106      Y       0.9008      Z      -1.4537
       Tot       1.7848
    Quadrupole Moments (Debye-Ang)
        XX     -24.9859     XY      -3.5677     YY     -19.0931
        XZ       3.4573     YZ       0.6904     ZZ     -20.8574
    Octopole Moments (Debye-Ang^2)
       XXX     307.6721    XXY      -1.5999    XYY      88.3877
       YYY     -34.9409    XXZ      -8.6109    XYZ      -3.7108
       YYZ      -2.7045    XZZ      90.3795    YZZ     -10.5093
       ZZZ     -11.5555
    Hexadecapole Moments (Debye-Ang^3)
      XXXX   -2823.6065   XXXY     162.6075   XXYY    -456.2094
      XYYY     170.9005   YYYY    -115.8325   XXXZ      14.7242
      XXYZ      20.8315   XYYZ       6.0094   YYYZ       0.6831
      XXZZ    -425.4023   XYZZ      51.2769   YYZZ     -24.9951
      XZZZ      34.8139   YZZZ       1.0664   ZZZZ     -49.0399
 -----------------------------------------------------------------
Archival summary:
1\1\centos77-c1\SP\ProcedureUnspecified\BasisUnspecified\126\shihchen\WedJul2900:04:032020WedJul2900:04:032020\0\\#,ProcedureUnspecified,BasisUnspecified,\\0,1\C\H,1,1.08092\H,1,1.08285,2,114.612\C,1,1.41132,2,121.053,3,-158.707,0\H,4,1.08179,1,118.306,2,14.1218,0\H,4,1.08237,1,118.247,2,163.406,0\H,4,1.42001,1,73.3671,2,-91.2796,0\O,7,1.24537,4,129.64,1,4.34102,0\H,8,0.96364,7,114.27,4,-109.293,0\\\@

 Total job time:  14.65s(wall), 77.11s(cpu) 
 Wed Jul 29 00:04:03 2020

        *************************************************************
        *                                                           *
        *  Thank you very much for using Q-Chem.  Have a nice day.  *
        *                                                           *
        *************************************************************


