                  Welcome to Q-Chem
     A Quantum Leap Into The Future Of Chemistry


 Q-Chem 5.3 (devel), Q-Chem, Inc., Pleasanton, CA (2020)

 Yihan Shao,  Zhengting Gan,  E. Epifanovsky,  A. T. B. Gilbert,  M. Wormit,  
 J. Kussmann,  A. W. Lange,  A. Behn,  Jia Deng,  Xintian Feng,  D. Ghosh,  
 M. Goldey,  P. R. Horn,  L. D. Jacobson,  I. Kaliman,  T. Kus,  A. Landau,  
 Jie Liu,  E. I. Proynov,  R. M. Richard,  R. P. Steele,  E. J. Sundstrom,  
 H. L. Woodcock III,  P. M. Zimmerman,  D. Zuev,  B. Alam,  B. Albrecht,  
 E. Alguire,  S. A. Baeppler,  D. Barton,  Z. Benda,  Y. A. Bernard,  
 E. J. Berquist,  K. B. Bravaya,  H. Burton,  K. Carter-Fenk,  D. Casanova,  
 Chun-Min Chang,  Yunqing Chen,  A. Chien,  K. D. Closser,  M. P. Coons,  
 S. Coriani,  S. Dasgupta,  A. L. Dempwolff,  M. Diedenhofen,  Hainam Do,  
 R. G. Edgar,  Po-Tung Fang,  S. Faraji,  S. Fatehi,  Qingguo Feng,  
 J. Fosso-Tande,  J. Gayvert,  Qinghui Ge,  A. Ghysels,  G. Gidofalvi,  
 J. Gomes,  J. Gonthier,  A. Gunina,  D. Hait,  M. W. D. Hanson-Heine,  
 P. H. P. Harbach,  A. W. Hauser,  M. F. Herbst,  J. E. Herr,  
 E. G. Hohenstein,  Z. C. Holden,  Kerwin Hui,  B. C. Huynh,  T.-C. Jagau,  
 Hyunjun Ji,  B. Kaduk,  K. Khistyaev,  Jaehoon Kim,  P. Klunzinger,  K. Koh,  
 D. Kosenkov,  L. Koulias,  T. Kowalczyk,  C. M. Krauter,  A. Kunitsa,  
 Ka Un Lao,  A. Laurent,  K. V. Lawler,  Joonho Lee,  D. Lefrancois,  
 S. Lehtola,  D. S. Levine,  Yi-Pei Li,  You-Sheng Lin,  Fenglai Liu,  
 Kuan-Yu Liu,  E. Livshits,  M. Loipersberger,  A. Luenser,  P. Manohar,  
 E. Mansoor,  S. F. Manzer,  Shan-Ping Mao,  Yuezhi Mao,  N. Mardirossian,  
 A. V. Marenich,  T. Markovich,  L. A. Martinez-Martinez,  S. A. Maurer,  
 N. J. Mayhall,  S. C. McKenzie,  J.-M. Mewes,  P. Morgante,  A. F. Morrison,  
 J. W. Mullinax,  K. Nanda,  T. S. Nguyen-Beck,  R. Olivares-Amaya,  
 K. J. Oosterbaan,  J. A. Parkhill,  S. K. Paul,  F. Pavosevic,  Zheng Pei,  
 T. M. Perrine,  F. Plasser,  P. Pokhilko,  S. Prager,  A. Prociuk,  
 E. Ramos,  B. Rana,  D. R. Rehn,  F. Rob,  M. Scheurer,  M. Schneider,  
 N. Sergueev,  S. M. Sharada,  S. Sharma,  D. W. Small,  T. Stauch,  
 C. J. Stein,  T. Stein,  Yu-Chuan Su,  S. P. Veccham,  Zhen Tao,  
 A. J. W. Thom,  A. Tkatchenko,  T. Tsuchimochi,  N. M. Tubman,  L. Vogt,  
 M. L. Vidal,  O. Vydrov,  M. A. Watson,  J. Wenzel,  M. de Wergifosse,  
 T. A. Wesolowski,  A. White,  J. Witte,  A. Yamada,  Jun Yang,  K. Yao,  
 S. Yeganeh,  S. R. Yost,  Zhi-Qiang You,  A. Zech,  Igor Ying Zhang,  
 Xing Zhang,  Yan Zhao,  Ying Zhu,  B. R. Brooks,  G. K. L. Chan,  
 C. J. Cramer,  M. S. Gordon,  W. J. Hehre,  A. Klamt,  M. W. Schmidt,  
 C. D. Sherrill,  D. G. Truhlar,  A. Aspuru-Guzik,  R. Baer,  A. T. Bell,  
 N. A. Besley,  Jeng-Da Chai,  A. E. DePrince, III,  R. A. DiStasio Jr.,  
 A. Dreuw,  B. D. Dunietz,  T. R. Furlani,  Chao-Ping Hsu,  Yousung Jung,  
 Jing Kong,  D. S. Lambrecht,  WanZhen Liang,  C. Ochsenfeld,  
 V. A. Rassolov,  L. V. Slipchenko,  J. E. Subotnik,  T. Van Voorhis,  
 J. M. Herbert,  A. I. Krylov,  P. M. W. Gill,  M. Head-Gordon

 Contributors to earlier versions of Q-Chem not listed above: 
 R. D. Adamson,  B. Austin,  J. Baker,  G. J. O. Beran,  K. Brandhorst,  
 S. T. Brown,  E. F. C. Byrd,  A. K. Chakraborty,  C.-L. Cheng,  
 Siu Hung Chien,  D. M. Chipman,  D. L. Crittenden,  H. Dachsel,  
 R. J. Doerksen,  A. D. Dutoi,  L. Fusti-Molnar,  W. A. Goddard III,  
 A. Golubeva-Zadorozhnaya,  S. R. Gwaltney,  G. Hawkins,  A. Heyden,  
 S. Hirata,  G. Kedziora,  F. J. Keil,  C. Kelley,  Jihan Kim,  R. A. King,  
 R. Z. Khaliullin,  P. P. Korambath,  W. Kurlancheek,  A. M. Lee,  M. S. Lee,  
 S. V. Levchenko,  Ching Yeh Lin,  D. Liotard,  R. C. Lochan,  I. Lotan,  
 P. E. Maslen,  N. Nair,  D. P. O'Neill,  D. Neuhauser,  E. Neuscamman,  
 C. M. Oana,  R. Olson,  B. Peters,  R. Peverati,  P. A. Pieniazek,  
 Y. M. Rhee,  J. Ritchie,  M. A. Rohrdanz,  E. Rosta,  N. J. Russ,  
 H. F. Schaefer III,  N. E. Schultz,  N. Shenvi,  A. C. Simmonett,  A. Sodt,  
 D. Stuck,  K. S. Thanthiriwatte,  V. Vanovschi,  Tao Wang,  A. Warshel,  
 C. F. Williams,  Q. Wu,  X. Xu,  W. Zhang

 Please cite Q-Chem as follows:
 Y. Shao et al., Mol. Phys. 113, 184-215 (2015)
 DOI: 10.1080/00268976.2014.952696

 Q-Chem 5.3.0 for Intel X86 EM64T Linux

 Parts of Q-Chem use Armadillo 9.800.1 (Horizon Scraper).
 http://arma.sourceforge.net/

 Q-Chem begins on Wed Jul 29 00:16:00 2020  

Host: centos77-c1
0

     Scratch files written to /tmp/30084.centos77-h1/qchem26224//
Processing $rem in /opt/qchem-5.3.0-intel2020u1//config/preferences:
Processing $rem in /home/shihchengli/.qchemrc:

Checking the input file for inconsistencies... 	...done.

--------------------------------------------------------------
User input:
--------------------------------------------------------------
$rem
   JOBTYPE  sp
   EXCHANGE   omegaB97X-D
   BASIS   6-311+G(2df,2pd)
   UNRESTRICTED   False
   max_scf_cycles   250
   geom_opt_max_cycles   1500
   basis2 6-31G*
   scf_algorithm rca_diis
   SYM_IGNORE  TRUE
   print_input   true
   geom_opt_dmax   80
   pop_mulliken false
   XC_GRID 000075000302
$end

$molecule
0 1
C       -5.5306291013     0.5278589100     -0.0720299350
C       -4.2976166970     1.2118214106     -0.0112402706
H       -5.9614597846     0.3340900798     -1.0458730338
H       -6.2296663438     0.6571045111     0.7433886693
H       -4.5437558558     -0.4411217923     0.2498152389
O       -3.3287479746     -0.2919220990     0.4788097955
H       -4.0265528630     1.7965529866     0.8565107069
H       -3.7664094013     1.4761544414     -0.9170644783
H       -2.9958943758     0.5925988090     0.2905734703
$end
--------------------------------------------------------------
 ----------------------------------------------------------------
             Standard Nuclear Orientation (Angstroms)
    I     Atom           X                Y                Z
 ----------------------------------------------------------------
    1      C      -5.5306291013     0.5278589100    -0.0720299350
    2      C      -4.2976166970     1.2118214106    -0.0112402706
    3      H      -5.9614597846     0.3340900798    -1.0458730338
    4      H      -6.2296663438     0.6571045111     0.7433886693
    5      H      -4.5437558558    -0.4411217923     0.2498152389
    6      O      -3.3287479746    -0.2919220990     0.4788097955
    7      H      -4.0265528630     1.7965529866     0.8565107069
    8      H      -3.7664094013     1.4761544414    -0.9170644783
    9      H      -2.9958943758     0.5925988090     0.2905734703
 ----------------------------------------------------------------
 Nuclear Repulsion Energy =          80.65954159 hartrees
 There are       13 alpha and       13 beta electrons
 Requested basis set is 6-311+G(2df,2pd)
 There are 60 shells and 186 basis functions

 Total QAlloc Memory Limit   2000 MB
 Mega-Array Size       188 MB
 MEM_STATIC part       192 MB

                       Distance Matrix (Angstroms)
             C (  1)   C (  2)   H (  3)   H (  4)   H (  5)   O (  6)
   C (  2)  1.411318
   H (  3)  1.082373  2.146917
   H (  4)  1.081788  2.147089  1.837860
   H (  5)  1.420009  1.691436  2.071146  2.071717
   O (  6)  2.413244  1.854751  3.106078  3.063655  1.245369
   H (  7)  2.175780  1.080916  3.082487  2.482911  2.375451  2.234126
   H (  8)  2.173895  1.082853  2.477731  3.081490  2.375252  2.294800
   H (  9)  2.561358  1.472756  3.263050  3.265958  1.861750  0.963640
             H (  7)   H (  8)
   H (  8)  1.820961
   H (  9)  1.682869  1.683079
 
 A cutoff of  1.0D-09 yielded   1787 shell pairs
 There are     17317 function pairs (     21512 Cartesian)
 Smallest overlap matrix eigenvalue = 8.55E-05

 Scale SEOQF with 1.000000e-02/1.000000e-01/1.000000e-01

 Standard Electronic Orientation quadrupole field applied
 Nucleus-field energy     =     0.0000000025 hartrees
 Requested basis set is 6-31G(d)
 There are 24 shells and 54 basis functions
 A cutoff of  1.0D-09 yielded    297 shell pairs
 There are      1548 function pairs (      1731 Cartesian)
 Smallest overlap matrix eigenvalue = 6.80E-03
 Guess from superposition of atomic densities
 Warning:  Energy on first SCF cycle will be non-variational
 SAD guess density has 26.000000 electrons
 Long-range K will be added via erf
 Coulomb attenuation parameter = 0.2 bohr**(-1)
 A restricted hybrid HF-DFT SCF calculation will be
 performed using Relaxed Constraint Minimization + Pulay DIIS
 Exchange:     0.2220 Hartree-Fock + 1.0000 wB97X-D + LR-HF
 Correlation:  1.0000 wB97X-D
 Using Euler-Maclaurin-Lebedev (75,302) quadrature formula
 Dispersion:   Grimme D
 SCF converges when DIIS error is below 1.0E-04
 using 6 threads for integral computing
 -------------------------------------------------------
 OpenMP Integral computing Module                
 Release: version 1.0, May 2013, Q-Chem Inc. Pittsburgh 
 -------------------------------------------------------
 using 6 threads for integral computing
 -------------------------------------------------------
 OpenMP Integral computing Module                
 Release: version 1.0, May 2013, Q-Chem Inc. Pittsburgh 
 -------------------------------------------------------
 ---------------------------------------
  Cycle       Energy         DIIS Error
 ---------------------------------------
    1    -155.4258219864      1.04E-01
    2    -154.6848404898      1.85E-02
    3    -154.7291400917      3.82E-03
    4    -154.7879123110      2.30E-03
    5    -154.7889839068      4.85E-04 Done RCA. Switching to DIIS
    6    -154.7899176661      5.21E-04
    7    -154.7900016060      5.70E-05 Convergence criterion met
 ---------------------------------------
 SCF time:  CPU 16.31 s  wall 2.74 s
 SCF   energy in the small basis set = -154.79000161
 Total energy in the small basis set = -154.79000161
 ----------------------------------------------------
  Cycle       Energy    
 ----------------------------------------------------
    1     -18.7098557631     -1.87E+01
 Long-range K will be added via erf
 Coulomb attenuation parameter = 0.2 bohr**(-1)
 A restricted hybrid HF-DFT SCF calculation will be
 performed using Relaxed Constraint Minimization + Pulay DIIS
 Exchange:     0.2220 Hartree-Fock + 1.0000 wB97X-D + LR-HF
 Correlation:  1.0000 wB97X-D
 Using Euler-Maclaurin-Lebedev (75,302) quadrature formula
 Dispersion:   Grimme D
 SCF converges when DIIS error is below 1.0E-05
 Basis2 calculation detected. Using small basis as guess for larger.
 SCFMinFind is unable to tell whether the solution found is close.
 Resetting ReadMinima to 0 and attempting to follow guess.
 SCFMinFind following SCF Guess.
 using 6 threads for integral computing
 -------------------------------------------------------
 OpenMP Integral computing Module                
 Release: version 1.0, May 2013, Q-Chem Inc. Pittsburgh 
 -------------------------------------------------------
 using 6 threads for integral computing
 -------------------------------------------------------
 OpenMP Integral computing Module                
 Release: version 1.0, May 2013, Q-Chem Inc. Pittsburgh 
 -------------------------------------------------------
 ---------------------------------------
  Cycle       Energy         DIIS Error
 ---------------------------------------
    1    -154.8136701438      6.19E-03
    2    -154.8020814631      5.04E-03
    3    -154.8293560968      1.23E-03
    4    -154.8677333002      1.32E-03
    5    -154.8699976623      1.94E-04 Done RCA. Switching to DIIS
    6    -154.8729855756      2.29E-04
    7    -154.8731434125      1.84E-05
    8    -154.8731482580      4.95E-06 Convergence criterion met
 ---------------------------------------
 SCF time:  CPU 58.50 s  wall 9.78 s
 SCF   energy in the final basis set = -154.87314826
 Total energy in the final basis set = -154.87314826
 
 --------------------------------------------------------------
 
                    Orbital Energies (a.u.)
 --------------------------------------------------------------
 
 Alpha MOs
 -- Occupied --
-19.2207 -10.3863 -10.2670  -1.1029  -0.8829  -0.7404  -0.5987  -0.5950
 -0.5171  -0.4913  -0.4689  -0.3774  -0.3009
 -- Virtual --
  0.0215   0.0609   0.0829   0.0922   0.1122   0.1253   0.1298   0.1419
  0.1634   0.1959   0.2071   0.2234   0.2682   0.2707   0.2903   0.3121
  0.3162   0.3245   0.3648   0.3957   0.4372   0.4552   0.4971   0.5253
  0.5358   0.5452   0.5485   0.5905   0.5929   0.6275   0.6456   0.6691
  0.6890   0.7472   0.7965   0.8216   0.8380   0.9244   0.9515   0.9727
  0.9988   1.0029   1.0824   1.1190   1.1558   1.1725   1.1894   1.1953
  1.2210   1.2411   1.2451   1.2842   1.3535   1.3717   1.3810   1.4250
  1.4302   1.4385   1.4680   1.4833   1.5005   1.5695   1.6297   1.6803
  1.6982   1.7591   1.9596   2.0014   2.0809   2.2595   2.3418   2.3916
  2.4661   2.5630   2.6218   2.6552   2.6830   2.7070   2.7462   2.8175
  2.8550   2.9024   2.9372   2.9511   2.9784   2.9968   3.0502   3.0879
  3.1223   3.1797   3.2008   3.2200   3.2480   3.2780   3.3282   3.3579
  3.3771   3.4095   3.4221   3.4397   3.4746   3.5011   3.5053   3.5414
  3.5858   3.6318   3.6644   3.7078   3.7308   3.7407   3.8107   3.8326
  3.8679   3.8907   3.9521   3.9684   3.9761   4.0500   4.0673   4.1117
  4.1279   4.1758   4.2371   4.2550   4.2724   4.3032   4.3410   4.4093
  4.4264   4.4383   4.4756   4.5581   4.5993   4.6641   4.6738   4.7590
  4.8466   4.8720   4.9494   4.9901   5.0276   5.0552   5.1132   5.1479
  5.1904   5.2178   5.2624   5.2743   5.3508   5.3815   5.4291   5.5091
  5.5842   5.6937   5.8491   5.9288   6.0333   6.2059   6.2403   6.2549
  6.4402   6.6447   6.8344   6.8932   7.1847   7.2060   7.4764   7.5978
  7.7788   8.0319  24.9686  25.2981  50.4759
 --------------------------------------------------------------
 
 -----------------------------------------------------------------
                    Cartesian Multipole Moments
 -----------------------------------------------------------------
    Charge (ESU x 10^10)
                -0.0000
    Dipole Moment (Debye)
         X      -0.4761      Y       2.7712      Z      -0.7827
       Tot       2.9187
    Quadrupole Moments (Debye-Ang)
        XX     -18.2236     XY      -8.2989     YY     -18.6717
        XZ       1.9299     YZ       0.9227     ZZ     -20.4245
    Octopole Moments (Debye-Ang^2)
       XXX     268.0252    XXY      12.1329    XYY      86.3864
       YYY     -28.3632    XXZ      -5.2895    XYZ      -4.1778
       YYZ      -1.0291    XZZ      88.4343    YZZ      -7.8144
       ZZZ      -9.3369
    Hexadecapole Moments (Debye-Ang^3)
      XXXX   -2581.6203   XXXY     105.7495   XXYY    -442.5884
      XYYY     143.3809   YYYY    -101.9869   XXXZ       9.7377
      XXYZ      22.0032   XYYZ      -0.0607   YYYZ       4.7979
      XXZZ    -413.0990   XYZZ      40.1545   YYZZ     -22.0420
      XZZZ      28.0700   YZZZ       3.5569   ZZZZ     -43.5204
 -----------------------------------------------------------------
Archival summary:
1\1\centos77-c1\SP\ProcedureUnspecified\BasisUnspecified\126\shihchen\WedJul2900:16:152020WedJul2900:16:152020\0\\#,ProcedureUnspecified,BasisUnspecified,\\0,1\C\H,1,1.08092\H,1,1.08285,2,114.612\C,1,1.41132,2,121.053,3,-158.707,0\H,4,1.08179,1,118.306,2,4.12185,0\H,4,1.08237,1,118.247,2,153.406,0\H,4,1.42001,1,73.3671,2,-101.28,0\O,7,1.24537,4,129.64,1,4.34102,0\H,8,0.96364,7,114.27,4,-9.29253,0\\\@

 Total job time:  14.95s(wall), 78.97s(cpu) 
 Wed Jul 29 00:16:15 2020

        *************************************************************
        *                                                           *
        *  Thank you very much for using Q-Chem.  Have a nice day.  *
        *                                                           *
        *************************************************************


