                  Welcome to Q-Chem
     A Quantum Leap Into The Future Of Chemistry


 Q-Chem 5.3 (devel), Q-Chem, Inc., Pleasanton, CA (2020)

 Yihan Shao,  Zhengting Gan,  E. Epifanovsky,  A. T. B. Gilbert,  M. Wormit,  
 J. Kussmann,  A. W. Lange,  A. Behn,  Jia Deng,  Xintian Feng,  D. Ghosh,  
 M. Goldey,  P. R. Horn,  L. D. Jacobson,  I. Kaliman,  T. Kus,  A. Landau,  
 Jie Liu,  E. I. Proynov,  R. M. Richard,  R. P. Steele,  E. J. Sundstrom,  
 H. L. Woodcock III,  P. M. Zimmerman,  D. Zuev,  B. Alam,  B. Albrecht,  
 E. Alguire,  S. A. Baeppler,  D. Barton,  Z. Benda,  Y. A. Bernard,  
 E. J. Berquist,  K. B. Bravaya,  H. Burton,  K. Carter-Fenk,  D. Casanova,  
 Chun-Min Chang,  Yunqing Chen,  A. Chien,  K. D. Closser,  M. P. Coons,  
 S. Coriani,  S. Dasgupta,  A. L. Dempwolff,  M. Diedenhofen,  Hainam Do,  
 R. G. Edgar,  Po-Tung Fang,  S. Faraji,  S. Fatehi,  Qingguo Feng,  
 J. Fosso-Tande,  J. Gayvert,  Qinghui Ge,  A. Ghysels,  G. Gidofalvi,  
 J. Gomes,  J. Gonthier,  A. Gunina,  D. Hait,  M. W. D. Hanson-Heine,  
 P. H. P. Harbach,  A. W. Hauser,  M. F. Herbst,  J. E. Herr,  
 E. G. Hohenstein,  Z. C. Holden,  Kerwin Hui,  B. C. Huynh,  T.-C. Jagau,  
 Hyunjun Ji,  B. Kaduk,  K. Khistyaev,  Jaehoon Kim,  P. Klunzinger,  K. Koh,  
 D. Kosenkov,  L. Koulias,  T. Kowalczyk,  C. M. Krauter,  A. Kunitsa,  
 Ka Un Lao,  A. Laurent,  K. V. Lawler,  Joonho Lee,  D. Lefrancois,  
 S. Lehtola,  D. S. Levine,  Yi-Pei Li,  You-Sheng Lin,  Fenglai Liu,  
 Kuan-Yu Liu,  E. Livshits,  M. Loipersberger,  A. Luenser,  P. Manohar,  
 E. Mansoor,  S. F. Manzer,  Shan-Ping Mao,  Yuezhi Mao,  N. Mardirossian,  
 A. V. Marenich,  T. Markovich,  L. A. Martinez-Martinez,  S. A. Maurer,  
 N. J. Mayhall,  S. C. McKenzie,  J.-M. Mewes,  P. Morgante,  A. F. Morrison,  
 J. W. Mullinax,  K. Nanda,  T. S. Nguyen-Beck,  R. Olivares-Amaya,  
 K. J. Oosterbaan,  J. A. Parkhill,  S. K. Paul,  F. Pavosevic,  Zheng Pei,  
 T. M. Perrine,  F. Plasser,  P. Pokhilko,  S. Prager,  A. Prociuk,  
 E. Ramos,  B. Rana,  D. R. Rehn,  F. Rob,  M. Scheurer,  M. Schneider,  
 N. Sergueev,  S. M. Sharada,  S. Sharma,  D. W. Small,  T. Stauch,  
 C. J. Stein,  T. Stein,  Yu-Chuan Su,  S. P. Veccham,  Zhen Tao,  
 A. J. W. Thom,  A. Tkatchenko,  T. Tsuchimochi,  N. M. Tubman,  L. Vogt,  
 M. L. Vidal,  O. Vydrov,  M. A. Watson,  J. Wenzel,  M. de Wergifosse,  
 T. A. Wesolowski,  A. White,  J. Witte,  A. Yamada,  Jun Yang,  K. Yao,  
 S. Yeganeh,  S. R. Yost,  Zhi-Qiang You,  A. Zech,  Igor Ying Zhang,  
 Xing Zhang,  Yan Zhao,  Ying Zhu,  B. R. Brooks,  G. K. L. Chan,  
 C. J. Cramer,  M. S. Gordon,  W. J. Hehre,  A. Klamt,  M. W. Schmidt,  
 C. D. Sherrill,  D. G. Truhlar,  A. Aspuru-Guzik,  R. Baer,  A. T. Bell,  
 N. A. Besley,  Jeng-Da Chai,  A. E. DePrince, III,  R. A. DiStasio Jr.,  
 A. Dreuw,  B. D. Dunietz,  T. R. Furlani,  Chao-Ping Hsu,  Yousung Jung,  
 Jing Kong,  D. S. Lambrecht,  WanZhen Liang,  C. Ochsenfeld,  
 V. A. Rassolov,  L. V. Slipchenko,  J. E. Subotnik,  T. Van Voorhis,  
 J. M. Herbert,  A. I. Krylov,  P. M. W. Gill,  M. Head-Gordon

 Contributors to earlier versions of Q-Chem not listed above: 
 R. D. Adamson,  B. Austin,  J. Baker,  G. J. O. Beran,  K. Brandhorst,  
 S. T. Brown,  E. F. C. Byrd,  A. K. Chakraborty,  C.-L. Cheng,  
 Siu Hung Chien,  D. M. Chipman,  D. L. Crittenden,  H. Dachsel,  
 R. J. Doerksen,  A. D. Dutoi,  L. Fusti-Molnar,  W. A. Goddard III,  
 A. Golubeva-Zadorozhnaya,  S. R. Gwaltney,  G. Hawkins,  A. Heyden,  
 S. Hirata,  G. Kedziora,  F. J. Keil,  C. Kelley,  Jihan Kim,  R. A. King,  
 R. Z. Khaliullin,  P. P. Korambath,  W. Kurlancheek,  A. M. Lee,  M. S. Lee,  
 S. V. Levchenko,  Ching Yeh Lin,  D. Liotard,  R. C. Lochan,  I. Lotan,  
 P. E. Maslen,  N. Nair,  D. P. O'Neill,  D. Neuhauser,  E. Neuscamman,  
 C. M. Oana,  R. Olson,  B. Peters,  R. Peverati,  P. A. Pieniazek,  
 Y. M. Rhee,  J. Ritchie,  M. A. Rohrdanz,  E. Rosta,  N. J. Russ,  
 H. F. Schaefer III,  N. E. Schultz,  N. Shenvi,  A. C. Simmonett,  A. Sodt,  
 D. Stuck,  K. S. Thanthiriwatte,  V. Vanovschi,  Tao Wang,  A. Warshel,  
 C. F. Williams,  Q. Wu,  X. Xu,  W. Zhang

 Please cite Q-Chem as follows:
 Y. Shao et al., Mol. Phys. 113, 184-215 (2015)
 DOI: 10.1080/00268976.2014.952696

 Q-Chem 5.3.0 for Intel X86 EM64T Linux

 Parts of Q-Chem use Armadillo 9.800.1 (Horizon Scraper).
 http://arma.sourceforge.net/

 Q-Chem begins on Wed Jul 29 00:05:34 2020  

Host: centos77-c1
0

     Scratch files written to /tmp/30084.centos77-h1/qchem24584//
Processing $rem in /opt/qchem-5.3.0-intel2020u1//config/preferences:
Processing $rem in /home/shihchengli/.qchemrc:

Checking the input file for inconsistencies... 	...done.

--------------------------------------------------------------
User input:
--------------------------------------------------------------
$rem
   JOBTYPE  sp
   EXCHANGE   omegaB97X-D
   BASIS   6-311+G(2df,2pd)
   UNRESTRICTED   False
   max_scf_cycles   250
   geom_opt_max_cycles   1500
   basis2 6-31G*
   scf_algorithm rca_diis
   SYM_IGNORE  TRUE
   print_input   true
   geom_opt_dmax   80
   pop_mulliken false
   XC_GRID 000075000302
$end

$molecule
0 1
C       -5.5449882698     0.5290374735     -0.1560849422
C       -4.3976366913     1.3508637268     -0.1584596941
H       -5.8436887547     0.0636776541     -1.0865418607
H       -6.3399640643     0.7600072376     0.5402852512
H       -4.5121449474     -0.2130769997     0.4755221352
O       -3.3502486158     0.1296594323     0.7644371049
H       -3.5894296327     1.1820553911     0.5391673362
H       -4.4340783837     2.3505166943     -0.5731120605
H       -2.6685530376     -0.2896033527     0.2276768932
$end
--------------------------------------------------------------
 ----------------------------------------------------------------
             Standard Nuclear Orientation (Angstroms)
    I     Atom           X                Y                Z
 ----------------------------------------------------------------
    1      C      -5.5449882698     0.5290374735    -0.1560849422
    2      C      -4.3976366913     1.3508637268    -0.1584596941
    3      H      -5.8436887547     0.0636776541    -1.0865418607
    4      H      -6.3399640643     0.7600072376     0.5402852512
    5      H      -4.5121449474    -0.2130769997     0.4755221352
    6      O      -3.3502486158     0.1296594323     0.7644371049
    7      H      -3.5894296327     1.1820553911     0.5391673362
    8      H      -4.4340783837     2.3505166943    -0.5731120605
    9      H      -2.6685530376    -0.2896033527     0.2276768932
 ----------------------------------------------------------------
 Nuclear Repulsion Energy =          81.08506600 hartrees
 There are       13 alpha and       13 beta electrons
 Requested basis set is 6-311+G(2df,2pd)
 There are 60 shells and 186 basis functions

 Total QAlloc Memory Limit   2000 MB
 Mega-Array Size       188 MB
 MEM_STATIC part       192 MB

                       Distance Matrix (Angstroms)
             C (  1)   C (  2)   H (  3)   H (  4)   H (  5)   O (  6)
   C (  2)  1.411318
   H (  3)  1.082373  2.146917
   H (  4)  1.081788  2.147089  1.837860
   H (  5)  1.420009  1.691436  2.071146  2.071717
   O (  6)  2.413244  1.854751  3.106078  3.063655  1.245369
   H (  7)  2.175780  1.080916  2.995894  2.782726  1.673872  1.102493
   H (  8)  2.173895  1.082853  2.735004  2.720620  2.770874  2.809970
   H (  9)  3.015183  2.414532  3.454485  3.831275  1.861750  0.963640
             H (  7)   H (  8)
   H (  8)  1.820961
   H (  9)  1.763752  3.275451
 
 A cutoff of  1.0D-09 yielded   1769 shell pairs
 There are     17177 function pairs (     21345 Cartesian)
 Smallest overlap matrix eigenvalue = 1.33E-04

 Scale SEOQF with 1.000000e-02/1.000000e-01/1.000000e-01

 Standard Electronic Orientation quadrupole field applied
 Nucleus-field energy     =     0.0000000025 hartrees
 Requested basis set is 6-31G(d)
 There are 24 shells and 54 basis functions
 A cutoff of  1.0D-09 yielded    297 shell pairs
 There are      1548 function pairs (      1731 Cartesian)
 Smallest overlap matrix eigenvalue = 7.36E-03
 Guess from superposition of atomic densities
 Warning:  Energy on first SCF cycle will be non-variational
 SAD guess density has 26.000000 electrons
 Long-range K will be added via erf
 Coulomb attenuation parameter = 0.2 bohr**(-1)
 A restricted hybrid HF-DFT SCF calculation will be
 performed using Relaxed Constraint Minimization + Pulay DIIS
 Exchange:     0.2220 Hartree-Fock + 1.0000 wB97X-D + LR-HF
 Correlation:  1.0000 wB97X-D
 Using Euler-Maclaurin-Lebedev (75,302) quadrature formula
 Dispersion:   Grimme D
 SCF converges when DIIS error is below 1.0E-04
 using 6 threads for integral computing
 -------------------------------------------------------
 OpenMP Integral computing Module                
 Release: version 1.0, May 2013, Q-Chem Inc. Pittsburgh 
 -------------------------------------------------------
 using 6 threads for integral computing
 -------------------------------------------------------
 OpenMP Integral computing Module                
 Release: version 1.0, May 2013, Q-Chem Inc. Pittsburgh 
 -------------------------------------------------------
 ---------------------------------------
  Cycle       Energy         DIIS Error
 ---------------------------------------
    1    -155.5375210496      1.09E-01
    2    -154.5715687994      1.49E-02
    3    -154.6044990915      3.63E-03
    4    -154.6379499188      3.93E-03
    5    -154.6399583840      7.18E-04 Done RCA. Switching to DIIS
    6    -154.6429071459      1.00E-03
    7    -154.6433067506      2.09E-04
    8    -154.6434279773      1.42E-04
    9    -154.6434970382      3.56E-05 Convergence criterion met
 ---------------------------------------
 SCF time:  CPU 19.50 s  wall 3.27 s
 SCF   energy in the small basis set = -154.64349704
 Total energy in the small basis set = -154.64349704
 ----------------------------------------------------
  Cycle       Energy    
 ----------------------------------------------------
    1     -18.7439638318     -1.87E+01
 Long-range K will be added via erf
 Coulomb attenuation parameter = 0.2 bohr**(-1)
 A restricted hybrid HF-DFT SCF calculation will be
 performed using Relaxed Constraint Minimization + Pulay DIIS
 Exchange:     0.2220 Hartree-Fock + 1.0000 wB97X-D + LR-HF
 Correlation:  1.0000 wB97X-D
 Using Euler-Maclaurin-Lebedev (75,302) quadrature formula
 Dispersion:   Grimme D
 SCF converges when DIIS error is below 1.0E-05
 Basis2 calculation detected. Using small basis as guess for larger.
 SCFMinFind is unable to tell whether the solution found is close.
 Resetting ReadMinima to 0 and attempting to follow guess.
 SCFMinFind following SCF Guess.
 using 6 threads for integral computing
 -------------------------------------------------------
 OpenMP Integral computing Module                
 Release: version 1.0, May 2013, Q-Chem Inc. Pittsburgh 
 -------------------------------------------------------
 using 6 threads for integral computing
 -------------------------------------------------------
 OpenMP Integral computing Module                
 Release: version 1.0, May 2013, Q-Chem Inc. Pittsburgh 
 -------------------------------------------------------
 ---------------------------------------
  Cycle       Energy         DIIS Error
 ---------------------------------------
    1    -154.5883425576      7.08E-03
    2    -154.5542055944      7.46E-03
    3    -154.6150181184      1.97E-03
    4    -154.7064556800      1.99E-03
    5    -154.7126231682      3.08E-04 Done RCA. Switching to DIIS
    6    -154.7230110405      3.60E-04
    7    -154.7253166406      1.79E-04
    8    -154.7261704245      1.08E-04
    9    -154.7268464512      5.52E-05
   10    -154.7269833492      1.31E-05
   11    -154.7269909899      5.95E-06 Convergence criterion met
 ---------------------------------------
 SCF time:  CPU 81.13 s  wall 13.56 s
 SCF   energy in the final basis set = -154.72699099
 Total energy in the final basis set = -154.72699099
 
 --------------------------------------------------------------
 
                    Orbital Energies (a.u.)
 --------------------------------------------------------------
 
 Alpha MOs
 -- Occupied --
-19.2768 -10.3018 -10.2554  -1.1649  -0.8659  -0.7216  -0.6497  -0.5707
 -0.5250  -0.4969  -0.4663  -0.3210  -0.2683
 -- Virtual --
 -0.0343   0.0691   0.0893   0.0957   0.1102   0.1350   0.1415   0.1448
  0.1778   0.1854   0.2244   0.2330   0.2595   0.2712   0.2836   0.3014
  0.3037   0.3385   0.3759   0.3814   0.4733   0.4901   0.5284   0.5449
  0.5524   0.5785   0.6009   0.6128   0.6209   0.6609   0.6696   0.6948
  0.7013   0.7430   0.7686   0.7871   0.8142   0.8618   0.9007   0.9617
  0.9800   1.0358   1.0431   1.0600   1.0903   1.1414   1.1724   1.1917
  1.2168   1.2363   1.2907   1.3261   1.3739   1.3937   1.4082   1.4427
  1.4453   1.4517   1.4867   1.5020   1.5360   1.5991   1.6434   1.6786
  1.7642   1.8421   2.0055   2.1718   2.1943   2.2514   2.3521   2.4904
  2.5321   2.5731   2.6089   2.6512   2.7516   2.7816   2.7988   2.8396
  2.8709   2.9061   2.9504   2.9710   3.0003   3.0301   3.0480   3.1050
  3.1311   3.1727   3.2128   3.2256   3.2393   3.2809   3.3017   3.3332
  3.3534   3.3630   3.3957   3.4337   3.4605   3.4840   3.5031   3.5389
  3.5711   3.5926   3.6213   3.6592   3.7099   3.7235   3.7972   3.8209
  3.8800   3.8908   3.8987   3.9439   3.9652   4.0077   4.0523   4.0809
  4.0874   4.1706   4.2068   4.2223   4.2241   4.2708   4.2750   4.3108
  4.3414   4.4096   4.4608   4.4968   4.5698   4.6221   4.6700   4.7374
  4.7878   4.8454   4.8936   4.9358   4.9772   5.0596   5.1201   5.1516
  5.1948   5.2327   5.3090   5.3419   5.4063   5.5623   5.6892   5.7695
  5.7946   5.8527   6.0107   6.1037   6.1460   6.3509   6.3949   6.6510
  6.7599   6.8593   6.9463   7.2488   7.3669   7.4008   7.6341   7.7263
  7.9362   8.2909  25.0454  25.3177  50.4786
 --------------------------------------------------------------
 
 -----------------------------------------------------------------
                    Cartesian Multipole Moments
 -----------------------------------------------------------------
    Charge (ESU x 10^10)
                -0.0000
    Dipole Moment (Debye)
         X       1.1918      Y      -0.1725      Z      -0.9248
       Tot       1.5184
    Quadrupole Moments (Debye-Ang)
        XX     -29.2117     XY      -0.1794     YY     -20.2516
        XZ       2.1766     YZ       0.1680     ZZ     -23.2345
    Octopole Moments (Debye-Ang^2)
       XXX     325.7165    XXY      -9.8229    XYY      91.0810
       YYY     -38.0803    XXZ      -4.1563    XYZ      -1.7605
       YYZ      -3.3631    XZZ     101.4781    YZZ     -15.7456
       ZZZ      -8.7784
    Hexadecapole Moments (Debye-Ang^3)
      XXXX   -2874.0190   XXXY     160.5524   XXYY    -454.9635
      XYYY     175.2307   YYYY    -114.4697   XXXZ     -18.4608
      XXYZ      16.8641   XYYZ       8.0514   YYYZ       1.3151
      XXZZ    -479.3222   XYZZ      72.3252   YYZZ     -34.0558
      XZZZ      16.8690   YZZZ       7.2136   ZZZZ     -60.5138
 -----------------------------------------------------------------
Archival summary:
1\1\centos77-c1\SP\ProcedureUnspecified\BasisUnspecified\126\shihchen\WedJul2900:05:532020WedJul2900:05:532020\0\\#,ProcedureUnspecified,BasisUnspecified,\\0,1\O\H,1,0.96364\H,1,1.10249,2,117.063\C,3,1.08092,1,116.306,2,92.5678,0\H,4,1.08285,3,114.612,1,-163.689,0\H,1,1.24537,2,114.27,3,104.256,0\C,4,1.41132,3,121.053,1,37.6043,0\H,7,1.08179,4,118.306,3,84.1218,0\H,7,1.08237,4,118.247,3,-126.594,0\\\@

 Total job time:  19.23s(wall), 104.86s(cpu) 
 Wed Jul 29 00:05:53 2020

        *************************************************************
        *                                                           *
        *  Thank you very much for using Q-Chem.  Have a nice day.  *
        *                                                           *
        *************************************************************


