                  Welcome to Q-Chem
     A Quantum Leap Into The Future Of Chemistry


 Q-Chem 5.3 (devel), Q-Chem, Inc., Pleasanton, CA (2020)

 Yihan Shao,  Zhengting Gan,  E. Epifanovsky,  A. T. B. Gilbert,  M. Wormit,  
 J. Kussmann,  A. W. Lange,  A. Behn,  Jia Deng,  Xintian Feng,  D. Ghosh,  
 M. Goldey,  P. R. Horn,  L. D. Jacobson,  I. Kaliman,  T. Kus,  A. Landau,  
 Jie Liu,  E. I. Proynov,  R. M. Richard,  R. P. Steele,  E. J. Sundstrom,  
 H. L. Woodcock III,  P. M. Zimmerman,  D. Zuev,  B. Alam,  B. Albrecht,  
 E. Alguire,  S. A. Baeppler,  D. Barton,  Z. Benda,  Y. A. Bernard,  
 E. J. Berquist,  K. B. Bravaya,  H. Burton,  K. Carter-Fenk,  D. Casanova,  
 Chun-Min Chang,  Yunqing Chen,  A. Chien,  K. D. Closser,  M. P. Coons,  
 S. Coriani,  S. Dasgupta,  A. L. Dempwolff,  M. Diedenhofen,  Hainam Do,  
 R. G. Edgar,  Po-Tung Fang,  S. Faraji,  S. Fatehi,  Qingguo Feng,  
 J. Fosso-Tande,  J. Gayvert,  Qinghui Ge,  A. Ghysels,  G. Gidofalvi,  
 J. Gomes,  J. Gonthier,  A. Gunina,  D. Hait,  M. W. D. Hanson-Heine,  
 P. H. P. Harbach,  A. W. Hauser,  M. F. Herbst,  J. E. Herr,  
 E. G. Hohenstein,  Z. C. Holden,  Kerwin Hui,  B. C. Huynh,  T.-C. Jagau,  
 Hyunjun Ji,  B. Kaduk,  K. Khistyaev,  Jaehoon Kim,  P. Klunzinger,  K. Koh,  
 D. Kosenkov,  L. Koulias,  T. Kowalczyk,  C. M. Krauter,  A. Kunitsa,  
 Ka Un Lao,  A. Laurent,  K. V. Lawler,  Joonho Lee,  D. Lefrancois,  
 S. Lehtola,  D. S. Levine,  Yi-Pei Li,  You-Sheng Lin,  Fenglai Liu,  
 Kuan-Yu Liu,  E. Livshits,  M. Loipersberger,  A. Luenser,  P. Manohar,  
 E. Mansoor,  S. F. Manzer,  Shan-Ping Mao,  Yuezhi Mao,  N. Mardirossian,  
 A. V. Marenich,  T. Markovich,  L. A. Martinez-Martinez,  S. A. Maurer,  
 N. J. Mayhall,  S. C. McKenzie,  J.-M. Mewes,  P. Morgante,  A. F. Morrison,  
 J. W. Mullinax,  K. Nanda,  T. S. Nguyen-Beck,  R. Olivares-Amaya,  
 K. J. Oosterbaan,  J. A. Parkhill,  S. K. Paul,  F. Pavosevic,  Zheng Pei,  
 T. M. Perrine,  F. Plasser,  P. Pokhilko,  S. Prager,  A. Prociuk,  
 E. Ramos,  B. Rana,  D. R. Rehn,  F. Rob,  M. Scheurer,  M. Schneider,  
 N. Sergueev,  S. M. Sharada,  S. Sharma,  D. W. Small,  T. Stauch,  
 C. J. Stein,  T. Stein,  Yu-Chuan Su,  S. P. Veccham,  Zhen Tao,  
 A. J. W. Thom,  A. Tkatchenko,  T. Tsuchimochi,  N. M. Tubman,  L. Vogt,  
 M. L. Vidal,  O. Vydrov,  M. A. Watson,  J. Wenzel,  M. de Wergifosse,  
 T. A. Wesolowski,  A. White,  J. Witte,  A. Yamada,  Jun Yang,  K. Yao,  
 S. Yeganeh,  S. R. Yost,  Zhi-Qiang You,  A. Zech,  Igor Ying Zhang,  
 Xing Zhang,  Yan Zhao,  Ying Zhu,  B. R. Brooks,  G. K. L. Chan,  
 C. J. Cramer,  M. S. Gordon,  W. J. Hehre,  A. Klamt,  M. W. Schmidt,  
 C. D. Sherrill,  D. G. Truhlar,  A. Aspuru-Guzik,  R. Baer,  A. T. Bell,  
 N. A. Besley,  Jeng-Da Chai,  A. E. DePrince, III,  R. A. DiStasio Jr.,  
 A. Dreuw,  B. D. Dunietz,  T. R. Furlani,  Chao-Ping Hsu,  Yousung Jung,  
 Jing Kong,  D. S. Lambrecht,  WanZhen Liang,  C. Ochsenfeld,  
 V. A. Rassolov,  L. V. Slipchenko,  J. E. Subotnik,  T. Van Voorhis,  
 J. M. Herbert,  A. I. Krylov,  P. M. W. Gill,  M. Head-Gordon

 Contributors to earlier versions of Q-Chem not listed above: 
 R. D. Adamson,  B. Austin,  J. Baker,  G. J. O. Beran,  K. Brandhorst,  
 S. T. Brown,  E. F. C. Byrd,  A. K. Chakraborty,  C.-L. Cheng,  
 Siu Hung Chien,  D. M. Chipman,  D. L. Crittenden,  H. Dachsel,  
 R. J. Doerksen,  A. D. Dutoi,  L. Fusti-Molnar,  W. A. Goddard III,  
 A. Golubeva-Zadorozhnaya,  S. R. Gwaltney,  G. Hawkins,  A. Heyden,  
 S. Hirata,  G. Kedziora,  F. J. Keil,  C. Kelley,  Jihan Kim,  R. A. King,  
 R. Z. Khaliullin,  P. P. Korambath,  W. Kurlancheek,  A. M. Lee,  M. S. Lee,  
 S. V. Levchenko,  Ching Yeh Lin,  D. Liotard,  R. C. Lochan,  I. Lotan,  
 P. E. Maslen,  N. Nair,  D. P. O'Neill,  D. Neuhauser,  E. Neuscamman,  
 C. M. Oana,  R. Olson,  B. Peters,  R. Peverati,  P. A. Pieniazek,  
 Y. M. Rhee,  J. Ritchie,  M. A. Rohrdanz,  E. Rosta,  N. J. Russ,  
 H. F. Schaefer III,  N. E. Schultz,  N. Shenvi,  A. C. Simmonett,  A. Sodt,  
 D. Stuck,  K. S. Thanthiriwatte,  V. Vanovschi,  Tao Wang,  A. Warshel,  
 C. F. Williams,  Q. Wu,  X. Xu,  W. Zhang

 Please cite Q-Chem as follows:
 Y. Shao et al., Mol. Phys. 113, 184-215 (2015)
 DOI: 10.1080/00268976.2014.952696

 Q-Chem 5.3.0 for Intel X86 EM64T Linux

 Parts of Q-Chem use Armadillo 9.800.1 (Horizon Scraper).
 http://arma.sourceforge.net/

 Q-Chem begins on Wed Jul 29 00:14:29 2020  

Host: centos77-c1
0

     Scratch files written to /tmp/30084.centos77-h1/qchem25981//
Processing $rem in /opt/qchem-5.3.0-intel2020u1//config/preferences:
Processing $rem in /home/shihchengli/.qchemrc:

Checking the input file for inconsistencies... 	...done.

--------------------------------------------------------------
User input:
--------------------------------------------------------------
$rem
   JOBTYPE  sp
   EXCHANGE   omegaB97X-D
   BASIS   6-311+G(2df,2pd)
   UNRESTRICTED   False
   max_scf_cycles   250
   geom_opt_max_cycles   1500
   basis2 6-31G*
   scf_algorithm rca_diis
   SYM_IGNORE  TRUE
   print_input   true
   geom_opt_dmax   80
   pop_mulliken false
   XC_GRID 000075000302
$end

$molecule
0 1
C       -5.5394149765     0.5330450598     -0.0724149537
C       -4.3577091891     1.2932022054     0.0600698401
H       -5.8939119973     0.3069025870     -1.0697730953
H       -6.2960794423     0.6231204710     0.6954459051
H       -4.5170063034     -0.3703268921     0.3213188928
O       -3.3308379023     -0.1440017973     0.6258261712
H       -4.1797976877     1.8989018033     0.9374830107
H       -3.7868315200     1.5848830917     -0.8126223078
H       -2.7791433786     0.1374107282     -0.1124432999
$end
--------------------------------------------------------------
 ----------------------------------------------------------------
             Standard Nuclear Orientation (Angstroms)
    I     Atom           X                Y                Z
 ----------------------------------------------------------------
    1      C      -5.5394149765     0.5330450598    -0.0724149537
    2      C      -4.3577091891     1.2932022054     0.0600698401
    3      H      -5.8939119973     0.3069025870    -1.0697730953
    4      H      -6.2960794423     0.6231204710     0.6954459051
    5      H      -4.5170063034    -0.3703268921     0.3213188928
    6      O      -3.3308379023    -0.1440017973     0.6258261712
    7      H      -4.1797976877     1.8989018033     0.9374830107
    8      H      -3.7868315200     1.5848830917    -0.8126223078
    9      H      -2.7791433786     0.1374107282    -0.1124432999
 ----------------------------------------------------------------
 Nuclear Repulsion Energy =          79.86539992 hartrees
 There are       13 alpha and       13 beta electrons
 Requested basis set is 6-311+G(2df,2pd)
 There are 60 shells and 186 basis functions

 Total QAlloc Memory Limit   2000 MB
 Mega-Array Size       188 MB
 MEM_STATIC part       192 MB

                       Distance Matrix (Angstroms)
             C (  1)   C (  2)   H (  3)   H (  4)   H (  5)   O (  6)
   C (  2)  1.411318
   H (  3)  1.082373  2.146917
   H (  4)  1.081788  2.147089  1.837860
   H (  5)  1.420009  1.691436  2.071146  2.071717
   O (  6)  2.413244  1.854751  3.106078  3.063655  1.245369
   H (  7)  2.175780  1.080916  3.082487  2.482911  2.375451  2.234126
   H (  8)  2.173895  1.082853  2.477731  3.081490  2.375252  2.294800
   H (  9)  2.788768  1.964048  3.262973  3.641077  1.861750  0.963640
             H (  7)   H (  8)
   H (  8)  1.820961
   H (  9)  2.483350  1.897594
 
 A cutoff of  1.0D-09 yielded   1782 shell pairs
 There are     17278 function pairs (     21460 Cartesian)
 Smallest overlap matrix eigenvalue = 9.01E-05

 Scale SEOQF with 1.000000e-02/1.000000e-01/1.000000e-01

 Standard Electronic Orientation quadrupole field applied
 Nucleus-field energy     =     0.0000000025 hartrees
 Requested basis set is 6-31G(d)
 There are 24 shells and 54 basis functions
 A cutoff of  1.0D-09 yielded    297 shell pairs
 There are      1548 function pairs (      1731 Cartesian)
 Smallest overlap matrix eigenvalue = 6.77E-03
 Guess from superposition of atomic densities
 Warning:  Energy on first SCF cycle will be non-variational
 SAD guess density has 26.000000 electrons
 Long-range K will be added via erf
 Coulomb attenuation parameter = 0.2 bohr**(-1)
 A restricted hybrid HF-DFT SCF calculation will be
 performed using Relaxed Constraint Minimization + Pulay DIIS
 Exchange:     0.2220 Hartree-Fock + 1.0000 wB97X-D + LR-HF
 Correlation:  1.0000 wB97X-D
 Using Euler-Maclaurin-Lebedev (75,302) quadrature formula
 Dispersion:   Grimme D
 SCF converges when DIIS error is below 1.0E-04
 using 6 threads for integral computing
 -------------------------------------------------------
 OpenMP Integral computing Module                
 Release: version 1.0, May 2013, Q-Chem Inc. Pittsburgh 
 -------------------------------------------------------
 using 6 threads for integral computing
 -------------------------------------------------------
 OpenMP Integral computing Module                
 Release: version 1.0, May 2013, Q-Chem Inc. Pittsburgh 
 -------------------------------------------------------
 ---------------------------------------
  Cycle       Energy         DIIS Error
 ---------------------------------------
    1    -155.2993616704      1.01E-01
    2    -154.7603911716      1.65E-02
    3    -154.7967332322      3.60E-03
    4    -154.8430647494      2.46E-03
    5    -154.8441107780      5.74E-04 Done RCA. Switching to DIIS
    6    -154.8452999666      4.89E-04
    7    -154.8453724637      5.13E-05 Convergence criterion met
 ---------------------------------------
 SCF time:  CPU 16.40 s  wall 2.75 s
 SCF   energy in the small basis set = -154.84537246
 Total energy in the small basis set = -154.84537246
 ----------------------------------------------------
  Cycle       Energy    
 ----------------------------------------------------
    1     -18.6785454574     -1.87E+01
 Long-range K will be added via erf
 Coulomb attenuation parameter = 0.2 bohr**(-1)
 A restricted hybrid HF-DFT SCF calculation will be
 performed using Relaxed Constraint Minimization + Pulay DIIS
 Exchange:     0.2220 Hartree-Fock + 1.0000 wB97X-D + LR-HF
 Correlation:  1.0000 wB97X-D
 Using Euler-Maclaurin-Lebedev (75,302) quadrature formula
 Dispersion:   Grimme D
 SCF converges when DIIS error is below 1.0E-05
 Basis2 calculation detected. Using small basis as guess for larger.
 SCFMinFind is unable to tell whether the solution found is close.
 Resetting ReadMinima to 0 and attempting to follow guess.
 SCFMinFind following SCF Guess.
 using 6 threads for integral computing
 -------------------------------------------------------
 OpenMP Integral computing Module                
 Release: version 1.0, May 2013, Q-Chem Inc. Pittsburgh 
 -------------------------------------------------------
 using 6 threads for integral computing
 -------------------------------------------------------
 OpenMP Integral computing Module                
 Release: version 1.0, May 2013, Q-Chem Inc. Pittsburgh 
 -------------------------------------------------------
 ---------------------------------------
  Cycle       Energy         DIIS Error
 ---------------------------------------
    1    -154.8697851895      6.03E-03
    2    -154.8614979968      4.64E-03
    3    -154.8846332940      1.14E-03
    4    -154.9168559176      1.17E-03
    5    -154.9188548620      1.35E-04 Done RCA. Switching to DIIS
    6    -154.9216956507      1.38E-04
    7    -154.9217577384      1.22E-05
    8    -154.9217596593      3.81E-06 Convergence criterion met
 ---------------------------------------
 SCF time:  CPU 62.97 s  wall 10.53 s
 SCF   energy in the final basis set = -154.92175966
 Total energy in the final basis set = -154.92175966
 
 --------------------------------------------------------------
 
                    Orbital Energies (a.u.)
 --------------------------------------------------------------
 
 Alpha MOs
 -- Occupied --
-19.2432 -10.3627 -10.2568  -1.0974  -0.8755  -0.7072  -0.6105  -0.5755
 -0.5082  -0.4748  -0.4535  -0.4161  -0.3026
 -- Virtual --
  0.0440   0.0623   0.0871   0.0944   0.1117   0.1258   0.1354   0.1459
  0.1765   0.1993   0.2057   0.2299   0.2527   0.2770   0.2853   0.3025
  0.3237   0.3251   0.3531   0.3894   0.4492   0.4578   0.4853   0.5308
  0.5512   0.5687   0.5877   0.6041   0.6148   0.6312   0.6593   0.6831
  0.6870   0.7253   0.7930   0.8338   0.8387   0.8849   0.8936   0.9854
  1.0049   1.0069   1.0700   1.0912   1.1289   1.1445   1.1730   1.1841
  1.2180   1.2291   1.2707   1.3110   1.3323   1.3530   1.4103   1.4245
  1.4265   1.4480   1.4809   1.5102   1.5234   1.5797   1.5874   1.6475
  1.7119   1.7384   1.9507   2.0322   2.0472   2.2461   2.3236   2.4125
  2.4332   2.5482   2.6133   2.6414   2.6960   2.7400   2.7777   2.8470
  2.8735   2.9043   2.9306   2.9630   2.9987   3.0265   3.0494   3.0860
  3.1064   3.1574   3.2067   3.2205   3.2530   3.2572   3.3065   3.3276
  3.3613   3.4048   3.4281   3.4403   3.4529   3.5091   3.5487   3.5681
  3.5745   3.6014   3.6319   3.6898   3.7223   3.7625   3.7790   3.7906
  3.8506   3.8711   3.8920   3.9151   3.9605   3.9965   4.0112   4.0774
  4.1037   4.1542   4.1877   4.2030   4.2235   4.2674   4.2845   4.3189
  4.3458   4.4278   4.4558   4.5010   4.5228   4.5749   4.6069   4.7025
  4.7323   4.7876   4.8620   4.9557   4.9699   5.0346   5.0716   5.1062
  5.1255   5.2125   5.2379   5.2920   5.3721   5.4076   5.4607   5.5510
  5.5932   5.6377   5.7258   5.7884   6.0734   6.1953   6.2363   6.2746
  6.4706   6.6358   6.7283   6.8663   7.1663   7.3233   7.4046   7.5356
  7.7717   8.1222  24.9648  25.3081  50.4690
 --------------------------------------------------------------
 
 -----------------------------------------------------------------
                    Cartesian Multipole Moments
 -----------------------------------------------------------------
    Charge (ESU x 10^10)
                -0.0000
    Dipole Moment (Debye)
         X       0.2957      Y       1.7341      Z      -1.4563
       Tot       2.2837
    Quadrupole Moments (Debye-Ang)
        XX     -23.6998     XY      -5.4952     YY     -19.5376
        XZ       3.2173     YZ       0.7521     ZZ     -20.7180
    Octopole Moments (Debye-Ang^2)
       XXX     300.7859    XXY       3.6933    XYY      89.7134
       YYY     -32.0421    XXZ      -7.0661    XYZ      -4.0888
       YYZ      -2.1346    XZZ      89.7226    YZZ      -9.6057
       ZZZ     -12.0373
    Hexadecapole Moments (Debye-Ang^3)
      XXXX   -2780.0199   XXXY     139.0938   XXYY    -457.8840
      XYYY     158.1338   YYYY    -109.0439   XXXZ       9.2471
      XXYZ      22.8525   XYYZ       3.6126   YYYZ       3.0306
      XXZZ    -421.3054   XYZZ      47.3518   YYZZ     -24.0702
      XZZZ      37.7407   YZZZ       1.4889   ZZZZ     -48.7741
 -----------------------------------------------------------------
Archival summary:
1\1\centos77-c1\SP\ProcedureUnspecified\BasisUnspecified\126\shihchen\WedJul2900:14:442020WedJul2900:14:442020\0\\#,ProcedureUnspecified,BasisUnspecified,\\0,1\C\H,1,1.08092\H,1,1.08285,2,114.612\C,1,1.41132,2,121.053,3,-158.707,0\H,4,1.08179,1,118.306,2,4.12185,0\H,4,1.08237,1,118.247,2,153.406,0\H,4,1.42001,1,73.3671,2,-101.28,0\O,7,1.24537,4,129.64,1,4.34102,0\H,8,0.96364,7,114.27,4,-69.2925,0\\\@

 Total job time:  15.80s(wall), 83.82s(cpu) 
 Wed Jul 29 00:14:44 2020

        *************************************************************
        *                                                           *
        *  Thank you very much for using Q-Chem.  Have a nice day.  *
        *                                                           *
        *************************************************************


