                  Welcome to Q-Chem
     A Quantum Leap Into The Future Of Chemistry


 Q-Chem 5.3 (devel), Q-Chem, Inc., Pleasanton, CA (2020)

 Yihan Shao,  Zhengting Gan,  E. Epifanovsky,  A. T. B. Gilbert,  M. Wormit,  
 J. Kussmann,  A. W. Lange,  A. Behn,  Jia Deng,  Xintian Feng,  D. Ghosh,  
 M. Goldey,  P. R. Horn,  L. D. Jacobson,  I. Kaliman,  T. Kus,  A. Landau,  
 Jie Liu,  E. I. Proynov,  R. M. Richard,  R. P. Steele,  E. J. Sundstrom,  
 H. L. Woodcock III,  P. M. Zimmerman,  D. Zuev,  B. Alam,  B. Albrecht,  
 E. Alguire,  S. A. Baeppler,  D. Barton,  Z. Benda,  Y. A. Bernard,  
 E. J. Berquist,  K. B. Bravaya,  H. Burton,  K. Carter-Fenk,  D. Casanova,  
 Chun-Min Chang,  Yunqing Chen,  A. Chien,  K. D. Closser,  M. P. Coons,  
 S. Coriani,  S. Dasgupta,  A. L. Dempwolff,  M. Diedenhofen,  Hainam Do,  
 R. G. Edgar,  Po-Tung Fang,  S. Faraji,  S. Fatehi,  Qingguo Feng,  
 J. Fosso-Tande,  J. Gayvert,  Qinghui Ge,  A. Ghysels,  G. Gidofalvi,  
 J. Gomes,  J. Gonthier,  A. Gunina,  D. Hait,  M. W. D. Hanson-Heine,  
 P. H. P. Harbach,  A. W. Hauser,  M. F. Herbst,  J. E. Herr,  
 E. G. Hohenstein,  Z. C. Holden,  Kerwin Hui,  B. C. Huynh,  T.-C. Jagau,  
 Hyunjun Ji,  B. Kaduk,  K. Khistyaev,  Jaehoon Kim,  P. Klunzinger,  K. Koh,  
 D. Kosenkov,  L. Koulias,  T. Kowalczyk,  C. M. Krauter,  A. Kunitsa,  
 Ka Un Lao,  A. Laurent,  K. V. Lawler,  Joonho Lee,  D. Lefrancois,  
 S. Lehtola,  D. S. Levine,  Yi-Pei Li,  You-Sheng Lin,  Fenglai Liu,  
 Kuan-Yu Liu,  E. Livshits,  M. Loipersberger,  A. Luenser,  P. Manohar,  
 E. Mansoor,  S. F. Manzer,  Shan-Ping Mao,  Yuezhi Mao,  N. Mardirossian,  
 A. V. Marenich,  T. Markovich,  L. A. Martinez-Martinez,  S. A. Maurer,  
 N. J. Mayhall,  S. C. McKenzie,  J.-M. Mewes,  P. Morgante,  A. F. Morrison,  
 J. W. Mullinax,  K. Nanda,  T. S. Nguyen-Beck,  R. Olivares-Amaya,  
 K. J. Oosterbaan,  J. A. Parkhill,  S. K. Paul,  F. Pavosevic,  Zheng Pei,  
 T. M. Perrine,  F. Plasser,  P. Pokhilko,  S. Prager,  A. Prociuk,  
 E. Ramos,  B. Rana,  D. R. Rehn,  F. Rob,  M. Scheurer,  M. Schneider,  
 N. Sergueev,  S. M. Sharada,  S. Sharma,  D. W. Small,  T. Stauch,  
 C. J. Stein,  T. Stein,  Yu-Chuan Su,  S. P. Veccham,  Zhen Tao,  
 A. J. W. Thom,  A. Tkatchenko,  T. Tsuchimochi,  N. M. Tubman,  L. Vogt,  
 M. L. Vidal,  O. Vydrov,  M. A. Watson,  J. Wenzel,  M. de Wergifosse,  
 T. A. Wesolowski,  A. White,  J. Witte,  A. Yamada,  Jun Yang,  K. Yao,  
 S. Yeganeh,  S. R. Yost,  Zhi-Qiang You,  A. Zech,  Igor Ying Zhang,  
 Xing Zhang,  Yan Zhao,  Ying Zhu,  B. R. Brooks,  G. K. L. Chan,  
 C. J. Cramer,  M. S. Gordon,  W. J. Hehre,  A. Klamt,  M. W. Schmidt,  
 C. D. Sherrill,  D. G. Truhlar,  A. Aspuru-Guzik,  R. Baer,  A. T. Bell,  
 N. A. Besley,  Jeng-Da Chai,  A. E. DePrince, III,  R. A. DiStasio Jr.,  
 A. Dreuw,  B. D. Dunietz,  T. R. Furlani,  Chao-Ping Hsu,  Yousung Jung,  
 Jing Kong,  D. S. Lambrecht,  WanZhen Liang,  C. Ochsenfeld,  
 V. A. Rassolov,  L. V. Slipchenko,  J. E. Subotnik,  T. Van Voorhis,  
 J. M. Herbert,  A. I. Krylov,  P. M. W. Gill,  M. Head-Gordon

 Contributors to earlier versions of Q-Chem not listed above: 
 R. D. Adamson,  B. Austin,  J. Baker,  G. J. O. Beran,  K. Brandhorst,  
 S. T. Brown,  E. F. C. Byrd,  A. K. Chakraborty,  C.-L. Cheng,  
 Siu Hung Chien,  D. M. Chipman,  D. L. Crittenden,  H. Dachsel,  
 R. J. Doerksen,  A. D. Dutoi,  L. Fusti-Molnar,  W. A. Goddard III,  
 A. Golubeva-Zadorozhnaya,  S. R. Gwaltney,  G. Hawkins,  A. Heyden,  
 S. Hirata,  G. Kedziora,  F. J. Keil,  C. Kelley,  Jihan Kim,  R. A. King,  
 R. Z. Khaliullin,  P. P. Korambath,  W. Kurlancheek,  A. M. Lee,  M. S. Lee,  
 S. V. Levchenko,  Ching Yeh Lin,  D. Liotard,  R. C. Lochan,  I. Lotan,  
 P. E. Maslen,  N. Nair,  D. P. O'Neill,  D. Neuhauser,  E. Neuscamman,  
 C. M. Oana,  R. Olson,  B. Peters,  R. Peverati,  P. A. Pieniazek,  
 Y. M. Rhee,  J. Ritchie,  M. A. Rohrdanz,  E. Rosta,  N. J. Russ,  
 H. F. Schaefer III,  N. E. Schultz,  N. Shenvi,  A. C. Simmonett,  A. Sodt,  
 D. Stuck,  K. S. Thanthiriwatte,  V. Vanovschi,  Tao Wang,  A. Warshel,  
 C. F. Williams,  Q. Wu,  X. Xu,  W. Zhang

 Please cite Q-Chem as follows:
 Y. Shao et al., Mol. Phys. 113, 184-215 (2015)
 DOI: 10.1080/00268976.2014.952696

 Q-Chem 5.3.0 for Intel X86 EM64T Linux

 Parts of Q-Chem use Armadillo 9.800.1 (Horizon Scraper).
 http://arma.sourceforge.net/

 Q-Chem begins on Wed Jul 29 00:07:35 2020  

Host: centos77-c1
0

     Scratch files written to /tmp/30084.centos77-h1/qchem24880//
Processing $rem in /opt/qchem-5.3.0-intel2020u1//config/preferences:
Processing $rem in /home/shihchengli/.qchemrc:

Checking the input file for inconsistencies... 	...done.

--------------------------------------------------------------
User input:
--------------------------------------------------------------
$rem
   JOBTYPE  sp
   EXCHANGE   omegaB97X-D
   BASIS   6-311+G(2df,2pd)
   UNRESTRICTED   False
   max_scf_cycles   250
   geom_opt_max_cycles   1500
   basis2 6-31G*
   scf_algorithm rca_diis
   SYM_IGNORE  TRUE
   print_input   true
   geom_opt_dmax   80
   pop_mulliken false
   XC_GRID 000075000302
$end

$molecule
0 1
C       -5.5551924881     0.5138930081     -0.2060109102
C       -4.4103297012     1.3351368022     -0.2876656989
H       -5.7925607495     -0.1195258103     -1.0509776121
H       -6.3938794435     0.8601098372     0.3830587716
H       -4.5654746003     -0.0854764391     0.6171789151
O       -3.4249413816     0.3191911778     0.9110688670
H       -3.4344215116     0.9134351892     -0.4829842395
H       -4.3942942362     2.3102270651     0.1829854251
H       -2.7096382852     -0.1838535731     0.5062366452
$end
--------------------------------------------------------------
 ----------------------------------------------------------------
             Standard Nuclear Orientation (Angstroms)
    I     Atom           X                Y                Z
 ----------------------------------------------------------------
    1      C      -5.5551924881     0.5138930081    -0.2060109102
    2      C      -4.4103297012     1.3351368022    -0.2876656989
    3      H      -5.7925607495    -0.1195258103    -1.0509776121
    4      H      -6.3938794435     0.8601098372     0.3830587716
    5      H      -4.5654746003    -0.0854764391     0.6171789151
    6      O      -3.4249413816     0.3191911778     0.9110688670
    7      H      -3.4344215116     0.9134351892    -0.4829842395
    8      H      -4.3942942362     2.3102270651     0.1829854251
    9      H      -2.7096382852    -0.1838535731     0.5062366452
 ----------------------------------------------------------------
 Nuclear Repulsion Energy =          80.37981859 hartrees
 There are       13 alpha and       13 beta electrons
 Requested basis set is 6-311+G(2df,2pd)
 There are 60 shells and 186 basis functions

 Total QAlloc Memory Limit   2000 MB
 Mega-Array Size       188 MB
 MEM_STATIC part       192 MB

                       Distance Matrix (Angstroms)
             C (  1)   C (  2)   H (  3)   H (  4)   H (  5)   O (  6)
   C (  2)  1.411318
   H (  3)  1.082373  2.146917
   H (  4)  1.081788  2.147089  1.837860
   H (  5)  1.420009  1.691436  2.071146  2.071717
   O (  6)  2.413244  1.854751  3.106078  3.063655  1.245369
   H (  7)  2.175780  1.080916  2.636370  3.084034  1.867475  1.515454
   H (  8)  2.173895  1.082853  3.062926  2.478147  2.440742  2.331089
   H (  9)  3.015183  2.414532  3.454485  3.831275  1.861750  0.963640
             H (  7)   H (  8)
   H (  8)  1.820961
   H (  9)  1.645573  3.027044
 
 A cutoff of  1.0D-09 yielded   1774 shell pairs
 There are     17232 function pairs (     21411 Cartesian)
 Smallest overlap matrix eigenvalue = 1.08E-04

 Scale SEOQF with 1.000000e-02/1.000000e-01/1.000000e-01

 Standard Electronic Orientation quadrupole field applied
 Nucleus-field energy     =     0.0000000023 hartrees
 Requested basis set is 6-31G(d)
 There are 24 shells and 54 basis functions
 A cutoff of  1.0D-09 yielded    297 shell pairs
 There are      1548 function pairs (      1731 Cartesian)
 Smallest overlap matrix eigenvalue = 6.85E-03
 Guess from superposition of atomic densities
 Warning:  Energy on first SCF cycle will be non-variational
 SAD guess density has 26.000000 electrons
 Long-range K will be added via erf
 Coulomb attenuation parameter = 0.2 bohr**(-1)
 A restricted hybrid HF-DFT SCF calculation will be
 performed using Relaxed Constraint Minimization + Pulay DIIS
 Exchange:     0.2220 Hartree-Fock + 1.0000 wB97X-D + LR-HF
 Correlation:  1.0000 wB97X-D
 Using Euler-Maclaurin-Lebedev (75,302) quadrature formula
 Dispersion:   Grimme D
 SCF converges when DIIS error is below 1.0E-04
 using 6 threads for integral computing
 -------------------------------------------------------
 OpenMP Integral computing Module                
 Release: version 1.0, May 2013, Q-Chem Inc. Pittsburgh 
 -------------------------------------------------------
 using 6 threads for integral computing
 -------------------------------------------------------
 OpenMP Integral computing Module                
 Release: version 1.0, May 2013, Q-Chem Inc. Pittsburgh 
 -------------------------------------------------------
 ---------------------------------------
  Cycle       Energy         DIIS Error
 ---------------------------------------
    1    -155.3722355874      1.03E-01
    2    -154.7278483979      1.55E-02
    3    -154.7600373152      3.45E-03
    4    -154.7994506819      2.54E-03
    5    -154.8004895145      5.81E-04 Done RCA. Switching to DIIS
    6    -154.8018236776      3.70E-04
    7    -154.8018731098      4.45E-05 Convergence criterion met
 ---------------------------------------
 SCF time:  CPU 14.38 s  wall 2.41 s
 SCF   energy in the small basis set = -154.80187311
 Total energy in the small basis set = -154.80187311
 ----------------------------------------------------
  Cycle       Energy    
 ----------------------------------------------------
    1     -18.7003809718     -1.87E+01
 Long-range K will be added via erf
 Coulomb attenuation parameter = 0.2 bohr**(-1)
 A restricted hybrid HF-DFT SCF calculation will be
 performed using Relaxed Constraint Minimization + Pulay DIIS
 Exchange:     0.2220 Hartree-Fock + 1.0000 wB97X-D + LR-HF
 Correlation:  1.0000 wB97X-D
 Using Euler-Maclaurin-Lebedev (75,302) quadrature formula
 Dispersion:   Grimme D
 SCF converges when DIIS error is below 1.0E-05
 Basis2 calculation detected. Using small basis as guess for larger.
 SCFMinFind is unable to tell whether the solution found is close.
 Resetting ReadMinima to 0 and attempting to follow guess.
 SCFMinFind following SCF Guess.
 using 6 threads for integral computing
 -------------------------------------------------------
 OpenMP Integral computing Module                
 Release: version 1.0, May 2013, Q-Chem Inc. Pittsburgh 
 -------------------------------------------------------
 using 6 threads for integral computing
 -------------------------------------------------------
 OpenMP Integral computing Module                
 Release: version 1.0, May 2013, Q-Chem Inc. Pittsburgh 
 -------------------------------------------------------
 ---------------------------------------
  Cycle       Energy         DIIS Error
 ---------------------------------------
    1    -154.8239928861      6.11E-03
    2    -154.8097804036      4.98E-03
    3    -154.8360792059      1.28E-03
    4    -154.8730789251      1.19E-03
    5    -154.8756656406      1.16E-04 Done RCA. Switching to DIIS
    6    -154.8794731360      9.77E-05
    7    -154.8795173831      1.62E-05
    8    -154.8795206997      3.41E-06 Convergence criterion met
 ---------------------------------------
 SCF time:  CPU 54.72 s  wall 9.15 s
 SCF   energy in the final basis set = -154.87952070
 Total energy in the final basis set = -154.87952070
 
 --------------------------------------------------------------
 
                    Orbital Energies (a.u.)
 --------------------------------------------------------------
 
 Alpha MOs
 -- Occupied --
-19.2427 -10.3395 -10.2612  -1.1091  -0.8739  -0.7021  -0.6116  -0.5774
 -0.5160  -0.4823  -0.4476  -0.3714  -0.3120
 -- Virtual --
  0.0357   0.0702   0.0887   0.0960   0.1129   0.1287   0.1394   0.1500
  0.1810   0.1890   0.2209   0.2258   0.2425   0.2741   0.2889   0.2978
  0.3161   0.3291   0.3582   0.3994   0.4593   0.4639   0.4891   0.5301
  0.5432   0.5906   0.5982   0.6080   0.6210   0.6315   0.6635   0.6793
  0.7044   0.7228   0.7853   0.8263   0.8478   0.8758   0.9092   0.9549
  0.9813   1.0383   1.0531   1.0800   1.1141   1.1406   1.1758   1.1842
  1.2246   1.2364   1.2796   1.2921   1.3274   1.3786   1.4158   1.4357
  1.4458   1.4544   1.4774   1.4905   1.5507   1.5686   1.6222   1.6361
  1.6938   1.8305   1.9686   1.9995   2.0909   2.2434   2.2999   2.4607
  2.5229   2.5786   2.6340   2.6524   2.6696   2.7224   2.8167   2.8393
  2.8840   2.8937   2.9302   2.9858   3.0134   3.0409   3.0589   3.0799
  3.1034   3.1620   3.1752   3.2216   3.2499   3.2662   3.3147   3.3180
  3.3658   3.4066   3.4222   3.4560   3.4718   3.4969   3.5374   3.5446
  3.5765   3.6135   3.6348   3.6492   3.7371   3.7502   3.7710   3.8232
  3.8560   3.8599   3.8913   3.9127   3.9649   3.9943   4.0432   4.0851
  4.1071   4.1458   4.1844   4.1953   4.2566   4.2620   4.2918   4.3427
  4.3620   4.4222   4.4599   4.4917   4.5107   4.5996   4.6588   4.7458
  4.7957   4.8283   4.8508   4.9196   4.9553   5.0091   5.1002   5.1115
  5.1304   5.1825   5.2397   5.3147   5.4450   5.4840   5.5712   5.5972
  5.6076   5.7613   5.8325   5.8606   6.0546   6.1071   6.2074   6.3143
  6.4209   6.6694   6.7272   6.9057   7.2722   7.3512   7.4358   7.6258
  7.8904   8.2036  25.0145  25.3118  50.4987
 --------------------------------------------------------------
 
 -----------------------------------------------------------------
                    Cartesian Multipole Moments
 -----------------------------------------------------------------
    Charge (ESU x 10^10)
                 0.0000
    Dipole Moment (Debye)
         X       0.6343      Y      -0.0037      Z      -1.1963
       Tot       1.3540
    Quadrupole Moments (Debye-Ang)
        XX     -24.6936     XY      -1.0571     YY     -19.0569
        XZ       3.0910     YZ       0.3902     ZZ     -23.8918
    Octopole Moments (Debye-Ang^2)
       XXX     299.8851    XXY      -7.4640    XYY      85.9862
       YYY     -37.2605    XXZ      -7.4744    XYZ      -4.3316
       YYZ      -1.0952    XZZ     103.4312    YZZ     -16.5679
       ZZZ     -11.5054
    Hexadecapole Moments (Debye-Ang^3)
      XXXX   -2753.0051   XXXY     163.9182   XXYY    -433.2045
      XYYY     170.3539   YYYY    -105.0437   XXXZ      -4.0212
      XXYZ      32.2619   XYYZ      -3.9218   YYYZ       6.2882
      XXZZ    -485.4812   XYZZ      73.9607   YYZZ     -32.6986
      XZZZ      24.8511   YZZZ       3.1561   ZZZZ     -73.0267
 -----------------------------------------------------------------
Archival summary:
1\1\centos77-c1\SP\ProcedureUnspecified\BasisUnspecified\126\shihchen\WedJul2900:07:492020WedJul2900:07:492020\0\\#,ProcedureUnspecified,BasisUnspecified,\\0,1\O\H,1,0.96364\H,1,1.24537,2,114.27\C,3,1.42001,1,129.64,2,-109.293,0\H,4,1.08179,3,111.086,1,-110.192,0\H,4,1.08237,3,111.002,1,118.822,0\C,4,1.41132,3,73.3671,1,4.34102,0\H,7,1.08092,4,121.053,3,48.7204,0\H,7,1.08285,4,120.721,3,-108.695,0\\\@

 Total job time:  13.76s(wall), 72.89s(cpu) 
 Wed Jul 29 00:07:49 2020

        *************************************************************
        *                                                           *
        *  Thank you very much for using Q-Chem.  Have a nice day.  *
        *                                                           *
        *************************************************************


