                  Welcome to Q-Chem
     A Quantum Leap Into The Future Of Chemistry


 Q-Chem 5.3 (devel), Q-Chem, Inc., Pleasanton, CA (2020)

 Yihan Shao,  Zhengting Gan,  E. Epifanovsky,  A. T. B. Gilbert,  M. Wormit,  
 J. Kussmann,  A. W. Lange,  A. Behn,  Jia Deng,  Xintian Feng,  D. Ghosh,  
 M. Goldey,  P. R. Horn,  L. D. Jacobson,  I. Kaliman,  T. Kus,  A. Landau,  
 Jie Liu,  E. I. Proynov,  R. M. Richard,  R. P. Steele,  E. J. Sundstrom,  
 H. L. Woodcock III,  P. M. Zimmerman,  D. Zuev,  B. Alam,  B. Albrecht,  
 E. Alguire,  S. A. Baeppler,  D. Barton,  Z. Benda,  Y. A. Bernard,  
 E. J. Berquist,  K. B. Bravaya,  H. Burton,  K. Carter-Fenk,  D. Casanova,  
 Chun-Min Chang,  Yunqing Chen,  A. Chien,  K. D. Closser,  M. P. Coons,  
 S. Coriani,  S. Dasgupta,  A. L. Dempwolff,  M. Diedenhofen,  Hainam Do,  
 R. G. Edgar,  Po-Tung Fang,  S. Faraji,  S. Fatehi,  Qingguo Feng,  
 J. Fosso-Tande,  J. Gayvert,  Qinghui Ge,  A. Ghysels,  G. Gidofalvi,  
 J. Gomes,  J. Gonthier,  A. Gunina,  D. Hait,  M. W. D. Hanson-Heine,  
 P. H. P. Harbach,  A. W. Hauser,  M. F. Herbst,  J. E. Herr,  
 E. G. Hohenstein,  Z. C. Holden,  Kerwin Hui,  B. C. Huynh,  T.-C. Jagau,  
 Hyunjun Ji,  B. Kaduk,  K. Khistyaev,  Jaehoon Kim,  P. Klunzinger,  K. Koh,  
 D. Kosenkov,  L. Koulias,  T. Kowalczyk,  C. M. Krauter,  A. Kunitsa,  
 Ka Un Lao,  A. Laurent,  K. V. Lawler,  Joonho Lee,  D. Lefrancois,  
 S. Lehtola,  D. S. Levine,  Yi-Pei Li,  You-Sheng Lin,  Fenglai Liu,  
 Kuan-Yu Liu,  E. Livshits,  M. Loipersberger,  A. Luenser,  P. Manohar,  
 E. Mansoor,  S. F. Manzer,  Shan-Ping Mao,  Yuezhi Mao,  N. Mardirossian,  
 A. V. Marenich,  T. Markovich,  L. A. Martinez-Martinez,  S. A. Maurer,  
 N. J. Mayhall,  S. C. McKenzie,  J.-M. Mewes,  P. Morgante,  A. F. Morrison,  
 J. W. Mullinax,  K. Nanda,  T. S. Nguyen-Beck,  R. Olivares-Amaya,  
 K. J. Oosterbaan,  J. A. Parkhill,  S. K. Paul,  F. Pavosevic,  Zheng Pei,  
 T. M. Perrine,  F. Plasser,  P. Pokhilko,  S. Prager,  A. Prociuk,  
 E. Ramos,  B. Rana,  D. R. Rehn,  F. Rob,  M. Scheurer,  M. Schneider,  
 N. Sergueev,  S. M. Sharada,  S. Sharma,  D. W. Small,  T. Stauch,  
 C. J. Stein,  T. Stein,  Yu-Chuan Su,  S. P. Veccham,  Zhen Tao,  
 A. J. W. Thom,  A. Tkatchenko,  T. Tsuchimochi,  N. M. Tubman,  L. Vogt,  
 M. L. Vidal,  O. Vydrov,  M. A. Watson,  J. Wenzel,  M. de Wergifosse,  
 T. A. Wesolowski,  A. White,  J. Witte,  A. Yamada,  Jun Yang,  K. Yao,  
 S. Yeganeh,  S. R. Yost,  Zhi-Qiang You,  A. Zech,  Igor Ying Zhang,  
 Xing Zhang,  Yan Zhao,  Ying Zhu,  B. R. Brooks,  G. K. L. Chan,  
 C. J. Cramer,  M. S. Gordon,  W. J. Hehre,  A. Klamt,  M. W. Schmidt,  
 C. D. Sherrill,  D. G. Truhlar,  A. Aspuru-Guzik,  R. Baer,  A. T. Bell,  
 N. A. Besley,  Jeng-Da Chai,  A. E. DePrince, III,  R. A. DiStasio Jr.,  
 A. Dreuw,  B. D. Dunietz,  T. R. Furlani,  Chao-Ping Hsu,  Yousung Jung,  
 Jing Kong,  D. S. Lambrecht,  WanZhen Liang,  C. Ochsenfeld,  
 V. A. Rassolov,  L. V. Slipchenko,  J. E. Subotnik,  T. Van Voorhis,  
 J. M. Herbert,  A. I. Krylov,  P. M. W. Gill,  M. Head-Gordon

 Contributors to earlier versions of Q-Chem not listed above: 
 R. D. Adamson,  B. Austin,  J. Baker,  G. J. O. Beran,  K. Brandhorst,  
 S. T. Brown,  E. F. C. Byrd,  A. K. Chakraborty,  C.-L. Cheng,  
 Siu Hung Chien,  D. M. Chipman,  D. L. Crittenden,  H. Dachsel,  
 R. J. Doerksen,  A. D. Dutoi,  L. Fusti-Molnar,  W. A. Goddard III,  
 A. Golubeva-Zadorozhnaya,  S. R. Gwaltney,  G. Hawkins,  A. Heyden,  
 S. Hirata,  G. Kedziora,  F. J. Keil,  C. Kelley,  Jihan Kim,  R. A. King,  
 R. Z. Khaliullin,  P. P. Korambath,  W. Kurlancheek,  A. M. Lee,  M. S. Lee,  
 S. V. Levchenko,  Ching Yeh Lin,  D. Liotard,  R. C. Lochan,  I. Lotan,  
 P. E. Maslen,  N. Nair,  D. P. O'Neill,  D. Neuhauser,  E. Neuscamman,  
 C. M. Oana,  R. Olson,  B. Peters,  R. Peverati,  P. A. Pieniazek,  
 Y. M. Rhee,  J. Ritchie,  M. A. Rohrdanz,  E. Rosta,  N. J. Russ,  
 H. F. Schaefer III,  N. E. Schultz,  N. Shenvi,  A. C. Simmonett,  A. Sodt,  
 D. Stuck,  K. S. Thanthiriwatte,  V. Vanovschi,  Tao Wang,  A. Warshel,  
 C. F. Williams,  Q. Wu,  X. Xu,  W. Zhang

 Please cite Q-Chem as follows:
 Y. Shao et al., Mol. Phys. 113, 184-215 (2015)
 DOI: 10.1080/00268976.2014.952696

 Q-Chem 5.3.0 for Intel X86 EM64T Linux

 Parts of Q-Chem use Armadillo 9.800.1 (Horizon Scraper).
 http://arma.sourceforge.net/

 Q-Chem begins on Wed Jul 29 00:09:40 2020  

Host: centos77-c1
0

     Scratch files written to /tmp/30084.centos77-h1/qchem25213//
Processing $rem in /opt/qchem-5.3.0-intel2020u1//config/preferences:
Processing $rem in /home/shihchengli/.qchemrc:

Checking the input file for inconsistencies... 	...done.

--------------------------------------------------------------
User input:
--------------------------------------------------------------
$rem
   JOBTYPE  sp
   EXCHANGE   omegaB97X-D
   BASIS   6-311+G(2df,2pd)
   UNRESTRICTED   False
   max_scf_cycles   250
   geom_opt_max_cycles   1500
   basis2 6-31G*
   scf_algorithm rca_diis
   SYM_IGNORE  TRUE
   print_input   true
   geom_opt_dmax   80
   pop_mulliken false
   XC_GRID 000075000302
$end

$molecule
0 1
C       -5.5412617549     0.4885167352     -0.2400115265
C       -4.3893113298     1.2970183904     -0.3456285996
H       -5.6976844473     -0.2802146544     -0.9857432548
H       -6.4320037506     0.9193429248     0.1972898380
H       -4.6409812820     0.0466450143     0.7653099009
O       -3.5327392988     0.5074279970     1.0976078944
H       -3.8879859722     1.4321801559     -1.2936700333
H       -3.7749264117     1.5006804461     0.5224863565
H       -2.7838381501     -0.0484597522     0.8552495878
$end
--------------------------------------------------------------
 ----------------------------------------------------------------
             Standard Nuclear Orientation (Angstroms)
    I     Atom           X                Y                Z
 ----------------------------------------------------------------
    1      C      -5.5412617549     0.4885167352    -0.2400115265
    2      C      -4.3893113298     1.2970183904    -0.3456285996
    3      H      -5.6976844473    -0.2802146544    -0.9857432548
    4      H      -6.4320037506     0.9193429248     0.1972898380
    5      H      -4.6409812820     0.0466450143     0.7653099009
    6      O      -3.5327392988     0.5074279970     1.0976078944
    7      H      -3.8879859722     1.4321801559    -1.2936700333
    8      H      -3.7749264117     1.5006804461     0.5224863565
    9      H      -2.7838381501    -0.0484597522     0.8552495878
 ----------------------------------------------------------------
 Nuclear Repulsion Energy =          80.99882190 hartrees
 There are       13 alpha and       13 beta electrons
 Requested basis set is 6-311+G(2df,2pd)
 There are 60 shells and 186 basis functions

 Total QAlloc Memory Limit   2000 MB
 Mega-Array Size       188 MB
 MEM_STATIC part       192 MB

                       Distance Matrix (Angstroms)
             C (  1)   C (  2)   H (  3)   H (  4)   H (  5)   O (  6)
   C (  2)  1.411318
   H (  3)  1.082373  2.146917
   H (  4)  1.081788  2.147089  1.837860
   H (  5)  1.420009  1.691436  2.071146  2.071717
   O (  6)  2.413244  1.854751  3.106078  3.063655  1.245369
   H (  7)  2.175780  1.080916  2.510403  2.992990  2.593474  2.588354
   H (  8)  2.173895  1.082853  3.023796  2.739300  1.709747  1.173017
   H (  9)  3.015183  2.414532  3.454485  3.831275  1.861750  0.963640
             H (  7)   H (  8)
   H (  8)  1.820961
   H (  9)  2.833601  1.868909
 
 A cutoff of  1.0D-09 yielded   1776 shell pairs
 There are     17237 function pairs (     21416 Cartesian)
 Smallest overlap matrix eigenvalue = 1.24E-04

 Scale SEOQF with 1.000000e-02/1.000000e-01/1.000000e-01

 Standard Electronic Orientation quadrupole field applied
 Nucleus-field energy     =     0.0000000016 hartrees
 Requested basis set is 6-31G(d)
 There are 24 shells and 54 basis functions
 A cutoff of  1.0D-09 yielded    297 shell pairs
 There are      1548 function pairs (      1731 Cartesian)
 Smallest overlap matrix eigenvalue = 7.35E-03
 Guess from superposition of atomic densities
 Warning:  Energy on first SCF cycle will be non-variational
 SAD guess density has 26.000000 electrons
 Long-range K will be added via erf
 Coulomb attenuation parameter = 0.2 bohr**(-1)
 A restricted hybrid HF-DFT SCF calculation will be
 performed using Relaxed Constraint Minimization + Pulay DIIS
 Exchange:     0.2220 Hartree-Fock + 1.0000 wB97X-D + LR-HF
 Correlation:  1.0000 wB97X-D
 Using Euler-Maclaurin-Lebedev (75,302) quadrature formula
 Dispersion:   Grimme D
 SCF converges when DIIS error is below 1.0E-04
 using 6 threads for integral computing
 -------------------------------------------------------
 OpenMP Integral computing Module                
 Release: version 1.0, May 2013, Q-Chem Inc. Pittsburgh 
 -------------------------------------------------------
 using 6 threads for integral computing
 -------------------------------------------------------
 OpenMP Integral computing Module                
 Release: version 1.0, May 2013, Q-Chem Inc. Pittsburgh 
 -------------------------------------------------------
 ---------------------------------------
  Cycle       Energy         DIIS Error
 ---------------------------------------
    1    -155.4953562840      1.07E-01
    2    -154.6822596268      1.38E-02
    3    -154.7118605200      3.32E-03
    4    -154.7389516096      3.84E-03
    5    -154.7407351015      6.69E-04 Done RCA. Switching to DIIS
    6    -154.7430951136      9.05E-04
    7    -154.7433308016      5.11E-05 Convergence criterion met
 ---------------------------------------
 SCF time:  CPU 16.27 s  wall 2.73 s
 SCF   energy in the small basis set = -154.74333080
 Total energy in the small basis set = -154.74333080
 ----------------------------------------------------
  Cycle       Energy    
 ----------------------------------------------------
    1     -18.7368985850     -1.87E+01
 Long-range K will be added via erf
 Coulomb attenuation parameter = 0.2 bohr**(-1)
 A restricted hybrid HF-DFT SCF calculation will be
 performed using Relaxed Constraint Minimization + Pulay DIIS
 Exchange:     0.2220 Hartree-Fock + 1.0000 wB97X-D + LR-HF
 Correlation:  1.0000 wB97X-D
 Using Euler-Maclaurin-Lebedev (75,302) quadrature formula
 Dispersion:   Grimme D
 SCF converges when DIIS error is below 1.0E-05
 Basis2 calculation detected. Using small basis as guess for larger.
 SCFMinFind is unable to tell whether the solution found is close.
 Resetting ReadMinima to 0 and attempting to follow guess.
 SCFMinFind following SCF Guess.
 using 6 threads for integral computing
 -------------------------------------------------------
 OpenMP Integral computing Module                
 Release: version 1.0, May 2013, Q-Chem Inc. Pittsburgh 
 -------------------------------------------------------
 using 6 threads for integral computing
 -------------------------------------------------------
 OpenMP Integral computing Module                
 Release: version 1.0, May 2013, Q-Chem Inc. Pittsburgh 
 -------------------------------------------------------
 ---------------------------------------
  Cycle       Energy         DIIS Error
 ---------------------------------------
    1    -154.7754897836      5.95E-03
    2    -154.7728067134      4.28E-03
    3    -154.7925428015      1.01E-03
    4    -154.8198234997      1.11E-03
    5    -154.8213410882      1.87E-04 Done RCA. Switching to DIIS
    6    -154.8233064174      2.28E-04
    7    -154.8234595088      1.55E-05
    8    -154.8234620116      1.24E-05
    9    -154.8234627661      5.70E-06 Convergence criterion met
 ---------------------------------------
 SCF time:  CPU 67.21 s  wall 11.23 s
 SCF   energy in the final basis set = -154.82346277
 Total energy in the final basis set = -154.82346277
 
 --------------------------------------------------------------
 
                    Orbital Energies (a.u.)
 --------------------------------------------------------------
 
 Alpha MOs
 -- Occupied --
-19.2667 -10.3109 -10.2566  -1.1486  -0.8698  -0.7165  -0.6478  -0.5680
 -0.5102  -0.4956  -0.4667  -0.3258  -0.3153
 -- Virtual --
  0.0233   0.0674   0.0896   0.1059   0.1085   0.1354   0.1407   0.1458
  0.1778   0.1910   0.2206   0.2310   0.2564   0.2727   0.2765   0.2955
  0.3117   0.3463   0.3701   0.3818   0.4672   0.4827   0.4932   0.5528
  0.5625   0.5705   0.5822   0.6105   0.6251   0.6335   0.6660   0.6964
  0.7121   0.7351   0.7834   0.7991   0.8340   0.8846   0.9225   0.9755
  0.9967   1.0161   1.0544   1.0708   1.0922   1.1272   1.1611   1.1899
  1.2095   1.2688   1.2986   1.3183   1.3656   1.3973   1.4179   1.4415
  1.4632   1.4727   1.4875   1.5137   1.5517   1.6068   1.6167   1.6345
  1.6548   1.8110   1.9959   2.0829   2.2043   2.2573   2.3174   2.4590
  2.5410   2.5759   2.6177   2.6530   2.6981   2.7472   2.8230   2.8464
  2.8602   2.9054   2.9879   2.9888   2.9949   3.0115   3.0599   3.0865
  3.1363   3.1605   3.1830   3.2164   3.2680   3.2726   3.2920   3.3273
  3.3518   3.3870   3.4290   3.4504   3.4684   3.4920   3.5194   3.5813
  3.5878   3.5992   3.6240   3.6451   3.7325   3.7393   3.7867   3.8403
  3.8625   3.8797   3.8874   3.9362   3.9705   4.0144   4.0422   4.0997
  4.1506   4.1645   4.1894   4.1997   4.2513   4.2721   4.2943   4.3116
  4.3553   4.3927   4.4536   4.4761   4.5464   4.6167   4.6982   4.7385
  4.7901   4.8774   4.8960   4.9656   4.9708   5.0075   5.0910   5.1313
  5.1747   5.2337   5.2622   5.3260   5.4473   5.5128   5.6008   5.6663
  5.7555   5.7814   6.0053   6.0597   6.1433   6.3150   6.3423   6.4032
  6.7454   6.7741   6.9018   7.2371   7.2482   7.3661   7.4975   7.7532
  7.9359   8.2252  25.0151  25.3235  50.4347
 --------------------------------------------------------------
 
 -----------------------------------------------------------------
                    Cartesian Multipole Moments
 -----------------------------------------------------------------
    Charge (ESU x 10^10)
                 0.0000
    Dipole Moment (Debye)
         X       1.3598      Y      -0.8504      Z      -0.9360
       Tot       1.8570
    Quadrupole Moments (Debye-Ang)
        XX     -30.5556     XY       3.1601     YY     -22.1783
        XZ       3.2461     YZ      -1.1771     ZZ     -22.5538
    Octopole Moments (Debye-Ang^2)
       XXX     335.9477    XXY     -27.0216    XYY     100.6280
       YYY     -49.5097    XXZ     -11.7190    XYZ       2.4571
       YYZ      -4.3000    XZZ     100.8707    YZZ     -15.9550
       ZZZ     -13.8095
    Hexadecapole Moments (Debye-Ang^3)
      XXXX   -2941.6096   XXXY     242.3414   XXYY    -496.8273
      XYYY     220.2621   YYYY    -130.1230   XXXZ      22.9495
      XXYZ       1.9601   XYYZ       9.4121   YYYZ      -0.6731
      XXZZ    -489.7680   XYZZ      70.2902   YYZZ     -32.6874
      XZZZ      31.5331   YZZZ      -2.7863   ZZZZ     -94.7842
 -----------------------------------------------------------------
Archival summary:
1\1\centos77-c1\SP\ProcedureUnspecified\BasisUnspecified\126\shihchen\WedJul2900:09:562020WedJul2900:09:562020\0\\#,ProcedureUnspecified,BasisUnspecified,\\0,1\O\H,1,0.96364\H,1,1.17302,2,121.709\C,3,1.08285,1,110.545,2,86.1388,0\H,4,1.08092,3,114.612,1,-110.202,0\H,1,1.24537,2,114.27,3,106.078,0\C,4,1.41132,3,120.721,1,48.5824,0\H,7,1.08179,4,118.306,3,76.7061,0\H,7,1.08237,4,118.247,3,-134.01,0\\\@

 Total job time:  16.39s(wall), 87.98s(cpu) 
 Wed Jul 29 00:09:56 2020

        *************************************************************
        *                                                           *
        *  Thank you very much for using Q-Chem.  Have a nice day.  *
        *                                                           *
        *************************************************************


