                  Welcome to Q-Chem
     A Quantum Leap Into The Future Of Chemistry


 Q-Chem 5.3 (devel), Q-Chem, Inc., Pleasanton, CA (2020)

 Yihan Shao,  Zhengting Gan,  E. Epifanovsky,  A. T. B. Gilbert,  M. Wormit,  
 J. Kussmann,  A. W. Lange,  A. Behn,  Jia Deng,  Xintian Feng,  D. Ghosh,  
 M. Goldey,  P. R. Horn,  L. D. Jacobson,  I. Kaliman,  T. Kus,  A. Landau,  
 Jie Liu,  E. I. Proynov,  R. M. Richard,  R. P. Steele,  E. J. Sundstrom,  
 H. L. Woodcock III,  P. M. Zimmerman,  D. Zuev,  B. Alam,  B. Albrecht,  
 E. Alguire,  S. A. Baeppler,  D. Barton,  Z. Benda,  Y. A. Bernard,  
 E. J. Berquist,  K. B. Bravaya,  H. Burton,  K. Carter-Fenk,  D. Casanova,  
 Chun-Min Chang,  Yunqing Chen,  A. Chien,  K. D. Closser,  M. P. Coons,  
 S. Coriani,  S. Dasgupta,  A. L. Dempwolff,  M. Diedenhofen,  Hainam Do,  
 R. G. Edgar,  Po-Tung Fang,  S. Faraji,  S. Fatehi,  Qingguo Feng,  
 J. Fosso-Tande,  J. Gayvert,  Qinghui Ge,  A. Ghysels,  G. Gidofalvi,  
 J. Gomes,  J. Gonthier,  A. Gunina,  D. Hait,  M. W. D. Hanson-Heine,  
 P. H. P. Harbach,  A. W. Hauser,  M. F. Herbst,  J. E. Herr,  
 E. G. Hohenstein,  Z. C. Holden,  Kerwin Hui,  B. C. Huynh,  T.-C. Jagau,  
 Hyunjun Ji,  B. Kaduk,  K. Khistyaev,  Jaehoon Kim,  P. Klunzinger,  K. Koh,  
 D. Kosenkov,  L. Koulias,  T. Kowalczyk,  C. M. Krauter,  A. Kunitsa,  
 Ka Un Lao,  A. Laurent,  K. V. Lawler,  Joonho Lee,  D. Lefrancois,  
 S. Lehtola,  D. S. Levine,  Yi-Pei Li,  You-Sheng Lin,  Fenglai Liu,  
 Kuan-Yu Liu,  E. Livshits,  M. Loipersberger,  A. Luenser,  P. Manohar,  
 E. Mansoor,  S. F. Manzer,  Shan-Ping Mao,  Yuezhi Mao,  N. Mardirossian,  
 A. V. Marenich,  T. Markovich,  L. A. Martinez-Martinez,  S. A. Maurer,  
 N. J. Mayhall,  S. C. McKenzie,  J.-M. Mewes,  P. Morgante,  A. F. Morrison,  
 J. W. Mullinax,  K. Nanda,  T. S. Nguyen-Beck,  R. Olivares-Amaya,  
 K. J. Oosterbaan,  J. A. Parkhill,  S. K. Paul,  F. Pavosevic,  Zheng Pei,  
 T. M. Perrine,  F. Plasser,  P. Pokhilko,  S. Prager,  A. Prociuk,  
 E. Ramos,  B. Rana,  D. R. Rehn,  F. Rob,  M. Scheurer,  M. Schneider,  
 N. Sergueev,  S. M. Sharada,  S. Sharma,  D. W. Small,  T. Stauch,  
 C. J. Stein,  T. Stein,  Yu-Chuan Su,  S. P. Veccham,  Zhen Tao,  
 A. J. W. Thom,  A. Tkatchenko,  T. Tsuchimochi,  N. M. Tubman,  L. Vogt,  
 M. L. Vidal,  O. Vydrov,  M. A. Watson,  J. Wenzel,  M. de Wergifosse,  
 T. A. Wesolowski,  A. White,  J. Witte,  A. Yamada,  Jun Yang,  K. Yao,  
 S. Yeganeh,  S. R. Yost,  Zhi-Qiang You,  A. Zech,  Igor Ying Zhang,  
 Xing Zhang,  Yan Zhao,  Ying Zhu,  B. R. Brooks,  G. K. L. Chan,  
 C. J. Cramer,  M. S. Gordon,  W. J. Hehre,  A. Klamt,  M. W. Schmidt,  
 C. D. Sherrill,  D. G. Truhlar,  A. Aspuru-Guzik,  R. Baer,  A. T. Bell,  
 N. A. Besley,  Jeng-Da Chai,  A. E. DePrince, III,  R. A. DiStasio Jr.,  
 A. Dreuw,  B. D. Dunietz,  T. R. Furlani,  Chao-Ping Hsu,  Yousung Jung,  
 Jing Kong,  D. S. Lambrecht,  WanZhen Liang,  C. Ochsenfeld,  
 V. A. Rassolov,  L. V. Slipchenko,  J. E. Subotnik,  T. Van Voorhis,  
 J. M. Herbert,  A. I. Krylov,  P. M. W. Gill,  M. Head-Gordon

 Contributors to earlier versions of Q-Chem not listed above: 
 R. D. Adamson,  B. Austin,  J. Baker,  G. J. O. Beran,  K. Brandhorst,  
 S. T. Brown,  E. F. C. Byrd,  A. K. Chakraborty,  C.-L. Cheng,  
 Siu Hung Chien,  D. M. Chipman,  D. L. Crittenden,  H. Dachsel,  
 R. J. Doerksen,  A. D. Dutoi,  L. Fusti-Molnar,  W. A. Goddard III,  
 A. Golubeva-Zadorozhnaya,  S. R. Gwaltney,  G. Hawkins,  A. Heyden,  
 S. Hirata,  G. Kedziora,  F. J. Keil,  C. Kelley,  Jihan Kim,  R. A. King,  
 R. Z. Khaliullin,  P. P. Korambath,  W. Kurlancheek,  A. M. Lee,  M. S. Lee,  
 S. V. Levchenko,  Ching Yeh Lin,  D. Liotard,  R. C. Lochan,  I. Lotan,  
 P. E. Maslen,  N. Nair,  D. P. O'Neill,  D. Neuhauser,  E. Neuscamman,  
 C. M. Oana,  R. Olson,  B. Peters,  R. Peverati,  P. A. Pieniazek,  
 Y. M. Rhee,  J. Ritchie,  M. A. Rohrdanz,  E. Rosta,  N. J. Russ,  
 H. F. Schaefer III,  N. E. Schultz,  N. Shenvi,  A. C. Simmonett,  A. Sodt,  
 D. Stuck,  K. S. Thanthiriwatte,  V. Vanovschi,  Tao Wang,  A. Warshel,  
 C. F. Williams,  Q. Wu,  X. Xu,  W. Zhang

 Please cite Q-Chem as follows:
 Y. Shao et al., Mol. Phys. 113, 184-215 (2015)
 DOI: 10.1080/00268976.2014.952696

 Q-Chem 5.3.0 for Intel X86 EM64T Linux

 Parts of Q-Chem use Armadillo 9.800.1 (Horizon Scraper).
 http://arma.sourceforge.net/

 Q-Chem begins on Wed Jul 29 00:17:53 2020  

Host: centos77-c1
0

     Scratch files written to /tmp/30084.centos77-h1/qchem26519//
Processing $rem in /opt/qchem-5.3.0-intel2020u1//config/preferences:
Processing $rem in /home/shihchengli/.qchemrc:

Checking the input file for inconsistencies... 	...done.

--------------------------------------------------------------
User input:
--------------------------------------------------------------
$rem
   JOBTYPE  sp
   EXCHANGE   omegaB97X-D
   BASIS   6-311+G(2df,2pd)
   UNRESTRICTED   False
   max_scf_cycles   250
   geom_opt_max_cycles   1500
   basis2 6-31G*
   scf_algorithm rca_diis
   SYM_IGNORE  TRUE
   print_input   true
   geom_opt_dmax   80
   pop_mulliken false
   XC_GRID 000075000302
$end

$molecule
0 1
C       -5.5312274817     0.5333289399     -0.0763093902
C       -4.3186383929     1.2524151061     -0.1423583239
H       -6.0508664936     0.3192539259     -1.0013385812
H       -6.1492558197     0.6495858045     0.8039123471
H       -4.4895709636     -0.4045797974     0.1510793054
O       -3.2626667338     -0.2191178609     0.2571598777
H       -3.9797893858     1.8518662543     0.6908391608
H       -3.8879374286     1.5240527904     -1.0980153153
H       -3.0107796975     0.3563320943     0.9879210829
$end
--------------------------------------------------------------
 ----------------------------------------------------------------
             Standard Nuclear Orientation (Angstroms)
    I     Atom           X                Y                Z
 ----------------------------------------------------------------
    1      C      -5.5312274817     0.5333289399    -0.0763093902
    2      C      -4.3186383929     1.2524151061    -0.1423583239
    3      H      -6.0508664936     0.3192539259    -1.0013385812
    4      H      -6.1492558197     0.6495858045     0.8039123471
    5      H      -4.4895709636    -0.4045797974     0.1510793054
    6      O      -3.2626667338    -0.2191178609     0.2571598777
    7      H      -3.9797893858     1.8518662543     0.6908391608
    8      H      -3.8879374286     1.5240527904    -1.0980153153
    9      H      -3.0107796975     0.3563320943     0.9879210829
 ----------------------------------------------------------------
 Nuclear Repulsion Energy =          79.91361145 hartrees
 There are       13 alpha and       13 beta electrons
 Requested basis set is 6-311+G(2df,2pd)
 There are 60 shells and 186 basis functions

 Total QAlloc Memory Limit   2000 MB
 Mega-Array Size       188 MB
 MEM_STATIC part       192 MB

                       Distance Matrix (Angstroms)
             C (  1)   C (  2)   H (  3)   H (  4)   H (  5)   O (  6)
   C (  2)  1.411318
   H (  3)  1.082373  2.146917
   H (  4)  1.081788  2.147089  1.837860
   H (  5)  1.420009  1.691436  2.071146  2.071717
   O (  6)  2.413244  1.854751  3.106078  3.063655  1.245369
   H (  7)  2.175780  1.080916  3.082487  2.482911  2.375451  2.234126
   H (  8)  2.173895  1.082853  2.477731  3.081490  2.375252  2.294800
   H (  9)  2.741637  1.947047  3.633271  3.157513  1.861750  0.963640
             H (  7)   H (  8)
   H (  8)  1.820961
   H (  9)  1.806616  2.546391
 
 A cutoff of  1.0D-09 yielded   1784 shell pairs
 There are     17308 function pairs (     21496 Cartesian)
 Smallest overlap matrix eigenvalue = 8.94E-05

 Scale SEOQF with 1.000000e-02/1.000000e-01/1.000000e-01

 Standard Electronic Orientation quadrupole field applied
 Nucleus-field energy     =     0.0000000026 hartrees
 Requested basis set is 6-31G(d)
 There are 24 shells and 54 basis functions
 A cutoff of  1.0D-09 yielded    297 shell pairs
 There are      1548 function pairs (      1731 Cartesian)
 Smallest overlap matrix eigenvalue = 6.78E-03
 Guess from superposition of atomic densities
 Warning:  Energy on first SCF cycle will be non-variational
 SAD guess density has 26.000000 electrons
 Long-range K will be added via erf
 Coulomb attenuation parameter = 0.2 bohr**(-1)
 A restricted hybrid HF-DFT SCF calculation will be
 performed using Relaxed Constraint Minimization + Pulay DIIS
 Exchange:     0.2220 Hartree-Fock + 1.0000 wB97X-D + LR-HF
 Correlation:  1.0000 wB97X-D
 Using Euler-Maclaurin-Lebedev (75,302) quadrature formula
 Dispersion:   Grimme D
 SCF converges when DIIS error is below 1.0E-04
 using 6 threads for integral computing
 -------------------------------------------------------
 OpenMP Integral computing Module                
 Release: version 1.0, May 2013, Q-Chem Inc. Pittsburgh 
 -------------------------------------------------------
 using 6 threads for integral computing
 -------------------------------------------------------
 OpenMP Integral computing Module                
 Release: version 1.0, May 2013, Q-Chem Inc. Pittsburgh 
 -------------------------------------------------------
 ---------------------------------------
  Cycle       Energy         DIIS Error
 ---------------------------------------
    1    -155.3049336398      1.01E-01
    2    -154.7587921297      1.65E-02
    3    -154.7951594424      3.62E-03
    4    -154.8417432651      2.44E-03
    5    -154.8427872177      5.75E-04 Done RCA. Switching to DIIS
    6    -154.8439581028      5.04E-04
    7    -154.8440339827      5.14E-05 Convergence criterion met
 ---------------------------------------
 SCF time:  CPU 16.00 s  wall 2.68 s
 SCF   energy in the small basis set = -154.84403398
 Total energy in the small basis set = -154.84403398
 ----------------------------------------------------
  Cycle       Energy    
 ----------------------------------------------------
    1     -18.6791172773     -1.87E+01
 Long-range K will be added via erf
 Coulomb attenuation parameter = 0.2 bohr**(-1)
 A restricted hybrid HF-DFT SCF calculation will be
 performed using Relaxed Constraint Minimization + Pulay DIIS
 Exchange:     0.2220 Hartree-Fock + 1.0000 wB97X-D + LR-HF
 Correlation:  1.0000 wB97X-D
 Using Euler-Maclaurin-Lebedev (75,302) quadrature formula
 Dispersion:   Grimme D
 SCF converges when DIIS error is below 1.0E-05
 Basis2 calculation detected. Using small basis as guess for larger.
 SCFMinFind is unable to tell whether the solution found is close.
 Resetting ReadMinima to 0 and attempting to follow guess.
 SCFMinFind following SCF Guess.
 using 6 threads for integral computing
 -------------------------------------------------------
 OpenMP Integral computing Module                
 Release: version 1.0, May 2013, Q-Chem Inc. Pittsburgh 
 -------------------------------------------------------
 using 6 threads for integral computing
 -------------------------------------------------------
 OpenMP Integral computing Module                
 Release: version 1.0, May 2013, Q-Chem Inc. Pittsburgh 
 -------------------------------------------------------
 ---------------------------------------
  Cycle       Energy         DIIS Error
 ---------------------------------------
    1    -154.8687116865      6.02E-03
    2    -154.8604462889      4.63E-03
    3    -154.8835076940      1.14E-03
    4    -154.9156236981      1.16E-03
    5    -154.9176196185      1.34E-04 Done RCA. Switching to DIIS
    6    -154.9204624987      1.36E-04
    7    -154.9205226957      1.21E-05
    8    -154.9205246342      3.87E-06 Convergence criterion met
 ---------------------------------------
 SCF time:  CPU 58.41 s  wall 9.77 s
 SCF   energy in the final basis set = -154.92052463
 Total energy in the final basis set = -154.92052463
 
 --------------------------------------------------------------
 
                    Orbital Energies (a.u.)
 --------------------------------------------------------------
 
 Alpha MOs
 -- Occupied --
-19.2429 -10.3635 -10.2575  -1.0977  -0.8757  -0.7082  -0.6122  -0.5753
 -0.5092  -0.4746  -0.4519  -0.4181  -0.3026
 -- Virtual --
  0.0440   0.0627   0.0870   0.0933   0.1117   0.1253   0.1347   0.1465
  0.1761   0.2001   0.2045   0.2265   0.2524   0.2790   0.2891   0.3016
  0.3217   0.3246   0.3557   0.3870   0.4491   0.4565   0.4880   0.5258
  0.5508   0.5679   0.5880   0.6040   0.6124   0.6287   0.6646   0.6840
  0.6896   0.7276   0.7864   0.8349   0.8417   0.8897   0.8948   0.9832
  0.9932   1.0044   1.0736   1.0947   1.1257   1.1502   1.1673   1.1941
  1.2155   1.2270   1.2749   1.3117   1.3370   1.3454   1.4074   1.4183
  1.4357   1.4432   1.4808   1.5048   1.5344   1.5761   1.5867   1.6486
  1.7110   1.7339   1.9638   2.0327   2.0456   2.2486   2.3177   2.3999
  2.4410   2.5492   2.6030   2.6551   2.6988   2.7350   2.7762   2.8504
  2.8600   2.9000   2.9099   2.9709   3.0041   3.0238   3.0473   3.0807
  3.1130   3.1484   3.2072   3.2260   3.2655   3.2795   3.3086   3.3305
  3.3658   3.4082   3.4204   3.4518   3.4552   3.5237   3.5358   3.5619
  3.5678   3.6109   3.6309   3.6845   3.7121   3.7548   3.7801   3.7866
  3.8548   3.8697   3.8852   3.9233   3.9618   3.9914   4.0280   4.0854
  4.1102   4.1491   4.1794   4.2063   4.2241   4.2793   4.2913   4.3235
  4.3553   4.4213   4.4723   4.4975   4.5328   4.5823   4.6106   4.6983
  4.7402   4.7857   4.8689   4.9568   4.9731   5.0337   5.0643   5.1142
  5.1192   5.2139   5.2343   5.2935   5.3685   5.3959   5.4675   5.5537
  5.6086   5.6321   5.7225   5.7790   6.0655   6.1936   6.2353   6.2736
  6.4723   6.6348   6.7333   6.8662   7.1739   7.3147   7.4134   7.5392
  7.7712   8.1165  24.9650  25.3084  50.4709
 --------------------------------------------------------------
 
 -----------------------------------------------------------------
                    Cartesian Multipole Moments
 -----------------------------------------------------------------
    Charge (ESU x 10^10)
                -0.0000
    Dipole Moment (Debye)
         X      -0.1637      Y       2.1452      Z       0.6310
       Tot       2.2421
    Quadrupole Moments (Debye-Ang)
        XX     -21.5290     XY      -6.4030     YY     -19.5352
        XZ      -1.5474     YZ       1.0138     ZZ     -18.1105
    Octopole Moments (Debye-Ang^2)
       XXX     292.7661    XXY       5.3720    XYY      89.5740
       YYY     -30.8702    XXZ       3.3447    XYZ      -4.0745
       YYZ      -0.0519    XZZ      81.6392    YZZ      -8.2248
       ZZZ      -1.4801
    Hexadecapole Moments (Debye-Ang^3)
      XXXX   -2747.3514   XXXY     136.7178   XXYY    -456.3974
      XYYY     153.7279   YYYY    -106.9482   XXXZ     -13.7008
      XXYZ      20.5305   XYYZ      -3.3084   YYYZ       6.0154
      XXZZ    -393.7935   XYZZ      42.4915   YYZZ     -22.5293
      XZZZ      -0.0674   YZZZ       4.8456   ZZZZ     -37.6435
 -----------------------------------------------------------------
Archival summary:
1\1\centos77-c1\SP\ProcedureUnspecified\BasisUnspecified\126\shihchen\WedJul2900:18:082020WedJul2900:18:082020\0\\#,ProcedureUnspecified,BasisUnspecified,\\0,1\C\H,1,1.08092\H,1,1.08285,2,114.612\C,1,1.41132,2,121.053,3,-158.707,0\H,4,1.08179,1,118.306,2,4.12185,0\H,4,1.08237,1,118.247,2,153.406,0\H,4,1.42001,1,73.3671,2,-101.28,0\O,7,1.24537,4,129.64,1,4.34102,0\H,8,0.96364,7,114.27,4,60.7075,0\\\@

 Total job time:  15.08s(wall), 78.95s(cpu) 
 Wed Jul 29 00:18:08 2020

        *************************************************************
        *                                                           *
        *  Thank you very much for using Q-Chem.  Have a nice day.  *
        *                                                           *
        *************************************************************


