                  Welcome to Q-Chem
     A Quantum Leap Into The Future Of Chemistry


 Q-Chem 5.3 (devel), Q-Chem, Inc., Pleasanton, CA (2020)

 Yihan Shao,  Zhengting Gan,  E. Epifanovsky,  A. T. B. Gilbert,  M. Wormit,  
 J. Kussmann,  A. W. Lange,  A. Behn,  Jia Deng,  Xintian Feng,  D. Ghosh,  
 M. Goldey,  P. R. Horn,  L. D. Jacobson,  I. Kaliman,  T. Kus,  A. Landau,  
 Jie Liu,  E. I. Proynov,  R. M. Richard,  R. P. Steele,  E. J. Sundstrom,  
 H. L. Woodcock III,  P. M. Zimmerman,  D. Zuev,  B. Alam,  B. Albrecht,  
 E. Alguire,  S. A. Baeppler,  D. Barton,  Z. Benda,  Y. A. Bernard,  
 E. J. Berquist,  K. B. Bravaya,  H. Burton,  K. Carter-Fenk,  D. Casanova,  
 Chun-Min Chang,  Yunqing Chen,  A. Chien,  K. D. Closser,  M. P. Coons,  
 S. Coriani,  S. Dasgupta,  A. L. Dempwolff,  M. Diedenhofen,  Hainam Do,  
 R. G. Edgar,  Po-Tung Fang,  S. Faraji,  S. Fatehi,  Qingguo Feng,  
 J. Fosso-Tande,  J. Gayvert,  Qinghui Ge,  A. Ghysels,  G. Gidofalvi,  
 J. Gomes,  J. Gonthier,  A. Gunina,  D. Hait,  M. W. D. Hanson-Heine,  
 P. H. P. Harbach,  A. W. Hauser,  M. F. Herbst,  J. E. Herr,  
 E. G. Hohenstein,  Z. C. Holden,  Kerwin Hui,  B. C. Huynh,  T.-C. Jagau,  
 Hyunjun Ji,  B. Kaduk,  K. Khistyaev,  Jaehoon Kim,  P. Klunzinger,  K. Koh,  
 D. Kosenkov,  L. Koulias,  T. Kowalczyk,  C. M. Krauter,  A. Kunitsa,  
 Ka Un Lao,  A. Laurent,  K. V. Lawler,  Joonho Lee,  D. Lefrancois,  
 S. Lehtola,  D. S. Levine,  Yi-Pei Li,  You-Sheng Lin,  Fenglai Liu,  
 Kuan-Yu Liu,  E. Livshits,  M. Loipersberger,  A. Luenser,  P. Manohar,  
 E. Mansoor,  S. F. Manzer,  Shan-Ping Mao,  Yuezhi Mao,  N. Mardirossian,  
 A. V. Marenich,  T. Markovich,  L. A. Martinez-Martinez,  S. A. Maurer,  
 N. J. Mayhall,  S. C. McKenzie,  J.-M. Mewes,  P. Morgante,  A. F. Morrison,  
 J. W. Mullinax,  K. Nanda,  T. S. Nguyen-Beck,  R. Olivares-Amaya,  
 K. J. Oosterbaan,  J. A. Parkhill,  S. K. Paul,  F. Pavosevic,  Zheng Pei,  
 T. M. Perrine,  F. Plasser,  P. Pokhilko,  S. Prager,  A. Prociuk,  
 E. Ramos,  B. Rana,  D. R. Rehn,  F. Rob,  M. Scheurer,  M. Schneider,  
 N. Sergueev,  S. M. Sharada,  S. Sharma,  D. W. Small,  T. Stauch,  
 C. J. Stein,  T. Stein,  Yu-Chuan Su,  S. P. Veccham,  Zhen Tao,  
 A. J. W. Thom,  A. Tkatchenko,  T. Tsuchimochi,  N. M. Tubman,  L. Vogt,  
 M. L. Vidal,  O. Vydrov,  M. A. Watson,  J. Wenzel,  M. de Wergifosse,  
 T. A. Wesolowski,  A. White,  J. Witte,  A. Yamada,  Jun Yang,  K. Yao,  
 S. Yeganeh,  S. R. Yost,  Zhi-Qiang You,  A. Zech,  Igor Ying Zhang,  
 Xing Zhang,  Yan Zhao,  Ying Zhu,  B. R. Brooks,  G. K. L. Chan,  
 C. J. Cramer,  M. S. Gordon,  W. J. Hehre,  A. Klamt,  M. W. Schmidt,  
 C. D. Sherrill,  D. G. Truhlar,  A. Aspuru-Guzik,  R. Baer,  A. T. Bell,  
 N. A. Besley,  Jeng-Da Chai,  A. E. DePrince, III,  R. A. DiStasio Jr.,  
 A. Dreuw,  B. D. Dunietz,  T. R. Furlani,  Chao-Ping Hsu,  Yousung Jung,  
 Jing Kong,  D. S. Lambrecht,  WanZhen Liang,  C. Ochsenfeld,  
 V. A. Rassolov,  L. V. Slipchenko,  J. E. Subotnik,  T. Van Voorhis,  
 J. M. Herbert,  A. I. Krylov,  P. M. W. Gill,  M. Head-Gordon

 Contributors to earlier versions of Q-Chem not listed above: 
 R. D. Adamson,  B. Austin,  J. Baker,  G. J. O. Beran,  K. Brandhorst,  
 S. T. Brown,  E. F. C. Byrd,  A. K. Chakraborty,  C.-L. Cheng,  
 Siu Hung Chien,  D. M. Chipman,  D. L. Crittenden,  H. Dachsel,  
 R. J. Doerksen,  A. D. Dutoi,  L. Fusti-Molnar,  W. A. Goddard III,  
 A. Golubeva-Zadorozhnaya,  S. R. Gwaltney,  G. Hawkins,  A. Heyden,  
 S. Hirata,  G. Kedziora,  F. J. Keil,  C. Kelley,  Jihan Kim,  R. A. King,  
 R. Z. Khaliullin,  P. P. Korambath,  W. Kurlancheek,  A. M. Lee,  M. S. Lee,  
 S. V. Levchenko,  Ching Yeh Lin,  D. Liotard,  R. C. Lochan,  I. Lotan,  
 P. E. Maslen,  N. Nair,  D. P. O'Neill,  D. Neuhauser,  E. Neuscamman,  
 C. M. Oana,  R. Olson,  B. Peters,  R. Peverati,  P. A. Pieniazek,  
 Y. M. Rhee,  J. Ritchie,  M. A. Rohrdanz,  E. Rosta,  N. J. Russ,  
 H. F. Schaefer III,  N. E. Schultz,  N. Shenvi,  A. C. Simmonett,  A. Sodt,  
 D. Stuck,  K. S. Thanthiriwatte,  V. Vanovschi,  Tao Wang,  A. Warshel,  
 C. F. Williams,  Q. Wu,  X. Xu,  W. Zhang

 Please cite Q-Chem as follows:
 Y. Shao et al., Mol. Phys. 113, 184-215 (2015)
 DOI: 10.1080/00268976.2014.952696

 Q-Chem 5.3.0 for Intel X86 EM64T Linux

 Parts of Q-Chem use Armadillo 9.800.1 (Horizon Scraper).
 http://arma.sourceforge.net/

 Q-Chem begins on Wed Jul 29 00:13:02 2020  

Host: centos77-c1
0

     Scratch files written to /tmp/30084.centos77-h1/qchem25728//
Processing $rem in /opt/qchem-5.3.0-intel2020u1//config/preferences:
Processing $rem in /home/shihchengli/.qchemrc:

Checking the input file for inconsistencies... 	...done.

--------------------------------------------------------------
User input:
--------------------------------------------------------------
$rem
   JOBTYPE  sp
   EXCHANGE   omegaB97X-D
   BASIS   6-311+G(2df,2pd)
   UNRESTRICTED   False
   max_scf_cycles   250
   geom_opt_max_cycles   1500
   basis2 6-31G*
   scf_algorithm rca_diis
   SYM_IGNORE  TRUE
   print_input   true
   geom_opt_dmax   80
   pop_mulliken false
   XC_GRID 000075000302
$end

$molecule
0 1
C       -5.4759534587     0.4096928017     -0.2728138384
C       -4.2518722071     1.0902313845     -0.4469172605
H       -5.6023601092     -0.5494414313     -0.7582154251
H       -6.3736430932     0.9966533070     -0.1317618014
H       -4.7582377260     0.2731837719     0.9448380544
O       -3.6658695454     0.7665900336     1.2828102810
H       -4.2201588970     2.1671441290     -0.5342761974
H       -3.3876739189     0.5792123689     -0.8526160672
H       -2.9449634417     0.1298708918     1.3418424179
$end
--------------------------------------------------------------
 ----------------------------------------------------------------
             Standard Nuclear Orientation (Angstroms)
    I     Atom           X                Y                Z
 ----------------------------------------------------------------
    1      C      -5.4759534587     0.4096928017    -0.2728138384
    2      C      -4.2518722071     1.0902313845    -0.4469172605
    3      H      -5.6023601092    -0.5494414313    -0.7582154251
    4      H      -6.3736430932     0.9966533070    -0.1317618014
    5      H      -4.7582377260     0.2731837719     0.9448380544
    6      O      -3.6658695454     0.7665900336     1.2828102810
    7      H      -4.2201588970     2.1671441290    -0.5342761974
    8      H      -3.3876739189     0.5792123689    -0.8526160672
    9      H      -2.9449634417     0.1298708918     1.3418424179
 ----------------------------------------------------------------
 Nuclear Repulsion Energy =          79.38872149 hartrees
 There are       13 alpha and       13 beta electrons
 Requested basis set is 6-311+G(2df,2pd)
 There are 60 shells and 186 basis functions

 Total QAlloc Memory Limit   2000 MB
 Mega-Array Size       188 MB
 MEM_STATIC part       192 MB

                       Distance Matrix (Angstroms)
             C (  1)   C (  2)   H (  3)   H (  4)   H (  5)   O (  6)
   C (  2)  1.411318
   H (  3)  1.082373  2.146917
   H (  4)  1.081788  2.147089  1.837860
   H (  5)  1.420009  1.691436  2.071146  2.071717
   O (  6)  2.413244  1.854751  3.106078  3.063655  1.245369
   H (  7)  2.175780  1.080916  3.056218  2.483860  2.462599  2.360210
   H (  8)  2.173895  1.082853  2.487490  3.099984  2.280995  2.161608
   H (  9)  3.015183  2.414532  3.454485  3.831275  1.861750  0.963640
             H (  7)   H (  8)
   H (  8)  1.820961
   H (  9)  3.049004  2.283320
 
 A cutoff of  1.0D-09 yielded   1773 shell pairs
 There are     17229 function pairs (     21408 Cartesian)
 Smallest overlap matrix eigenvalue = 9.02E-05

 Scale SEOQF with 1.000000e-02/1.000000e-01/1.000000e-01

 Standard Electronic Orientation quadrupole field applied
 Nucleus-field energy     =     0.0000000012 hartrees
 Requested basis set is 6-31G(d)
 There are 24 shells and 54 basis functions
 A cutoff of  1.0D-09 yielded    297 shell pairs
 There are      1548 function pairs (      1731 Cartesian)
 Smallest overlap matrix eigenvalue = 6.74E-03
 Guess from superposition of atomic densities
 Warning:  Energy on first SCF cycle will be non-variational
 SAD guess density has 26.000000 electrons
 Long-range K will be added via erf
 Coulomb attenuation parameter = 0.2 bohr**(-1)
 A restricted hybrid HF-DFT SCF calculation will be
 performed using Relaxed Constraint Minimization + Pulay DIIS
 Exchange:     0.2220 Hartree-Fock + 1.0000 wB97X-D + LR-HF
 Correlation:  1.0000 wB97X-D
 Using Euler-Maclaurin-Lebedev (75,302) quadrature formula
 Dispersion:   Grimme D
 SCF converges when DIIS error is below 1.0E-04
 using 6 threads for integral computing
 -------------------------------------------------------
 OpenMP Integral computing Module                
 Release: version 1.0, May 2013, Q-Chem Inc. Pittsburgh 
 -------------------------------------------------------
 using 6 threads for integral computing
 -------------------------------------------------------
 OpenMP Integral computing Module                
 Release: version 1.0, May 2013, Q-Chem Inc. Pittsburgh 
 -------------------------------------------------------
 ---------------------------------------
  Cycle       Energy         DIIS Error
 ---------------------------------------
    1    -155.2612048325      9.93E-02
    2    -154.7823973138      1.57E-02
    3    -154.8164088756      3.28E-03
    4    -154.8567634722      2.42E-03
    5    -154.8576899643      5.02E-04 Done RCA. Switching to DIIS
    6    -154.8588470617      3.15E-04
    7    -154.8588829026      4.06E-05 Convergence criterion met
 ---------------------------------------
 SCF time:  CPU 14.16 s  wall 2.38 s
 SCF   energy in the small basis set = -154.85888290
 Total energy in the small basis set = -154.85888290
 ----------------------------------------------------
  Cycle       Energy    
 ----------------------------------------------------
    1     -18.6732836372     -1.87E+01
 Long-range K will be added via erf
 Coulomb attenuation parameter = 0.2 bohr**(-1)
 A restricted hybrid HF-DFT SCF calculation will be
 performed using Relaxed Constraint Minimization + Pulay DIIS
 Exchange:     0.2220 Hartree-Fock + 1.0000 wB97X-D + LR-HF
 Correlation:  1.0000 wB97X-D
 Using Euler-Maclaurin-Lebedev (75,302) quadrature formula
 Dispersion:   Grimme D
 SCF converges when DIIS error is below 1.0E-05
 Basis2 calculation detected. Using small basis as guess for larger.
 SCFMinFind is unable to tell whether the solution found is close.
 Resetting ReadMinima to 0 and attempting to follow guess.
 SCFMinFind following SCF Guess.
 using 6 threads for integral computing
 -------------------------------------------------------
 OpenMP Integral computing Module                
 Release: version 1.0, May 2013, Q-Chem Inc. Pittsburgh 
 -------------------------------------------------------
 using 6 threads for integral computing
 -------------------------------------------------------
 OpenMP Integral computing Module                
 Release: version 1.0, May 2013, Q-Chem Inc. Pittsburgh 
 -------------------------------------------------------
 ---------------------------------------
  Cycle       Energy         DIIS Error
 ---------------------------------------
    1    -154.8843085653      5.98E-03
    2    -154.8803046691      4.41E-03
    3    -154.9015323188      1.01E-03
    4    -154.9307834682      1.11E-03
    5    -154.9322981133      1.80E-04 Done RCA. Switching to DIIS
    6    -154.9342260754      2.15E-04
    7    -154.9343616281      8.22E-06 Convergence criterion met
 ---------------------------------------
 SCF time:  CPU 49.66 s  wall 8.30 s
 SCF   energy in the final basis set = -154.93436163
 Total energy in the final basis set = -154.93436163
 
 --------------------------------------------------------------
 
                    Orbital Energies (a.u.)
 --------------------------------------------------------------
 
 Alpha MOs
 -- Occupied --
-19.2417 -10.3545 -10.2547  -1.0885  -0.8745  -0.6979  -0.6093  -0.5726
 -0.5062  -0.4613  -0.4415  -0.4204  -0.3052
 -- Virtual --
  0.0512   0.0680   0.0892   0.0959   0.1137   0.1278   0.1382   0.1499
  0.1783   0.1889   0.2157   0.2377   0.2469   0.2775   0.2910   0.2983
  0.3217   0.3341   0.3585   0.3981   0.4614   0.4638   0.4910   0.5465
  0.5625   0.5823   0.5847   0.6066   0.6144   0.6304   0.6462   0.6864
  0.7026   0.7538   0.8018   0.8137   0.8599   0.8751   0.8989   0.9470
  0.9769   1.0197   1.0704   1.0964   1.1316   1.1449   1.1634   1.1916
  1.2312   1.2323   1.2928   1.3011   1.3227   1.3623   1.4200   1.4301
  1.4442   1.4470   1.4825   1.4900   1.5338   1.5743   1.5899   1.6547
  1.7080   1.7801   1.9083   2.0135   2.0473   2.2707   2.3097   2.4351
  2.4831   2.5537   2.6283   2.6701   2.6975   2.7334   2.7695   2.7982
  2.8765   2.8943   2.9497   2.9786   2.9932   3.0409   3.0803   3.0934
  3.1086   3.1278   3.1594   3.2234   3.2330   3.2574   3.3088   3.3515
  3.3632   3.3989   3.4152   3.4577   3.4703   3.5028   3.5246   3.5634
  3.5862   3.6109   3.6194   3.6741   3.7159   3.7315   3.7773   3.8006
  3.8392   3.8512   3.8881   3.8967   3.9123   3.9552   4.0404   4.0663
  4.0886   4.1223   4.1752   4.2250   4.2285   4.2597   4.2692   4.3284
  4.3389   4.3549   4.4197   4.4503   4.5018   4.5787   4.6159   4.7264
  4.7461   4.7887   4.8544   4.9756   4.9791   5.0229   5.0651   5.1055
  5.1122   5.2070   5.2286   5.3000   5.3743   5.4183   5.4344   5.4865
  5.5897   5.6199   5.7835   5.8200   6.0322   6.1874   6.2403   6.2862
  6.4644   6.6285   6.7334   6.8842   7.1607   7.2332   7.4096   7.6202
  7.7806   8.1803  24.9583  25.3096  50.4381
 --------------------------------------------------------------
 
 -----------------------------------------------------------------
                    Cartesian Multipole Moments
 -----------------------------------------------------------------
    Charge (ESU x 10^10)
                 0.0000
    Dipole Moment (Debye)
         X       1.0426      Y      -0.5689      Z      -1.3766
       Tot       1.8181
    Quadrupole Moments (Debye-Ang)
        XX     -28.2531     XY       1.0301     YY     -19.8708
        XZ       5.4365     YZ      -2.8056     ZZ     -23.6042
    Octopole Moments (Debye-Ang^2)
       XXX     322.2379    XXY     -14.0238    XYY      87.3378
       YYY     -40.5978    XXZ     -22.7936    XYZ       8.6206
       YYZ      -7.9036    XZZ     107.2270    YZZ     -20.0237
       ZZZ     -13.8996
    Hexadecapole Moments (Debye-Ang^3)
      XXXX   -2851.4322   XXXY     165.3437   XXYY    -422.8281
      XYYY     171.9982   YYYY     -99.0736   XXXZ      82.8502
      XXYZ     -24.5813   XYYZ      23.6323   YYYZ     -12.0485
      XXZZ    -523.0785   XYZZ      83.8782   YYZZ     -41.3750
      XZZZ      34.8690   YZZZ     -12.6540   ZZZZ    -118.3605
 -----------------------------------------------------------------
Archival summary:
1\1\centos77-c1\SP\ProcedureUnspecified\BasisUnspecified\126\shihchen\WedJul2900:13:152020WedJul2900:13:152020\0\\#,ProcedureUnspecified,BasisUnspecified,\\0,1\C\H,1,1.08092\H,1,1.08285,2,114.612\C,1,1.41132,2,121.053,3,-158.707,0\H,4,1.08179,1,118.306,2,-5.87815,0\H,4,1.08237,1,118.247,2,143.406,0\H,4,1.42001,1,73.3671,2,-111.28,0\O,7,1.24537,4,129.64,1,4.34102,0\H,8,0.96364,7,114.27,4,-109.293,0\\\@

 Total job time:  12.84s(wall), 67.58s(cpu) 
 Wed Jul 29 00:13:15 2020

        *************************************************************
        *                                                           *
        *  Thank you very much for using Q-Chem.  Have a nice day.  *
        *                                                           *
        *************************************************************


