                  Welcome to Q-Chem
     A Quantum Leap Into The Future Of Chemistry


 Q-Chem 5.3 (devel), Q-Chem, Inc., Pleasanton, CA (2020)

 Yihan Shao,  Zhengting Gan,  E. Epifanovsky,  A. T. B. Gilbert,  M. Wormit,  
 J. Kussmann,  A. W. Lange,  A. Behn,  Jia Deng,  Xintian Feng,  D. Ghosh,  
 M. Goldey,  P. R. Horn,  L. D. Jacobson,  I. Kaliman,  T. Kus,  A. Landau,  
 Jie Liu,  E. I. Proynov,  R. M. Richard,  R. P. Steele,  E. J. Sundstrom,  
 H. L. Woodcock III,  P. M. Zimmerman,  D. Zuev,  B. Alam,  B. Albrecht,  
 E. Alguire,  S. A. Baeppler,  D. Barton,  Z. Benda,  Y. A. Bernard,  
 E. J. Berquist,  K. B. Bravaya,  H. Burton,  K. Carter-Fenk,  D. Casanova,  
 Chun-Min Chang,  Yunqing Chen,  A. Chien,  K. D. Closser,  M. P. Coons,  
 S. Coriani,  S. Dasgupta,  A. L. Dempwolff,  M. Diedenhofen,  Hainam Do,  
 R. G. Edgar,  Po-Tung Fang,  S. Faraji,  S. Fatehi,  Qingguo Feng,  
 J. Fosso-Tande,  J. Gayvert,  Qinghui Ge,  A. Ghysels,  G. Gidofalvi,  
 J. Gomes,  J. Gonthier,  A. Gunina,  D. Hait,  M. W. D. Hanson-Heine,  
 P. H. P. Harbach,  A. W. Hauser,  M. F. Herbst,  J. E. Herr,  
 E. G. Hohenstein,  Z. C. Holden,  Kerwin Hui,  B. C. Huynh,  T.-C. Jagau,  
 Hyunjun Ji,  B. Kaduk,  K. Khistyaev,  Jaehoon Kim,  P. Klunzinger,  K. Koh,  
 D. Kosenkov,  L. Koulias,  T. Kowalczyk,  C. M. Krauter,  A. Kunitsa,  
 Ka Un Lao,  A. Laurent,  K. V. Lawler,  Joonho Lee,  D. Lefrancois,  
 S. Lehtola,  D. S. Levine,  Yi-Pei Li,  You-Sheng Lin,  Fenglai Liu,  
 Kuan-Yu Liu,  E. Livshits,  M. Loipersberger,  A. Luenser,  P. Manohar,  
 E. Mansoor,  S. F. Manzer,  Shan-Ping Mao,  Yuezhi Mao,  N. Mardirossian,  
 A. V. Marenich,  T. Markovich,  L. A. Martinez-Martinez,  S. A. Maurer,  
 N. J. Mayhall,  S. C. McKenzie,  J.-M. Mewes,  P. Morgante,  A. F. Morrison,  
 J. W. Mullinax,  K. Nanda,  T. S. Nguyen-Beck,  R. Olivares-Amaya,  
 K. J. Oosterbaan,  J. A. Parkhill,  S. K. Paul,  F. Pavosevic,  Zheng Pei,  
 T. M. Perrine,  F. Plasser,  P. Pokhilko,  S. Prager,  A. Prociuk,  
 E. Ramos,  B. Rana,  D. R. Rehn,  F. Rob,  M. Scheurer,  M. Schneider,  
 N. Sergueev,  S. M. Sharada,  S. Sharma,  D. W. Small,  T. Stauch,  
 C. J. Stein,  T. Stein,  Yu-Chuan Su,  S. P. Veccham,  Zhen Tao,  
 A. J. W. Thom,  A. Tkatchenko,  T. Tsuchimochi,  N. M. Tubman,  L. Vogt,  
 M. L. Vidal,  O. Vydrov,  M. A. Watson,  J. Wenzel,  M. de Wergifosse,  
 T. A. Wesolowski,  A. White,  J. Witte,  A. Yamada,  Jun Yang,  K. Yao,  
 S. Yeganeh,  S. R. Yost,  Zhi-Qiang You,  A. Zech,  Igor Ying Zhang,  
 Xing Zhang,  Yan Zhao,  Ying Zhu,  B. R. Brooks,  G. K. L. Chan,  
 C. J. Cramer,  M. S. Gordon,  W. J. Hehre,  A. Klamt,  M. W. Schmidt,  
 C. D. Sherrill,  D. G. Truhlar,  A. Aspuru-Guzik,  R. Baer,  A. T. Bell,  
 N. A. Besley,  Jeng-Da Chai,  A. E. DePrince, III,  R. A. DiStasio Jr.,  
 A. Dreuw,  B. D. Dunietz,  T. R. Furlani,  Chao-Ping Hsu,  Yousung Jung,  
 Jing Kong,  D. S. Lambrecht,  WanZhen Liang,  C. Ochsenfeld,  
 V. A. Rassolov,  L. V. Slipchenko,  J. E. Subotnik,  T. Van Voorhis,  
 J. M. Herbert,  A. I. Krylov,  P. M. W. Gill,  M. Head-Gordon

 Contributors to earlier versions of Q-Chem not listed above: 
 R. D. Adamson,  B. Austin,  J. Baker,  G. J. O. Beran,  K. Brandhorst,  
 S. T. Brown,  E. F. C. Byrd,  A. K. Chakraborty,  C.-L. Cheng,  
 Siu Hung Chien,  D. M. Chipman,  D. L. Crittenden,  H. Dachsel,  
 R. J. Doerksen,  A. D. Dutoi,  L. Fusti-Molnar,  W. A. Goddard III,  
 A. Golubeva-Zadorozhnaya,  S. R. Gwaltney,  G. Hawkins,  A. Heyden,  
 S. Hirata,  G. Kedziora,  F. J. Keil,  C. Kelley,  Jihan Kim,  R. A. King,  
 R. Z. Khaliullin,  P. P. Korambath,  W. Kurlancheek,  A. M. Lee,  M. S. Lee,  
 S. V. Levchenko,  Ching Yeh Lin,  D. Liotard,  R. C. Lochan,  I. Lotan,  
 P. E. Maslen,  N. Nair,  D. P. O'Neill,  D. Neuhauser,  E. Neuscamman,  
 C. M. Oana,  R. Olson,  B. Peters,  R. Peverati,  P. A. Pieniazek,  
 Y. M. Rhee,  J. Ritchie,  M. A. Rohrdanz,  E. Rosta,  N. J. Russ,  
 H. F. Schaefer III,  N. E. Schultz,  N. Shenvi,  A. C. Simmonett,  A. Sodt,  
 D. Stuck,  K. S. Thanthiriwatte,  V. Vanovschi,  Tao Wang,  A. Warshel,  
 C. F. Williams,  Q. Wu,  X. Xu,  W. Zhang

 Please cite Q-Chem as follows:
 Y. Shao et al., Mol. Phys. 113, 184-215 (2015)
 DOI: 10.1080/00268976.2014.952696

 Q-Chem 5.3.0 for Intel X86 EM64T Linux

 Parts of Q-Chem use Armadillo 9.800.1 (Horizon Scraper).
 http://arma.sourceforge.net/

 Q-Chem begins on Wed Jul 29 00:19:30 2020  

Host: centos77-c1
0

     Scratch files written to /tmp/30084.centos77-h1/qchem26816//
Processing $rem in /opt/qchem-5.3.0-intel2020u1//config/preferences:
Processing $rem in /home/shihchengli/.qchemrc:

Checking the input file for inconsistencies... 	...done.

--------------------------------------------------------------
User input:
--------------------------------------------------------------
$rem
   JOBTYPE  sp
   EXCHANGE   omegaB97X-D
   BASIS   6-311+G(2df,2pd)
   UNRESTRICTED   False
   max_scf_cycles   250
   geom_opt_max_cycles   1500
   basis2 6-31G*
   scf_algorithm rca_diis
   SYM_IGNORE  TRUE
   print_input   true
   geom_opt_dmax   80
   pop_mulliken false
   XC_GRID 000075000302
$end

$molecule
0 1
C       -5.5417082240     0.5478908869     -0.0853075784
C       -4.3898482114     1.3538947601     -0.2093879647
H       -6.0303596374     0.2099850628     -0.9900568634
H       -6.1785489694     0.6925643676     0.7771125286
H       -4.4313479444     -0.2783009379     0.2323932843
O       -3.2247363550     0.0146743199     0.3282952002
H       -4.1110529219     2.0514303835     0.5678479183
H       -3.9697960609     1.5722989741     -1.1832598390
H       -2.8033340730     -0.3013005601     1.1352534773
$end
--------------------------------------------------------------
 ----------------------------------------------------------------
             Standard Nuclear Orientation (Angstroms)
    I     Atom           X                Y                Z
 ----------------------------------------------------------------
    1      C      -5.5417082240     0.5478908869    -0.0853075784
    2      C      -4.3898482114     1.3538947601    -0.2093879647
    3      H      -6.0303596374     0.2099850628    -0.9900568634
    4      H      -6.1785489694     0.6925643676     0.7771125286
    5      H      -4.4313479444    -0.2783009379     0.2323932843
    6      O      -3.2247363550     0.0146743199     0.3282952002
    7      H      -4.1110529219     2.0514303835     0.5678479183
    8      H      -3.9697960609     1.5722989741    -1.1832598390
    9      H      -2.8033340730    -0.3013005601     1.1352534773
 ----------------------------------------------------------------
 Nuclear Repulsion Energy =          79.16740196 hartrees
 There are       13 alpha and       13 beta electrons
 Requested basis set is 6-311+G(2df,2pd)
 There are 60 shells and 186 basis functions

 Total QAlloc Memory Limit   2000 MB
 Mega-Array Size       188 MB
 MEM_STATIC part       192 MB

                       Distance Matrix (Angstroms)
             C (  1)   C (  2)   H (  3)   H (  4)   H (  5)   O (  6)
   C (  2)  1.411318
   H (  3)  1.082373  2.146917
   H (  4)  1.081788  2.147089  1.837860
   H (  5)  1.420009  1.691436  2.071146  2.071717
   O (  6)  2.413244  1.854751  3.106078  3.063655  1.245369
   H (  7)  2.175780  1.080916  3.082487  2.482911  2.375451  2.234126
   H (  8)  2.173895  1.082853  2.477731  3.081490  2.375252  2.294800
   H (  9)  3.116021  2.657961  3.897698  3.536680  1.861750  0.963640
             H (  7)   H (  8)
   H (  8)  1.820961
   H (  9)  2.750894  3.201017
 
 A cutoff of  1.0D-09 yielded   1770 shell pairs
 There are     17188 function pairs (     21353 Cartesian)
 Smallest overlap matrix eigenvalue = 9.12E-05

 Scale SEOQF with 1.000000e-02/1.000000e-01/1.000000e-01

 Standard Electronic Orientation quadrupole field applied
 Nucleus-field energy     =     0.0000000027 hartrees
 Requested basis set is 6-31G(d)
 There are 24 shells and 54 basis functions
 A cutoff of  1.0D-09 yielded    297 shell pairs
 There are      1548 function pairs (      1731 Cartesian)
 Smallest overlap matrix eigenvalue = 6.69E-03
 Guess from superposition of atomic densities
 Warning:  Energy on first SCF cycle will be non-variational
 SAD guess density has 26.000000 electrons
 Long-range K will be added via erf
 Coulomb attenuation parameter = 0.2 bohr**(-1)
 A restricted hybrid HF-DFT SCF calculation will be
 performed using Relaxed Constraint Minimization + Pulay DIIS
 Exchange:     0.2220 Hartree-Fock + 1.0000 wB97X-D + LR-HF
 Correlation:  1.0000 wB97X-D
 Using Euler-Maclaurin-Lebedev (75,302) quadrature formula
 Dispersion:   Grimme D
 SCF converges when DIIS error is below 1.0E-04
 using 6 threads for integral computing
 -------------------------------------------------------
 OpenMP Integral computing Module                
 Release: version 1.0, May 2013, Q-Chem Inc. Pittsburgh 
 -------------------------------------------------------
 using 6 threads for integral computing
 -------------------------------------------------------
 OpenMP Integral computing Module                
 Release: version 1.0, May 2013, Q-Chem Inc. Pittsburgh 
 -------------------------------------------------------
 ---------------------------------------
  Cycle       Energy         DIIS Error
 ---------------------------------------
    1    -155.2508486882      9.89E-02
    2    -154.7741877083      1.61E-02
    3    -154.8092544050      3.15E-03
    4    -154.8513831000      2.10E-03
    5    -154.8521445213      4.42E-04 Done RCA. Switching to DIIS
    6    -154.8530145149      3.35E-04
    7    -154.8530491623      3.83E-05 Convergence criterion met
 ---------------------------------------
 SCF time:  CPU 16.08 s  wall 2.70 s
 SCF   energy in the small basis set = -154.85304916
 Total energy in the small basis set = -154.85304916
 ----------------------------------------------------
  Cycle       Energy    
 ----------------------------------------------------
    1     -18.6761964855     -1.87E+01
 Long-range K will be added via erf
 Coulomb attenuation parameter = 0.2 bohr**(-1)
 A restricted hybrid HF-DFT SCF calculation will be
 performed using Relaxed Constraint Minimization + Pulay DIIS
 Exchange:     0.2220 Hartree-Fock + 1.0000 wB97X-D + LR-HF
 Correlation:  1.0000 wB97X-D
 Using Euler-Maclaurin-Lebedev (75,302) quadrature formula
 Dispersion:   Grimme D
 SCF converges when DIIS error is below 1.0E-05
 Basis2 calculation detected. Using small basis as guess for larger.
 SCFMinFind is unable to tell whether the solution found is close.
 Resetting ReadMinima to 0 and attempting to follow guess.
 SCFMinFind following SCF Guess.
 using 6 threads for integral computing
 -------------------------------------------------------
 OpenMP Integral computing Module                
 Release: version 1.0, May 2013, Q-Chem Inc. Pittsburgh 
 -------------------------------------------------------
 using 6 threads for integral computing
 -------------------------------------------------------
 OpenMP Integral computing Module                
 Release: version 1.0, May 2013, Q-Chem Inc. Pittsburgh 
 -------------------------------------------------------
 ---------------------------------------
  Cycle       Energy         DIIS Error
 ---------------------------------------
    1    -154.8774151108      6.04E-03
    2    -154.8737344724      4.54E-03
    3    -154.8961851814      9.92E-04 Done RCA. Switching to DIIS
    4    -154.9270482107      1.05E-03
    5    -154.9302544515      7.98E-05
    6    -154.9302867112      1.73E-05
    7    -154.9302893374      6.48E-06 Convergence criterion met
 ---------------------------------------
 SCF time:  CPU 50.23 s  wall 8.40 s
 SCF   energy in the final basis set = -154.93028934
 Total energy in the final basis set = -154.93028934
 
 --------------------------------------------------------------
 
                    Orbital Energies (a.u.)
 --------------------------------------------------------------
 
 Alpha MOs
 -- Occupied --
-19.2293 -10.3543 -10.2581  -1.0768  -0.8763  -0.6985  -0.6078  -0.5696
 -0.5095  -0.4524  -0.4413  -0.4022  -0.3092
 -- Virtual --
  0.0456   0.0734   0.0899   0.0976   0.1132   0.1290   0.1396   0.1510
  0.1707   0.1860   0.2178   0.2454   0.2570   0.2779   0.2881   0.2986
  0.3239   0.3319   0.3589   0.3932   0.4614   0.4639   0.4877   0.5431
  0.5642   0.5717   0.5879   0.6083   0.6148   0.6414   0.6774   0.6832
  0.7034   0.7364   0.7993   0.8423   0.8615   0.8856   0.9237   0.9440
  0.9860   1.0118   1.0658   1.0781   1.1185   1.1705   1.2026   1.2203
  1.2398   1.2725   1.2792   1.3050   1.3151   1.3610   1.3972   1.4266
  1.4405   1.4587   1.4816   1.4969   1.5094   1.5775   1.5886   1.6445
  1.7174   1.7855   1.8999   1.9806   2.0319   2.2616   2.3189   2.4263
  2.4710   2.5654   2.6238   2.6556   2.6842   2.7655   2.7804   2.8217
  2.8601   2.8963   2.9447   2.9909   3.0094   3.0173   3.0614   3.0803
  3.1009   3.1435   3.1728   3.1961   3.2307   3.2720   3.3029   3.3245
  3.3646   3.3904   3.4051   3.4382   3.4716   3.4989   3.5254   3.5520
  3.5696   3.5862   3.6417   3.6621   3.7003   3.7465   3.7633   3.8325
  3.8432   3.8579   3.8989   3.9169   3.9576   3.9873   4.0232   4.0589
  4.1081   4.1286   4.2013   4.2135   4.2272   4.2805   4.2865   4.3142
  4.3479   4.3632   4.4291   4.4512   4.5011   4.5941   4.6093   4.7106
  4.7688   4.7923   4.8534   4.9725   4.9947   5.0151   5.0935   5.1112
  5.1349   5.2086   5.2385   5.2773   5.2962   5.3860   5.4566   5.4611
  5.5927   5.6203   5.7602   5.8132   6.0134   6.1975   6.2341   6.2774
  6.4620   6.6809   6.7519   6.8621   7.1197   7.1935   7.3679   7.7346
  7.8130   8.1032  24.9572  25.3086  50.4543
 --------------------------------------------------------------
 
 -----------------------------------------------------------------
                    Cartesian Multipole Moments
 -----------------------------------------------------------------
    Charge (ESU x 10^10)
                 0.0000
    Dipole Moment (Debye)
         X      -0.1613      Y       0.9226      Z       0.8018
       Tot       1.2329
    Quadrupole Moments (Debye-Ang)
        XX     -20.7749     XY      -3.3886     YY     -18.9752
        XZ      -1.8207     YZ      -0.7467     ZZ     -17.6204
    Octopole Moments (Debye-Ang^2)
       XXX     284.8953    XXY      -3.2480    XYY      87.2764
       YYY     -34.9089    XXZ       4.3658    XYZ       0.8104
       YYZ       0.1266    XZZ      80.8418    YZZ     -11.7267
       ZZZ      -0.6912
    Hexadecapole Moments (Debye-Ang^3)
      XXXX   -2697.6245   XXXY     172.9884   XXYY    -449.3378
      XYYY     170.6584   YYYY    -114.0175   XXXZ     -25.2213
      XXYZ       9.0439   XYYZ      -5.1310   YYYZ       7.9162
      XXZZ    -395.3005   XYZZ      55.0754   YYZZ     -24.2063
      XZZZ      -4.2520   YZZZ       4.3408   ZZZZ     -39.1901
 -----------------------------------------------------------------
Archival summary:
1\1\centos77-c1\SP\ProcedureUnspecified\BasisUnspecified\126\shihchen\WedJul2900:19:442020WedJul2900:19:442020\0\\#,ProcedureUnspecified,BasisUnspecified,\\0,1\C\H,1,1.08092\H,1,1.08285,2,114.612\C,1,1.41132,2,121.053,3,-158.707,0\H,4,1.08179,1,118.306,2,4.12185,0\H,4,1.08237,1,118.247,2,153.406,0\H,4,1.42001,1,73.3671,2,-101.28,0\O,7,1.24537,4,129.64,1,4.34102,0\H,8,0.96364,7,114.27,4,130.707,0\\\@

 Total job time:  13.60s(wall), 70.72s(cpu) 
 Wed Jul 29 00:19:44 2020

        *************************************************************
        *                                                           *
        *  Thank you very much for using Q-Chem.  Have a nice day.  *
        *                                                           *
        *************************************************************


