                  Welcome to Q-Chem
     A Quantum Leap Into The Future Of Chemistry


 Q-Chem 5.3 (devel), Q-Chem, Inc., Pleasanton, CA (2020)

 Yihan Shao,  Zhengting Gan,  E. Epifanovsky,  A. T. B. Gilbert,  M. Wormit,  
 J. Kussmann,  A. W. Lange,  A. Behn,  Jia Deng,  Xintian Feng,  D. Ghosh,  
 M. Goldey,  P. R. Horn,  L. D. Jacobson,  I. Kaliman,  T. Kus,  A. Landau,  
 Jie Liu,  E. I. Proynov,  R. M. Richard,  R. P. Steele,  E. J. Sundstrom,  
 H. L. Woodcock III,  P. M. Zimmerman,  D. Zuev,  B. Alam,  B. Albrecht,  
 E. Alguire,  S. A. Baeppler,  D. Barton,  Z. Benda,  Y. A. Bernard,  
 E. J. Berquist,  K. B. Bravaya,  H. Burton,  K. Carter-Fenk,  D. Casanova,  
 Chun-Min Chang,  Yunqing Chen,  A. Chien,  K. D. Closser,  M. P. Coons,  
 S. Coriani,  S. Dasgupta,  A. L. Dempwolff,  M. Diedenhofen,  Hainam Do,  
 R. G. Edgar,  Po-Tung Fang,  S. Faraji,  S. Fatehi,  Qingguo Feng,  
 J. Fosso-Tande,  J. Gayvert,  Qinghui Ge,  A. Ghysels,  G. Gidofalvi,  
 J. Gomes,  J. Gonthier,  A. Gunina,  D. Hait,  M. W. D. Hanson-Heine,  
 P. H. P. Harbach,  A. W. Hauser,  M. F. Herbst,  J. E. Herr,  
 E. G. Hohenstein,  Z. C. Holden,  Kerwin Hui,  B. C. Huynh,  T.-C. Jagau,  
 Hyunjun Ji,  B. Kaduk,  K. Khistyaev,  Jaehoon Kim,  P. Klunzinger,  K. Koh,  
 D. Kosenkov,  L. Koulias,  T. Kowalczyk,  C. M. Krauter,  A. Kunitsa,  
 Ka Un Lao,  A. Laurent,  K. V. Lawler,  Joonho Lee,  D. Lefrancois,  
 S. Lehtola,  D. S. Levine,  Yi-Pei Li,  You-Sheng Lin,  Fenglai Liu,  
 Kuan-Yu Liu,  E. Livshits,  M. Loipersberger,  A. Luenser,  P. Manohar,  
 E. Mansoor,  S. F. Manzer,  Shan-Ping Mao,  Yuezhi Mao,  N. Mardirossian,  
 A. V. Marenich,  T. Markovich,  L. A. Martinez-Martinez,  S. A. Maurer,  
 N. J. Mayhall,  S. C. McKenzie,  J.-M. Mewes,  P. Morgante,  A. F. Morrison,  
 J. W. Mullinax,  K. Nanda,  T. S. Nguyen-Beck,  R. Olivares-Amaya,  
 K. J. Oosterbaan,  J. A. Parkhill,  S. K. Paul,  F. Pavosevic,  Zheng Pei,  
 T. M. Perrine,  F. Plasser,  P. Pokhilko,  S. Prager,  A. Prociuk,  
 E. Ramos,  B. Rana,  D. R. Rehn,  F. Rob,  M. Scheurer,  M. Schneider,  
 N. Sergueev,  S. M. Sharada,  S. Sharma,  D. W. Small,  T. Stauch,  
 C. J. Stein,  T. Stein,  Yu-Chuan Su,  S. P. Veccham,  Zhen Tao,  
 A. J. W. Thom,  A. Tkatchenko,  T. Tsuchimochi,  N. M. Tubman,  L. Vogt,  
 M. L. Vidal,  O. Vydrov,  M. A. Watson,  J. Wenzel,  M. de Wergifosse,  
 T. A. Wesolowski,  A. White,  J. Witte,  A. Yamada,  Jun Yang,  K. Yao,  
 S. Yeganeh,  S. R. Yost,  Zhi-Qiang You,  A. Zech,  Igor Ying Zhang,  
 Xing Zhang,  Yan Zhao,  Ying Zhu,  B. R. Brooks,  G. K. L. Chan,  
 C. J. Cramer,  M. S. Gordon,  W. J. Hehre,  A. Klamt,  M. W. Schmidt,  
 C. D. Sherrill,  D. G. Truhlar,  A. Aspuru-Guzik,  R. Baer,  A. T. Bell,  
 N. A. Besley,  Jeng-Da Chai,  A. E. DePrince, III,  R. A. DiStasio Jr.,  
 A. Dreuw,  B. D. Dunietz,  T. R. Furlani,  Chao-Ping Hsu,  Yousung Jung,  
 Jing Kong,  D. S. Lambrecht,  WanZhen Liang,  C. Ochsenfeld,  
 V. A. Rassolov,  L. V. Slipchenko,  J. E. Subotnik,  T. Van Voorhis,  
 J. M. Herbert,  A. I. Krylov,  P. M. W. Gill,  M. Head-Gordon

 Contributors to earlier versions of Q-Chem not listed above: 
 R. D. Adamson,  B. Austin,  J. Baker,  G. J. O. Beran,  K. Brandhorst,  
 S. T. Brown,  E. F. C. Byrd,  A. K. Chakraborty,  C.-L. Cheng,  
 Siu Hung Chien,  D. M. Chipman,  D. L. Crittenden,  H. Dachsel,  
 R. J. Doerksen,  A. D. Dutoi,  L. Fusti-Molnar,  W. A. Goddard III,  
 A. Golubeva-Zadorozhnaya,  S. R. Gwaltney,  G. Hawkins,  A. Heyden,  
 S. Hirata,  G. Kedziora,  F. J. Keil,  C. Kelley,  Jihan Kim,  R. A. King,  
 R. Z. Khaliullin,  P. P. Korambath,  W. Kurlancheek,  A. M. Lee,  M. S. Lee,  
 S. V. Levchenko,  Ching Yeh Lin,  D. Liotard,  R. C. Lochan,  I. Lotan,  
 P. E. Maslen,  N. Nair,  D. P. O'Neill,  D. Neuhauser,  E. Neuscamman,  
 C. M. Oana,  R. Olson,  B. Peters,  R. Peverati,  P. A. Pieniazek,  
 Y. M. Rhee,  J. Ritchie,  M. A. Rohrdanz,  E. Rosta,  N. J. Russ,  
 H. F. Schaefer III,  N. E. Schultz,  N. Shenvi,  A. C. Simmonett,  A. Sodt,  
 D. Stuck,  K. S. Thanthiriwatte,  V. Vanovschi,  Tao Wang,  A. Warshel,  
 C. F. Williams,  Q. Wu,  X. Xu,  W. Zhang

 Please cite Q-Chem as follows:
 Y. Shao et al., Mol. Phys. 113, 184-215 (2015)
 DOI: 10.1080/00268976.2014.952696

 Q-Chem 5.3.0 for Intel X86 EM64T Linux

 Parts of Q-Chem use Armadillo 9.800.1 (Horizon Scraper).
 http://arma.sourceforge.net/

 Q-Chem begins on Wed Jul 29 00:08:36 2020  

Host: centos77-c1
0

     Scratch files written to /tmp/30084.centos77-h1/qchem25045//
Processing $rem in /opt/qchem-5.3.0-intel2020u1//config/preferences:
Processing $rem in /home/shihchengli/.qchemrc:

Checking the input file for inconsistencies... 	...done.

--------------------------------------------------------------
User input:
--------------------------------------------------------------
$rem
   JOBTYPE  sp
   EXCHANGE   omegaB97X-D
   BASIS   6-311+G(2df,2pd)
   UNRESTRICTED   False
   max_scf_cycles   250
   geom_opt_max_cycles   1500
   basis2 6-31G*
   scf_algorithm rca_diis
   SYM_IGNORE  TRUE
   print_input   true
   geom_opt_dmax   80
   pop_mulliken false
   XC_GRID 000075000302
$end

$molecule
0 1
C       -5.5530428618     0.5025077025     -0.2255562576
C       -4.4085151046     1.3224206520     -0.3236309372
H       -5.7479069518     -0.2026366254     -1.0232600131
H       -6.4198920817     0.8914625051     0.2916976293
H       -4.6012787692     -0.0167389784     0.6914795742
O       -3.4773745030     0.4202208087     1.0026845736
H       -3.6089422776     1.0838427239     -1.0107570128
H       -4.1218453509     1.9722207987     0.4937740171
H       -2.7419344968     -0.1101623299     0.6764585897
$end
--------------------------------------------------------------
 ----------------------------------------------------------------
             Standard Nuclear Orientation (Angstroms)
    I     Atom           X                Y                Z
 ----------------------------------------------------------------
    1      C      -5.5530428618     0.5025077025    -0.2255562576
    2      C      -4.4085151046     1.3224206520    -0.3236309372
    3      H      -5.7479069518    -0.2026366254    -1.0232600131
    4      H      -6.4198920817     0.8914625051     0.2916976293
    5      H      -4.6012787692    -0.0167389784     0.6914795742
    6      O      -3.4773745030     0.4202208087     1.0026845736
    7      H      -3.6089422776     1.0838427239    -1.0107570128
    8      H      -4.1218453509     1.9722207987     0.4937740171
    9      H      -2.7419344968    -0.1101623299     0.6764585897
 ----------------------------------------------------------------
 Nuclear Repulsion Energy =          80.11853459 hartrees
 There are       13 alpha and       13 beta electrons
 Requested basis set is 6-311+G(2df,2pd)
 There are 60 shells and 186 basis functions

 Total QAlloc Memory Limit   2000 MB
 Mega-Array Size       188 MB
 MEM_STATIC part       192 MB

                       Distance Matrix (Angstroms)
             C (  1)   C (  2)   H (  3)   H (  4)   H (  5)   O (  6)
   C (  2)  1.411318
   H (  3)  1.082373  2.146917
   H (  4)  1.081788  2.147089  1.837860
   H (  5)  1.420009  1.691436  2.071146  2.071717
   O (  6)  2.413244  1.854751  3.106078  3.063655  1.245369
   H (  7)  2.175780  1.080916  2.496068  3.104003  2.256905  2.124065
   H (  8)  2.173895  1.082853  3.110542  2.547527  2.055457  1.755858
   H (  9)  3.015183  2.414532  3.454485  3.831275  1.861750  0.963640
             H (  7)   H (  8)
   H (  8)  1.820961
   H (  9)  2.241439  2.504765
 
 A cutoff of  1.0D-09 yielded   1776 shell pairs
 There are     17246 function pairs (     21425 Cartesian)
 Smallest overlap matrix eigenvalue = 9.84E-05

 Scale SEOQF with 1.000000e-02/1.000000e-01/1.000000e-01

 Standard Electronic Orientation quadrupole field applied
 Nucleus-field energy     =     0.0000000020 hartrees
 Requested basis set is 6-31G(d)
 There are 24 shells and 54 basis functions
 A cutoff of  1.0D-09 yielded    297 shell pairs
 There are      1548 function pairs (      1731 Cartesian)
 Smallest overlap matrix eigenvalue = 6.33E-03
 Guess from superposition of atomic densities
 Warning:  Energy on first SCF cycle will be non-variational
 SAD guess density has 26.000000 electrons
 Long-range K will be added via erf
 Coulomb attenuation parameter = 0.2 bohr**(-1)
 A restricted hybrid HF-DFT SCF calculation will be
 performed using Relaxed Constraint Minimization + Pulay DIIS
 Exchange:     0.2220 Hartree-Fock + 1.0000 wB97X-D + LR-HF
 Correlation:  1.0000 wB97X-D
 Using Euler-Maclaurin-Lebedev (75,302) quadrature formula
 Dispersion:   Grimme D
 SCF converges when DIIS error is below 1.0E-04
 using 6 threads for integral computing
 -------------------------------------------------------
 OpenMP Integral computing Module                
 Release: version 1.0, May 2013, Q-Chem Inc. Pittsburgh 
 -------------------------------------------------------
 using 6 threads for integral computing
 -------------------------------------------------------
 OpenMP Integral computing Module                
 Release: version 1.0, May 2013, Q-Chem Inc. Pittsburgh 
 -------------------------------------------------------
 ---------------------------------------
  Cycle       Energy         DIIS Error
 ---------------------------------------
    1    -155.3109704898      1.01E-01
    2    -154.7573072581      1.60E-02
    3    -154.7906421663      3.46E-03
    4    -154.8334845793      2.24E-03
    5    -154.8344012487      5.32E-04 Done RCA. Switching to DIIS
    6    -154.8353587936      5.21E-04
    7    -154.8354343208      4.20E-05 Convergence criterion met
 ---------------------------------------
 SCF time:  CPU 16.02 s  wall 2.69 s
 SCF   energy in the small basis set = -154.83543432
 Total energy in the small basis set = -154.83543432
 ----------------------------------------------------
  Cycle       Energy    
 ----------------------------------------------------
    1     -18.6899064483     -1.87E+01
 Long-range K will be added via erf
 Coulomb attenuation parameter = 0.2 bohr**(-1)
 A restricted hybrid HF-DFT SCF calculation will be
 performed using Relaxed Constraint Minimization + Pulay DIIS
 Exchange:     0.2220 Hartree-Fock + 1.0000 wB97X-D + LR-HF
 Correlation:  1.0000 wB97X-D
 Using Euler-Maclaurin-Lebedev (75,302) quadrature formula
 Dispersion:   Grimme D
 SCF converges when DIIS error is below 1.0E-05
 Basis2 calculation detected. Using small basis as guess for larger.
 SCFMinFind is unable to tell whether the solution found is close.
 Resetting ReadMinima to 0 and attempting to follow guess.
 SCFMinFind following SCF Guess.
 using 6 threads for integral computing
 -------------------------------------------------------
 OpenMP Integral computing Module                
 Release: version 1.0, May 2013, Q-Chem Inc. Pittsburgh 
 -------------------------------------------------------
 using 6 threads for integral computing
 -------------------------------------------------------
 OpenMP Integral computing Module                
 Release: version 1.0, May 2013, Q-Chem Inc. Pittsburgh 
 -------------------------------------------------------
 ---------------------------------------
  Cycle       Energy         DIIS Error
 ---------------------------------------
    1    -154.8558647542      6.10E-03
    2    -154.8432299289      4.93E-03
    3    -154.8691275388      1.23E-03
    4    -154.9055082961      1.21E-03
    5    -154.9078973057      1.11E-04 Done RCA. Switching to DIIS
    6    -154.9113634769      8.96E-05
    7    -154.9113960460      1.44E-05
    8    -154.9113984620      3.69E-06 Convergence criterion met
 ---------------------------------------
 SCF time:  CPU 62.78 s  wall 10.49 s
 SCF   energy in the final basis set = -154.91139846
 Total energy in the final basis set = -154.91139846
 
 --------------------------------------------------------------
 
                    Orbital Energies (a.u.)
 --------------------------------------------------------------
 
 Alpha MOs
 -- Occupied --
-19.2333 -10.3455 -10.2622  -1.0903  -0.8753  -0.7020  -0.6133  -0.5631
 -0.5140  -0.4640  -0.4401  -0.4012  -0.3099
 -- Virtual --
  0.0409   0.0671   0.0884   0.1002   0.1124   0.1283   0.1392   0.1475
  0.1778   0.1935   0.2239   0.2335   0.2399   0.2680   0.2772   0.2998
  0.3245   0.3385   0.3583   0.3956   0.4554   0.4633   0.4976   0.5388
  0.5609   0.5805   0.5934   0.6011   0.6190   0.6352   0.6723   0.6901
  0.7035   0.7575   0.7816   0.8128   0.8243   0.8680   0.9165   0.9490
  0.9682   1.0132   1.0606   1.0851   1.1164   1.1459   1.1720   1.1981
  1.2154   1.2325   1.2595   1.3213   1.3360   1.3639   1.4126   1.4398
  1.4461   1.4602   1.4844   1.4959   1.5631   1.5834   1.6073   1.6352
  1.7031   1.7798   1.8982   1.9915   2.0413   2.2764   2.3100   2.4492
  2.5390   2.5721   2.6075   2.6313   2.7268   2.7346   2.8094   2.8625
  2.8833   2.9066   2.9215   2.9697   2.9865   3.0345   3.0596   3.0803
  3.1032   3.1216   3.1522   3.2038   3.2316   3.2514   3.3000   3.3343
  3.3575   3.4014   3.4447   3.4528   3.4673   3.4924   3.5082   3.5378
  3.5874   3.6205   3.6700   3.7027   3.7309   3.7577   3.7798   3.7996
  3.8535   3.8639   3.8905   3.9131   3.9401   3.9651   4.0369   4.0587
  4.1009   4.1219   4.1540   4.1905   4.2467   4.2617   4.2918   4.3202
  4.3621   4.4195   4.4508   4.4827   4.5145   4.5702   4.6414   4.7263
  4.7638   4.8221   4.8835   4.9089   4.9703   5.0340   5.1047   5.1192
  5.1346   5.1512   5.2293   5.3229   5.4146   5.4659   5.5092   5.5551
  5.5797   5.6791   5.7946   5.8240   6.0505   6.0726   6.2385   6.3051
  6.4213   6.6550   6.7340   6.9110   7.2220   7.2657   7.4159   7.6862
  7.7937   8.1978  25.0353  25.3138  50.4455
 --------------------------------------------------------------
 
 -----------------------------------------------------------------
                    Cartesian Multipole Moments
 -----------------------------------------------------------------
    Charge (ESU x 10^10)
                 0.0000
    Dipole Moment (Debye)
         X       0.7170      Y      -0.1745      Z      -1.4620
       Tot       1.6376
    Quadrupole Moments (Debye-Ang)
        XX     -25.5083     XY       0.1381     YY     -20.0463
        XZ       4.1556     YZ      -0.1032     ZZ     -23.2134
    Octopole Moments (Debye-Ang^2)
       XXX     305.5556    XXY     -14.4600    XYY      91.3139
       YYY     -42.5005    XXZ     -11.2581    XYZ      -2.8342
       YYZ      -1.5513    XZZ     102.2098    YZZ     -16.1509
       ZZZ     -13.6467
    Hexadecapole Moments (Debye-Ang^3)
      XXXX   -2781.1592   XXXY     197.7397   XXYY    -458.6582
      XYYY     193.1023   YYYY    -115.6313   XXXZ       6.4785
      XXYZ      27.4845   XYYZ      -2.6286   YYYZ       5.2362
      XXZZ    -488.4472   XYZZ      71.8753   YYZZ     -32.2619
      XZZZ      31.1338   YZZZ       0.0210   ZZZZ     -85.5019
 -----------------------------------------------------------------
Archival summary:
1\1\centos77-c1\SP\ProcedureUnspecified\BasisUnspecified\126\shihchen\WedJul2900:08:522020WedJul2900:08:522020\0\\#,ProcedureUnspecified,BasisUnspecified,\\0,1\C\H,1,1.08092\H,1,1.08285,2,114.612\C,1,1.41132,2,121.053,3,-158.707,0\H,4,1.08179,1,118.306,2,-165.878,0\H,4,1.08237,1,118.247,2,-16.5938,0\H,4,1.42001,1,73.3671,2,88.7204,0\O,7,1.24537,4,129.64,1,4.34102,0\H,8,0.96364,7,114.27,4,-109.293,0\\\@

 Total job time:  15.78s(wall), 83.54s(cpu) 
 Wed Jul 29 00:08:52 2020

        *************************************************************
        *                                                           *
        *  Thank you very much for using Q-Chem.  Have a nice day.  *
        *                                                           *
        *************************************************************


