                  Welcome to Q-Chem
     A Quantum Leap Into The Future Of Chemistry


 Q-Chem 5.3 (devel), Q-Chem, Inc., Pleasanton, CA (2020)

 Yihan Shao,  Zhengting Gan,  E. Epifanovsky,  A. T. B. Gilbert,  M. Wormit,  
 J. Kussmann,  A. W. Lange,  A. Behn,  Jia Deng,  Xintian Feng,  D. Ghosh,  
 M. Goldey,  P. R. Horn,  L. D. Jacobson,  I. Kaliman,  T. Kus,  A. Landau,  
 Jie Liu,  E. I. Proynov,  R. M. Richard,  R. P. Steele,  E. J. Sundstrom,  
 H. L. Woodcock III,  P. M. Zimmerman,  D. Zuev,  B. Alam,  B. Albrecht,  
 E. Alguire,  S. A. Baeppler,  D. Barton,  Z. Benda,  Y. A. Bernard,  
 E. J. Berquist,  K. B. Bravaya,  H. Burton,  K. Carter-Fenk,  D. Casanova,  
 Chun-Min Chang,  Yunqing Chen,  A. Chien,  K. D. Closser,  M. P. Coons,  
 S. Coriani,  S. Dasgupta,  A. L. Dempwolff,  M. Diedenhofen,  Hainam Do,  
 R. G. Edgar,  Po-Tung Fang,  S. Faraji,  S. Fatehi,  Qingguo Feng,  
 J. Fosso-Tande,  J. Gayvert,  Qinghui Ge,  A. Ghysels,  G. Gidofalvi,  
 J. Gomes,  J. Gonthier,  A. Gunina,  D. Hait,  M. W. D. Hanson-Heine,  
 P. H. P. Harbach,  A. W. Hauser,  M. F. Herbst,  J. E. Herr,  
 E. G. Hohenstein,  Z. C. Holden,  Kerwin Hui,  B. C. Huynh,  T.-C. Jagau,  
 Hyunjun Ji,  B. Kaduk,  K. Khistyaev,  Jaehoon Kim,  P. Klunzinger,  K. Koh,  
 D. Kosenkov,  L. Koulias,  T. Kowalczyk,  C. M. Krauter,  A. Kunitsa,  
 Ka Un Lao,  A. Laurent,  K. V. Lawler,  Joonho Lee,  D. Lefrancois,  
 S. Lehtola,  D. S. Levine,  Yi-Pei Li,  You-Sheng Lin,  Fenglai Liu,  
 Kuan-Yu Liu,  E. Livshits,  M. Loipersberger,  A. Luenser,  P. Manohar,  
 E. Mansoor,  S. F. Manzer,  Shan-Ping Mao,  Yuezhi Mao,  N. Mardirossian,  
 A. V. Marenich,  T. Markovich,  L. A. Martinez-Martinez,  S. A. Maurer,  
 N. J. Mayhall,  S. C. McKenzie,  J.-M. Mewes,  P. Morgante,  A. F. Morrison,  
 J. W. Mullinax,  K. Nanda,  T. S. Nguyen-Beck,  R. Olivares-Amaya,  
 K. J. Oosterbaan,  J. A. Parkhill,  S. K. Paul,  F. Pavosevic,  Zheng Pei,  
 T. M. Perrine,  F. Plasser,  P. Pokhilko,  S. Prager,  A. Prociuk,  
 E. Ramos,  B. Rana,  D. R. Rehn,  F. Rob,  M. Scheurer,  M. Schneider,  
 N. Sergueev,  S. M. Sharada,  S. Sharma,  D. W. Small,  T. Stauch,  
 C. J. Stein,  T. Stein,  Yu-Chuan Su,  S. P. Veccham,  Zhen Tao,  
 A. J. W. Thom,  A. Tkatchenko,  T. Tsuchimochi,  N. M. Tubman,  L. Vogt,  
 M. L. Vidal,  O. Vydrov,  M. A. Watson,  J. Wenzel,  M. de Wergifosse,  
 T. A. Wesolowski,  A. White,  J. Witte,  A. Yamada,  Jun Yang,  K. Yao,  
 S. Yeganeh,  S. R. Yost,  Zhi-Qiang You,  A. Zech,  Igor Ying Zhang,  
 Xing Zhang,  Yan Zhao,  Ying Zhu,  B. R. Brooks,  G. K. L. Chan,  
 C. J. Cramer,  M. S. Gordon,  W. J. Hehre,  A. Klamt,  M. W. Schmidt,  
 C. D. Sherrill,  D. G. Truhlar,  A. Aspuru-Guzik,  R. Baer,  A. T. Bell,  
 N. A. Besley,  Jeng-Da Chai,  A. E. DePrince, III,  R. A. DiStasio Jr.,  
 A. Dreuw,  B. D. Dunietz,  T. R. Furlani,  Chao-Ping Hsu,  Yousung Jung,  
 Jing Kong,  D. S. Lambrecht,  WanZhen Liang,  C. Ochsenfeld,  
 V. A. Rassolov,  L. V. Slipchenko,  J. E. Subotnik,  T. Van Voorhis,  
 J. M. Herbert,  A. I. Krylov,  P. M. W. Gill,  M. Head-Gordon

 Contributors to earlier versions of Q-Chem not listed above: 
 R. D. Adamson,  B. Austin,  J. Baker,  G. J. O. Beran,  K. Brandhorst,  
 S. T. Brown,  E. F. C. Byrd,  A. K. Chakraborty,  C.-L. Cheng,  
 Siu Hung Chien,  D. M. Chipman,  D. L. Crittenden,  H. Dachsel,  
 R. J. Doerksen,  A. D. Dutoi,  L. Fusti-Molnar,  W. A. Goddard III,  
 A. Golubeva-Zadorozhnaya,  S. R. Gwaltney,  G. Hawkins,  A. Heyden,  
 S. Hirata,  G. Kedziora,  F. J. Keil,  C. Kelley,  Jihan Kim,  R. A. King,  
 R. Z. Khaliullin,  P. P. Korambath,  W. Kurlancheek,  A. M. Lee,  M. S. Lee,  
 S. V. Levchenko,  Ching Yeh Lin,  D. Liotard,  R. C. Lochan,  I. Lotan,  
 P. E. Maslen,  N. Nair,  D. P. O'Neill,  D. Neuhauser,  E. Neuscamman,  
 C. M. Oana,  R. Olson,  B. Peters,  R. Peverati,  P. A. Pieniazek,  
 Y. M. Rhee,  J. Ritchie,  M. A. Rohrdanz,  E. Rosta,  N. J. Russ,  
 H. F. Schaefer III,  N. E. Schultz,  N. Shenvi,  A. C. Simmonett,  A. Sodt,  
 D. Stuck,  K. S. Thanthiriwatte,  V. Vanovschi,  Tao Wang,  A. Warshel,  
 C. F. Williams,  Q. Wu,  X. Xu,  W. Zhang

 Please cite Q-Chem as follows:
 Y. Shao et al., Mol. Phys. 113, 184-215 (2015)
 DOI: 10.1080/00268976.2014.952696

 Q-Chem 5.3.0 for Intel X86 EM64T Linux

 Parts of Q-Chem use Armadillo 9.800.1 (Horizon Scraper).
 http://arma.sourceforge.net/

 Q-Chem begins on Wed Jul 29 00:10:10 2020  

Host: centos77-c1
0

     Scratch files written to /tmp/30084.centos77-h1/qchem25308//
Processing $rem in /opt/qchem-5.3.0-intel2020u1//config/preferences:
Processing $rem in /home/shihchengli/.qchemrc:

Checking the input file for inconsistencies... 	...done.

--------------------------------------------------------------
User input:
--------------------------------------------------------------
$rem
   JOBTYPE  sp
   EXCHANGE   omegaB97X-D
   BASIS   6-311+G(2df,2pd)
   UNRESTRICTED   False
   max_scf_cycles   250
   geom_opt_max_cycles   1500
   basis2 6-31G*
   scf_algorithm rca_diis
   SYM_IGNORE  TRUE
   print_input   true
   geom_opt_dmax   80
   pop_mulliken false
   XC_GRID 000075000302
$end

$molecule
0 1
C       -5.5320998306     0.4799743206     -0.2458218131
C       -4.3724378183     1.2767073964     -0.3563663641
H       -5.6737616848     -0.3203964319     -0.9605737953
H       -6.4312624142     0.9346969471     0.1478772764
H       -4.6617403366     0.0785135643     0.8019044549
O       -3.5596828342     0.5476490786     1.1429679937
H       -4.0283804046     1.6301461576     -1.3181791917
H       -3.6130620870     1.2583911649     0.4153742994
H       -2.8083049869     -0.0225449405     0.9457073031
$end
--------------------------------------------------------------
 ----------------------------------------------------------------
             Standard Nuclear Orientation (Angstroms)
    I     Atom           X                Y                Z
 ----------------------------------------------------------------
    1      C      -5.5320998306     0.4799743206    -0.2458218131
    2      C      -4.3724378183     1.2767073964    -0.3563663641
    3      H      -5.6737616848    -0.3203964319    -0.9605737953
    4      H      -6.4312624142     0.9346969471     0.1478772764
    5      H      -4.6617403366     0.0785135643     0.8019044549
    6      O      -3.5596828342     0.5476490786     1.1429679937
    7      H      -4.0283804046     1.6301461576    -1.3181791917
    8      H      -3.6130620870     1.2583911649     0.4153742994
    9      H      -2.8083049869    -0.0225449405     0.9457073031
 ----------------------------------------------------------------
 Nuclear Repulsion Energy =          81.50103774 hartrees
 There are       13 alpha and       13 beta electrons
 Requested basis set is 6-311+G(2df,2pd)
 There are 60 shells and 186 basis functions

 Total QAlloc Memory Limit   2000 MB
 Mega-Array Size       188 MB
 MEM_STATIC part       192 MB

                       Distance Matrix (Angstroms)
             C (  1)   C (  2)   H (  3)   H (  4)   H (  5)   O (  6)
   C (  2)  1.411318
   H (  3)  1.082373  2.146917
   H (  4)  1.081788  2.147089  1.837860
   H (  5)  1.420009  1.691436  2.071146  2.071717
   O (  6)  2.413244  1.854751  3.106078  3.063655  1.245369
   H (  7)  2.175780  1.080916  2.576777  2.899450  2.702492  2.729235
   H (  8)  2.173895  1.082853  2.938075  2.849313  1.625190  1.018527
   H (  9)  3.015183  2.414532  3.454485  3.831275  1.861750  0.963640
             H (  7)   H (  8)
   H (  8)  1.820961
   H (  9)  3.056984  1.603024
 
 A cutoff of  1.0D-09 yielded   1772 shell pairs
 There are     17204 function pairs (     21379 Cartesian)
 Smallest overlap matrix eigenvalue = 1.28E-04

 Scale SEOQF with 1.000000e-02/1.000000e-01/1.000000e-01

 Standard Electronic Orientation quadrupole field applied
 Nucleus-field energy     =     0.0000000015 hartrees
 Requested basis set is 6-31G(d)
 There are 24 shells and 54 basis functions
 A cutoff of  1.0D-09 yielded    297 shell pairs
 There are      1548 function pairs (      1731 Cartesian)
 Smallest overlap matrix eigenvalue = 7.41E-03
 Guess from superposition of atomic densities
 Warning:  Energy on first SCF cycle will be non-variational
 SAD guess density has 26.000000 electrons
 Long-range K will be added via erf
 Coulomb attenuation parameter = 0.2 bohr**(-1)
 A restricted hybrid HF-DFT SCF calculation will be
 performed using Relaxed Constraint Minimization + Pulay DIIS
 Exchange:     0.2220 Hartree-Fock + 1.0000 wB97X-D + LR-HF
 Correlation:  1.0000 wB97X-D
 Using Euler-Maclaurin-Lebedev (75,302) quadrature formula
 Dispersion:   Grimme D
 SCF converges when DIIS error is below 1.0E-04
 using 6 threads for integral computing
 -------------------------------------------------------
 OpenMP Integral computing Module                
 Release: version 1.0, May 2013, Q-Chem Inc. Pittsburgh 
 -------------------------------------------------------
 using 6 threads for integral computing
 -------------------------------------------------------
 OpenMP Integral computing Module                
 Release: version 1.0, May 2013, Q-Chem Inc. Pittsburgh 
 -------------------------------------------------------
 ---------------------------------------
  Cycle       Energy         DIIS Error
 ---------------------------------------
    1    -155.6009380485      1.12E-01
    2    -154.6005697599      1.38E-02
    3    -154.6338618699      3.81E-03
    4    -154.6581525583      4.57E-03
    5    -154.6605225377      7.60E-04 Done RCA. Switching to DIIS
    6    -154.6635954937      9.23E-04
    7    -154.6638239318      3.80E-05 Convergence criterion met
 ---------------------------------------
 SCF time:  CPU 14.10 s  wall 2.36 s
 SCF   energy in the small basis set = -154.66382393
 Total energy in the small basis set = -154.66382393
 ----------------------------------------------------
  Cycle       Energy    
 ----------------------------------------------------
    1     -18.7753748766     -1.88E+01
 Long-range K will be added via erf
 Coulomb attenuation parameter = 0.2 bohr**(-1)
 A restricted hybrid HF-DFT SCF calculation will be
 performed using Relaxed Constraint Minimization + Pulay DIIS
 Exchange:     0.2220 Hartree-Fock + 1.0000 wB97X-D + LR-HF
 Correlation:  1.0000 wB97X-D
 Using Euler-Maclaurin-Lebedev (75,302) quadrature formula
 Dispersion:   Grimme D
 SCF converges when DIIS error is below 1.0E-05
 Basis2 calculation detected. Using small basis as guess for larger.
 SCFMinFind is unable to tell whether the solution found is close.
 Resetting ReadMinima to 0 and attempting to follow guess.
 SCFMinFind following SCF Guess.
 using 6 threads for integral computing
 -------------------------------------------------------
 OpenMP Integral computing Module                
 Release: version 1.0, May 2013, Q-Chem Inc. Pittsburgh 
 -------------------------------------------------------
 using 6 threads for integral computing
 -------------------------------------------------------
 OpenMP Integral computing Module                
 Release: version 1.0, May 2013, Q-Chem Inc. Pittsburgh 
 -------------------------------------------------------
 ---------------------------------------
  Cycle       Energy         DIIS Error
 ---------------------------------------
    1    -154.6862444685      6.16E-03
    2    -154.6831867447      4.79E-03
    3    -154.7082148181      1.06E-03
    4    -154.7432577208      1.07E-03
    5    -154.7448225567      1.58E-04 Done RCA. Switching to DIIS
    6    -154.7470626706      1.68E-04
    7    -154.7473081852      6.68E-05
    8    -154.7473548752      3.71E-05
    9    -154.7473778155      1.58E-05
   10    -154.7473816074      2.30E-06 Convergence criterion met
 ---------------------------------------
 SCF time:  CPU 64.91 s  wall 10.85 s
 SCF   energy in the final basis set = -154.74738161
 Total energy in the final basis set = -154.74738161
 
 --------------------------------------------------------------
 
                    Orbital Energies (a.u.)
 --------------------------------------------------------------
 
 Alpha MOs
 -- Occupied --
-19.2803 -10.2920 -10.2578  -1.1875  -0.8677  -0.7276  -0.6527  -0.5822
 -0.5251  -0.5035  -0.4694  -0.3235  -0.2768
 -- Virtual --
 -0.0058   0.0663   0.0892   0.1013   0.1095   0.1372   0.1420   0.1445
  0.1773   0.1883   0.2167   0.2298   0.2609   0.2687   0.2794   0.3062
  0.3083   0.3506   0.3751   0.3874   0.4692   0.5012   0.5216   0.5423
  0.5617   0.5730   0.5835   0.6129   0.6245   0.6488   0.6667   0.6705
  0.7090   0.7572   0.7724   0.8064   0.8216   0.8637   0.9096   0.9532
  0.9822   1.0158   1.0451   1.0603   1.0848   1.1407   1.1608   1.1835
  1.2130   1.2486   1.2987   1.3438   1.3618   1.3972   1.4148   1.4292
  1.4531   1.4616   1.4960   1.5210   1.5515   1.6088   1.6185   1.6578
  1.7930   1.8474   2.0663   2.1430   2.2078   2.2506   2.3627   2.4505
  2.5140   2.5518   2.5891   2.5985   2.7095   2.7844   2.8368   2.8512
  2.8599   2.9042   2.9285   2.9904   3.0080   3.0363   3.0637   3.0888
  3.1190   3.1254   3.1978   3.2119   3.2430   3.2877   3.3072   3.3541
  3.3626   3.3880   3.4264   3.4386   3.4651   3.5000   3.5114   3.5767
  3.5889   3.6173   3.6425   3.6778   3.6945   3.7783   3.8062   3.8510
  3.8738   3.8797   3.8886   3.9191   3.9608   4.0122   4.0724   4.0797
  4.1136   4.1506   4.1845   4.2275   4.2466   4.2624   4.2763   4.3185
  4.3438   4.3934   4.4375   4.5175   4.5771   4.6475   4.6963   4.7364
  4.8045   4.8647   4.9272   4.9822   4.9867   5.0470   5.1179   5.1579
  5.1869   5.3036   5.3112   5.3537   5.3922   5.5767   5.6840   5.7335
  5.7831   5.9840   6.1190   6.1582   6.3463   6.3717   6.4666   6.7082
  6.7720   6.9027   7.0472   7.2546   7.3875   7.4570   7.6835   7.7754
  7.9946   8.4299  25.0386  25.3309  50.6075
 --------------------------------------------------------------
 
 -----------------------------------------------------------------
                    Cartesian Multipole Moments
 -----------------------------------------------------------------
    Charge (ESU x 10^10)
                -0.0000
    Dipole Moment (Debye)
         X       1.4812      Y      -1.1727      Z      -0.6167
       Tot       1.9874
    Quadrupole Moments (Debye-Ang)
        XX     -31.0546     XY       4.2011     YY     -22.9091
        XZ       2.4220     YZ      -1.6697     ZZ     -22.8402
    Octopole Moments (Debye-Ang^2)
       XXX     335.4172    XXY     -29.2280    XYY     102.8731
       YYY     -51.0881    XXZ     -10.0250    XYZ       4.9156
       YYZ      -5.7978    XZZ     102.4168    YZZ     -16.7698
       ZZZ     -12.1968
    Hexadecapole Moments (Debye-Ang^3)
      XXXX   -2911.2528   XXXY     236.7813   XXYY    -501.7072
      XYYY     224.3740   YYYY    -132.6023   XXXZ      22.2615
      XXYZ     -10.0594   XYYZ      15.8737   YYYZ      -4.0407
      XXZZ    -498.0725   XYZZ      72.7746   YYZZ     -34.0007
      XZZZ      25.2715   YZZZ      -2.5794   ZZZZ    -100.6950
 -----------------------------------------------------------------
Archival summary:
1\1\centos77-c1\SP\ProcedureUnspecified\BasisUnspecified\126\shihchen\WedJul2900:10:252020WedJul2900:10:252020\0\\#,ProcedureUnspecified,BasisUnspecified,\\0,1\O\H,1,0.96364\H,1,1.01853,2,107.911\C,3,1.08285,1,123.895,2,107.645,0\H,4,1.08092,3,114.612,1,-144.567,0\H,1,1.24537,2,114.27,3,99.7743,0\C,4,1.41132,3,120.721,1,14.2175,0\H,7,1.08179,4,118.306,3,96.7061,0\H,7,1.08237,4,118.247,3,-114.01,0\\\@

 Total job time:  15.35s(wall), 82.74s(cpu) 
 Wed Jul 29 00:10:25 2020

        *************************************************************
        *                                                           *
        *  Thank you very much for using Q-Chem.  Have a nice day.  *
        *                                                           *
        *************************************************************


