                  Welcome to Q-Chem
     A Quantum Leap Into The Future Of Chemistry


 Q-Chem 5.3 (devel), Q-Chem, Inc., Pleasanton, CA (2020)

 Yihan Shao,  Zhengting Gan,  E. Epifanovsky,  A. T. B. Gilbert,  M. Wormit,  
 J. Kussmann,  A. W. Lange,  A. Behn,  Jia Deng,  Xintian Feng,  D. Ghosh,  
 M. Goldey,  P. R. Horn,  L. D. Jacobson,  I. Kaliman,  T. Kus,  A. Landau,  
 Jie Liu,  E. I. Proynov,  R. M. Richard,  R. P. Steele,  E. J. Sundstrom,  
 H. L. Woodcock III,  P. M. Zimmerman,  D. Zuev,  B. Alam,  B. Albrecht,  
 E. Alguire,  S. A. Baeppler,  D. Barton,  Z. Benda,  Y. A. Bernard,  
 E. J. Berquist,  K. B. Bravaya,  H. Burton,  K. Carter-Fenk,  D. Casanova,  
 Chun-Min Chang,  Yunqing Chen,  A. Chien,  K. D. Closser,  M. P. Coons,  
 S. Coriani,  S. Dasgupta,  A. L. Dempwolff,  M. Diedenhofen,  Hainam Do,  
 R. G. Edgar,  Po-Tung Fang,  S. Faraji,  S. Fatehi,  Qingguo Feng,  
 J. Fosso-Tande,  J. Gayvert,  Qinghui Ge,  A. Ghysels,  G. Gidofalvi,  
 J. Gomes,  J. Gonthier,  A. Gunina,  D. Hait,  M. W. D. Hanson-Heine,  
 P. H. P. Harbach,  A. W. Hauser,  M. F. Herbst,  J. E. Herr,  
 E. G. Hohenstein,  Z. C. Holden,  Kerwin Hui,  B. C. Huynh,  T.-C. Jagau,  
 Hyunjun Ji,  B. Kaduk,  K. Khistyaev,  Jaehoon Kim,  P. Klunzinger,  K. Koh,  
 D. Kosenkov,  L. Koulias,  T. Kowalczyk,  C. M. Krauter,  A. Kunitsa,  
 Ka Un Lao,  A. Laurent,  K. V. Lawler,  Joonho Lee,  D. Lefrancois,  
 S. Lehtola,  D. S. Levine,  Yi-Pei Li,  You-Sheng Lin,  Fenglai Liu,  
 Kuan-Yu Liu,  E. Livshits,  M. Loipersberger,  A. Luenser,  P. Manohar,  
 E. Mansoor,  S. F. Manzer,  Shan-Ping Mao,  Yuezhi Mao,  N. Mardirossian,  
 A. V. Marenich,  T. Markovich,  L. A. Martinez-Martinez,  S. A. Maurer,  
 N. J. Mayhall,  S. C. McKenzie,  J.-M. Mewes,  P. Morgante,  A. F. Morrison,  
 J. W. Mullinax,  K. Nanda,  T. S. Nguyen-Beck,  R. Olivares-Amaya,  
 K. J. Oosterbaan,  J. A. Parkhill,  S. K. Paul,  F. Pavosevic,  Zheng Pei,  
 T. M. Perrine,  F. Plasser,  P. Pokhilko,  S. Prager,  A. Prociuk,  
 E. Ramos,  B. Rana,  D. R. Rehn,  F. Rob,  M. Scheurer,  M. Schneider,  
 N. Sergueev,  S. M. Sharada,  S. Sharma,  D. W. Small,  T. Stauch,  
 C. J. Stein,  T. Stein,  Yu-Chuan Su,  S. P. Veccham,  Zhen Tao,  
 A. J. W. Thom,  A. Tkatchenko,  T. Tsuchimochi,  N. M. Tubman,  L. Vogt,  
 M. L. Vidal,  O. Vydrov,  M. A. Watson,  J. Wenzel,  M. de Wergifosse,  
 T. A. Wesolowski,  A. White,  J. Witte,  A. Yamada,  Jun Yang,  K. Yao,  
 S. Yeganeh,  S. R. Yost,  Zhi-Qiang You,  A. Zech,  Igor Ying Zhang,  
 Xing Zhang,  Yan Zhao,  Ying Zhu,  B. R. Brooks,  G. K. L. Chan,  
 C. J. Cramer,  M. S. Gordon,  W. J. Hehre,  A. Klamt,  M. W. Schmidt,  
 C. D. Sherrill,  D. G. Truhlar,  A. Aspuru-Guzik,  R. Baer,  A. T. Bell,  
 N. A. Besley,  Jeng-Da Chai,  A. E. DePrince, III,  R. A. DiStasio Jr.,  
 A. Dreuw,  B. D. Dunietz,  T. R. Furlani,  Chao-Ping Hsu,  Yousung Jung,  
 Jing Kong,  D. S. Lambrecht,  WanZhen Liang,  C. Ochsenfeld,  
 V. A. Rassolov,  L. V. Slipchenko,  J. E. Subotnik,  T. Van Voorhis,  
 J. M. Herbert,  A. I. Krylov,  P. M. W. Gill,  M. Head-Gordon

 Contributors to earlier versions of Q-Chem not listed above: 
 R. D. Adamson,  B. Austin,  J. Baker,  G. J. O. Beran,  K. Brandhorst,  
 S. T. Brown,  E. F. C. Byrd,  A. K. Chakraborty,  C.-L. Cheng,  
 Siu Hung Chien,  D. M. Chipman,  D. L. Crittenden,  H. Dachsel,  
 R. J. Doerksen,  A. D. Dutoi,  L. Fusti-Molnar,  W. A. Goddard III,  
 A. Golubeva-Zadorozhnaya,  S. R. Gwaltney,  G. Hawkins,  A. Heyden,  
 S. Hirata,  G. Kedziora,  F. J. Keil,  C. Kelley,  Jihan Kim,  R. A. King,  
 R. Z. Khaliullin,  P. P. Korambath,  W. Kurlancheek,  A. M. Lee,  M. S. Lee,  
 S. V. Levchenko,  Ching Yeh Lin,  D. Liotard,  R. C. Lochan,  I. Lotan,  
 P. E. Maslen,  N. Nair,  D. P. O'Neill,  D. Neuhauser,  E. Neuscamman,  
 C. M. Oana,  R. Olson,  B. Peters,  R. Peverati,  P. A. Pieniazek,  
 Y. M. Rhee,  J. Ritchie,  M. A. Rohrdanz,  E. Rosta,  N. J. Russ,  
 H. F. Schaefer III,  N. E. Schultz,  N. Shenvi,  A. C. Simmonett,  A. Sodt,  
 D. Stuck,  K. S. Thanthiriwatte,  V. Vanovschi,  Tao Wang,  A. Warshel,  
 C. F. Williams,  Q. Wu,  X. Xu,  W. Zhang

 Please cite Q-Chem as follows:
 Y. Shao et al., Mol. Phys. 113, 184-215 (2015)
 DOI: 10.1080/00268976.2014.952696

 Q-Chem 5.3.0 for Intel X86 EM64T Linux

 Parts of Q-Chem use Armadillo 9.800.1 (Horizon Scraper).
 http://arma.sourceforge.net/

 Q-Chem begins on Wed Jul 29 00:07:49 2020  

Host: centos77-c1
0

     Scratch files written to /tmp/30084.centos77-h1/qchem24919//
Processing $rem in /opt/qchem-5.3.0-intel2020u1//config/preferences:
Processing $rem in /home/shihchengli/.qchemrc:

Checking the input file for inconsistencies... 	...done.

--------------------------------------------------------------
User input:
--------------------------------------------------------------
$rem
   JOBTYPE  sp
   EXCHANGE   omegaB97X-D
   BASIS   6-311+G(2df,2pd)
   UNRESTRICTED   False
   max_scf_cycles   250
   geom_opt_max_cycles   1500
   basis2 6-31G*
   scf_algorithm rca_diis
   SYM_IGNORE  TRUE
   print_input   true
   geom_opt_dmax   80
   pop_mulliken false
   XC_GRID 000075000302
$end

$molecule
0 1
C       -5.5554900263     0.5112193791     -0.2114447359
C       -4.4111523602     1.3326080631     -0.2988038250
H       -5.7823716932     -0.1414560688     -1.0445541449
H       -6.4012656751     0.8689679362     0.3603458845
H       -4.5740180837     -0.0676329583     0.6359450903
O       -3.4375053604     0.3457055649     0.9333224632
H       -3.4626685080     0.9339781904     -0.6302415776
H       -4.3393611521     2.2446788918     0.2804573108
H       -2.7168995384     -0.1649317413     0.5478636978
$end
--------------------------------------------------------------
 ----------------------------------------------------------------
             Standard Nuclear Orientation (Angstroms)
    I     Atom           X                Y                Z
 ----------------------------------------------------------------
    1      C      -5.5554900263     0.5112193791    -0.2114447359
    2      C      -4.4111523602     1.3326080631    -0.2988038250
    3      H      -5.7823716932    -0.1414560688    -1.0445541449
    4      H      -6.4012656751     0.8689679362     0.3603458845
    5      H      -4.5740180837    -0.0676329583     0.6359450903
    6      O      -3.4375053604     0.3457055649     0.9333224632
    7      H      -3.4626685080     0.9339781904    -0.6302415776
    8      H      -4.3393611521     2.2446788918     0.2804573108
    9      H      -2.7168995384    -0.1649317413     0.5478636978
 ----------------------------------------------------------------
 Nuclear Repulsion Energy =          80.20621655 hartrees
 There are       13 alpha and       13 beta electrons
 Requested basis set is 6-311+G(2df,2pd)
 There are 60 shells and 186 basis functions

 Total QAlloc Memory Limit   2000 MB
 Mega-Array Size       188 MB
 MEM_STATIC part       192 MB

                       Distance Matrix (Angstroms)
             C (  1)   C (  2)   H (  3)   H (  4)   H (  5)   O (  6)
   C (  2)  1.411318
   H (  3)  1.082373  2.146917
   H (  4)  1.081788  2.147089  1.837860
   H (  5)  1.420009  1.691436  2.071146  2.071717
   O (  6)  2.413244  1.854751  3.106078  3.063655  1.245369
   H (  7)  2.175780  1.080916  2.590219  3.101748  1.959988  1.670757
   H (  8)  2.173895  1.082853  3.087325  2.480003  2.351217  2.201290
   H (  9)  3.015183  2.414532  3.454485  3.831275  1.861750  0.963640
             H (  7)   H (  8)
   H (  8)  1.820961
   H (  9)  1.775305  2.917209
 
 A cutoff of  1.0D-09 yielded   1776 shell pairs
 There are     17238 function pairs (     21417 Cartesian)
 Smallest overlap matrix eigenvalue = 1.01E-04

 Scale SEOQF with 1.000000e-02/1.000000e-01/1.000000e-01

 Standard Electronic Orientation quadrupole field applied
 Nucleus-field energy     =     0.0000000022 hartrees
 Requested basis set is 6-31G(d)
 There are 24 shells and 54 basis functions
 A cutoff of  1.0D-09 yielded    297 shell pairs
 There are      1548 function pairs (      1731 Cartesian)
 Smallest overlap matrix eigenvalue = 6.53E-03
 Guess from superposition of atomic densities
 Warning:  Energy on first SCF cycle will be non-variational
 SAD guess density has 26.000000 electrons
 Long-range K will be added via erf
 Coulomb attenuation parameter = 0.2 bohr**(-1)
 A restricted hybrid HF-DFT SCF calculation will be
 performed using Relaxed Constraint Minimization + Pulay DIIS
 Exchange:     0.2220 Hartree-Fock + 1.0000 wB97X-D + LR-HF
 Correlation:  1.0000 wB97X-D
 Using Euler-Maclaurin-Lebedev (75,302) quadrature formula
 Dispersion:   Grimme D
 SCF converges when DIIS error is below 1.0E-04
 using 6 threads for integral computing
 -------------------------------------------------------
 OpenMP Integral computing Module                
 Release: version 1.0, May 2013, Q-Chem Inc. Pittsburgh 
 -------------------------------------------------------
 using 6 threads for integral computing
 -------------------------------------------------------
 OpenMP Integral computing Module                
 Release: version 1.0, May 2013, Q-Chem Inc. Pittsburgh 
 -------------------------------------------------------
 ---------------------------------------
  Cycle       Energy         DIIS Error
 ---------------------------------------
    1    -155.3337451291      1.02E-01
    2    -154.7443181029      1.59E-02
    3    -154.7776812541      3.49E-03
    4    -154.8199636402      2.35E-03
    5    -154.8209295056      5.59E-04 Done RCA. Switching to DIIS
    6    -154.8220309512      4.74E-04
    7    -154.8220960664      4.32E-05 Convergence criterion met
 ---------------------------------------
 SCF time:  CPU 14.23 s  wall 2.39 s
 SCF   energy in the small basis set = -154.82209607
 Total energy in the small basis set = -154.82209607
 ----------------------------------------------------
  Cycle       Energy    
 ----------------------------------------------------
    1     -18.6929542208     -1.87E+01
 Long-range K will be added via erf
 Coulomb attenuation parameter = 0.2 bohr**(-1)
 A restricted hybrid HF-DFT SCF calculation will be
 performed using Relaxed Constraint Minimization + Pulay DIIS
 Exchange:     0.2220 Hartree-Fock + 1.0000 wB97X-D + LR-HF
 Correlation:  1.0000 wB97X-D
 Using Euler-Maclaurin-Lebedev (75,302) quadrature formula
 Dispersion:   Grimme D
 SCF converges when DIIS error is below 1.0E-05
 Basis2 calculation detected. Using small basis as guess for larger.
 SCFMinFind is unable to tell whether the solution found is close.
 Resetting ReadMinima to 0 and attempting to follow guess.
 SCFMinFind following SCF Guess.
 using 6 threads for integral computing
 -------------------------------------------------------
 OpenMP Integral computing Module                
 Release: version 1.0, May 2013, Q-Chem Inc. Pittsburgh 
 -------------------------------------------------------
 using 6 threads for integral computing
 -------------------------------------------------------
 OpenMP Integral computing Module                
 Release: version 1.0, May 2013, Q-Chem Inc. Pittsburgh 
 -------------------------------------------------------
 ---------------------------------------
  Cycle       Energy         DIIS Error
 ---------------------------------------
    1    -154.8421619979      6.13E-03
    2    -154.8276136280      5.04E-03
    3    -154.8544845937      1.29E-03
    4    -154.8924030962      1.22E-03
    5    -154.8950144320      1.11E-04 Done RCA. Switching to DIIS
    6    -154.8988389927      8.41E-05
    7    -154.8988737499      1.67E-05
    8    -154.8988770288      3.00E-06 Convergence criterion met
 ---------------------------------------
 SCF time:  CPU 61.74 s  wall 10.32 s
 SCF   energy in the final basis set = -154.89887703
 Total energy in the final basis set = -154.89887703
 
 --------------------------------------------------------------
 
                    Orbital Energies (a.u.)
 --------------------------------------------------------------
 
 Alpha MOs
 -- Occupied --
-19.2362 -10.3450 -10.2622  -1.0971  -0.8750  -0.7018  -0.6050  -0.5776
 -0.5137  -0.4766  -0.4401  -0.3884  -0.3103
 -- Virtual --
  0.0387   0.0691   0.0884   0.0964   0.1128   0.1279   0.1389   0.1493
  0.1801   0.1905   0.2210   0.2256   0.2406   0.2754   0.2837   0.3022
  0.3208   0.3305   0.3573   0.4003   0.4573   0.4629   0.4921   0.5331
  0.5405   0.5915   0.5929   0.6061   0.6226   0.6393   0.6623   0.6808
  0.7061   0.7340   0.7876   0.8229   0.8476   0.8572   0.9019   0.9579
  0.9624   1.0263   1.0507   1.0838   1.1322   1.1415   1.1756   1.1884
  1.2289   1.2672   1.2718   1.2876   1.3144   1.3618   1.4118   1.4437
  1.4484   1.4506   1.4808   1.4864   1.5528   1.5663   1.6188   1.6406
  1.6966   1.8133   1.9434   1.9796   2.0485   2.2462   2.3029   2.4630
  2.5296   2.5923   2.6135   2.6384   2.6692   2.7350   2.8202   2.8489
  2.8816   2.9124   2.9176   2.9774   3.0196   3.0332   3.0517   3.0848
  3.1066   3.1325   3.1632   3.2045   3.2473   3.2622   3.2842   3.3364
  3.3544   3.3875   3.4424   3.4472   3.4745   3.4946   3.5275   3.5484
  3.5913   3.6128   3.6394   3.6968   3.7172   3.7426   3.7634   3.8225
  3.8514   3.8595   3.8913   3.9377   3.9675   3.9801   4.0488   4.0710
  4.1163   4.1393   4.1730   4.1929   4.2216   4.2619   4.2823   4.3372
  4.3751   4.4284   4.4547   4.5061   4.5432   4.5615   4.6572   4.7361
  4.7877   4.8270   4.8585   4.8918   4.9335   5.0039   5.0935   5.1102
  5.1295   5.1640   5.2315   5.3099   5.4289   5.4525   5.5176   5.5767
  5.6088   5.6852   5.7917   5.8332   6.0501   6.0639   6.2233   6.3045
  6.4217   6.6554   6.7335   6.9058   7.2332   7.3164   7.4156   7.6298
  7.8220   8.1930  25.0235  25.3108  50.4826
 --------------------------------------------------------------
 
 -----------------------------------------------------------------
                    Cartesian Multipole Moments
 -----------------------------------------------------------------
    Charge (ESU x 10^10)
                 0.0000
    Dipole Moment (Debye)
         X       0.5932      Y       0.0092      Z      -1.3311
       Tot       1.4573
    Quadrupole Moments (Debye-Ang)
        XX     -24.3794     XY      -1.0152     YY     -19.1334
        XZ       3.4868     YZ       0.3249     ZZ     -23.8108
    Octopole Moments (Debye-Ang^2)
       XXX     297.9297    XXY      -8.0812    XYY      86.5543
       YYY     -38.0893    XXZ      -8.3456    XYZ      -4.3779
       YYZ      -0.9336    XZZ     103.4306    YZZ     -16.5144
       ZZZ     -12.0797
    Hexadecapole Moments (Debye-Ang^3)
      XXXX   -2739.9897   XXXY     167.6571   XXYY    -436.2611
      XYYY     174.1136   YYYY    -106.4688   XXXZ      -4.3764
      XXYZ      33.5271   XYYZ      -5.0011   YYYZ       6.7637
      XXZZ    -487.2402   XYZZ      73.6012   YYZZ     -32.5112
      XZZZ      26.4898   YZZZ       2.3600   ZZZZ     -76.3815
 -----------------------------------------------------------------
Archival summary:
1\1\centos77-c1\SP\ProcedureUnspecified\BasisUnspecified\126\shihchen\WedJul2900:08:042020WedJul2900:08:042020\0\\#,ProcedureUnspecified,BasisUnspecified,\\0,1\O\H,1,0.96364\H,1,1.24537,2,114.27\C,3,1.42001,1,129.64,2,-109.293,0\H,4,1.08179,3,111.086,1,-110.192,0\H,4,1.08237,3,111.002,1,118.822,0\C,4,1.41132,3,73.3671,1,4.34102,0\H,7,1.08092,4,121.053,3,58.7204,0\H,7,1.08285,4,120.721,3,-98.6953,0\\\@

 Total job time:  14.91s(wall), 79.88s(cpu) 
 Wed Jul 29 00:08:04 2020

        *************************************************************
        *                                                           *
        *  Thank you very much for using Q-Chem.  Have a nice day.  *
        *                                                           *
        *************************************************************


