                  Welcome to Q-Chem
     A Quantum Leap Into The Future Of Chemistry


 Q-Chem 5.3 (devel), Q-Chem, Inc., Pleasanton, CA (2020)

 Yihan Shao,  Zhengting Gan,  E. Epifanovsky,  A. T. B. Gilbert,  M. Wormit,  
 J. Kussmann,  A. W. Lange,  A. Behn,  Jia Deng,  Xintian Feng,  D. Ghosh,  
 M. Goldey,  P. R. Horn,  L. D. Jacobson,  I. Kaliman,  T. Kus,  A. Landau,  
 Jie Liu,  E. I. Proynov,  R. M. Richard,  R. P. Steele,  E. J. Sundstrom,  
 H. L. Woodcock III,  P. M. Zimmerman,  D. Zuev,  B. Alam,  B. Albrecht,  
 E. Alguire,  S. A. Baeppler,  D. Barton,  Z. Benda,  Y. A. Bernard,  
 E. J. Berquist,  K. B. Bravaya,  H. Burton,  K. Carter-Fenk,  D. Casanova,  
 Chun-Min Chang,  Yunqing Chen,  A. Chien,  K. D. Closser,  M. P. Coons,  
 S. Coriani,  S. Dasgupta,  A. L. Dempwolff,  M. Diedenhofen,  Hainam Do,  
 R. G. Edgar,  Po-Tung Fang,  S. Faraji,  S. Fatehi,  Qingguo Feng,  
 J. Fosso-Tande,  J. Gayvert,  Qinghui Ge,  A. Ghysels,  G. Gidofalvi,  
 J. Gomes,  J. Gonthier,  A. Gunina,  D. Hait,  M. W. D. Hanson-Heine,  
 P. H. P. Harbach,  A. W. Hauser,  M. F. Herbst,  J. E. Herr,  
 E. G. Hohenstein,  Z. C. Holden,  Kerwin Hui,  B. C. Huynh,  T.-C. Jagau,  
 Hyunjun Ji,  B. Kaduk,  K. Khistyaev,  Jaehoon Kim,  P. Klunzinger,  K. Koh,  
 D. Kosenkov,  L. Koulias,  T. Kowalczyk,  C. M. Krauter,  A. Kunitsa,  
 Ka Un Lao,  A. Laurent,  K. V. Lawler,  Joonho Lee,  D. Lefrancois,  
 S. Lehtola,  D. S. Levine,  Yi-Pei Li,  You-Sheng Lin,  Fenglai Liu,  
 Kuan-Yu Liu,  E. Livshits,  M. Loipersberger,  A. Luenser,  P. Manohar,  
 E. Mansoor,  S. F. Manzer,  Shan-Ping Mao,  Yuezhi Mao,  N. Mardirossian,  
 A. V. Marenich,  T. Markovich,  L. A. Martinez-Martinez,  S. A. Maurer,  
 N. J. Mayhall,  S. C. McKenzie,  J.-M. Mewes,  P. Morgante,  A. F. Morrison,  
 J. W. Mullinax,  K. Nanda,  T. S. Nguyen-Beck,  R. Olivares-Amaya,  
 K. J. Oosterbaan,  J. A. Parkhill,  S. K. Paul,  F. Pavosevic,  Zheng Pei,  
 T. M. Perrine,  F. Plasser,  P. Pokhilko,  S. Prager,  A. Prociuk,  
 E. Ramos,  B. Rana,  D. R. Rehn,  F. Rob,  M. Scheurer,  M. Schneider,  
 N. Sergueev,  S. M. Sharada,  S. Sharma,  D. W. Small,  T. Stauch,  
 C. J. Stein,  T. Stein,  Yu-Chuan Su,  S. P. Veccham,  Zhen Tao,  
 A. J. W. Thom,  A. Tkatchenko,  T. Tsuchimochi,  N. M. Tubman,  L. Vogt,  
 M. L. Vidal,  O. Vydrov,  M. A. Watson,  J. Wenzel,  M. de Wergifosse,  
 T. A. Wesolowski,  A. White,  J. Witte,  A. Yamada,  Jun Yang,  K. Yao,  
 S. Yeganeh,  S. R. Yost,  Zhi-Qiang You,  A. Zech,  Igor Ying Zhang,  
 Xing Zhang,  Yan Zhao,  Ying Zhu,  B. R. Brooks,  G. K. L. Chan,  
 C. J. Cramer,  M. S. Gordon,  W. J. Hehre,  A. Klamt,  M. W. Schmidt,  
 C. D. Sherrill,  D. G. Truhlar,  A. Aspuru-Guzik,  R. Baer,  A. T. Bell,  
 N. A. Besley,  Jeng-Da Chai,  A. E. DePrince, III,  R. A. DiStasio Jr.,  
 A. Dreuw,  B. D. Dunietz,  T. R. Furlani,  Chao-Ping Hsu,  Yousung Jung,  
 Jing Kong,  D. S. Lambrecht,  WanZhen Liang,  C. Ochsenfeld,  
 V. A. Rassolov,  L. V. Slipchenko,  J. E. Subotnik,  T. Van Voorhis,  
 J. M. Herbert,  A. I. Krylov,  P. M. W. Gill,  M. Head-Gordon

 Contributors to earlier versions of Q-Chem not listed above: 
 R. D. Adamson,  B. Austin,  J. Baker,  G. J. O. Beran,  K. Brandhorst,  
 S. T. Brown,  E. F. C. Byrd,  A. K. Chakraborty,  C.-L. Cheng,  
 Siu Hung Chien,  D. M. Chipman,  D. L. Crittenden,  H. Dachsel,  
 R. J. Doerksen,  A. D. Dutoi,  L. Fusti-Molnar,  W. A. Goddard III,  
 A. Golubeva-Zadorozhnaya,  S. R. Gwaltney,  G. Hawkins,  A. Heyden,  
 S. Hirata,  G. Kedziora,  F. J. Keil,  C. Kelley,  Jihan Kim,  R. A. King,  
 R. Z. Khaliullin,  P. P. Korambath,  W. Kurlancheek,  A. M. Lee,  M. S. Lee,  
 S. V. Levchenko,  Ching Yeh Lin,  D. Liotard,  R. C. Lochan,  I. Lotan,  
 P. E. Maslen,  N. Nair,  D. P. O'Neill,  D. Neuhauser,  E. Neuscamman,  
 C. M. Oana,  R. Olson,  B. Peters,  R. Peverati,  P. A. Pieniazek,  
 Y. M. Rhee,  J. Ritchie,  M. A. Rohrdanz,  E. Rosta,  N. J. Russ,  
 H. F. Schaefer III,  N. E. Schultz,  N. Shenvi,  A. C. Simmonett,  A. Sodt,  
 D. Stuck,  K. S. Thanthiriwatte,  V. Vanovschi,  Tao Wang,  A. Warshel,  
 C. F. Williams,  Q. Wu,  X. Xu,  W. Zhang

 Please cite Q-Chem as follows:
 Y. Shao et al., Mol. Phys. 113, 184-215 (2015)
 DOI: 10.1080/00268976.2014.952696

 Q-Chem 5.3.0 for Intel X86 EM64T Linux

 Parts of Q-Chem use Armadillo 9.800.1 (Horizon Scraper).
 http://arma.sourceforge.net/

 Q-Chem begins on Wed Jul 29 00:12:49 2020  

Host: centos77-c1
0

     Scratch files written to /tmp/30084.centos77-h1/qchem25689//
Processing $rem in /opt/qchem-5.3.0-intel2020u1//config/preferences:
Processing $rem in /home/shihchengli/.qchemrc:

Checking the input file for inconsistencies... 	...done.

--------------------------------------------------------------
User input:
--------------------------------------------------------------
$rem
   JOBTYPE  sp
   EXCHANGE   omegaB97X-D
   BASIS   6-311+G(2df,2pd)
   UNRESTRICTED   False
   max_scf_cycles   250
   geom_opt_max_cycles   1500
   basis2 6-31G*
   scf_algorithm rca_diis
   SYM_IGNORE  TRUE
   print_input   true
   geom_opt_dmax   80
   pop_mulliken false
   XC_GRID 000075000302
$end

$molecule
0 1
C       -5.4810614733     0.4189328028     -0.2693946364
C       -4.2639074352     1.1138157883     -0.4352058504
H       -5.6055774002     -0.5258318150     -0.7826659284
H       -6.3814795669     0.9944237798     -0.1011020814
H       -4.7495095637     0.2507039811     0.9359922671
O       -3.6572643172     0.7418667189     1.2776100266
H       -4.2513993862     2.1731741087     -0.6496396980
H       -3.3594015313     0.5868854767     -0.7123053881
H       -2.9311317233     0.1091664158     1.3096014524
$end
--------------------------------------------------------------
 ----------------------------------------------------------------
             Standard Nuclear Orientation (Angstroms)
    I     Atom           X                Y                Z
 ----------------------------------------------------------------
    1      C      -5.4810614733     0.4189328028    -0.2693946364
    2      C      -4.2639074352     1.1138157883    -0.4352058504
    3      H      -5.6055774002    -0.5258318150    -0.7826659284
    4      H      -6.3814795669     0.9944237798    -0.1011020814
    5      H      -4.7495095637     0.2507039811     0.9359922671
    6      O      -3.6572643172     0.7418667189     1.2776100266
    7      H      -4.2513993862     2.1731741087    -0.6496396980
    8      H      -3.3594015313     0.5868854767    -0.7123053881
    9      H      -2.9311317233     0.1091664158     1.3096014524
 ----------------------------------------------------------------
 Nuclear Repulsion Energy =          79.46160180 hartrees
 There are       13 alpha and       13 beta electrons
 Requested basis set is 6-311+G(2df,2pd)
 There are 60 shells and 186 basis functions

 Total QAlloc Memory Limit   2000 MB
 Mega-Array Size       188 MB
 MEM_STATIC part       192 MB

                       Distance Matrix (Angstroms)
             C (  1)   C (  2)   H (  3)   H (  4)   H (  5)   O (  6)
   C (  2)  1.411318
   H (  3)  1.082373  2.146917
   H (  4)  1.081788  2.147089  1.837860
   H (  5)  1.420009  1.691436  2.071146  2.071717
   O (  6)  2.413244  1.854751  3.106078  3.063655  1.245369
   H (  7)  2.175780  1.080916  3.022603  2.495513  2.541306  2.473040
   H (  8)  2.173895  1.082853  2.507668  3.110082  2.182270  2.018045
   H (  9)  3.015183  2.414532  3.454485  3.831275  1.861750  0.963640
             H (  7)   H (  8)
   H (  8)  1.820961
   H (  9)  3.137174  2.121259
 
 A cutoff of  1.0D-09 yielded   1771 shell pairs
 There are     17227 function pairs (     21406 Cartesian)
 Smallest overlap matrix eigenvalue = 9.69E-05

 Scale SEOQF with 1.000000e-02/1.000000e-01/1.000000e-01

 Standard Electronic Orientation quadrupole field applied
 Nucleus-field energy     =     0.0000000013 hartrees
 Requested basis set is 6-31G(d)
 There are 24 shells and 54 basis functions
 A cutoff of  1.0D-09 yielded    297 shell pairs
 There are      1548 function pairs (      1731 Cartesian)
 Smallest overlap matrix eigenvalue = 6.74E-03
 Guess from superposition of atomic densities
 Warning:  Energy on first SCF cycle will be non-variational
 SAD guess density has 26.000000 electrons
 Long-range K will be added via erf
 Coulomb attenuation parameter = 0.2 bohr**(-1)
 A restricted hybrid HF-DFT SCF calculation will be
 performed using Relaxed Constraint Minimization + Pulay DIIS
 Exchange:     0.2220 Hartree-Fock + 1.0000 wB97X-D + LR-HF
 Correlation:  1.0000 wB97X-D
 Using Euler-Maclaurin-Lebedev (75,302) quadrature formula
 Dispersion:   Grimme D
 SCF converges when DIIS error is below 1.0E-04
 using 6 threads for integral computing
 -------------------------------------------------------
 OpenMP Integral computing Module                
 Release: version 1.0, May 2013, Q-Chem Inc. Pittsburgh 
 -------------------------------------------------------
 using 6 threads for integral computing
 -------------------------------------------------------
 OpenMP Integral computing Module                
 Release: version 1.0, May 2013, Q-Chem Inc. Pittsburgh 
 -------------------------------------------------------
 ---------------------------------------
  Cycle       Energy         DIIS Error
 ---------------------------------------
    1    -155.2701662819      9.96E-02
    2    -154.7722732615      1.57E-02
    3    -154.8063777624      3.32E-03
    4    -154.8470498567      2.45E-03
    5    -154.8480041454      5.16E-04 Done RCA. Switching to DIIS
    6    -154.8491995912      3.26E-04
    7    -154.8492379616      4.11E-05 Convergence criterion met
 ---------------------------------------
 SCF time:  CPU 14.16 s  wall 2.38 s
 SCF   energy in the small basis set = -154.84923796
 Total energy in the small basis set = -154.84923796
 ----------------------------------------------------
  Cycle       Energy    
 ----------------------------------------------------
    1     -18.6746326389     -1.87E+01
 Long-range K will be added via erf
 Coulomb attenuation parameter = 0.2 bohr**(-1)
 A restricted hybrid HF-DFT SCF calculation will be
 performed using Relaxed Constraint Minimization + Pulay DIIS
 Exchange:     0.2220 Hartree-Fock + 1.0000 wB97X-D + LR-HF
 Correlation:  1.0000 wB97X-D
 Using Euler-Maclaurin-Lebedev (75,302) quadrature formula
 Dispersion:   Grimme D
 SCF converges when DIIS error is below 1.0E-05
 Basis2 calculation detected. Using small basis as guess for larger.
 SCFMinFind is unable to tell whether the solution found is close.
 Resetting ReadMinima to 0 and attempting to follow guess.
 SCFMinFind following SCF Guess.
 using 6 threads for integral computing
 -------------------------------------------------------
 OpenMP Integral computing Module                
 Release: version 1.0, May 2013, Q-Chem Inc. Pittsburgh 
 -------------------------------------------------------
 using 6 threads for integral computing
 -------------------------------------------------------
 OpenMP Integral computing Module                
 Release: version 1.0, May 2013, Q-Chem Inc. Pittsburgh 
 -------------------------------------------------------
 ---------------------------------------
  Cycle       Energy         DIIS Error
 ---------------------------------------
    1    -154.8739584983      6.00E-03
    2    -154.8688044591      4.49E-03
    3    -154.8907202002      1.05E-03
    4    -154.9210406133      1.15E-03
    5    -154.9226894895      1.89E-04 Done RCA. Switching to DIIS
    6    -154.9247888283      2.30E-04
    7    -154.9249432076      7.86E-06 Convergence criterion met
 ---------------------------------------
 SCF time:  CPU 49.15 s  wall 8.22 s
 SCF   energy in the final basis set = -154.92494321
 Total energy in the final basis set = -154.92494321
 
 --------------------------------------------------------------
 
                    Orbital Energies (a.u.)
 --------------------------------------------------------------
 
 Alpha MOs
 -- Occupied --
-19.2417 -10.3544 -10.2551  -1.0900  -0.8745  -0.6984  -0.6101  -0.5733
 -0.5065  -0.4671  -0.4450  -0.4079  -0.3054
 -- Virtual --
  0.0462   0.0680   0.0890   0.0950   0.1134   0.1285   0.1382   0.1501
  0.1802   0.1895   0.2160   0.2314   0.2466   0.2769   0.2923   0.2982
  0.3178   0.3350   0.3586   0.4013   0.4620   0.4648   0.4884   0.5420
  0.5605   0.5842   0.5857   0.6080   0.6180   0.6267   0.6386   0.6864
  0.7017   0.7483   0.7997   0.8052   0.8567   0.8733   0.9035   0.9550
  0.9678   1.0342   1.0664   1.0963   1.1182   1.1364   1.1620   1.1957
  1.2041   1.2293   1.2994   1.3121   1.3347   1.3787   1.4152   1.4369
  1.4427   1.4611   1.4864   1.4885   1.5312   1.5823   1.5914   1.6360
  1.6827   1.7692   1.8987   2.0107   2.0285   2.2702   2.3062   2.4435
  2.5019   2.5554   2.6154   2.6568   2.6803   2.7411   2.7733   2.7975
  2.8898   2.9057   2.9503   2.9832   2.9907   3.0420   3.0787   3.1070
  3.1178   3.1352   3.1565   3.2180   3.2191   3.2458   3.3076   3.3304
  3.3572   3.4026   3.4179   3.4614   3.4722   3.4999   3.5090   3.5561
  3.5892   3.5976   3.6378   3.6943   3.7191   3.7387   3.7774   3.8170
  3.8259   3.8541   3.8654   3.9021   3.9188   3.9675   4.0260   4.0514
  4.0929   4.1323   4.1762   4.2180   4.2272   4.2547   4.3085   4.3290
  4.3383   4.3702   4.4124   4.4522   4.4987   4.5556   4.6254   4.7224
  4.7737   4.8000   4.8513   4.9708   4.9936   5.0493   5.0754   5.1087
  5.1245   5.1965   5.2106   5.3068   5.3822   5.4326   5.4487   5.4862
  5.5948   5.6244   5.7860   5.8171   6.0244   6.1584   6.2290   6.3037
  6.4595   6.6297   6.7327   6.8949   7.1649   7.2380   7.4085   7.6110
  7.7744   8.1795  24.9614  25.3054  50.4360
 --------------------------------------------------------------
 
 -----------------------------------------------------------------
                    Cartesian Multipole Moments
 -----------------------------------------------------------------
    Charge (ESU x 10^10)
                 0.0000
    Dipole Moment (Debye)
         X       1.0231      Y      -0.5287      Z      -1.4185
       Tot       1.8271
    Quadrupole Moments (Debye-Ang)
        XX     -28.0071     XY       0.8185     YY     -19.7746
        XZ       5.6670     YZ      -2.8925     ZZ     -23.7916
    Octopole Moments (Debye-Ang^2)
       XXX     320.4917    XXY     -13.0770    XYY      86.9535
       YYY     -40.5495    XXZ     -23.9451    XYZ       8.9508
       YYZ      -8.2932    XZZ     107.5306    YZZ     -19.8108
       ZZZ     -14.4209
    Hexadecapole Moments (Debye-Ang^3)
      XXXX   -2843.3816   XXXY     162.5730   XXYY    -421.7294
      XYYY     172.2940   YYYY     -99.8111   XXXZ      87.6876
      XXYZ     -25.2537   XYYZ      25.3065   YYYZ     -12.1104
      XXZZ    -522.5890   XYZZ      83.1200   YYZZ     -40.2429
      XZZZ      36.6483   YZZZ     -11.7117   ZZZZ    -117.8292
 -----------------------------------------------------------------
Archival summary:
1\1\centos77-c1\SP\ProcedureUnspecified\BasisUnspecified\126\shihchen\WedJul2900:13:012020WedJul2900:13:012020\0\\#,ProcedureUnspecified,BasisUnspecified,\\0,1\C\H,1,1.08092\H,1,1.08285,2,114.612\C,1,1.41132,2,121.053,3,-158.707,0\H,4,1.08179,1,118.306,2,-15.8782,0\H,4,1.08237,1,118.247,2,133.406,0\H,4,1.42001,1,73.3671,2,-121.28,0\O,7,1.24537,4,129.64,1,4.34102,0\H,8,0.96364,7,114.27,4,-109.293,0\\\@

 Total job time:  12.76s(wall), 67.11s(cpu) 
 Wed Jul 29 00:13:01 2020

        *************************************************************
        *                                                           *
        *  Thank you very much for using Q-Chem.  Have a nice day.  *
        *                                                           *
        *************************************************************


