                  Welcome to Q-Chem
     A Quantum Leap Into The Future Of Chemistry


 Q-Chem 5.3 (devel), Q-Chem, Inc., Pleasanton, CA (2020)

 Yihan Shao,  Zhengting Gan,  E. Epifanovsky,  A. T. B. Gilbert,  M. Wormit,  
 J. Kussmann,  A. W. Lange,  A. Behn,  Jia Deng,  Xintian Feng,  D. Ghosh,  
 M. Goldey,  P. R. Horn,  L. D. Jacobson,  I. Kaliman,  T. Kus,  A. Landau,  
 Jie Liu,  E. I. Proynov,  R. M. Richard,  R. P. Steele,  E. J. Sundstrom,  
 H. L. Woodcock III,  P. M. Zimmerman,  D. Zuev,  B. Alam,  B. Albrecht,  
 E. Alguire,  S. A. Baeppler,  D. Barton,  Z. Benda,  Y. A. Bernard,  
 E. J. Berquist,  K. B. Bravaya,  H. Burton,  K. Carter-Fenk,  D. Casanova,  
 Chun-Min Chang,  Yunqing Chen,  A. Chien,  K. D. Closser,  M. P. Coons,  
 S. Coriani,  S. Dasgupta,  A. L. Dempwolff,  M. Diedenhofen,  Hainam Do,  
 R. G. Edgar,  Po-Tung Fang,  S. Faraji,  S. Fatehi,  Qingguo Feng,  
 J. Fosso-Tande,  J. Gayvert,  Qinghui Ge,  A. Ghysels,  G. Gidofalvi,  
 J. Gomes,  J. Gonthier,  A. Gunina,  D. Hait,  M. W. D. Hanson-Heine,  
 P. H. P. Harbach,  A. W. Hauser,  M. F. Herbst,  J. E. Herr,  
 E. G. Hohenstein,  Z. C. Holden,  Kerwin Hui,  B. C. Huynh,  T.-C. Jagau,  
 Hyunjun Ji,  B. Kaduk,  K. Khistyaev,  Jaehoon Kim,  P. Klunzinger,  K. Koh,  
 D. Kosenkov,  L. Koulias,  T. Kowalczyk,  C. M. Krauter,  A. Kunitsa,  
 Ka Un Lao,  A. Laurent,  K. V. Lawler,  Joonho Lee,  D. Lefrancois,  
 S. Lehtola,  D. S. Levine,  Yi-Pei Li,  You-Sheng Lin,  Fenglai Liu,  
 Kuan-Yu Liu,  E. Livshits,  M. Loipersberger,  A. Luenser,  P. Manohar,  
 E. Mansoor,  S. F. Manzer,  Shan-Ping Mao,  Yuezhi Mao,  N. Mardirossian,  
 A. V. Marenich,  T. Markovich,  L. A. Martinez-Martinez,  S. A. Maurer,  
 N. J. Mayhall,  S. C. McKenzie,  J.-M. Mewes,  P. Morgante,  A. F. Morrison,  
 J. W. Mullinax,  K. Nanda,  T. S. Nguyen-Beck,  R. Olivares-Amaya,  
 K. J. Oosterbaan,  J. A. Parkhill,  S. K. Paul,  F. Pavosevic,  Zheng Pei,  
 T. M. Perrine,  F. Plasser,  P. Pokhilko,  S. Prager,  A. Prociuk,  
 E. Ramos,  B. Rana,  D. R. Rehn,  F. Rob,  M. Scheurer,  M. Schneider,  
 N. Sergueev,  S. M. Sharada,  S. Sharma,  D. W. Small,  T. Stauch,  
 C. J. Stein,  T. Stein,  Yu-Chuan Su,  S. P. Veccham,  Zhen Tao,  
 A. J. W. Thom,  A. Tkatchenko,  T. Tsuchimochi,  N. M. Tubman,  L. Vogt,  
 M. L. Vidal,  O. Vydrov,  M. A. Watson,  J. Wenzel,  M. de Wergifosse,  
 T. A. Wesolowski,  A. White,  J. Witte,  A. Yamada,  Jun Yang,  K. Yao,  
 S. Yeganeh,  S. R. Yost,  Zhi-Qiang You,  A. Zech,  Igor Ying Zhang,  
 Xing Zhang,  Yan Zhao,  Ying Zhu,  B. R. Brooks,  G. K. L. Chan,  
 C. J. Cramer,  M. S. Gordon,  W. J. Hehre,  A. Klamt,  M. W. Schmidt,  
 C. D. Sherrill,  D. G. Truhlar,  A. Aspuru-Guzik,  R. Baer,  A. T. Bell,  
 N. A. Besley,  Jeng-Da Chai,  A. E. DePrince, III,  R. A. DiStasio Jr.,  
 A. Dreuw,  B. D. Dunietz,  T. R. Furlani,  Chao-Ping Hsu,  Yousung Jung,  
 Jing Kong,  D. S. Lambrecht,  WanZhen Liang,  C. Ochsenfeld,  
 V. A. Rassolov,  L. V. Slipchenko,  J. E. Subotnik,  T. Van Voorhis,  
 J. M. Herbert,  A. I. Krylov,  P. M. W. Gill,  M. Head-Gordon

 Contributors to earlier versions of Q-Chem not listed above: 
 R. D. Adamson,  B. Austin,  J. Baker,  G. J. O. Beran,  K. Brandhorst,  
 S. T. Brown,  E. F. C. Byrd,  A. K. Chakraborty,  C.-L. Cheng,  
 Siu Hung Chien,  D. M. Chipman,  D. L. Crittenden,  H. Dachsel,  
 R. J. Doerksen,  A. D. Dutoi,  L. Fusti-Molnar,  W. A. Goddard III,  
 A. Golubeva-Zadorozhnaya,  S. R. Gwaltney,  G. Hawkins,  A. Heyden,  
 S. Hirata,  G. Kedziora,  F. J. Keil,  C. Kelley,  Jihan Kim,  R. A. King,  
 R. Z. Khaliullin,  P. P. Korambath,  W. Kurlancheek,  A. M. Lee,  M. S. Lee,  
 S. V. Levchenko,  Ching Yeh Lin,  D. Liotard,  R. C. Lochan,  I. Lotan,  
 P. E. Maslen,  N. Nair,  D. P. O'Neill,  D. Neuhauser,  E. Neuscamman,  
 C. M. Oana,  R. Olson,  B. Peters,  R. Peverati,  P. A. Pieniazek,  
 Y. M. Rhee,  J. Ritchie,  M. A. Rohrdanz,  E. Rosta,  N. J. Russ,  
 H. F. Schaefer III,  N. E. Schultz,  N. Shenvi,  A. C. Simmonett,  A. Sodt,  
 D. Stuck,  K. S. Thanthiriwatte,  V. Vanovschi,  Tao Wang,  A. Warshel,  
 C. F. Williams,  Q. Wu,  X. Xu,  W. Zhang

 Please cite Q-Chem as follows:
 Y. Shao et al., Mol. Phys. 113, 184-215 (2015)
 DOI: 10.1080/00268976.2014.952696

 Q-Chem 5.3.0 for Intel X86 EM64T Linux

 Parts of Q-Chem use Armadillo 9.800.1 (Horizon Scraper).
 http://arma.sourceforge.net/

 Q-Chem begins on Wed Jul 29 00:16:15 2020  

Host: centos77-c1
0

     Scratch files written to /tmp/30084.centos77-h1/qchem26264//
Processing $rem in /opt/qchem-5.3.0-intel2020u1//config/preferences:
Processing $rem in /home/shihchengli/.qchemrc:

Checking the input file for inconsistencies... 	...done.

--------------------------------------------------------------
User input:
--------------------------------------------------------------
$rem
   JOBTYPE  sp
   EXCHANGE   omegaB97X-D
   BASIS   6-311+G(2df,2pd)
   UNRESTRICTED   False
   max_scf_cycles   250
   geom_opt_max_cycles   1500
   basis2 6-31G*
   scf_algorithm rca_diis
   SYM_IGNORE  TRUE
   print_input   true
   geom_opt_dmax   80
   pop_mulliken false
   XC_GRID 000075000302
$end

$molecule
0 1
C       -5.5298755009     0.5278557354     -0.0721034487
C       -4.2940624783     1.2081370164     -0.0296390329
H       -5.9772475431     0.3382119519     -1.0392773264
H       -6.2150092365     0.6566509613     0.7551018136
H       -4.5406314443     -0.4448727264     0.2305882365
O       -3.3215909582     -0.2998000294     0.4399620957
H       -4.0070556902     1.7895092054     0.8352377552
H       -3.7770900069     1.4736621576     -0.9433164928
H       -3.0181695390     0.6137829851     0.3963365633
$end
--------------------------------------------------------------
 ----------------------------------------------------------------
             Standard Nuclear Orientation (Angstroms)
    I     Atom           X                Y                Z
 ----------------------------------------------------------------
    1      C      -5.5298755009     0.5278557354    -0.0721034487
    2      C      -4.2940624783     1.2081370164    -0.0296390329
    3      H      -5.9772475431     0.3382119519    -1.0392773264
    4      H      -6.2150092365     0.6566509613     0.7551018136
    5      H      -4.5406314443    -0.4448727264     0.2305882365
    6      O      -3.3215909582    -0.2998000294     0.4399620957
    7      H      -4.0070556902     1.7895092054     0.8352377552
    8      H      -3.7770900069     1.4736621576    -0.9433164928
    9      H      -3.0181695390     0.6137829851     0.3963365633
 ----------------------------------------------------------------
 Nuclear Repulsion Energy =          80.66812253 hartrees
 There are       13 alpha and       13 beta electrons
 Requested basis set is 6-311+G(2df,2pd)
 There are 60 shells and 186 basis functions

 Total QAlloc Memory Limit   2000 MB
 Mega-Array Size       188 MB
 MEM_STATIC part       192 MB

                       Distance Matrix (Angstroms)
             C (  1)   C (  2)   H (  3)   H (  4)   H (  5)   O (  6)
   C (  2)  1.411318
   H (  3)  1.082373  2.146917
   H (  4)  1.081788  2.147089  1.837860
   H (  5)  1.420009  1.691436  2.071146  2.071717
   O (  6)  2.413244  1.854751  3.106078  3.063655  1.245369
   H (  7)  2.175780  1.080916  3.082487  2.482911  2.375451  2.234126
   H (  8)  2.173895  1.082853  2.477731  3.081490  2.375252  2.294800
   H (  9)  2.556460  1.470583  3.300465  3.217194  1.861750  0.963640
             H (  7)   H (  8)
   H (  8)  1.820961
   H (  9)  1.597768  1.763526
 
 A cutoff of  1.0D-09 yielded   1785 shell pairs
 There are     17307 function pairs (     21500 Cartesian)
 Smallest overlap matrix eigenvalue = 8.55E-05

 Scale SEOQF with 1.000000e-02/1.000000e-01/1.000000e-01

 Standard Electronic Orientation quadrupole field applied
 Nucleus-field energy     =     0.0000000026 hartrees
 Requested basis set is 6-31G(d)
 There are 24 shells and 54 basis functions
 A cutoff of  1.0D-09 yielded    297 shell pairs
 There are      1548 function pairs (      1731 Cartesian)
 Smallest overlap matrix eigenvalue = 6.80E-03
 Guess from superposition of atomic densities
 Warning:  Energy on first SCF cycle will be non-variational
 SAD guess density has 26.000000 electrons
 Long-range K will be added via erf
 Coulomb attenuation parameter = 0.2 bohr**(-1)
 A restricted hybrid HF-DFT SCF calculation will be
 performed using Relaxed Constraint Minimization + Pulay DIIS
 Exchange:     0.2220 Hartree-Fock + 1.0000 wB97X-D + LR-HF
 Correlation:  1.0000 wB97X-D
 Using Euler-Maclaurin-Lebedev (75,302) quadrature formula
 Dispersion:   Grimme D
 SCF converges when DIIS error is below 1.0E-04
 using 6 threads for integral computing
 -------------------------------------------------------
 OpenMP Integral computing Module                
 Release: version 1.0, May 2013, Q-Chem Inc. Pittsburgh 
 -------------------------------------------------------
 using 6 threads for integral computing
 -------------------------------------------------------
 OpenMP Integral computing Module                
 Release: version 1.0, May 2013, Q-Chem Inc. Pittsburgh 
 -------------------------------------------------------
 ---------------------------------------
  Cycle       Energy         DIIS Error
 ---------------------------------------
    1    -155.4276976933      1.04E-01
    2    -154.6840666356      1.85E-02
    3    -154.7284463143      3.83E-03
    4    -154.7874294150      2.30E-03
    5    -154.7885063887      4.85E-04 Done RCA. Switching to DIIS
    6    -154.7894379078      5.20E-04
    7    -154.7895220765      5.71E-05 Convergence criterion met
 ---------------------------------------
 SCF time:  CPU 16.08 s  wall 2.70 s
 SCF   energy in the small basis set = -154.78952208
 Total energy in the small basis set = -154.78952208
 ----------------------------------------------------
  Cycle       Energy    
 ----------------------------------------------------
    1     -18.7101470087     -1.87E+01
 Long-range K will be added via erf
 Coulomb attenuation parameter = 0.2 bohr**(-1)
 A restricted hybrid HF-DFT SCF calculation will be
 performed using Relaxed Constraint Minimization + Pulay DIIS
 Exchange:     0.2220 Hartree-Fock + 1.0000 wB97X-D + LR-HF
 Correlation:  1.0000 wB97X-D
 Using Euler-Maclaurin-Lebedev (75,302) quadrature formula
 Dispersion:   Grimme D
 SCF converges when DIIS error is below 1.0E-05
 Basis2 calculation detected. Using small basis as guess for larger.
 SCFMinFind is unable to tell whether the solution found is close.
 Resetting ReadMinima to 0 and attempting to follow guess.
 SCFMinFind following SCF Guess.
 using 6 threads for integral computing
 -------------------------------------------------------
 OpenMP Integral computing Module                
 Release: version 1.0, May 2013, Q-Chem Inc. Pittsburgh 
 -------------------------------------------------------
 using 6 threads for integral computing
 -------------------------------------------------------
 OpenMP Integral computing Module                
 Release: version 1.0, May 2013, Q-Chem Inc. Pittsburgh 
 -------------------------------------------------------
 ---------------------------------------
  Cycle       Energy         DIIS Error
 ---------------------------------------
    1    -154.8132821990      6.19E-03
    2    -154.8016296324      5.04E-03
    3    -154.8289181077      1.23E-03
    4    -154.8673114622      1.32E-03
    5    -154.8695810501      1.93E-04 Done RCA. Switching to DIIS
    6    -154.8725847920      2.26E-04
    7    -154.8727388169      1.84E-05
    8    -154.8727435758      4.89E-06 Convergence criterion met
 ---------------------------------------
 SCF time:  CPU 64.34 s  wall 10.76 s
 SCF   energy in the final basis set = -154.87274358
 Total energy in the final basis set = -154.87274358
 
 --------------------------------------------------------------
 
                    Orbital Energies (a.u.)
 --------------------------------------------------------------
 
 Alpha MOs
 -- Occupied --
-19.2205 -10.3865 -10.2671  -1.1030  -0.8830  -0.7408  -0.6020  -0.5922
 -0.5168  -0.4914  -0.4688  -0.3774  -0.3010
 -- Virtual --
  0.0215   0.0610   0.0829   0.0921   0.1122   0.1253   0.1298   0.1419
  0.1635   0.1955   0.2067   0.2237   0.2668   0.2725   0.2904   0.3133
  0.3158   0.3247   0.3641   0.3950   0.4370   0.4550   0.4959   0.5244
  0.5359   0.5481   0.5498   0.5896   0.5932   0.6282   0.6458   0.6690
  0.6889   0.7473   0.7989   0.8223   0.8382   0.9245   0.9517   0.9727
  1.0003   1.0015   1.0823   1.1199   1.1501   1.1695   1.1764   1.2149
  1.2241   1.2374   1.2507   1.2843   1.3561   1.3722   1.3781   1.4250
  1.4303   1.4429   1.4677   1.4838   1.5002   1.5690   1.6293   1.6766
  1.6998   1.7557   1.9594   2.0062   2.0833   2.2619   2.3622   2.3774
  2.4652   2.5652   2.6241   2.6586   2.6932   2.6950   2.7454   2.8207
  2.8533   2.9009   2.9197   2.9642   2.9773   3.0010   3.0508   3.0874
  3.1231   3.1714   3.1957   3.2147   3.2581   3.2725   3.3265   3.3599
  3.3812   3.3991   3.4278   3.4429   3.4765   3.5015   3.5158   3.5428
  3.5862   3.6319   3.6579   3.7116   3.7367   3.7431   3.8132   3.8333
  3.8661   3.8978   3.9554   3.9641   3.9783   4.0403   4.0669   4.1115
  4.1489   4.1764   4.2356   4.2538   4.2715   4.3085   4.3286   4.4060
  4.4232   4.4581   4.4696   4.5626   4.5917   4.6747   4.6875   4.7609
  4.8447   4.8523   4.9505   4.9922   5.0355   5.0533   5.1097   5.1460
  5.1945   5.2162   5.2656   5.2772   5.3521   5.3785   5.4372   5.5111
  5.5848   5.6956   5.8505   5.9176   6.0328   6.2041   6.2411   6.2556
  6.4407   6.6548   6.8372   6.8996   7.1863   7.2086   7.4770   7.5971
  7.7813   8.0310  24.9679  25.2979  50.4765
 --------------------------------------------------------------
 
 -----------------------------------------------------------------
                    Cartesian Multipole Moments
 -----------------------------------------------------------------
    Charge (ESU x 10^10)
                -0.0000
    Dipole Moment (Debye)
         X      -0.5234      Y       2.8134      Z      -0.5803
       Tot       2.9199
    Quadrupole Moments (Debye-Ang)
        XX     -17.9917     XY      -8.4114     YY     -18.6315
        XZ       1.4826     YZ       1.0387     ZZ     -20.2058
    Octopole Moments (Debye-Ang^2)
       XXX     267.1550    XXY      12.4113    XYY      86.2361
       YYY     -28.2278    XXZ      -4.4626    XYZ      -4.4823
       YYZ      -0.7920    XZZ      87.7400    YZZ      -7.6147
       ZZZ      -8.3660
    Hexadecapole Moments (Debye-Ang^3)
      XXXX   -2578.3675   XXXY     105.1871   XXYY    -442.0427
      XYYY     142.9444   YYYY    -101.8029   XXXZ       9.0947
      XXYZ      22.7366   XYYZ      -0.7627   YYYZ       5.0520
      XXZZ    -410.6053   XYZZ      39.4512   YYZZ     -21.9054
      XZZZ      24.6055   YZZZ       3.7049   ZZZZ     -42.2764
 -----------------------------------------------------------------
Archival summary:
1\1\centos77-c1\SP\ProcedureUnspecified\BasisUnspecified\126\shihchen\WedJul2900:16:312020WedJul2900:16:312020\0\\#,ProcedureUnspecified,BasisUnspecified,\\0,1\C\H,1,1.08092\H,1,1.08285,2,114.612\C,1,1.41132,2,121.053,3,-158.707,0\H,4,1.08179,1,118.306,2,4.12185,0\H,4,1.08237,1,118.247,2,153.406,0\H,4,1.42001,1,73.3671,2,-101.28,0\O,7,1.24537,4,129.64,1,4.34102,0\H,8,0.96364,7,114.27,4,0.707472,0\\\@

 Total job time:  16.06s(wall), 84.99s(cpu) 
 Wed Jul 29 00:16:31 2020

        *************************************************************
        *                                                           *
        *  Thank you very much for using Q-Chem.  Have a nice day.  *
        *                                                           *
        *************************************************************


