                  Welcome to Q-Chem
     A Quantum Leap Into The Future Of Chemistry


 Q-Chem 5.3 (devel), Q-Chem, Inc., Pleasanton, CA (2020)

 Yihan Shao,  Zhengting Gan,  E. Epifanovsky,  A. T. B. Gilbert,  M. Wormit,  
 J. Kussmann,  A. W. Lange,  A. Behn,  Jia Deng,  Xintian Feng,  D. Ghosh,  
 M. Goldey,  P. R. Horn,  L. D. Jacobson,  I. Kaliman,  T. Kus,  A. Landau,  
 Jie Liu,  E. I. Proynov,  R. M. Richard,  R. P. Steele,  E. J. Sundstrom,  
 H. L. Woodcock III,  P. M. Zimmerman,  D. Zuev,  B. Alam,  B. Albrecht,  
 E. Alguire,  S. A. Baeppler,  D. Barton,  Z. Benda,  Y. A. Bernard,  
 E. J. Berquist,  K. B. Bravaya,  H. Burton,  K. Carter-Fenk,  D. Casanova,  
 Chun-Min Chang,  Yunqing Chen,  A. Chien,  K. D. Closser,  M. P. Coons,  
 S. Coriani,  S. Dasgupta,  A. L. Dempwolff,  M. Diedenhofen,  Hainam Do,  
 R. G. Edgar,  Po-Tung Fang,  S. Faraji,  S. Fatehi,  Qingguo Feng,  
 J. Fosso-Tande,  J. Gayvert,  Qinghui Ge,  A. Ghysels,  G. Gidofalvi,  
 J. Gomes,  J. Gonthier,  A. Gunina,  D. Hait,  M. W. D. Hanson-Heine,  
 P. H. P. Harbach,  A. W. Hauser,  M. F. Herbst,  J. E. Herr,  
 E. G. Hohenstein,  Z. C. Holden,  Kerwin Hui,  B. C. Huynh,  T.-C. Jagau,  
 Hyunjun Ji,  B. Kaduk,  K. Khistyaev,  Jaehoon Kim,  P. Klunzinger,  K. Koh,  
 D. Kosenkov,  L. Koulias,  T. Kowalczyk,  C. M. Krauter,  A. Kunitsa,  
 Ka Un Lao,  A. Laurent,  K. V. Lawler,  Joonho Lee,  D. Lefrancois,  
 S. Lehtola,  D. S. Levine,  Yi-Pei Li,  You-Sheng Lin,  Fenglai Liu,  
 Kuan-Yu Liu,  E. Livshits,  M. Loipersberger,  A. Luenser,  P. Manohar,  
 E. Mansoor,  S. F. Manzer,  Shan-Ping Mao,  Yuezhi Mao,  N. Mardirossian,  
 A. V. Marenich,  T. Markovich,  L. A. Martinez-Martinez,  S. A. Maurer,  
 N. J. Mayhall,  S. C. McKenzie,  J.-M. Mewes,  P. Morgante,  A. F. Morrison,  
 J. W. Mullinax,  K. Nanda,  T. S. Nguyen-Beck,  R. Olivares-Amaya,  
 K. J. Oosterbaan,  J. A. Parkhill,  S. K. Paul,  F. Pavosevic,  Zheng Pei,  
 T. M. Perrine,  F. Plasser,  P. Pokhilko,  S. Prager,  A. Prociuk,  
 E. Ramos,  B. Rana,  D. R. Rehn,  F. Rob,  M. Scheurer,  M. Schneider,  
 N. Sergueev,  S. M. Sharada,  S. Sharma,  D. W. Small,  T. Stauch,  
 C. J. Stein,  T. Stein,  Yu-Chuan Su,  S. P. Veccham,  Zhen Tao,  
 A. J. W. Thom,  A. Tkatchenko,  T. Tsuchimochi,  N. M. Tubman,  L. Vogt,  
 M. L. Vidal,  O. Vydrov,  M. A. Watson,  J. Wenzel,  M. de Wergifosse,  
 T. A. Wesolowski,  A. White,  J. Witte,  A. Yamada,  Jun Yang,  K. Yao,  
 S. Yeganeh,  S. R. Yost,  Zhi-Qiang You,  A. Zech,  Igor Ying Zhang,  
 Xing Zhang,  Yan Zhao,  Ying Zhu,  B. R. Brooks,  G. K. L. Chan,  
 C. J. Cramer,  M. S. Gordon,  W. J. Hehre,  A. Klamt,  M. W. Schmidt,  
 C. D. Sherrill,  D. G. Truhlar,  A. Aspuru-Guzik,  R. Baer,  A. T. Bell,  
 N. A. Besley,  Jeng-Da Chai,  A. E. DePrince, III,  R. A. DiStasio Jr.,  
 A. Dreuw,  B. D. Dunietz,  T. R. Furlani,  Chao-Ping Hsu,  Yousung Jung,  
 Jing Kong,  D. S. Lambrecht,  WanZhen Liang,  C. Ochsenfeld,  
 V. A. Rassolov,  L. V. Slipchenko,  J. E. Subotnik,  T. Van Voorhis,  
 J. M. Herbert,  A. I. Krylov,  P. M. W. Gill,  M. Head-Gordon

 Contributors to earlier versions of Q-Chem not listed above: 
 R. D. Adamson,  B. Austin,  J. Baker,  G. J. O. Beran,  K. Brandhorst,  
 S. T. Brown,  E. F. C. Byrd,  A. K. Chakraborty,  C.-L. Cheng,  
 Siu Hung Chien,  D. M. Chipman,  D. L. Crittenden,  H. Dachsel,  
 R. J. Doerksen,  A. D. Dutoi,  L. Fusti-Molnar,  W. A. Goddard III,  
 A. Golubeva-Zadorozhnaya,  S. R. Gwaltney,  G. Hawkins,  A. Heyden,  
 S. Hirata,  G. Kedziora,  F. J. Keil,  C. Kelley,  Jihan Kim,  R. A. King,  
 R. Z. Khaliullin,  P. P. Korambath,  W. Kurlancheek,  A. M. Lee,  M. S. Lee,  
 S. V. Levchenko,  Ching Yeh Lin,  D. Liotard,  R. C. Lochan,  I. Lotan,  
 P. E. Maslen,  N. Nair,  D. P. O'Neill,  D. Neuhauser,  E. Neuscamman,  
 C. M. Oana,  R. Olson,  B. Peters,  R. Peverati,  P. A. Pieniazek,  
 Y. M. Rhee,  J. Ritchie,  M. A. Rohrdanz,  E. Rosta,  N. J. Russ,  
 H. F. Schaefer III,  N. E. Schultz,  N. Shenvi,  A. C. Simmonett,  A. Sodt,  
 D. Stuck,  K. S. Thanthiriwatte,  V. Vanovschi,  Tao Wang,  A. Warshel,  
 C. F. Williams,  Q. Wu,  X. Xu,  W. Zhang

 Please cite Q-Chem as follows:
 Y. Shao et al., Mol. Phys. 113, 184-215 (2015)
 DOI: 10.1080/00268976.2014.952696

 Q-Chem 5.3.0 for Intel X86 EM64T Linux

 Parts of Q-Chem use Armadillo 9.800.1 (Horizon Scraper).
 http://arma.sourceforge.net/

 Q-Chem begins on Wed Jul 29 00:20:41 2020  

Host: centos77-c1
0

     Scratch files written to /tmp/30084.centos77-h1/qchem27035//
Processing $rem in /opt/qchem-5.3.0-intel2020u1//config/preferences:
Processing $rem in /home/shihchengli/.qchemrc:

Checking the input file for inconsistencies... 	...done.

--------------------------------------------------------------
User input:
--------------------------------------------------------------
$rem
   JOBTYPE  sp
   EXCHANGE   omegaB97X-D
   BASIS   6-311+G(2df,2pd)
   UNRESTRICTED   False
   max_scf_cycles   250
   geom_opt_max_cycles   1500
   basis2 6-31G*
   scf_algorithm rca_diis
   SYM_IGNORE  TRUE
   print_input   true
   geom_opt_dmax   80
   pop_mulliken false
   XC_GRID 000075000302
$end

$molecule
0 1
C       -5.5477610561     0.5541177145     -0.0871148870
C       -4.4118023580     1.3836983474     -0.2020648073
H       -5.9602142282     0.1223420386     -0.9898795102
H       -6.2492043715     0.7526899846     0.7121418433
H       -4.4418126663     -0.2040104567     0.3803747444
O       -3.2535883435     0.1358649769     0.5338376233
H       -4.2088878931     2.1554378653     0.5270594713
H       -3.9280682145     1.5297008087     -1.1597992158
H       -2.6793932662     -0.5667040223     0.8583349014
$end
--------------------------------------------------------------
 ----------------------------------------------------------------
             Standard Nuclear Orientation (Angstroms)
    I     Atom           X                Y                Z
 ----------------------------------------------------------------
    1      C      -5.5477610561     0.5541177145    -0.0871148870
    2      C      -4.4118023580     1.3836983474    -0.2020648073
    3      H      -5.9602142282     0.1223420386    -0.9898795102
    4      H      -6.2492043715     0.7526899846     0.7121418433
    5      H      -4.4418126663    -0.2040104567     0.3803747444
    6      O      -3.2535883435     0.1358649769     0.5338376233
    7      H      -4.2088878931     2.1554378653     0.5270594713
    8      H      -3.9280682145     1.5297008087    -1.1597992158
    9      H      -2.6793932662    -0.5667040223     0.8583349014
 ----------------------------------------------------------------
 Nuclear Repulsion Energy =          79.03683768 hartrees
 There are       13 alpha and       13 beta electrons
 Requested basis set is 6-311+G(2df,2pd)
 There are 60 shells and 186 basis functions

 Total QAlloc Memory Limit   2000 MB
 Mega-Array Size       188 MB
 MEM_STATIC part       192 MB

                       Distance Matrix (Angstroms)
             C (  1)   C (  2)   H (  3)   H (  4)   H (  5)   O (  6)
   C (  2)  1.411318
   H (  3)  1.082373  2.146917
   H (  4)  1.081788  2.147089  1.837860
   H (  5)  1.420009  1.691436  2.071146  2.071717
   O (  6)  2.413244  1.854751  3.106078  3.063655  1.245369
   H (  7)  2.175780  1.080916  3.082487  2.482911  2.375451  2.234126
   H (  8)  2.173895  1.082853  2.477731  3.081490  2.375252  2.294800
   H (  9)  3.221436  2.815983  3.828115  3.808638  1.861750  0.963640
             H (  7)   H (  8)
   H (  8)  1.820961
   H (  9)  3.139929  3.166539
 
 A cutoff of  1.0D-09 yielded   1763 shell pairs
 There are     17146 function pairs (     21306 Cartesian)
 Smallest overlap matrix eigenvalue = 9.00E-05

 Scale SEOQF with 1.000000e-02/1.000000e-01/1.000000e-01

 Standard Electronic Orientation quadrupole field applied
 Nucleus-field energy     =     0.0000000027 hartrees
 Requested basis set is 6-31G(d)
 There are 24 shells and 54 basis functions
 A cutoff of  1.0D-09 yielded    296 shell pairs
 There are      1547 function pairs (      1730 Cartesian)
 Smallest overlap matrix eigenvalue = 6.60E-03
 Guess from superposition of atomic densities
 Warning:  Energy on first SCF cycle will be non-variational
 SAD guess density has 26.000000 electrons
 Long-range K will be added via erf
 Coulomb attenuation parameter = 0.2 bohr**(-1)
 A restricted hybrid HF-DFT SCF calculation will be
 performed using Relaxed Constraint Minimization + Pulay DIIS
 Exchange:     0.2220 Hartree-Fock + 1.0000 wB97X-D + LR-HF
 Correlation:  1.0000 wB97X-D
 Using Euler-Maclaurin-Lebedev (75,302) quadrature formula
 Dispersion:   Grimme D
 SCF converges when DIIS error is below 1.0E-04
 using 6 threads for integral computing
 -------------------------------------------------------
 OpenMP Integral computing Module                
 Release: version 1.0, May 2013, Q-Chem Inc. Pittsburgh 
 -------------------------------------------------------
 using 6 threads for integral computing
 -------------------------------------------------------
 OpenMP Integral computing Module                
 Release: version 1.0, May 2013, Q-Chem Inc. Pittsburgh 
 -------------------------------------------------------
 ---------------------------------------
  Cycle       Energy         DIIS Error
 ---------------------------------------
    1    -155.2481635055      9.87E-02
    2    -154.7560163475      1.67E-02
    3    -154.7934286990      2.94E-03
    4    -154.8387697883      1.73E-03
    5    -154.8393598297      3.89E-04 Done RCA. Switching to DIIS
    6    -154.8399409501      3.79E-04
    7    -154.8399858453      4.42E-05 Convergence criterion met
 ---------------------------------------
 SCF time:  CPU 15.30 s  wall 2.57 s
 SCF   energy in the small basis set = -154.83998585
 Total energy in the small basis set = -154.83998585
 ----------------------------------------------------
  Cycle       Energy    
 ----------------------------------------------------
    1     -18.6811720684     -1.87E+01
 Long-range K will be added via erf
 Coulomb attenuation parameter = 0.2 bohr**(-1)
 A restricted hybrid HF-DFT SCF calculation will be
 performed using Relaxed Constraint Minimization + Pulay DIIS
 Exchange:     0.2220 Hartree-Fock + 1.0000 wB97X-D + LR-HF
 Correlation:  1.0000 wB97X-D
 Using Euler-Maclaurin-Lebedev (75,302) quadrature formula
 Dispersion:   Grimme D
 SCF converges when DIIS error is below 1.0E-05
 Basis2 calculation detected. Using small basis as guess for larger.
 SCFMinFind is unable to tell whether the solution found is close.
 Resetting ReadMinima to 0 and attempting to follow guess.
 SCFMinFind following SCF Guess.
 using 6 threads for integral computing
 -------------------------------------------------------
 OpenMP Integral computing Module                
 Release: version 1.0, May 2013, Q-Chem Inc. Pittsburgh 
 -------------------------------------------------------
 using 6 threads for integral computing
 -------------------------------------------------------
 OpenMP Integral computing Module                
 Release: version 1.0, May 2013, Q-Chem Inc. Pittsburgh 
 -------------------------------------------------------
 ---------------------------------------
  Cycle       Energy         DIIS Error
 ---------------------------------------
    1    -154.8623103336      6.15E-03
    2    -154.8580787368      4.77E-03
    3    -154.8830119299      9.93E-04 Done RCA. Switching to DIIS
    4    -154.9170993980      1.02E-03
    5    -154.9200869857      9.14E-05
    6    -154.9201289144      2.12E-05
    7    -154.9201331999      1.10E-05
    8    -154.9201340228      3.22E-06 Convergence criterion met
 ---------------------------------------
 SCF time:  CPU 48.30 s  wall 8.08 s
 SCF   energy in the final basis set = -154.92013402
 Total energy in the final basis set = -154.92013402
 
 --------------------------------------------------------------
 
                    Orbital Energies (a.u.)
 --------------------------------------------------------------
 
 Alpha MOs
 -- Occupied --
-19.2143 -10.3556 -10.2637  -1.0642  -0.8783  -0.7008  -0.6047  -0.5706
 -0.5110  -0.4541  -0.4368  -0.3718  -0.3187
 -- Virtual --
  0.0344   0.0757   0.0900   0.1013   0.1117   0.1303   0.1400   0.1507
  0.1658   0.1871   0.2202   0.2482   0.2688   0.2695   0.2859   0.3229
  0.3251   0.3559   0.3855   0.4093   0.4537   0.4631   0.4859   0.5383
  0.5427   0.5751   0.5893   0.6159   0.6182   0.6236   0.6430   0.6822
  0.6887   0.7746   0.8179   0.8407   0.8645   0.8998   0.9161   0.9606
  1.0083   1.0170   1.0540   1.0680   1.1107   1.1778   1.2092   1.2207
  1.2480   1.2759   1.2889   1.2996   1.3310   1.3777   1.3918   1.4092
  1.4396   1.4497   1.4818   1.4851   1.5290   1.5644   1.5952   1.6568
  1.7142   1.8135   1.8282   2.0012   2.0353   2.2212   2.3487   2.4377
  2.4760   2.5792   2.6336   2.6512   2.6756   2.7260   2.7885   2.8215
  2.8877   2.9487   2.9634   2.9711   2.9923   3.0439   3.0561   3.0724
  3.0931   3.1377   3.1792   3.1873   3.2165   3.2686   3.3255   3.3334
  3.3436   3.3809   3.4101   3.4471   3.4625   3.5068   3.5501   3.5541
  3.5624   3.5791   3.6487   3.6606   3.7019   3.7545   3.7771   3.8312
  3.8472   3.8616   3.8890   3.8921   3.9098   3.9776   4.0388   4.0512
  4.0892   4.1288   4.1830   4.2090   4.2146   4.2824   4.2977   4.3001
  4.3476   4.3880   4.4145   4.5124   4.5426   4.5837   4.6425   4.7166
  4.7716   4.8194   4.8705   4.9693   4.9940   5.0068   5.0944   5.1180
  5.1757   5.2112   5.2471   5.2685   5.2855   5.3695   5.4357   5.4817
  5.5873   5.6255   5.7829   5.8539   5.9903   6.1955   6.2259   6.2691
  6.4593   6.6537   6.7715   6.8724   7.0673   7.2338   7.2933   7.6463
  7.8676   8.1665  24.9543  25.3054  50.5156
 --------------------------------------------------------------
 
 -----------------------------------------------------------------
                    Cartesian Multipole Moments
 -----------------------------------------------------------------
    Charge (ESU x 10^10)
                 0.0000
    Dipole Moment (Debye)
         X      -0.2090      Y       0.2436      Z      -0.3024
       Tot       0.4410
    Quadrupole Moments (Debye-Ang)
        XX     -19.1761     XY      -1.9514     YY     -17.8357
        XZ       1.2009     YZ      -0.8791     ZZ     -19.8589
    Octopole Moments (Debye-Ang^2)
       XXX     269.3350    XXY      -6.0344    XYY      83.1107
       YYY     -36.4412    XXZ      -3.9831    XYZ       0.1594
       YYZ      -0.0886    XZZ      88.1658    YZZ     -13.2608
       ZZZ      -7.2840
    Hexadecapole Moments (Debye-Ang^3)
      XXXX   -2584.8136   XXXY     177.9838   XXYY    -433.3601
      XYYY     175.4999   YYYY    -114.2990   XXXZ      -3.4262
      XXYZ      15.7867   XYYZ      -5.3747   YYYZ       8.1290
      XXZZ    -421.2232   XYZZ      61.0818   YYZZ     -26.0184
      XZZZ      16.5880   YZZZ       3.5579   ZZZZ     -49.0477
 -----------------------------------------------------------------
Archival summary:
1\1\centos77-c1\SP\ProcedureUnspecified\BasisUnspecified\126\shihchen\WedJul2900:20:542020WedJul2900:20:542020\0\\#,ProcedureUnspecified,BasisUnspecified,\\0,1\C\H,1,1.08092\H,1,1.08285,2,114.612\C,1,1.41132,2,121.053,3,-158.707,0\H,4,1.08179,1,118.306,2,4.12185,0\H,4,1.08237,1,118.247,2,153.406,0\H,4,1.42001,1,73.3671,2,-101.28,0\O,7,1.24537,4,129.64,1,4.34102,0\H,8,0.96364,7,114.27,4,-179.293,0\\\@

 Total job time:  12.88s(wall), 67.60s(cpu) 
 Wed Jul 29 00:20:54 2020

        *************************************************************
        *                                                           *
        *  Thank you very much for using Q-Chem.  Have a nice day.  *
        *                                                           *
        *************************************************************


