                  Welcome to Q-Chem
     A Quantum Leap Into The Future Of Chemistry


 Q-Chem 5.3 (devel), Q-Chem, Inc., Pleasanton, CA (2020)

 Yihan Shao,  Zhengting Gan,  E. Epifanovsky,  A. T. B. Gilbert,  M. Wormit,  
 J. Kussmann,  A. W. Lange,  A. Behn,  Jia Deng,  Xintian Feng,  D. Ghosh,  
 M. Goldey,  P. R. Horn,  L. D. Jacobson,  I. Kaliman,  T. Kus,  A. Landau,  
 Jie Liu,  E. I. Proynov,  R. M. Richard,  R. P. Steele,  E. J. Sundstrom,  
 H. L. Woodcock III,  P. M. Zimmerman,  D. Zuev,  B. Alam,  B. Albrecht,  
 E. Alguire,  S. A. Baeppler,  D. Barton,  Z. Benda,  Y. A. Bernard,  
 E. J. Berquist,  K. B. Bravaya,  H. Burton,  K. Carter-Fenk,  D. Casanova,  
 Chun-Min Chang,  Yunqing Chen,  A. Chien,  K. D. Closser,  M. P. Coons,  
 S. Coriani,  S. Dasgupta,  A. L. Dempwolff,  M. Diedenhofen,  Hainam Do,  
 R. G. Edgar,  Po-Tung Fang,  S. Faraji,  S. Fatehi,  Qingguo Feng,  
 J. Fosso-Tande,  J. Gayvert,  Qinghui Ge,  A. Ghysels,  G. Gidofalvi,  
 J. Gomes,  J. Gonthier,  A. Gunina,  D. Hait,  M. W. D. Hanson-Heine,  
 P. H. P. Harbach,  A. W. Hauser,  M. F. Herbst,  J. E. Herr,  
 E. G. Hohenstein,  Z. C. Holden,  Kerwin Hui,  B. C. Huynh,  T.-C. Jagau,  
 Hyunjun Ji,  B. Kaduk,  K. Khistyaev,  Jaehoon Kim,  P. Klunzinger,  K. Koh,  
 D. Kosenkov,  L. Koulias,  T. Kowalczyk,  C. M. Krauter,  A. Kunitsa,  
 Ka Un Lao,  A. Laurent,  K. V. Lawler,  Joonho Lee,  D. Lefrancois,  
 S. Lehtola,  D. S. Levine,  Yi-Pei Li,  You-Sheng Lin,  Fenglai Liu,  
 Kuan-Yu Liu,  E. Livshits,  M. Loipersberger,  A. Luenser,  P. Manohar,  
 E. Mansoor,  S. F. Manzer,  Shan-Ping Mao,  Yuezhi Mao,  N. Mardirossian,  
 A. V. Marenich,  T. Markovich,  L. A. Martinez-Martinez,  S. A. Maurer,  
 N. J. Mayhall,  S. C. McKenzie,  J.-M. Mewes,  P. Morgante,  A. F. Morrison,  
 J. W. Mullinax,  K. Nanda,  T. S. Nguyen-Beck,  R. Olivares-Amaya,  
 K. J. Oosterbaan,  J. A. Parkhill,  S. K. Paul,  F. Pavosevic,  Zheng Pei,  
 T. M. Perrine,  F. Plasser,  P. Pokhilko,  S. Prager,  A. Prociuk,  
 E. Ramos,  B. Rana,  D. R. Rehn,  F. Rob,  M. Scheurer,  M. Schneider,  
 N. Sergueev,  S. M. Sharada,  S. Sharma,  D. W. Small,  T. Stauch,  
 C. J. Stein,  T. Stein,  Yu-Chuan Su,  S. P. Veccham,  Zhen Tao,  
 A. J. W. Thom,  A. Tkatchenko,  T. Tsuchimochi,  N. M. Tubman,  L. Vogt,  
 M. L. Vidal,  O. Vydrov,  M. A. Watson,  J. Wenzel,  M. de Wergifosse,  
 T. A. Wesolowski,  A. White,  J. Witte,  A. Yamada,  Jun Yang,  K. Yao,  
 S. Yeganeh,  S. R. Yost,  Zhi-Qiang You,  A. Zech,  Igor Ying Zhang,  
 Xing Zhang,  Yan Zhao,  Ying Zhu,  B. R. Brooks,  G. K. L. Chan,  
 C. J. Cramer,  M. S. Gordon,  W. J. Hehre,  A. Klamt,  M. W. Schmidt,  
 C. D. Sherrill,  D. G. Truhlar,  A. Aspuru-Guzik,  R. Baer,  A. T. Bell,  
 N. A. Besley,  Jeng-Da Chai,  A. E. DePrince, III,  R. A. DiStasio Jr.,  
 A. Dreuw,  B. D. Dunietz,  T. R. Furlani,  Chao-Ping Hsu,  Yousung Jung,  
 Jing Kong,  D. S. Lambrecht,  WanZhen Liang,  C. Ochsenfeld,  
 V. A. Rassolov,  L. V. Slipchenko,  J. E. Subotnik,  T. Van Voorhis,  
 J. M. Herbert,  A. I. Krylov,  P. M. W. Gill,  M. Head-Gordon

 Contributors to earlier versions of Q-Chem not listed above: 
 R. D. Adamson,  B. Austin,  J. Baker,  G. J. O. Beran,  K. Brandhorst,  
 S. T. Brown,  E. F. C. Byrd,  A. K. Chakraborty,  C.-L. Cheng,  
 Siu Hung Chien,  D. M. Chipman,  D. L. Crittenden,  H. Dachsel,  
 R. J. Doerksen,  A. D. Dutoi,  L. Fusti-Molnar,  W. A. Goddard III,  
 A. Golubeva-Zadorozhnaya,  S. R. Gwaltney,  G. Hawkins,  A. Heyden,  
 S. Hirata,  G. Kedziora,  F. J. Keil,  C. Kelley,  Jihan Kim,  R. A. King,  
 R. Z. Khaliullin,  P. P. Korambath,  W. Kurlancheek,  A. M. Lee,  M. S. Lee,  
 S. V. Levchenko,  Ching Yeh Lin,  D. Liotard,  R. C. Lochan,  I. Lotan,  
 P. E. Maslen,  N. Nair,  D. P. O'Neill,  D. Neuhauser,  E. Neuscamman,  
 C. M. Oana,  R. Olson,  B. Peters,  R. Peverati,  P. A. Pieniazek,  
 Y. M. Rhee,  J. Ritchie,  M. A. Rohrdanz,  E. Rosta,  N. J. Russ,  
 H. F. Schaefer III,  N. E. Schultz,  N. Shenvi,  A. C. Simmonett,  A. Sodt,  
 D. Stuck,  K. S. Thanthiriwatte,  V. Vanovschi,  Tao Wang,  A. Warshel,  
 C. F. Williams,  Q. Wu,  X. Xu,  W. Zhang

 Please cite Q-Chem as follows:
 Y. Shao et al., Mol. Phys. 113, 184-215 (2015)
 DOI: 10.1080/00268976.2014.952696

 Q-Chem 5.3.0 for Intel X86 EM64T Linux

 Parts of Q-Chem use Armadillo 9.800.1 (Horizon Scraper).
 http://arma.sourceforge.net/

 Q-Chem begins on Wed Jul 29 00:21:07 2020  

Host: centos77-c1
0

     Scratch files written to /tmp/30084.centos77-h1/qchem27113//
Processing $rem in /opt/qchem-5.3.0-intel2020u1//config/preferences:
Processing $rem in /home/shihchengli/.qchemrc:

Checking the input file for inconsistencies... 	...done.

--------------------------------------------------------------
User input:
--------------------------------------------------------------
$rem
   JOBTYPE  sp
   EXCHANGE   omegaB97X-D
   BASIS   6-311+G(2df,2pd)
   UNRESTRICTED   False
   max_scf_cycles   250
   geom_opt_max_cycles   1500
   basis2 6-31G*
   scf_algorithm rca_diis
   SYM_IGNORE  TRUE
   print_input   true
   geom_opt_dmax   80
   pop_mulliken false
   XC_GRID 000075000302
$end

$molecule
0 1
C       -5.5485280808     0.5540979023     -0.0864523831
C       -4.4081281384     1.3791304287     -0.1895493100
H       -5.9299887173     0.0924377021     -0.9880562100
H       -6.2770184500     0.7794531471     0.6808687932
H       -4.4605128614     -0.1881906007     0.4442616461
O       -3.2778666519     0.1563829681     0.6274560944
H       -4.2295867303     2.1747965347     0.5199693935
H       -3.8912425146     1.4928985361     -1.1342485781
H       -2.6578602526     -0.5778693613     0.6986407172
$end
--------------------------------------------------------------
 ----------------------------------------------------------------
             Standard Nuclear Orientation (Angstroms)
    I     Atom           X                Y                Z
 ----------------------------------------------------------------
    1      C      -5.5485280808     0.5540979023    -0.0864523831
    2      C      -4.4081281384     1.3791304287    -0.1895493100
    3      H      -5.9299887173     0.0924377021    -0.9880562100
    4      H      -6.2770184500     0.7794531471     0.6808687932
    5      H      -4.4605128614    -0.1881906007     0.4442616461
    6      O      -3.2778666519     0.1563829681     0.6274560944
    7      H      -4.2295867303     2.1747965347     0.5199693935
    8      H      -3.8912425146     1.4928985361    -1.1342485781
    9      H      -2.6578602526    -0.5778693613     0.6986407172
 ----------------------------------------------------------------
 Nuclear Repulsion Energy =          79.06773398 hartrees
 There are       13 alpha and       13 beta electrons
 Requested basis set is 6-311+G(2df,2pd)
 There are 60 shells and 186 basis functions

 Total QAlloc Memory Limit   2000 MB
 Mega-Array Size       188 MB
 MEM_STATIC part       192 MB

                       Distance Matrix (Angstroms)
             C (  1)   C (  2)   H (  3)   H (  4)   H (  5)   O (  6)
   C (  2)  1.411318
   H (  3)  1.082373  2.146917
   H (  4)  1.081788  2.147089  1.837860
   H (  5)  1.420009  1.691436  2.071146  2.071717
   O (  6)  2.413244  1.854751  3.106078  3.063655  1.245369
   H (  7)  2.175780  1.080916  3.082487  2.482911  2.375451  2.234126
   H (  8)  2.173895  1.082853  2.477731  3.081490  2.375252  2.294800
   H (  9)  3.202137  2.771672  3.741802  3.865352  1.861750  0.963640
             H (  7)   H (  8)
   H (  8)  1.820961
   H (  9)  3.174810  3.028002
 
 A cutoff of  1.0D-09 yielded   1765 shell pairs
 There are     17167 function pairs (     21331 Cartesian)
 Smallest overlap matrix eigenvalue = 9.08E-05

 Scale SEOQF with 1.000000e-02/1.000000e-01/1.000000e-01

 Standard Electronic Orientation quadrupole field applied
 Nucleus-field energy     =     0.0000000026 hartrees
 Requested basis set is 6-31G(d)
 There are 24 shells and 54 basis functions
 A cutoff of  1.0D-09 yielded    296 shell pairs
 There are      1547 function pairs (      1730 Cartesian)
 Smallest overlap matrix eigenvalue = 6.64E-03
 Guess from superposition of atomic densities
 Warning:  Energy on first SCF cycle will be non-variational
 SAD guess density has 26.000000 electrons
 Long-range K will be added via erf
 Coulomb attenuation parameter = 0.2 bohr**(-1)
 A restricted hybrid HF-DFT SCF calculation will be
 performed using Relaxed Constraint Minimization + Pulay DIIS
 Exchange:     0.2220 Hartree-Fock + 1.0000 wB97X-D + LR-HF
 Correlation:  1.0000 wB97X-D
 Using Euler-Maclaurin-Lebedev (75,302) quadrature formula
 Dispersion:   Grimme D
 SCF converges when DIIS error is below 1.0E-04
 using 6 threads for integral computing
 -------------------------------------------------------
 OpenMP Integral computing Module                
 Release: version 1.0, May 2013, Q-Chem Inc. Pittsburgh 
 -------------------------------------------------------
 using 6 threads for integral computing
 -------------------------------------------------------
 OpenMP Integral computing Module                
 Release: version 1.0, May 2013, Q-Chem Inc. Pittsburgh 
 -------------------------------------------------------
 ---------------------------------------
  Cycle       Energy         DIIS Error
 ---------------------------------------
    1    -155.2487084538      9.88E-02
    2    -154.7633916052      1.65E-02
    3    -154.7998133806      3.04E-03
    4    -154.8439726112      1.87E-03
    5    -154.8446280128      4.07E-04 Done RCA. Switching to DIIS
    6    -154.8453085176      3.72E-04
    7    -154.8453502480      4.02E-05 Convergence criterion met
 ---------------------------------------
 SCF time:  CPU 14.13 s  wall 2.37 s
 SCF   energy in the small basis set = -154.84535025
 Total energy in the small basis set = -154.84535025
 ----------------------------------------------------
  Cycle       Energy    
 ----------------------------------------------------
    1     -18.6790898937     -1.87E+01
 Long-range K will be added via erf
 Coulomb attenuation parameter = 0.2 bohr**(-1)
 A restricted hybrid HF-DFT SCF calculation will be
 performed using Relaxed Constraint Minimization + Pulay DIIS
 Exchange:     0.2220 Hartree-Fock + 1.0000 wB97X-D + LR-HF
 Correlation:  1.0000 wB97X-D
 Using Euler-Maclaurin-Lebedev (75,302) quadrature formula
 Dispersion:   Grimme D
 SCF converges when DIIS error is below 1.0E-05
 Basis2 calculation detected. Using small basis as guess for larger.
 SCFMinFind is unable to tell whether the solution found is close.
 Resetting ReadMinima to 0 and attempting to follow guess.
 SCFMinFind following SCF Guess.
 using 6 threads for integral computing
 -------------------------------------------------------
 OpenMP Integral computing Module                
 Release: version 1.0, May 2013, Q-Chem Inc. Pittsburgh 
 -------------------------------------------------------
 using 6 threads for integral computing
 -------------------------------------------------------
 OpenMP Integral computing Module                
 Release: version 1.0, May 2013, Q-Chem Inc. Pittsburgh 
 -------------------------------------------------------
 ---------------------------------------
  Cycle       Energy         DIIS Error
 ---------------------------------------
    1    -154.8684065909      6.11E-03
    2    -154.8640717256      4.70E-03
    3    -154.8881816841      1.00E-03
    4    -154.9212584085      1.04E-03
    5    -154.9226259539      1.49E-04 Done RCA. Switching to DIIS
    6    -154.9243473333      1.72E-04
    7    -154.9244346219      2.77E-05
    8    -154.9244372217      1.70E-05
    9    -154.9244381635      5.32E-06 Convergence criterion met
 ---------------------------------------
 SCF time:  CPU 57.99 s  wall 9.69 s
 SCF   energy in the final basis set = -154.92443816
 Total energy in the final basis set = -154.92443816
 
 --------------------------------------------------------------
 
                    Orbital Energies (a.u.)
 --------------------------------------------------------------
 
 Alpha MOs
 -- Occupied --
-19.2202 -10.3548 -10.2613  -1.0688  -0.8775  -0.6997  -0.6062  -0.5698
 -0.5099  -0.4534  -0.4378  -0.3838  -0.3151
 -- Virtual --
  0.0388   0.0753   0.0900   0.1001   0.1122   0.1300   0.1401   0.1508
  0.1671   0.1867   0.2200   0.2467   0.2639   0.2730   0.2865   0.3203
  0.3241   0.3464   0.3606   0.3956   0.4587   0.4647   0.4866   0.5415
  0.5520   0.5705   0.5928   0.6108   0.6168   0.6346   0.6603   0.6826
  0.6913   0.7581   0.8089   0.8407   0.8623   0.8951   0.9203   0.9697
  0.9900   1.0165   1.0586   1.0670   1.1216   1.1742   1.2126   1.2209
  1.2555   1.2671   1.2821   1.3080   1.3249   1.3627   1.4006   1.4147
  1.4426   1.4534   1.4795   1.4882   1.5162   1.5631   1.5909   1.6384
  1.7173   1.8005   1.8609   2.0045   2.0213   2.2287   2.3392   2.4364
  2.4745   2.5597   2.6263   2.6510   2.6874   2.7541   2.7926   2.7970
  2.8685   2.9170   2.9618   2.9650   3.0047   3.0317   3.0621   3.0771
  3.0993   3.1438   3.1791   3.1929   3.2207   3.2778   3.2993   3.3425
  3.3675   3.3787   3.4099   3.4187   3.4676   3.5102   3.5243   3.5515
  3.5645   3.5908   3.6223   3.6632   3.7006   3.7531   3.7696   3.8370
  3.8434   3.8727   3.8988   3.9148   3.9482   3.9846   4.0349   4.0521
  4.0821   4.1574   4.1753   4.2044   4.2222   4.2840   4.3023   4.3113
  4.3391   4.3784   4.4119   4.4949   4.5158   4.5975   4.6175   4.7146
  4.7713   4.8108   4.8649   4.9722   4.9940   5.0151   5.0959   5.1081
  5.1739   5.2063   5.2428   5.2638   5.2869   5.3803   5.4380   5.4723
  5.5819   5.6199   5.7417   5.8464   5.9956   6.1969   6.2280   6.2732
  6.4602   6.6826   6.7674   6.8652   7.0843   7.2174   7.3315   7.6797
  7.8646   8.1141  24.9554  25.3070  50.4790
 --------------------------------------------------------------
 
 -----------------------------------------------------------------
                    Cartesian Multipole Moments
 -----------------------------------------------------------------
    Charge (ESU x 10^10)
                -0.0000
    Dipole Moment (Debye)
         X       0.0272      Y       0.1301      Z      -0.8005
       Tot       0.8114
    Quadrupole Moments (Debye-Ang)
        XX     -20.8644     XY      -1.7227     YY     -17.7741
        XZ       2.4707     YZ      -0.5565     ZZ     -20.8544
    Octopole Moments (Debye-Ang^2)
       XXX     279.4860    XXY      -6.2454    XYY      82.8683
       YYY     -36.5845    XXZ      -7.4472    XYZ      -1.1239
       YYZ      -0.5004    XZZ      91.5084    YZZ     -13.3670
       ZZZ     -10.0911
    Hexadecapole Moments (Debye-Ang^3)
      XXXX   -2644.2434   XXXY     175.9033   XXYY    -431.7807
      XYYY     175.1301   YYYY    -113.3506   XXXZ       7.3365
      XXYZ      20.9644   XYYZ      -4.2222   YYYZ       7.8594
      XXZZ    -433.9478   XYZZ      61.7944   YYZZ     -27.0398
      XZZZ      25.9743   YZZZ       3.1636   ZZZZ     -54.0373
 -----------------------------------------------------------------
Archival summary:
1\1\centos77-c1\SP\ProcedureUnspecified\BasisUnspecified\126\shihchen\WedJul2900:21:212020WedJul2900:21:212020\0\\#,ProcedureUnspecified,BasisUnspecified,\\0,1\C\H,1,1.08092\H,1,1.08285,2,114.612\C,1,1.41132,2,121.053,3,-158.707,0\H,4,1.08179,1,118.306,2,4.12185,0\H,4,1.08237,1,118.247,2,153.406,0\H,4,1.42001,1,73.3671,2,-101.28,0\O,7,1.24537,4,129.64,1,4.34102,0\H,8,0.96364,7,114.27,4,-159.293,0\\\@

 Total job time:  14.16s(wall), 75.80s(cpu) 
 Wed Jul 29 00:21:21 2020

        *************************************************************
        *                                                           *
        *  Thank you very much for using Q-Chem.  Have a nice day.  *
        *                                                           *
        *************************************************************


