                  Welcome to Q-Chem
     A Quantum Leap Into The Future Of Chemistry


 Q-Chem 5.3 (devel), Q-Chem, Inc., Pleasanton, CA (2020)

 Yihan Shao,  Zhengting Gan,  E. Epifanovsky,  A. T. B. Gilbert,  M. Wormit,  
 J. Kussmann,  A. W. Lange,  A. Behn,  Jia Deng,  Xintian Feng,  D. Ghosh,  
 M. Goldey,  P. R. Horn,  L. D. Jacobson,  I. Kaliman,  T. Kus,  A. Landau,  
 Jie Liu,  E. I. Proynov,  R. M. Richard,  R. P. Steele,  E. J. Sundstrom,  
 H. L. Woodcock III,  P. M. Zimmerman,  D. Zuev,  B. Alam,  B. Albrecht,  
 E. Alguire,  S. A. Baeppler,  D. Barton,  Z. Benda,  Y. A. Bernard,  
 E. J. Berquist,  K. B. Bravaya,  H. Burton,  K. Carter-Fenk,  D. Casanova,  
 Chun-Min Chang,  Yunqing Chen,  A. Chien,  K. D. Closser,  M. P. Coons,  
 S. Coriani,  S. Dasgupta,  A. L. Dempwolff,  M. Diedenhofen,  Hainam Do,  
 R. G. Edgar,  Po-Tung Fang,  S. Faraji,  S. Fatehi,  Qingguo Feng,  
 J. Fosso-Tande,  J. Gayvert,  Qinghui Ge,  A. Ghysels,  G. Gidofalvi,  
 J. Gomes,  J. Gonthier,  A. Gunina,  D. Hait,  M. W. D. Hanson-Heine,  
 P. H. P. Harbach,  A. W. Hauser,  M. F. Herbst,  J. E. Herr,  
 E. G. Hohenstein,  Z. C. Holden,  Kerwin Hui,  B. C. Huynh,  T.-C. Jagau,  
 Hyunjun Ji,  B. Kaduk,  K. Khistyaev,  Jaehoon Kim,  P. Klunzinger,  K. Koh,  
 D. Kosenkov,  L. Koulias,  T. Kowalczyk,  C. M. Krauter,  A. Kunitsa,  
 Ka Un Lao,  A. Laurent,  K. V. Lawler,  Joonho Lee,  D. Lefrancois,  
 S. Lehtola,  D. S. Levine,  Yi-Pei Li,  You-Sheng Lin,  Fenglai Liu,  
 Kuan-Yu Liu,  E. Livshits,  M. Loipersberger,  A. Luenser,  P. Manohar,  
 E. Mansoor,  S. F. Manzer,  Shan-Ping Mao,  Yuezhi Mao,  N. Mardirossian,  
 A. V. Marenich,  T. Markovich,  L. A. Martinez-Martinez,  S. A. Maurer,  
 N. J. Mayhall,  S. C. McKenzie,  J.-M. Mewes,  P. Morgante,  A. F. Morrison,  
 J. W. Mullinax,  K. Nanda,  T. S. Nguyen-Beck,  R. Olivares-Amaya,  
 K. J. Oosterbaan,  J. A. Parkhill,  S. K. Paul,  F. Pavosevic,  Zheng Pei,  
 T. M. Perrine,  F. Plasser,  P. Pokhilko,  S. Prager,  A. Prociuk,  
 E. Ramos,  B. Rana,  D. R. Rehn,  F. Rob,  M. Scheurer,  M. Schneider,  
 N. Sergueev,  S. M. Sharada,  S. Sharma,  D. W. Small,  T. Stauch,  
 C. J. Stein,  T. Stein,  Yu-Chuan Su,  S. P. Veccham,  Zhen Tao,  
 A. J. W. Thom,  A. Tkatchenko,  T. Tsuchimochi,  N. M. Tubman,  L. Vogt,  
 M. L. Vidal,  O. Vydrov,  M. A. Watson,  J. Wenzel,  M. de Wergifosse,  
 T. A. Wesolowski,  A. White,  J. Witte,  A. Yamada,  Jun Yang,  K. Yao,  
 S. Yeganeh,  S. R. Yost,  Zhi-Qiang You,  A. Zech,  Igor Ying Zhang,  
 Xing Zhang,  Yan Zhao,  Ying Zhu,  B. R. Brooks,  G. K. L. Chan,  
 C. J. Cramer,  M. S. Gordon,  W. J. Hehre,  A. Klamt,  M. W. Schmidt,  
 C. D. Sherrill,  D. G. Truhlar,  A. Aspuru-Guzik,  R. Baer,  A. T. Bell,  
 N. A. Besley,  Jeng-Da Chai,  A. E. DePrince, III,  R. A. DiStasio Jr.,  
 A. Dreuw,  B. D. Dunietz,  T. R. Furlani,  Chao-Ping Hsu,  Yousung Jung,  
 Jing Kong,  D. S. Lambrecht,  WanZhen Liang,  C. Ochsenfeld,  
 V. A. Rassolov,  L. V. Slipchenko,  J. E. Subotnik,  T. Van Voorhis,  
 J. M. Herbert,  A. I. Krylov,  P. M. W. Gill,  M. Head-Gordon

 Contributors to earlier versions of Q-Chem not listed above: 
 R. D. Adamson,  B. Austin,  J. Baker,  G. J. O. Beran,  K. Brandhorst,  
 S. T. Brown,  E. F. C. Byrd,  A. K. Chakraborty,  C.-L. Cheng,  
 Siu Hung Chien,  D. M. Chipman,  D. L. Crittenden,  H. Dachsel,  
 R. J. Doerksen,  A. D. Dutoi,  L. Fusti-Molnar,  W. A. Goddard III,  
 A. Golubeva-Zadorozhnaya,  S. R. Gwaltney,  G. Hawkins,  A. Heyden,  
 S. Hirata,  G. Kedziora,  F. J. Keil,  C. Kelley,  Jihan Kim,  R. A. King,  
 R. Z. Khaliullin,  P. P. Korambath,  W. Kurlancheek,  A. M. Lee,  M. S. Lee,  
 S. V. Levchenko,  Ching Yeh Lin,  D. Liotard,  R. C. Lochan,  I. Lotan,  
 P. E. Maslen,  N. Nair,  D. P. O'Neill,  D. Neuhauser,  E. Neuscamman,  
 C. M. Oana,  R. Olson,  B. Peters,  R. Peverati,  P. A. Pieniazek,  
 Y. M. Rhee,  J. Ritchie,  M. A. Rohrdanz,  E. Rosta,  N. J. Russ,  
 H. F. Schaefer III,  N. E. Schultz,  N. Shenvi,  A. C. Simmonett,  A. Sodt,  
 D. Stuck,  K. S. Thanthiriwatte,  V. Vanovschi,  Tao Wang,  A. Warshel,  
 C. F. Williams,  Q. Wu,  X. Xu,  W. Zhang

 Please cite Q-Chem as follows:
 Y. Shao et al., Mol. Phys. 113, 184-215 (2015)
 DOI: 10.1080/00268976.2014.952696

 Q-Chem 5.3.0 for Intel X86 EM64T Linux

 Parts of Q-Chem use Armadillo 9.800.1 (Horizon Scraper).
 http://arma.sourceforge.net/

 Q-Chem begins on Wed Jul 29 00:12:02 2020  

Host: centos77-c1
0

     Scratch files written to /tmp/30084.centos77-h1/qchem25561//
Processing $rem in /opt/qchem-5.3.0-intel2020u1//config/preferences:
Processing $rem in /home/shihchengli/.qchemrc:

Checking the input file for inconsistencies... 	...done.

--------------------------------------------------------------
User input:
--------------------------------------------------------------
$rem
   JOBTYPE  sp
   EXCHANGE   omegaB97X-D
   BASIS   6-311+G(2df,2pd)
   UNRESTRICTED   False
   max_scf_cycles   250
   geom_opt_max_cycles   1500
   basis2 6-31G*
   scf_algorithm rca_diis
   SYM_IGNORE  TRUE
   print_input   true
   geom_opt_dmax   80
   pop_mulliken false
   XC_GRID 000075000302
$end

$molecule
0 1
C       -5.4979572184     0.4440494735     -0.2607073989
C       -4.3019181271     1.1796343608     -0.4029221669
H       -5.6202904719     -0.4541965707     -0.8520790565
H       -6.4038642183     0.9807887494     -0.0126984287
H       -4.7222152348     0.1870863756     0.9005940527
O       -3.6293692247     0.6718661465     1.2493337533
H       -4.2762998691     2.0974918820     -0.9732375646
H       -3.3392592040     0.7001532063     -0.2766040862
H       -2.8895588290     0.0562636337     1.2012110591
$end
--------------------------------------------------------------
 ----------------------------------------------------------------
             Standard Nuclear Orientation (Angstroms)
    I     Atom           X                Y                Z
 ----------------------------------------------------------------
    1      C      -5.4979572184     0.4440494735    -0.2607073989
    2      C      -4.3019181271     1.1796343608    -0.4029221669
    3      H      -5.6202904719    -0.4541965707    -0.8520790565
    4      H      -6.4038642183     0.9807887494    -0.0126984287
    5      H      -4.7222152348     0.1870863756     0.9005940527
    6      O      -3.6293692247     0.6718661465     1.2493337533
    7      H      -4.2762998691     2.0974918820    -0.9732375646
    8      H      -3.3392592040     0.7001532063    -0.2766040862
    9      H      -2.8895588290     0.0562636337     1.2012110591
 ----------------------------------------------------------------
 Nuclear Repulsion Energy =          80.01096063 hartrees
 There are       13 alpha and       13 beta electrons
 Requested basis set is 6-311+G(2df,2pd)
 There are 60 shells and 186 basis functions

 Total QAlloc Memory Limit   2000 MB
 Mega-Array Size       188 MB
 MEM_STATIC part       192 MB

                       Distance Matrix (Angstroms)
             C (  1)   C (  2)   H (  3)   H (  4)   H (  5)   O (  6)
   C (  2)  1.411318
   H (  3)  1.082373  2.146917
   H (  4)  1.081788  2.147089  1.837860
   H (  5)  1.420009  1.691436  2.071146  2.071717
   O (  6)  2.413244  1.854751  3.106078  3.063655  1.245369
   H (  7)  2.175780  1.080916  2.886538  2.587700  2.712883  2.718594
   H (  8)  2.173895  1.082853  2.620458  3.088722  1.887220  1.553528
   H (  9)  3.015183  2.414532  3.454485  3.831275  1.861750  0.963640
             H (  7)   H (  8)
   H (  8)  1.820961
   H (  9)  3.289056  1.673548
 
 A cutoff of  1.0D-09 yielded   1769 shell pairs
 There are     17180 function pairs (     21349 Cartesian)
 Smallest overlap matrix eigenvalue = 1.23E-04

 Scale SEOQF with 1.000000e-02/1.000000e-01/1.000000e-01

 Standard Electronic Orientation quadrupole field applied
 Nucleus-field energy     =     0.0000000014 hartrees
 Requested basis set is 6-31G(d)
 There are 24 shells and 54 basis functions
 A cutoff of  1.0D-09 yielded    297 shell pairs
 There are      1548 function pairs (      1731 Cartesian)
 Smallest overlap matrix eigenvalue = 7.00E-03
 Guess from superposition of atomic densities
 Warning:  Energy on first SCF cycle will be non-variational
 SAD guess density has 26.000000 electrons
 Long-range K will be added via erf
 Coulomb attenuation parameter = 0.2 bohr**(-1)
 A restricted hybrid HF-DFT SCF calculation will be
 performed using Relaxed Constraint Minimization + Pulay DIIS
 Exchange:     0.2220 Hartree-Fock + 1.0000 wB97X-D + LR-HF
 Correlation:  1.0000 wB97X-D
 Using Euler-Maclaurin-Lebedev (75,302) quadrature formula
 Dispersion:   Grimme D
 SCF converges when DIIS error is below 1.0E-04
 using 6 threads for integral computing
 -------------------------------------------------------
 OpenMP Integral computing Module                
 Release: version 1.0, May 2013, Q-Chem Inc. Pittsburgh 
 -------------------------------------------------------
 using 6 threads for integral computing
 -------------------------------------------------------
 OpenMP Integral computing Module                
 Release: version 1.0, May 2013, Q-Chem Inc. Pittsburgh 
 -------------------------------------------------------
 ---------------------------------------
  Cycle       Energy         DIIS Error
 ---------------------------------------
    1    -155.3535142278      1.02E-01
    2    -154.7015706371      1.56E-02
    3    -154.7347342522      3.56E-03
    4    -154.7749230944      2.77E-03
    5    -154.7761248085      6.23E-04 Done RCA. Switching to DIIS
    6    -154.7777460886      3.93E-04
    7    -154.7778130238      5.56E-05 Convergence criterion met
 ---------------------------------------
 SCF time:  CPU 16.45 s  wall 2.76 s
 SCF   energy in the small basis set = -154.77781302
 Total energy in the small basis set = -154.77781302
 ----------------------------------------------------
  Cycle       Energy    
 ----------------------------------------------------
    1     -18.6896344634     -1.87E+01
 Long-range K will be added via erf
 Coulomb attenuation parameter = 0.2 bohr**(-1)
 A restricted hybrid HF-DFT SCF calculation will be
 performed using Relaxed Constraint Minimization + Pulay DIIS
 Exchange:     0.2220 Hartree-Fock + 1.0000 wB97X-D + LR-HF
 Correlation:  1.0000 wB97X-D
 Using Euler-Maclaurin-Lebedev (75,302) quadrature formula
 Dispersion:   Grimme D
 SCF converges when DIIS error is below 1.0E-05
 Basis2 calculation detected. Using small basis as guess for larger.
 SCFMinFind is unable to tell whether the solution found is close.
 Resetting ReadMinima to 0 and attempting to follow guess.
 SCFMinFind following SCF Guess.
 using 6 threads for integral computing
 -------------------------------------------------------
 OpenMP Integral computing Module                
 Release: version 1.0, May 2013, Q-Chem Inc. Pittsburgh 
 -------------------------------------------------------
 using 6 threads for integral computing
 -------------------------------------------------------
 OpenMP Integral computing Module                
 Release: version 1.0, May 2013, Q-Chem Inc. Pittsburgh 
 -------------------------------------------------------
 ---------------------------------------
  Cycle       Energy         DIIS Error
 ---------------------------------------
    1    -154.7984952439      6.11E-03
    2    -154.7843041368      5.02E-03
    3    -154.8109213159      1.32E-03
    4    -154.8486104562      1.19E-03
    5    -154.8513337535      1.36E-04 Done RCA. Switching to DIIS
    6    -154.8553310339      1.39E-04
    7    -154.8554119184      2.21E-05
    8    -154.8554177123      6.43E-06 Convergence criterion met
 ---------------------------------------
 SCF time:  CPU 62.46 s  wall 10.44 s
 SCF   energy in the final basis set = -154.85541771
 Total energy in the final basis set = -154.85541771
 
 --------------------------------------------------------------
 
                    Orbital Energies (a.u.)
 --------------------------------------------------------------
 
 Alpha MOs
 -- Occupied --
-19.2480 -10.3449 -10.2566  -1.1091  -0.8726  -0.6999  -0.6241  -0.5676
 -0.5113  -0.4888  -0.4554  -0.3547  -0.3078
 -- Virtual --
  0.0137   0.0687   0.0887   0.0937   0.1115   0.1319   0.1390   0.1483
  0.1862   0.1891   0.2211   0.2264   0.2501   0.2670   0.2827   0.2988
  0.3118   0.3290   0.3607   0.4037   0.4641   0.4772   0.4882   0.5320
  0.5714   0.5752   0.5931   0.5998   0.6198   0.6297   0.6477   0.6742
  0.6975   0.7110   0.7852   0.8266   0.8386   0.8661   0.9254   0.9755
  0.9967   1.0057   1.0503   1.0745   1.1073   1.1161   1.1753   1.1819
  1.2004   1.2461   1.2764   1.3265   1.3662   1.3887   1.4082   1.4275
  1.4363   1.4732   1.4855   1.5111   1.5188   1.5616   1.6111   1.6334
  1.6803   1.7871   1.9700   1.9844   2.0851   2.2502   2.2994   2.4286
  2.5331   2.5546   2.6195   2.6607   2.6932   2.7739   2.7906   2.8493
  2.9047   2.9167   2.9442   2.9853   3.0030   3.0421   3.0581   3.0884
  3.1002   3.1577   3.1800   3.1851   3.2495   3.3115   3.3195   3.3252
  3.3671   3.3885   3.4075   3.4285   3.4674   3.5191   3.5423   3.5498
  3.5750   3.5797   3.6288   3.6572   3.6989   3.7572   3.7820   3.8086
  3.8446   3.8573   3.8856   3.9150   3.9595   3.9744   4.0396   4.0731
  4.1367   4.1487   4.1609   4.2062   4.2188   4.2290   4.2597   4.3062
  4.3745   4.4020   4.4622   4.4881   4.4969   4.5668   4.6541   4.7123
  4.7867   4.8298   4.8966   4.9591   4.9995   5.0612   5.1080   5.1175
  5.1476   5.1809   5.2199   5.3180   5.4059   5.4590   5.5155   5.6364
  5.6818   5.7596   5.8134   5.8338   6.0207   6.0865   6.1866   6.3565
  6.4563   6.6568   6.7251   6.9041   7.2559   7.3312   7.4241   7.6074
  7.8608   8.1883  24.9895  25.2980  50.4854
 --------------------------------------------------------------
 
 -----------------------------------------------------------------
                    Cartesian Multipole Moments
 -----------------------------------------------------------------
    Charge (ESU x 10^10)
                 0.0000
    Dipole Moment (Debye)
         X       1.0164      Y      -0.4702      Z      -1.3513
       Tot       1.7551
    Quadrupole Moments (Debye-Ang)
        XX     -27.8464     XY       0.7434     YY     -20.0441
        XZ       5.7242     YZ      -2.7602     ZZ     -23.7616
    Octopole Moments (Debye-Ang^2)
       XXX     319.7675    XXY     -13.8275    XYY      88.8742
       YYY     -42.4521    XXZ     -25.3200    XYZ       8.4337
       YYZ      -8.3030    XZZ     106.0642    YZZ     -18.6059
       ZZZ     -16.1130
    Hexadecapole Moments (Debye-Ang^3)
      XXXX   -2849.8920   XXXY     174.2523   XXYY    -434.4283
      XYYY     183.0206   YYYY    -107.9441   XXXZ      95.9163
      XXYZ     -21.5391   XYYZ      25.3915   YYYZ      -9.5826
      XXZZ    -511.4618   XYZZ      78.4797   YYZZ     -36.4602
      XZZZ      42.4233   YZZZ      -9.4507   ZZZZ    -113.8160
 -----------------------------------------------------------------
Archival summary:
1\1\centos77-c1\SP\ProcedureUnspecified\BasisUnspecified\126\shihchen\WedJul2900:12:182020WedJul2900:12:182020\0\\#,ProcedureUnspecified,BasisUnspecified,\\0,1\C\H,1,1.08092\H,1,1.08285,2,114.612\C,1,1.41132,2,121.053,3,-158.707,0\H,4,1.08179,1,118.306,2,-45.8782,0\H,4,1.08237,1,118.247,2,103.406,0\H,4,1.42001,1,73.3671,2,-151.28,0\O,7,1.24537,4,129.64,1,4.34102,0\H,8,0.96364,7,114.27,4,-109.293,0\\\@

 Total job time:  15.76s(wall), 83.58s(cpu) 
 Wed Jul 29 00:12:18 2020

        *************************************************************
        *                                                           *
        *  Thank you very much for using Q-Chem.  Have a nice day.  *
        *                                                           *
        *************************************************************


