                  Welcome to Q-Chem
     A Quantum Leap Into The Future Of Chemistry


 Q-Chem 5.3 (devel), Q-Chem, Inc., Pleasanton, CA (2020)

 Yihan Shao,  Zhengting Gan,  E. Epifanovsky,  A. T. B. Gilbert,  M. Wormit,  
 J. Kussmann,  A. W. Lange,  A. Behn,  Jia Deng,  Xintian Feng,  D. Ghosh,  
 M. Goldey,  P. R. Horn,  L. D. Jacobson,  I. Kaliman,  T. Kus,  A. Landau,  
 Jie Liu,  E. I. Proynov,  R. M. Richard,  R. P. Steele,  E. J. Sundstrom,  
 H. L. Woodcock III,  P. M. Zimmerman,  D. Zuev,  B. Alam,  B. Albrecht,  
 E. Alguire,  S. A. Baeppler,  D. Barton,  Z. Benda,  Y. A. Bernard,  
 E. J. Berquist,  K. B. Bravaya,  H. Burton,  K. Carter-Fenk,  D. Casanova,  
 Chun-Min Chang,  Yunqing Chen,  A. Chien,  K. D. Closser,  M. P. Coons,  
 S. Coriani,  S. Dasgupta,  A. L. Dempwolff,  M. Diedenhofen,  Hainam Do,  
 R. G. Edgar,  Po-Tung Fang,  S. Faraji,  S. Fatehi,  Qingguo Feng,  
 J. Fosso-Tande,  J. Gayvert,  Qinghui Ge,  A. Ghysels,  G. Gidofalvi,  
 J. Gomes,  J. Gonthier,  A. Gunina,  D. Hait,  M. W. D. Hanson-Heine,  
 P. H. P. Harbach,  A. W. Hauser,  M. F. Herbst,  J. E. Herr,  
 E. G. Hohenstein,  Z. C. Holden,  Kerwin Hui,  B. C. Huynh,  T.-C. Jagau,  
 Hyunjun Ji,  B. Kaduk,  K. Khistyaev,  Jaehoon Kim,  P. Klunzinger,  K. Koh,  
 D. Kosenkov,  L. Koulias,  T. Kowalczyk,  C. M. Krauter,  A. Kunitsa,  
 Ka Un Lao,  A. Laurent,  K. V. Lawler,  Joonho Lee,  D. Lefrancois,  
 S. Lehtola,  D. S. Levine,  Yi-Pei Li,  You-Sheng Lin,  Fenglai Liu,  
 Kuan-Yu Liu,  E. Livshits,  M. Loipersberger,  A. Luenser,  P. Manohar,  
 E. Mansoor,  S. F. Manzer,  Shan-Ping Mao,  Yuezhi Mao,  N. Mardirossian,  
 A. V. Marenich,  T. Markovich,  L. A. Martinez-Martinez,  S. A. Maurer,  
 N. J. Mayhall,  S. C. McKenzie,  J.-M. Mewes,  P. Morgante,  A. F. Morrison,  
 J. W. Mullinax,  K. Nanda,  T. S. Nguyen-Beck,  R. Olivares-Amaya,  
 K. J. Oosterbaan,  J. A. Parkhill,  S. K. Paul,  F. Pavosevic,  Zheng Pei,  
 T. M. Perrine,  F. Plasser,  P. Pokhilko,  S. Prager,  A. Prociuk,  
 E. Ramos,  B. Rana,  D. R. Rehn,  F. Rob,  M. Scheurer,  M. Schneider,  
 N. Sergueev,  S. M. Sharada,  S. Sharma,  D. W. Small,  T. Stauch,  
 C. J. Stein,  T. Stein,  Yu-Chuan Su,  S. P. Veccham,  Zhen Tao,  
 A. J. W. Thom,  A. Tkatchenko,  T. Tsuchimochi,  N. M. Tubman,  L. Vogt,  
 M. L. Vidal,  O. Vydrov,  M. A. Watson,  J. Wenzel,  M. de Wergifosse,  
 T. A. Wesolowski,  A. White,  J. Witte,  A. Yamada,  Jun Yang,  K. Yao,  
 S. Yeganeh,  S. R. Yost,  Zhi-Qiang You,  A. Zech,  Igor Ying Zhang,  
 Xing Zhang,  Yan Zhao,  Ying Zhu,  B. R. Brooks,  G. K. L. Chan,  
 C. J. Cramer,  M. S. Gordon,  W. J. Hehre,  A. Klamt,  M. W. Schmidt,  
 C. D. Sherrill,  D. G. Truhlar,  A. Aspuru-Guzik,  R. Baer,  A. T. Bell,  
 N. A. Besley,  Jeng-Da Chai,  A. E. DePrince, III,  R. A. DiStasio Jr.,  
 A. Dreuw,  B. D. Dunietz,  T. R. Furlani,  Chao-Ping Hsu,  Yousung Jung,  
 Jing Kong,  D. S. Lambrecht,  WanZhen Liang,  C. Ochsenfeld,  
 V. A. Rassolov,  L. V. Slipchenko,  J. E. Subotnik,  T. Van Voorhis,  
 J. M. Herbert,  A. I. Krylov,  P. M. W. Gill,  M. Head-Gordon

 Contributors to earlier versions of Q-Chem not listed above: 
 R. D. Adamson,  B. Austin,  J. Baker,  G. J. O. Beran,  K. Brandhorst,  
 S. T. Brown,  E. F. C. Byrd,  A. K. Chakraborty,  C.-L. Cheng,  
 Siu Hung Chien,  D. M. Chipman,  D. L. Crittenden,  H. Dachsel,  
 R. J. Doerksen,  A. D. Dutoi,  L. Fusti-Molnar,  W. A. Goddard III,  
 A. Golubeva-Zadorozhnaya,  S. R. Gwaltney,  G. Hawkins,  A. Heyden,  
 S. Hirata,  G. Kedziora,  F. J. Keil,  C. Kelley,  Jihan Kim,  R. A. King,  
 R. Z. Khaliullin,  P. P. Korambath,  W. Kurlancheek,  A. M. Lee,  M. S. Lee,  
 S. V. Levchenko,  Ching Yeh Lin,  D. Liotard,  R. C. Lochan,  I. Lotan,  
 P. E. Maslen,  N. Nair,  D. P. O'Neill,  D. Neuhauser,  E. Neuscamman,  
 C. M. Oana,  R. Olson,  B. Peters,  R. Peverati,  P. A. Pieniazek,  
 Y. M. Rhee,  J. Ritchie,  M. A. Rohrdanz,  E. Rosta,  N. J. Russ,  
 H. F. Schaefer III,  N. E. Schultz,  N. Shenvi,  A. C. Simmonett,  A. Sodt,  
 D. Stuck,  K. S. Thanthiriwatte,  V. Vanovschi,  Tao Wang,  A. Warshel,  
 C. F. Williams,  Q. Wu,  X. Xu,  W. Zhang

 Please cite Q-Chem as follows:
 Y. Shao et al., Mol. Phys. 113, 184-215 (2015)
 DOI: 10.1080/00268976.2014.952696

 Q-Chem 5.3.0 for Intel X86 EM64T Linux

 Parts of Q-Chem use Armadillo 9.800.1 (Horizon Scraper).
 http://arma.sourceforge.net/

 Q-Chem begins on Wed Jul 29 00:14:45 2020  

Host: centos77-c1
0

     Scratch files written to /tmp/30084.centos77-h1/qchem26020//
Processing $rem in /opt/qchem-5.3.0-intel2020u1//config/preferences:
Processing $rem in /home/shihchengli/.qchemrc:

Checking the input file for inconsistencies... 	...done.

--------------------------------------------------------------
User input:
--------------------------------------------------------------
$rem
   JOBTYPE  sp
   EXCHANGE   omegaB97X-D
   BASIS   6-311+G(2df,2pd)
   UNRESTRICTED   False
   max_scf_cycles   250
   geom_opt_max_cycles   1500
   basis2 6-31G*
   scf_algorithm rca_diis
   SYM_IGNORE  TRUE
   print_input   true
   geom_opt_dmax   80
   pop_mulliken false
   XC_GRID 000075000302
$end

$molecule
0 1
C       -5.5376410616     0.5316071926     -0.0723644279
C       -4.3445810468     1.2749204138     0.0537820375
H       -5.8997836079     0.3091981042     -1.0678134683
H       -6.2895078658     0.6335829852     0.6987141922
H       -4.5265434932     -0.3857914957     0.3181327860
O       -3.3359076001     -0.1760819071     0.6170496062
H       -4.1540974458     1.8792144926     0.9295234612
H       -3.7734745648     1.5571813403     -0.8218530424
H       -2.8191957114     0.2393061312     -0.0822809814
$end
--------------------------------------------------------------
 ----------------------------------------------------------------
             Standard Nuclear Orientation (Angstroms)
    I     Atom           X                Y                Z
 ----------------------------------------------------------------
    1      C      -5.5376410616     0.5316071926    -0.0723644279
    2      C      -4.3445810468     1.2749204138     0.0537820375
    3      H      -5.8997836079     0.3091981042    -1.0678134683
    4      H      -6.2895078658     0.6335829852     0.6987141922
    5      H      -4.5265434932    -0.3857914957     0.3181327860
    6      O      -3.3359076001    -0.1760819071     0.6170496062
    7      H      -4.1540974458     1.8792144926     0.9295234612
    8      H      -3.7734745648     1.5571813403    -0.8218530424
    9      H      -2.8191957114     0.2393061312    -0.0822809814
 ----------------------------------------------------------------
 Nuclear Repulsion Energy =          80.02279429 hartrees
 There are       13 alpha and       13 beta electrons
 Requested basis set is 6-311+G(2df,2pd)
 There are 60 shells and 186 basis functions

 Total QAlloc Memory Limit   2000 MB
 Mega-Array Size       188 MB
 MEM_STATIC part       192 MB

                       Distance Matrix (Angstroms)
             C (  1)   C (  2)   H (  3)   H (  4)   H (  5)   O (  6)
   C (  2)  1.411318
   H (  3)  1.082373  2.146917
   H (  4)  1.081788  2.147089  1.837860
   H (  5)  1.420009  1.691436  2.071146  2.071717
   O (  6)  2.413244  1.854751  3.106078  3.063655  1.245369
   H (  7)  2.175780  1.080916  3.082487  2.482911  2.375451  2.234126
   H (  8)  2.173895  1.082853  2.477731  3.081490  2.375252  2.294800
   H (  9)  2.734133  1.848732  3.235148  3.578893  1.861750  0.963640
             H (  7)   H (  8)
   H (  8)  1.820961
   H (  9)  2.344144  1.787291
 
 A cutoff of  1.0D-09 yielded   1783 shell pairs
 There are     17279 function pairs (     21461 Cartesian)
 Smallest overlap matrix eigenvalue = 9.07E-05

 Scale SEOQF with 1.000000e-02/1.000000e-01/1.000000e-01

 Standard Electronic Orientation quadrupole field applied
 Nucleus-field energy     =     0.0000000025 hartrees
 Requested basis set is 6-31G(d)
 There are 24 shells and 54 basis functions
 A cutoff of  1.0D-09 yielded    297 shell pairs
 There are      1548 function pairs (      1731 Cartesian)
 Smallest overlap matrix eigenvalue = 6.79E-03
 Guess from superposition of atomic densities
 Warning:  Energy on first SCF cycle will be non-variational
 SAD guess density has 26.000000 electrons
 Long-range K will be added via erf
 Coulomb attenuation parameter = 0.2 bohr**(-1)
 A restricted hybrid HF-DFT SCF calculation will be
 performed using Relaxed Constraint Minimization + Pulay DIIS
 Exchange:     0.2220 Hartree-Fock + 1.0000 wB97X-D + LR-HF
 Correlation:  1.0000 wB97X-D
 Using Euler-Maclaurin-Lebedev (75,302) quadrature formula
 Dispersion:   Grimme D
 SCF converges when DIIS error is below 1.0E-04
 using 6 threads for integral computing
 -------------------------------------------------------
 OpenMP Integral computing Module                
 Release: version 1.0, May 2013, Q-Chem Inc. Pittsburgh 
 -------------------------------------------------------
 using 6 threads for integral computing
 -------------------------------------------------------
 OpenMP Integral computing Module                
 Release: version 1.0, May 2013, Q-Chem Inc. Pittsburgh 
 -------------------------------------------------------
 ---------------------------------------
  Cycle       Energy         DIIS Error
 ---------------------------------------
    1    -155.3194952363      1.01E-01
    2    -154.7462917319      1.69E-02
    3    -154.7840413920      3.73E-03
    4    -154.8334756277      2.44E-03
    5    -154.8345646259      5.73E-04 Done RCA. Switching to DIIS
    6    -154.8356946135      5.73E-04
    7    -154.8357906449      5.41E-05 Convergence criterion met
 ---------------------------------------
 SCF time:  CPU 16.25 s  wall 2.73 s
 SCF   energy in the small basis set = -154.83579064
 Total energy in the small basis set = -154.83579064
 ----------------------------------------------------
  Cycle       Energy    
 ----------------------------------------------------
    1     -18.6826466177     -1.87E+01
 Long-range K will be added via erf
 Coulomb attenuation parameter = 0.2 bohr**(-1)
 A restricted hybrid HF-DFT SCF calculation will be
 performed using Relaxed Constraint Minimization + Pulay DIIS
 Exchange:     0.2220 Hartree-Fock + 1.0000 wB97X-D + LR-HF
 Correlation:  1.0000 wB97X-D
 Using Euler-Maclaurin-Lebedev (75,302) quadrature formula
 Dispersion:   Grimme D
 SCF converges when DIIS error is below 1.0E-05
 Basis2 calculation detected. Using small basis as guess for larger.
 SCFMinFind is unable to tell whether the solution found is close.
 Resetting ReadMinima to 0 and attempting to follow guess.
 SCFMinFind following SCF Guess.
 using 6 threads for integral computing
 -------------------------------------------------------
 OpenMP Integral computing Module                
 Release: version 1.0, May 2013, Q-Chem Inc. Pittsburgh 
 -------------------------------------------------------
 using 6 threads for integral computing
 -------------------------------------------------------
 OpenMP Integral computing Module                
 Release: version 1.0, May 2013, Q-Chem Inc. Pittsburgh 
 -------------------------------------------------------
 ---------------------------------------
  Cycle       Energy         DIIS Error
 ---------------------------------------
    1    -154.8595358858      6.06E-03
    2    -154.8494398377      4.77E-03
    3    -154.8737544961      1.19E-03
    4    -154.9078050198      1.18E-03
    5    -154.9099960929      1.21E-04 Done RCA. Switching to DIIS
    6    -154.9131701493      1.07E-04
    7    -154.9132125040      1.58E-05
    8    -154.9132153037      2.74E-06 Convergence criterion met
 ---------------------------------------
 SCF time:  CPU 61.82 s  wall 10.34 s
 SCF   energy in the final basis set = -154.91321530
 Total energy in the final basis set = -154.91321530
 
 --------------------------------------------------------------
 
                    Orbital Energies (a.u.)
 --------------------------------------------------------------
 
 Alpha MOs
 -- Occupied --
-19.2399 -10.3669 -10.2585  -1.0985  -0.8767  -0.7127  -0.6096  -0.5780
 -0.5096  -0.4791  -0.4567  -0.4090  -0.3022
 -- Virtual --
  0.0396   0.0617   0.0864   0.0938   0.1114   0.1256   0.1344   0.1450
  0.1755   0.1993   0.2029   0.2288   0.2544   0.2764   0.2883   0.3029
  0.3224   0.3242   0.3499   0.3878   0.4464   0.4559   0.4852   0.5320
  0.5445   0.5635   0.5858   0.6019   0.6166   0.6258   0.6727   0.6780
  0.6870   0.7257   0.7937   0.8355   0.8458   0.8767   0.9013   0.9905
  0.9948   1.0060   1.0762   1.0913   1.1289   1.1428   1.1850   1.1995
  1.2142   1.2265   1.2736   1.3047   1.3297   1.3583   1.4106   1.4248
  1.4298   1.4538   1.4778   1.5131   1.5246   1.5779   1.5966   1.6421
  1.7076   1.7302   1.9370   2.0324   2.0406   2.2406   2.3329   2.4105
  2.4497   2.5442   2.6075   2.6353   2.6915   2.7338   2.7798   2.8416
  2.8858   2.9008   2.9234   2.9590   2.9932   3.0292   3.0440   3.0835
  3.1007   3.1560   3.2163   3.2345   3.2459   3.2675   3.3119   3.3513
  3.3612   3.4109   3.4358   3.4454   3.4540   3.4936   3.5605   3.5663
  3.5739   3.6064   3.6379   3.6896   3.7387   3.7696   3.7948   3.8017
  3.8540   3.8727   3.9037   3.9293   3.9568   3.9963   4.0305   4.0894
  4.1127   4.1631   4.1852   4.1960   4.2347   4.2710   4.2900   4.3227
  4.3692   4.4533   4.4688   4.5107   4.5416   4.5976   4.6325   4.6999
  4.7296   4.7886   4.8597   4.9585   4.9695   5.0435   5.0785   5.1107
  5.1322   5.2124   5.2412   5.2938   5.3596   5.4054   5.4582   5.5539
  5.6076   5.6345   5.7151   5.8156   6.0709   6.1943   6.2254   6.2704
  6.4656   6.6426   6.7461   6.8654   7.1568   7.2983   7.4294   7.5478
  7.7676   8.0966  24.9679  25.3065  50.4767
 --------------------------------------------------------------
 
 -----------------------------------------------------------------
                    Cartesian Multipole Moments
 -----------------------------------------------------------------
    Charge (ESU x 10^10)
                -0.0000
    Dipole Moment (Debye)
         X       0.1691      Y       1.9474      Z      -1.4000
       Tot       2.4044
    Quadrupole Moments (Debye-Ang)
        XX     -22.8019     XY      -6.0341     YY     -19.4585
        XZ       3.1085     YZ       0.7069     ZZ     -20.7195
    Octopole Moments (Debye-Ang^2)
       XXX     295.3533    XXY       5.2569    XYY      89.4031
       YYY     -31.3099    XXZ      -6.8613    XYZ      -3.8831
       YYZ      -2.0321    XZZ      89.6440    YZZ      -9.3292
       ZZZ     -11.8781
    Hexadecapole Moments (Debye-Ang^3)
      XXXX   -2746.0993   XXXY     132.4365   XXYY    -456.0580
      XYYY     155.0176   YYYY    -107.4816   XXXZ       8.7170
      XXYZ      22.1124   XYYZ       3.2288   YYYZ       3.3980
      XXZZ    -420.3268   XYZZ      46.1848   YYZZ     -23.6735
      XZZZ      37.1764   YZZZ       1.8879   ZZZZ     -48.3934
 -----------------------------------------------------------------
Archival summary:
1\1\centos77-c1\SP\ProcedureUnspecified\BasisUnspecified\126\shihchen\WedJul2900:15:002020WedJul2900:15:002020\0\\#,ProcedureUnspecified,BasisUnspecified,\\0,1\C\H,1,1.08092\H,1,1.08285,2,114.612\C,1,1.41132,2,121.053,3,-158.707,0\H,4,1.08179,1,118.306,2,4.12185,0\H,4,1.08237,1,118.247,2,153.406,0\H,4,1.42001,1,73.3671,2,-101.28,0\O,7,1.24537,4,129.64,1,4.34102,0\H,8,0.96364,7,114.27,4,-59.2925,0\\\@

 Total job time:  15.69s(wall), 82.80s(cpu) 
 Wed Jul 29 00:15:00 2020

        *************************************************************
        *                                                           *
        *  Thank you very much for using Q-Chem.  Have a nice day.  *
        *                                                           *
        *************************************************************


