                  Welcome to Q-Chem
     A Quantum Leap Into The Future Of Chemistry


 Q-Chem 5.3 (devel), Q-Chem, Inc., Pleasanton, CA (2020)

 Yihan Shao,  Zhengting Gan,  E. Epifanovsky,  A. T. B. Gilbert,  M. Wormit,  
 J. Kussmann,  A. W. Lange,  A. Behn,  Jia Deng,  Xintian Feng,  D. Ghosh,  
 M. Goldey,  P. R. Horn,  L. D. Jacobson,  I. Kaliman,  T. Kus,  A. Landau,  
 Jie Liu,  E. I. Proynov,  R. M. Richard,  R. P. Steele,  E. J. Sundstrom,  
 H. L. Woodcock III,  P. M. Zimmerman,  D. Zuev,  B. Alam,  B. Albrecht,  
 E. Alguire,  S. A. Baeppler,  D. Barton,  Z. Benda,  Y. A. Bernard,  
 E. J. Berquist,  K. B. Bravaya,  H. Burton,  K. Carter-Fenk,  D. Casanova,  
 Chun-Min Chang,  Yunqing Chen,  A. Chien,  K. D. Closser,  M. P. Coons,  
 S. Coriani,  S. Dasgupta,  A. L. Dempwolff,  M. Diedenhofen,  Hainam Do,  
 R. G. Edgar,  Po-Tung Fang,  S. Faraji,  S. Fatehi,  Qingguo Feng,  
 J. Fosso-Tande,  J. Gayvert,  Qinghui Ge,  A. Ghysels,  G. Gidofalvi,  
 J. Gomes,  J. Gonthier,  A. Gunina,  D. Hait,  M. W. D. Hanson-Heine,  
 P. H. P. Harbach,  A. W. Hauser,  M. F. Herbst,  J. E. Herr,  
 E. G. Hohenstein,  Z. C. Holden,  Kerwin Hui,  B. C. Huynh,  T.-C. Jagau,  
 Hyunjun Ji,  B. Kaduk,  K. Khistyaev,  Jaehoon Kim,  P. Klunzinger,  K. Koh,  
 D. Kosenkov,  L. Koulias,  T. Kowalczyk,  C. M. Krauter,  A. Kunitsa,  
 Ka Un Lao,  A. Laurent,  K. V. Lawler,  Joonho Lee,  D. Lefrancois,  
 S. Lehtola,  D. S. Levine,  Yi-Pei Li,  You-Sheng Lin,  Fenglai Liu,  
 Kuan-Yu Liu,  E. Livshits,  M. Loipersberger,  A. Luenser,  P. Manohar,  
 E. Mansoor,  S. F. Manzer,  Shan-Ping Mao,  Yuezhi Mao,  N. Mardirossian,  
 A. V. Marenich,  T. Markovich,  L. A. Martinez-Martinez,  S. A. Maurer,  
 N. J. Mayhall,  S. C. McKenzie,  J.-M. Mewes,  P. Morgante,  A. F. Morrison,  
 J. W. Mullinax,  K. Nanda,  T. S. Nguyen-Beck,  R. Olivares-Amaya,  
 K. J. Oosterbaan,  J. A. Parkhill,  S. K. Paul,  F. Pavosevic,  Zheng Pei,  
 T. M. Perrine,  F. Plasser,  P. Pokhilko,  S. Prager,  A. Prociuk,  
 E. Ramos,  B. Rana,  D. R. Rehn,  F. Rob,  M. Scheurer,  M. Schneider,  
 N. Sergueev,  S. M. Sharada,  S. Sharma,  D. W. Small,  T. Stauch,  
 C. J. Stein,  T. Stein,  Yu-Chuan Su,  S. P. Veccham,  Zhen Tao,  
 A. J. W. Thom,  A. Tkatchenko,  T. Tsuchimochi,  N. M. Tubman,  L. Vogt,  
 M. L. Vidal,  O. Vydrov,  M. A. Watson,  J. Wenzel,  M. de Wergifosse,  
 T. A. Wesolowski,  A. White,  J. Witte,  A. Yamada,  Jun Yang,  K. Yao,  
 S. Yeganeh,  S. R. Yost,  Zhi-Qiang You,  A. Zech,  Igor Ying Zhang,  
 Xing Zhang,  Yan Zhao,  Ying Zhu,  B. R. Brooks,  G. K. L. Chan,  
 C. J. Cramer,  M. S. Gordon,  W. J. Hehre,  A. Klamt,  M. W. Schmidt,  
 C. D. Sherrill,  D. G. Truhlar,  A. Aspuru-Guzik,  R. Baer,  A. T. Bell,  
 N. A. Besley,  Jeng-Da Chai,  A. E. DePrince, III,  R. A. DiStasio Jr.,  
 A. Dreuw,  B. D. Dunietz,  T. R. Furlani,  Chao-Ping Hsu,  Yousung Jung,  
 Jing Kong,  D. S. Lambrecht,  WanZhen Liang,  C. Ochsenfeld,  
 V. A. Rassolov,  L. V. Slipchenko,  J. E. Subotnik,  T. Van Voorhis,  
 J. M. Herbert,  A. I. Krylov,  P. M. W. Gill,  M. Head-Gordon

 Contributors to earlier versions of Q-Chem not listed above: 
 R. D. Adamson,  B. Austin,  J. Baker,  G. J. O. Beran,  K. Brandhorst,  
 S. T. Brown,  E. F. C. Byrd,  A. K. Chakraborty,  C.-L. Cheng,  
 Siu Hung Chien,  D. M. Chipman,  D. L. Crittenden,  H. Dachsel,  
 R. J. Doerksen,  A. D. Dutoi,  L. Fusti-Molnar,  W. A. Goddard III,  
 A. Golubeva-Zadorozhnaya,  S. R. Gwaltney,  G. Hawkins,  A. Heyden,  
 S. Hirata,  G. Kedziora,  F. J. Keil,  C. Kelley,  Jihan Kim,  R. A. King,  
 R. Z. Khaliullin,  P. P. Korambath,  W. Kurlancheek,  A. M. Lee,  M. S. Lee,  
 S. V. Levchenko,  Ching Yeh Lin,  D. Liotard,  R. C. Lochan,  I. Lotan,  
 P. E. Maslen,  N. Nair,  D. P. O'Neill,  D. Neuhauser,  E. Neuscamman,  
 C. M. Oana,  R. Olson,  B. Peters,  R. Peverati,  P. A. Pieniazek,  
 Y. M. Rhee,  J. Ritchie,  M. A. Rohrdanz,  E. Rosta,  N. J. Russ,  
 H. F. Schaefer III,  N. E. Schultz,  N. Shenvi,  A. C. Simmonett,  A. Sodt,  
 D. Stuck,  K. S. Thanthiriwatte,  V. Vanovschi,  Tao Wang,  A. Warshel,  
 C. F. Williams,  Q. Wu,  X. Xu,  W. Zhang

 Please cite Q-Chem as follows:
 Y. Shao et al., Mol. Phys. 113, 184-215 (2015)
 DOI: 10.1080/00268976.2014.952696

 Q-Chem 5.3.0 for Intel X86 EM64T Linux

 Parts of Q-Chem use Armadillo 9.800.1 (Horizon Scraper).
 http://arma.sourceforge.net/

 Q-Chem begins on Wed Jul 29 00:16:32 2020  

Host: centos77-c1
0

     Scratch files written to /tmp/30084.centos77-h1/qchem26312//
Processing $rem in /opt/qchem-5.3.0-intel2020u1//config/preferences:
Processing $rem in /home/shihchengli/.qchemrc:

Checking the input file for inconsistencies... 	...done.

--------------------------------------------------------------
User input:
--------------------------------------------------------------
$rem
   JOBTYPE  sp
   EXCHANGE   omegaB97X-D
   BASIS   6-311+G(2df,2pd)
   UNRESTRICTED   False
   max_scf_cycles   250
   geom_opt_max_cycles   1500
   basis2 6-31G*
   scf_algorithm rca_diis
   SYM_IGNORE  TRUE
   print_input   true
   geom_opt_dmax   80
   pop_mulliken false
   XC_GRID 000075000302
$end

$molecule
0 1
C       -5.5293967101     0.5281072354     -0.0723164090
C       -4.2928522179     1.2079832067     -0.0489485445
H       -5.9929007461     0.3407593670     -1.0323146398
H       -6.2005939045     0.6552047201     0.7664955768
H       -4.5355179922     -0.4455485250     0.2116312530
O       -3.3131117507     -0.3012524920     0.4009585951
H       -3.9912859355     1.7873293983     0.8123261763
H       -3.7911228765     1.4754422055     -0.9705254481
H       -3.0339502638     0.6151121412     0.5055836034
$end
--------------------------------------------------------------
 ----------------------------------------------------------------
             Standard Nuclear Orientation (Angstroms)
    I     Atom           X                Y                Z
 ----------------------------------------------------------------
    1      C      -5.5293967101     0.5281072354    -0.0723164090
    2      C      -4.2928522179     1.2079832067    -0.0489485445
    3      H      -5.9929007461     0.3407593670    -1.0323146398
    4      H      -6.2005939045     0.6552047201     0.7664955768
    5      H      -4.5355179922    -0.4455485250     0.2116312530
    6      O      -3.3131117507    -0.3012524920     0.4009585951
    7      H      -3.9912859355     1.7873293983     0.8123261763
    8      H      -3.7911228765     1.4754422055    -0.9705254481
    9      H      -3.0339502638     0.6151121412     0.5055836034
 ----------------------------------------------------------------
 Nuclear Repulsion Energy =          80.61995872 hartrees
 There are       13 alpha and       13 beta electrons
 Requested basis set is 6-311+G(2df,2pd)
 There are 60 shells and 186 basis functions

 Total QAlloc Memory Limit   2000 MB
 Mega-Array Size       188 MB
 MEM_STATIC part       192 MB

                       Distance Matrix (Angstroms)
             C (  1)   C (  2)   H (  3)   H (  4)   H (  5)   O (  6)
   C (  2)  1.411318
   H (  3)  1.082373  2.146917
   H (  4)  1.081788  2.147089  1.837860
   H (  5)  1.420009  1.691436  2.071146  2.071717
   O (  6)  2.413244  1.854751  3.106078  3.063655  1.245369
   H (  7)  2.175780  1.080916  3.082487  2.482911  2.375451  2.234126
   H (  8)  2.173895  1.082853  2.477731  3.081490  2.375252  2.294800
   H (  9)  2.562965  1.497944  3.346011  3.177627  1.861750  0.963640
             H (  7)   H (  8)
   H (  8)  1.820961
   H (  9)  1.544240  1.868790
 
 A cutoff of  1.0D-09 yielded   1787 shell pairs
 There are     17337 function pairs (     21536 Cartesian)
 Smallest overlap matrix eigenvalue = 8.66E-05

 Scale SEOQF with 1.000000e-02/1.000000e-01/1.000000e-01

 Standard Electronic Orientation quadrupole field applied
 Nucleus-field energy     =     0.0000000026 hartrees
 Requested basis set is 6-31G(d)
 There are 24 shells and 54 basis functions
 A cutoff of  1.0D-09 yielded    297 shell pairs
 There are      1548 function pairs (      1731 Cartesian)
 Smallest overlap matrix eigenvalue = 6.81E-03
 Guess from superposition of atomic densities
 Warning:  Energy on first SCF cycle will be non-variational
 SAD guess density has 26.000000 electrons
 Long-range K will be added via erf
 Coulomb attenuation parameter = 0.2 bohr**(-1)
 A restricted hybrid HF-DFT SCF calculation will be
 performed using Relaxed Constraint Minimization + Pulay DIIS
 Exchange:     0.2220 Hartree-Fock + 1.0000 wB97X-D + LR-HF
 Correlation:  1.0000 wB97X-D
 Using Euler-Maclaurin-Lebedev (75,302) quadrature formula
 Dispersion:   Grimme D
 SCF converges when DIIS error is below 1.0E-04
 using 6 threads for integral computing
 -------------------------------------------------------
 OpenMP Integral computing Module                
 Release: version 1.0, May 2013, Q-Chem Inc. Pittsburgh 
 -------------------------------------------------------
 using 6 threads for integral computing
 -------------------------------------------------------
 OpenMP Integral computing Module                
 Release: version 1.0, May 2013, Q-Chem Inc. Pittsburgh 
 -------------------------------------------------------
 ---------------------------------------
  Cycle       Energy         DIIS Error
 ---------------------------------------
    1    -155.4190380782      1.04E-01
    2    -154.6886478675      1.84E-02
    3    -154.7324630671      3.90E-03
    4    -154.7913923961      2.35E-03
    5    -154.7925180864      4.96E-04 Done RCA. Switching to DIIS
    6    -154.7934725902      5.35E-04
    7    -154.7935628487      5.78E-05 Convergence criterion met
 ---------------------------------------
 SCF time:  CPU 16.48 s  wall 2.76 s
 SCF   energy in the small basis set = -154.79356285
 Total energy in the small basis set = -154.79356285
 ----------------------------------------------------
  Cycle       Energy    
 ----------------------------------------------------
    1     -18.7072062058     -1.87E+01
 Long-range K will be added via erf
 Coulomb attenuation parameter = 0.2 bohr**(-1)
 A restricted hybrid HF-DFT SCF calculation will be
 performed using Relaxed Constraint Minimization + Pulay DIIS
 Exchange:     0.2220 Hartree-Fock + 1.0000 wB97X-D + LR-HF
 Correlation:  1.0000 wB97X-D
 Using Euler-Maclaurin-Lebedev (75,302) quadrature formula
 Dispersion:   Grimme D
 SCF converges when DIIS error is below 1.0E-05
 Basis2 calculation detected. Using small basis as guess for larger.
 SCFMinFind is unable to tell whether the solution found is close.
 Resetting ReadMinima to 0 and attempting to follow guess.
 SCFMinFind following SCF Guess.
 using 6 threads for integral computing
 -------------------------------------------------------
 OpenMP Integral computing Module                
 Release: version 1.0, May 2013, Q-Chem Inc. Pittsburgh 
 -------------------------------------------------------
 using 6 threads for integral computing
 -------------------------------------------------------
 OpenMP Integral computing Module                
 Release: version 1.0, May 2013, Q-Chem Inc. Pittsburgh 
 -------------------------------------------------------
 ---------------------------------------
  Cycle       Energy         DIIS Error
 ---------------------------------------
    1    -154.8169229719      6.19E-03
    2    -154.8045080325      5.06E-03
    3    -154.8318835562      1.25E-03
    4    -154.8704943797      1.30E-03
    5    -154.8728619548      1.64E-04 Done RCA. Switching to DIIS
    6    -154.8761281085      1.79E-04
    7    -154.8762291046      1.98E-05
    8    -154.8762344871      4.81E-06 Convergence criterion met
 ---------------------------------------
 SCF time:  CPU 64.78 s  wall 11.68 s
 SCF   energy in the final basis set = -154.87623449
 Total energy in the final basis set = -154.87623449
 
 --------------------------------------------------------------
 
                    Orbital Energies (a.u.)
 --------------------------------------------------------------
 
 Alpha MOs
 -- Occupied --
-19.2221 -10.3851 -10.2664  -1.1025  -0.8825  -0.7386  -0.6060  -0.5884
 -0.5156  -0.4906  -0.4676  -0.3804  -0.3011
 -- Virtual --
  0.0232   0.0613   0.0832   0.0919   0.1120   0.1252   0.1304   0.1422
  0.1655   0.1948   0.2051   0.2251   0.2642   0.2745   0.2913   0.3144
  0.3166   0.3246   0.3562   0.3932   0.4379   0.4538   0.4910   0.5248
  0.5348   0.5521   0.5648   0.5890   0.5946   0.6311   0.6451   0.6696
  0.6882   0.7489   0.8073   0.8219   0.8388   0.9227   0.9369   0.9785
  0.9992   1.0030   1.0830   1.1186   1.1312   1.1691   1.1722   1.2163
  1.2300   1.2465   1.2632   1.2820   1.3489   1.3647   1.3877   1.4275
  1.4321   1.4596   1.4681   1.4875   1.4995   1.5697   1.6283   1.6614
  1.7016   1.7394   1.9658   2.0099   2.0813   2.2716   2.3533   2.4019
  2.4591   2.5625   2.6270   2.6582   2.6759   2.7011   2.7490   2.8355
  2.8509   2.9030   2.9058   2.9690   2.9830   3.0034   3.0574   3.0859
  3.1153   3.1436   3.1895   3.2059   3.2655   3.2721   3.3236   3.3631
  3.3828   3.3998   3.4213   3.4427   3.4843   3.5029   3.5325   3.5496
  3.5836   3.6344   3.6434   3.7313   3.7507   3.7587   3.8197   3.8338
  3.8656   3.9152   3.9419   3.9696   3.9786   4.0089   4.0564   4.1222
  4.1726   4.1758   4.2244   4.2405   4.2726   4.3025   4.3173   4.3846
  4.4222   4.4531   4.4769   4.5510   4.5869   4.6788   4.7143   4.7620
  4.8171   4.8461   4.9468   4.9897   5.0213   5.0611   5.1026   5.1390
  5.1895   5.2232   5.2668   5.2871   5.3414   5.3845   5.4510   5.5160
  5.6164   5.6489   5.7876   5.9413   6.0068   6.1989   6.2279   6.2594
  6.4434   6.6599   6.8415   6.9071   7.1815   7.2281   7.4754   7.5876
  7.7744   8.0378  24.9650  25.2967  50.4777
 --------------------------------------------------------------
 
 -----------------------------------------------------------------
                    Cartesian Multipole Moments
 -----------------------------------------------------------------
    Charge (ESU x 10^10)
                -0.0000
    Dipole Moment (Debye)
         X      -0.5270      Y       2.7995      Z      -0.3657
       Tot       2.8720
    Quadrupole Moments (Debye-Ang)
        XX     -18.1148     XY      -8.3559     YY     -18.6709
        XZ       0.9854     YZ       1.1435     ZZ     -19.9280
    Octopole Moments (Debye-Ang^2)
       XXX     268.5983    XXY      12.1293    XYY      86.3974
       YYY     -28.3106    XXZ      -3.4214    XYZ      -4.7528
       YYZ      -0.5805    XZZ      86.8823    YZZ      -7.4994
       ZZZ      -7.2764
    Hexadecapole Moments (Debye-Ang^3)
      XXXX   -2589.4747   XXXY     106.8868   XXYY    -442.8516
      XYYY     143.3584   YYYY    -102.0382   XXXZ       7.4584
      XXYZ      23.3622   XYYZ      -1.3876   YYYZ       5.2803
      XXZZ    -407.8043   XYZZ      39.1075   YYZZ     -21.8283
      XZZZ      20.7086   YZZZ       3.8135   ZZZZ     -41.1371
 -----------------------------------------------------------------
Archival summary:
1\1\centos77-c1\SP\ProcedureUnspecified\BasisUnspecified\126\shihchen\WedJul2900:16:492020WedJul2900:16:492020\0\\#,ProcedureUnspecified,BasisUnspecified,\\0,1\C\H,1,1.08092\H,1,1.08285,2,114.612\C,1,1.41132,2,121.053,3,-158.707,0\H,4,1.08179,1,118.306,2,4.12185,0\H,4,1.08237,1,118.247,2,153.406,0\H,4,1.42001,1,73.3671,2,-101.28,0\O,7,1.24537,4,129.64,1,4.34102,0\H,8,0.96364,7,114.27,4,10.7075,0\\\@

 Total job time:  16.91s(wall), 85.40s(cpu) 
 Wed Jul 29 00:16:49 2020

        *************************************************************
        *                                                           *
        *  Thank you very much for using Q-Chem.  Have a nice day.  *
        *                                                           *
        *************************************************************


