                  Welcome to Q-Chem
     A Quantum Leap Into The Future Of Chemistry


 Q-Chem 5.3 (devel), Q-Chem, Inc., Pleasanton, CA (2020)

 Yihan Shao,  Zhengting Gan,  E. Epifanovsky,  A. T. B. Gilbert,  M. Wormit,  
 J. Kussmann,  A. W. Lange,  A. Behn,  Jia Deng,  Xintian Feng,  D. Ghosh,  
 M. Goldey,  P. R. Horn,  L. D. Jacobson,  I. Kaliman,  T. Kus,  A. Landau,  
 Jie Liu,  E. I. Proynov,  R. M. Richard,  R. P. Steele,  E. J. Sundstrom,  
 H. L. Woodcock III,  P. M. Zimmerman,  D. Zuev,  B. Alam,  B. Albrecht,  
 E. Alguire,  S. A. Baeppler,  D. Barton,  Z. Benda,  Y. A. Bernard,  
 E. J. Berquist,  K. B. Bravaya,  H. Burton,  K. Carter-Fenk,  D. Casanova,  
 Chun-Min Chang,  Yunqing Chen,  A. Chien,  K. D. Closser,  M. P. Coons,  
 S. Coriani,  S. Dasgupta,  A. L. Dempwolff,  M. Diedenhofen,  Hainam Do,  
 R. G. Edgar,  Po-Tung Fang,  S. Faraji,  S. Fatehi,  Qingguo Feng,  
 J. Fosso-Tande,  J. Gayvert,  Qinghui Ge,  A. Ghysels,  G. Gidofalvi,  
 J. Gomes,  J. Gonthier,  A. Gunina,  D. Hait,  M. W. D. Hanson-Heine,  
 P. H. P. Harbach,  A. W. Hauser,  M. F. Herbst,  J. E. Herr,  
 E. G. Hohenstein,  Z. C. Holden,  Kerwin Hui,  B. C. Huynh,  T.-C. Jagau,  
 Hyunjun Ji,  B. Kaduk,  K. Khistyaev,  Jaehoon Kim,  P. Klunzinger,  K. Koh,  
 D. Kosenkov,  L. Koulias,  T. Kowalczyk,  C. M. Krauter,  A. Kunitsa,  
 Ka Un Lao,  A. Laurent,  K. V. Lawler,  Joonho Lee,  D. Lefrancois,  
 S. Lehtola,  D. S. Levine,  Yi-Pei Li,  You-Sheng Lin,  Fenglai Liu,  
 Kuan-Yu Liu,  E. Livshits,  M. Loipersberger,  A. Luenser,  P. Manohar,  
 E. Mansoor,  S. F. Manzer,  Shan-Ping Mao,  Yuezhi Mao,  N. Mardirossian,  
 A. V. Marenich,  T. Markovich,  L. A. Martinez-Martinez,  S. A. Maurer,  
 N. J. Mayhall,  S. C. McKenzie,  J.-M. Mewes,  P. Morgante,  A. F. Morrison,  
 J. W. Mullinax,  K. Nanda,  T. S. Nguyen-Beck,  R. Olivares-Amaya,  
 K. J. Oosterbaan,  J. A. Parkhill,  S. K. Paul,  F. Pavosevic,  Zheng Pei,  
 T. M. Perrine,  F. Plasser,  P. Pokhilko,  S. Prager,  A. Prociuk,  
 E. Ramos,  B. Rana,  D. R. Rehn,  F. Rob,  M. Scheurer,  M. Schneider,  
 N. Sergueev,  S. M. Sharada,  S. Sharma,  D. W. Small,  T. Stauch,  
 C. J. Stein,  T. Stein,  Yu-Chuan Su,  S. P. Veccham,  Zhen Tao,  
 A. J. W. Thom,  A. Tkatchenko,  T. Tsuchimochi,  N. M. Tubman,  L. Vogt,  
 M. L. Vidal,  O. Vydrov,  M. A. Watson,  J. Wenzel,  M. de Wergifosse,  
 T. A. Wesolowski,  A. White,  J. Witte,  A. Yamada,  Jun Yang,  K. Yao,  
 S. Yeganeh,  S. R. Yost,  Zhi-Qiang You,  A. Zech,  Igor Ying Zhang,  
 Xing Zhang,  Yan Zhao,  Ying Zhu,  B. R. Brooks,  G. K. L. Chan,  
 C. J. Cramer,  M. S. Gordon,  W. J. Hehre,  A. Klamt,  M. W. Schmidt,  
 C. D. Sherrill,  D. G. Truhlar,  A. Aspuru-Guzik,  R. Baer,  A. T. Bell,  
 N. A. Besley,  Jeng-Da Chai,  A. E. DePrince, III,  R. A. DiStasio Jr.,  
 A. Dreuw,  B. D. Dunietz,  T. R. Furlani,  Chao-Ping Hsu,  Yousung Jung,  
 Jing Kong,  D. S. Lambrecht,  WanZhen Liang,  C. Ochsenfeld,  
 V. A. Rassolov,  L. V. Slipchenko,  J. E. Subotnik,  T. Van Voorhis,  
 J. M. Herbert,  A. I. Krylov,  P. M. W. Gill,  M. Head-Gordon

 Contributors to earlier versions of Q-Chem not listed above: 
 R. D. Adamson,  B. Austin,  J. Baker,  G. J. O. Beran,  K. Brandhorst,  
 S. T. Brown,  E. F. C. Byrd,  A. K. Chakraborty,  C.-L. Cheng,  
 Siu Hung Chien,  D. M. Chipman,  D. L. Crittenden,  H. Dachsel,  
 R. J. Doerksen,  A. D. Dutoi,  L. Fusti-Molnar,  W. A. Goddard III,  
 A. Golubeva-Zadorozhnaya,  S. R. Gwaltney,  G. Hawkins,  A. Heyden,  
 S. Hirata,  G. Kedziora,  F. J. Keil,  C. Kelley,  Jihan Kim,  R. A. King,  
 R. Z. Khaliullin,  P. P. Korambath,  W. Kurlancheek,  A. M. Lee,  M. S. Lee,  
 S. V. Levchenko,  Ching Yeh Lin,  D. Liotard,  R. C. Lochan,  I. Lotan,  
 P. E. Maslen,  N. Nair,  D. P. O'Neill,  D. Neuhauser,  E. Neuscamman,  
 C. M. Oana,  R. Olson,  B. Peters,  R. Peverati,  P. A. Pieniazek,  
 Y. M. Rhee,  J. Ritchie,  M. A. Rohrdanz,  E. Rosta,  N. J. Russ,  
 H. F. Schaefer III,  N. E. Schultz,  N. Shenvi,  A. C. Simmonett,  A. Sodt,  
 D. Stuck,  K. S. Thanthiriwatte,  V. Vanovschi,  Tao Wang,  A. Warshel,  
 C. F. Williams,  Q. Wu,  X. Xu,  W. Zhang

 Please cite Q-Chem as follows:
 Y. Shao et al., Mol. Phys. 113, 184-215 (2015)
 DOI: 10.1080/00268976.2014.952696

 Q-Chem 5.3.0 for Intel X86 EM64T Linux

 Parts of Q-Chem use Armadillo 9.800.1 (Horizon Scraper).
 http://arma.sourceforge.net/

 Q-Chem begins on Wed Jul 29 00:12:34 2020  

Host: centos77-c1
0

     Scratch files written to /tmp/30084.centos77-h1/qchem25650//
Processing $rem in /opt/qchem-5.3.0-intel2020u1//config/preferences:
Processing $rem in /home/shihchengli/.qchemrc:

Checking the input file for inconsistencies... 	...done.

--------------------------------------------------------------
User input:
--------------------------------------------------------------
$rem
   JOBTYPE  sp
   EXCHANGE   omegaB97X-D
   BASIS   6-311+G(2df,2pd)
   UNRESTRICTED   False
   max_scf_cycles   250
   geom_opt_max_cycles   1500
   basis2 6-31G*
   scf_algorithm rca_diis
   SYM_IGNORE  TRUE
   print_input   true
   geom_opt_dmax   80
   pop_mulliken false
   XC_GRID 000075000302
$end

$molecule
0 1
C       -5.4864784846     0.4277898412     -0.2662555214
C       -4.2763436673     1.1366881832     -0.4239150892
H       -5.6096306041     -0.5019655215     -0.8065520506
H       -6.3892156526     0.9910047153     -0.0710131000
H       -4.7406218574     0.2288436645     0.9256106751
O       -3.6483597252     0.7178322911     1.2702797406
H       -4.2714933955     2.1630673325     -0.7628851379
H       -3.3412983910     0.6098294424     -0.5677234195
H       -2.9172906195     0.0900473086     1.2753440662
$end
--------------------------------------------------------------
 ----------------------------------------------------------------
             Standard Nuclear Orientation (Angstroms)
    I     Atom           X                Y                Z
 ----------------------------------------------------------------
    1      C      -5.4864784846     0.4277898412    -0.2662555214
    2      C      -4.2763436673     1.1366881832    -0.4239150892
    3      H      -5.6096306041    -0.5019655215    -0.8065520506
    4      H      -6.3892156526     0.9910047153    -0.0710131000
    5      H      -4.7406218574     0.2288436645     0.9256106751
    6      O      -3.6483597252     0.7178322911     1.2702797406
    7      H      -4.2714933955     2.1630673325    -0.7628851379
    8      H      -3.3412983910     0.6098294424    -0.5677234195
    9      H      -2.9172906195     0.0900473086     1.2753440662
 ----------------------------------------------------------------
 Nuclear Repulsion Energy =          79.58743049 hartrees
 There are       13 alpha and       13 beta electrons
 Requested basis set is 6-311+G(2df,2pd)
 There are 60 shells and 186 basis functions

 Total QAlloc Memory Limit   2000 MB
 Mega-Array Size       188 MB
 MEM_STATIC part       192 MB

                       Distance Matrix (Angstroms)
             C (  1)   C (  2)   H (  3)   H (  4)   H (  5)   O (  6)
   C (  2)  1.411318
   H (  3)  1.082373  2.146917
   H (  4)  1.081788  2.147089  1.837860
   H (  5)  1.420009  1.691436  2.071146  2.071717
   O (  6)  2.413244  1.854751  3.106078  3.063655  1.245369
   H (  7)  2.175780  1.080916  2.982435  2.517373  2.610042  2.571140
   H (  8)  2.173895  1.082853  2.537412  3.111562  2.081659  1.866603
   H (  9)  3.015183  2.414532  3.454485  3.831275  1.861750  0.963640
             H (  7)   H (  8)
   H (  8)  1.820961
   H (  9)  3.207126  1.961340
 
 A cutoff of  1.0D-09 yielded   1771 shell pairs
 There are     17220 function pairs (     21399 Cartesian)
 Smallest overlap matrix eigenvalue = 1.06E-04

 Scale SEOQF with 1.000000e-02/1.000000e-01/1.000000e-01

 Standard Electronic Orientation quadrupole field applied
 Nucleus-field energy     =     0.0000000013 hartrees
 Requested basis set is 6-31G(d)
 There are 24 shells and 54 basis functions
 A cutoff of  1.0D-09 yielded    297 shell pairs
 There are      1548 function pairs (      1731 Cartesian)
 Smallest overlap matrix eigenvalue = 6.77E-03
 Guess from superposition of atomic densities
 Warning:  Energy on first SCF cycle will be non-variational
 SAD guess density has 26.000000 electrons
 Long-range K will be added via erf
 Coulomb attenuation parameter = 0.2 bohr**(-1)
 A restricted hybrid HF-DFT SCF calculation will be
 performed using Relaxed Constraint Minimization + Pulay DIIS
 Exchange:     0.2220 Hartree-Fock + 1.0000 wB97X-D + LR-HF
 Correlation:  1.0000 wB97X-D
 Using Euler-Maclaurin-Lebedev (75,302) quadrature formula
 Dispersion:   Grimme D
 SCF converges when DIIS error is below 1.0E-04
 using 6 threads for integral computing
 -------------------------------------------------------
 OpenMP Integral computing Module                
 Release: version 1.0, May 2013, Q-Chem Inc. Pittsburgh 
 -------------------------------------------------------
 using 6 threads for integral computing
 -------------------------------------------------------
 OpenMP Integral computing Module                
 Release: version 1.0, May 2013, Q-Chem Inc. Pittsburgh 
 -------------------------------------------------------
 ---------------------------------------
  Cycle       Energy         DIIS Error
 ---------------------------------------
    1    -155.2869287856      1.00E-01
    2    -154.7554283511      1.58E-02
    3    -154.7894820858      3.39E-03
    4    -154.8304944364      2.51E-03
    5    -154.8315012063      5.42E-04 Done RCA. Switching to DIIS
    6    -154.8327728657      3.46E-04
    7    -154.8328167245      4.27E-05 Convergence criterion met
 ---------------------------------------
 SCF time:  CPU 15.98 s  wall 2.68 s
 SCF   energy in the small basis set = -154.83281672
 Total energy in the small basis set = -154.83281672
 ----------------------------------------------------
  Cycle       Energy    
 ----------------------------------------------------
    1     -18.6773523733     -1.87E+01
 Long-range K will be added via erf
 Coulomb attenuation parameter = 0.2 bohr**(-1)
 A restricted hybrid HF-DFT SCF calculation will be
 performed using Relaxed Constraint Minimization + Pulay DIIS
 Exchange:     0.2220 Hartree-Fock + 1.0000 wB97X-D + LR-HF
 Correlation:  1.0000 wB97X-D
 Using Euler-Maclaurin-Lebedev (75,302) quadrature formula
 Dispersion:   Grimme D
 SCF converges when DIIS error is below 1.0E-05
 Basis2 calculation detected. Using small basis as guess for larger.
 SCFMinFind is unable to tell whether the solution found is close.
 Resetting ReadMinima to 0 and attempting to follow guess.
 SCFMinFind following SCF Guess.
 using 6 threads for integral computing
 -------------------------------------------------------
 OpenMP Integral computing Module                
 Release: version 1.0, May 2013, Q-Chem Inc. Pittsburgh 
 -------------------------------------------------------
 using 6 threads for integral computing
 -------------------------------------------------------
 OpenMP Integral computing Module                
 Release: version 1.0, May 2013, Q-Chem Inc. Pittsburgh 
 -------------------------------------------------------
 ---------------------------------------
  Cycle       Energy         DIIS Error
 ---------------------------------------
    1    -154.8563766750      6.03E-03
    2    -154.8490630214      4.63E-03
    3    -154.8721569045      1.11E-03
    4    -154.9043102998      1.20E-03
    5    -154.9062051384      1.73E-04 Done RCA. Switching to DIIS
    6    -154.9087411285      2.04E-04
    7    -154.9088656810      1.10E-05
    8    -154.9088674542      3.57E-06 Convergence criterion met
 ---------------------------------------
 SCF time:  CPU 54.34 s  wall 9.08 s
 SCF   energy in the final basis set = -154.90886745
 Total energy in the final basis set = -154.90886745
 
 --------------------------------------------------------------
 
                    Orbital Energies (a.u.)
 --------------------------------------------------------------
 
 Alpha MOs
 -- Occupied --
-19.2425 -10.3534 -10.2556  -1.0935  -0.8744  -0.6990  -0.6134  -0.5720
 -0.5074  -0.4741  -0.4483  -0.3930  -0.3057
 -- Virtual --
  0.0377   0.0682   0.0889   0.0942   0.1128   0.1295   0.1382   0.1497
  0.1827   0.1900   0.2171   0.2254   0.2474   0.2749   0.2900   0.2985
  0.3152   0.3333   0.3590   0.4038   0.4629   0.4674   0.4863   0.5374
  0.5628   0.5823   0.5877   0.6085   0.6179   0.6289   0.6338   0.6825
  0.7012   0.7356   0.7942   0.8094   0.8463   0.8683   0.9157   0.9564
  0.9741   1.0420   1.0587   1.0919   1.1040   1.1322   1.1656   1.1880
  1.1961   1.2326   1.2929   1.3180   1.3503   1.3935   1.4074   1.4298
  1.4423   1.4807   1.4872   1.4954   1.5210   1.5833   1.5981   1.6223
  1.6650   1.7659   1.8968   1.9985   2.0200   2.2630   2.3034   2.4463
  2.5071   2.5619   2.6127   2.6464   2.6655   2.7547   2.7929   2.8016
  2.8985   2.9130   2.9551   2.9786   2.9966   3.0485   3.0882   3.1075
  3.1310   3.1364   3.1595   3.1961   3.2318   3.2471   3.2970   3.3185
  3.3522   3.4086   3.4222   3.4474   3.4705   3.5025   3.5123   3.5457
  3.5710   3.5882   3.6545   3.7095   3.7256   3.7339   3.7813   3.8075
  3.8268   3.8515   3.8666   3.9127   3.9491   3.9987   4.0258   4.0434
  4.0837   4.1405   4.1775   4.2103   4.2211   4.2467   4.2968   4.3267
  4.3429   4.3881   4.4325   4.4667   4.5093   4.5387   4.6386   4.7245
  4.7802   4.8274   4.8446   4.9584   5.0030   5.0815   5.0824   5.1157
  5.1339   5.1739   5.1972   5.2886   5.3848   5.4245   5.4795   5.5015
  5.6000   5.6568   5.7913   5.8102   6.0199   6.1174   6.2162   6.3254
  6.4547   6.6339   6.7311   6.9008   7.1881   7.2487   7.4067   7.6033
  7.7719   8.1767  24.9669  25.3013  50.4443
 --------------------------------------------------------------
 
 -----------------------------------------------------------------
                    Cartesian Multipole Moments
 -----------------------------------------------------------------
    Charge (ESU x 10^10)
                 0.0000
    Dipole Moment (Debye)
         X       1.0046      Y      -0.4927      Z      -1.4415
       Tot       1.8248
    Quadrupole Moments (Debye-Ang)
        XX     -27.7894     XY       0.6667     YY     -19.7621
        XZ       5.8519     YZ      -2.9355     ZZ     -23.8893
    Octopole Moments (Debye-Ang^2)
       XXX     319.0282    XXY     -12.5468    XYY      87.0246
       YYY     -40.8276    XXZ     -25.0191    XYZ       9.1242
       YYZ      -8.5369    XZZ     107.4551    YZZ     -19.4781
       ZZZ     -15.0131
    Hexadecapole Moments (Debye-Ang^3)
      XXXX   -2837.4859   XXXY     162.1457   XXYY    -422.9678
      XYYY     174.1350   YYYY    -101.5116   XXXZ      92.6508
      XXYZ     -25.3857   XYYZ      26.3741   YYYZ     -11.8139
      XXZZ    -520.5035   XYZZ      81.8413   YYZZ     -38.9564
      XZZZ      38.6792   YZZZ     -10.8828   ZZZZ    -116.9242
 -----------------------------------------------------------------
Archival summary:
1\1\centos77-c1\SP\ProcedureUnspecified\BasisUnspecified\126\shihchen\WedJul2900:12:482020WedJul2900:12:482020\0\\#,ProcedureUnspecified,BasisUnspecified,\\0,1\C\H,1,1.08092\H,1,1.08285,2,114.612\C,1,1.41132,2,121.053,3,-158.707,0\H,4,1.08179,1,118.306,2,-25.8782,0\H,4,1.08237,1,118.247,2,123.406,0\H,4,1.42001,1,73.3671,2,-131.28,0\O,7,1.24537,4,129.64,1,4.34102,0\H,8,0.96364,7,114.27,4,-109.293,0\\\@

 Total job time:  14.34s(wall), 75.00s(cpu) 
 Wed Jul 29 00:12:48 2020

        *************************************************************
        *                                                           *
        *  Thank you very much for using Q-Chem.  Have a nice day.  *
        *                                                           *
        *************************************************************


