                  Welcome to Q-Chem
     A Quantum Leap Into The Future Of Chemistry


 Q-Chem 5.3 (devel), Q-Chem, Inc., Pleasanton, CA (2020)

 Yihan Shao,  Zhengting Gan,  E. Epifanovsky,  A. T. B. Gilbert,  M. Wormit,  
 J. Kussmann,  A. W. Lange,  A. Behn,  Jia Deng,  Xintian Feng,  D. Ghosh,  
 M. Goldey,  P. R. Horn,  L. D. Jacobson,  I. Kaliman,  T. Kus,  A. Landau,  
 Jie Liu,  E. I. Proynov,  R. M. Richard,  R. P. Steele,  E. J. Sundstrom,  
 H. L. Woodcock III,  P. M. Zimmerman,  D. Zuev,  B. Alam,  B. Albrecht,  
 E. Alguire,  S. A. Baeppler,  D. Barton,  Z. Benda,  Y. A. Bernard,  
 E. J. Berquist,  K. B. Bravaya,  H. Burton,  K. Carter-Fenk,  D. Casanova,  
 Chun-Min Chang,  Yunqing Chen,  A. Chien,  K. D. Closser,  M. P. Coons,  
 S. Coriani,  S. Dasgupta,  A. L. Dempwolff,  M. Diedenhofen,  Hainam Do,  
 R. G. Edgar,  Po-Tung Fang,  S. Faraji,  S. Fatehi,  Qingguo Feng,  
 J. Fosso-Tande,  J. Gayvert,  Qinghui Ge,  A. Ghysels,  G. Gidofalvi,  
 J. Gomes,  J. Gonthier,  A. Gunina,  D. Hait,  M. W. D. Hanson-Heine,  
 P. H. P. Harbach,  A. W. Hauser,  M. F. Herbst,  J. E. Herr,  
 E. G. Hohenstein,  Z. C. Holden,  Kerwin Hui,  B. C. Huynh,  T.-C. Jagau,  
 Hyunjun Ji,  B. Kaduk,  K. Khistyaev,  Jaehoon Kim,  P. Klunzinger,  K. Koh,  
 D. Kosenkov,  L. Koulias,  T. Kowalczyk,  C. M. Krauter,  A. Kunitsa,  
 Ka Un Lao,  A. Laurent,  K. V. Lawler,  Joonho Lee,  D. Lefrancois,  
 S. Lehtola,  D. S. Levine,  Yi-Pei Li,  You-Sheng Lin,  Fenglai Liu,  
 Kuan-Yu Liu,  E. Livshits,  M. Loipersberger,  A. Luenser,  P. Manohar,  
 E. Mansoor,  S. F. Manzer,  Shan-Ping Mao,  Yuezhi Mao,  N. Mardirossian,  
 A. V. Marenich,  T. Markovich,  L. A. Martinez-Martinez,  S. A. Maurer,  
 N. J. Mayhall,  S. C. McKenzie,  J.-M. Mewes,  P. Morgante,  A. F. Morrison,  
 J. W. Mullinax,  K. Nanda,  T. S. Nguyen-Beck,  R. Olivares-Amaya,  
 K. J. Oosterbaan,  J. A. Parkhill,  S. K. Paul,  F. Pavosevic,  Zheng Pei,  
 T. M. Perrine,  F. Plasser,  P. Pokhilko,  S. Prager,  A. Prociuk,  
 E. Ramos,  B. Rana,  D. R. Rehn,  F. Rob,  M. Scheurer,  M. Schneider,  
 N. Sergueev,  S. M. Sharada,  S. Sharma,  D. W. Small,  T. Stauch,  
 C. J. Stein,  T. Stein,  Yu-Chuan Su,  S. P. Veccham,  Zhen Tao,  
 A. J. W. Thom,  A. Tkatchenko,  T. Tsuchimochi,  N. M. Tubman,  L. Vogt,  
 M. L. Vidal,  O. Vydrov,  M. A. Watson,  J. Wenzel,  M. de Wergifosse,  
 T. A. Wesolowski,  A. White,  J. Witte,  A. Yamada,  Jun Yang,  K. Yao,  
 S. Yeganeh,  S. R. Yost,  Zhi-Qiang You,  A. Zech,  Igor Ying Zhang,  
 Xing Zhang,  Yan Zhao,  Ying Zhu,  B. R. Brooks,  G. K. L. Chan,  
 C. J. Cramer,  M. S. Gordon,  W. J. Hehre,  A. Klamt,  M. W. Schmidt,  
 C. D. Sherrill,  D. G. Truhlar,  A. Aspuru-Guzik,  R. Baer,  A. T. Bell,  
 N. A. Besley,  Jeng-Da Chai,  A. E. DePrince, III,  R. A. DiStasio Jr.,  
 A. Dreuw,  B. D. Dunietz,  T. R. Furlani,  Chao-Ping Hsu,  Yousung Jung,  
 Jing Kong,  D. S. Lambrecht,  WanZhen Liang,  C. Ochsenfeld,  
 V. A. Rassolov,  L. V. Slipchenko,  J. E. Subotnik,  T. Van Voorhis,  
 J. M. Herbert,  A. I. Krylov,  P. M. W. Gill,  M. Head-Gordon

 Contributors to earlier versions of Q-Chem not listed above: 
 R. D. Adamson,  B. Austin,  J. Baker,  G. J. O. Beran,  K. Brandhorst,  
 S. T. Brown,  E. F. C. Byrd,  A. K. Chakraborty,  C.-L. Cheng,  
 Siu Hung Chien,  D. M. Chipman,  D. L. Crittenden,  H. Dachsel,  
 R. J. Doerksen,  A. D. Dutoi,  L. Fusti-Molnar,  W. A. Goddard III,  
 A. Golubeva-Zadorozhnaya,  S. R. Gwaltney,  G. Hawkins,  A. Heyden,  
 S. Hirata,  G. Kedziora,  F. J. Keil,  C. Kelley,  Jihan Kim,  R. A. King,  
 R. Z. Khaliullin,  P. P. Korambath,  W. Kurlancheek,  A. M. Lee,  M. S. Lee,  
 S. V. Levchenko,  Ching Yeh Lin,  D. Liotard,  R. C. Lochan,  I. Lotan,  
 P. E. Maslen,  N. Nair,  D. P. O'Neill,  D. Neuhauser,  E. Neuscamman,  
 C. M. Oana,  R. Olson,  B. Peters,  R. Peverati,  P. A. Pieniazek,  
 Y. M. Rhee,  J. Ritchie,  M. A. Rohrdanz,  E. Rosta,  N. J. Russ,  
 H. F. Schaefer III,  N. E. Schultz,  N. Shenvi,  A. C. Simmonett,  A. Sodt,  
 D. Stuck,  K. S. Thanthiriwatte,  V. Vanovschi,  Tao Wang,  A. Warshel,  
 C. F. Williams,  Q. Wu,  X. Xu,  W. Zhang

 Please cite Q-Chem as follows:
 Y. Shao et al., Mol. Phys. 113, 184-215 (2015)
 DOI: 10.1080/00268976.2014.952696

 Q-Chem 5.3.0 for Intel X86 EM64T Linux

 Parts of Q-Chem use Armadillo 9.800.1 (Horizon Scraper).
 http://arma.sourceforge.net/

 Q-Chem begins on Wed Jul 29 00:10:45 2020  

Host: centos77-c1
0

     Scratch files written to /tmp/30084.centos77-h1/qchem25394//
Processing $rem in /opt/qchem-5.3.0-intel2020u1//config/preferences:
Processing $rem in /home/shihchengli/.qchemrc:

Checking the input file for inconsistencies... 	...done.

--------------------------------------------------------------
User input:
--------------------------------------------------------------
$rem
   JOBTYPE  sp
   EXCHANGE   omegaB97X-D
   BASIS   6-311+G(2df,2pd)
   UNRESTRICTED   False
   max_scf_cycles   250
   geom_opt_max_cycles   1500
   basis2 6-31G*
   scf_algorithm rca_diis
   SYM_IGNORE  TRUE
   print_input   true
   geom_opt_dmax   80
   pop_mulliken false
   XC_GRID 000075000302
$end

$molecule
0 1
C       -5.5214011664     0.4699694503     -0.2509755899
C       -4.3514089425     1.2503507861     -0.3690553991
H       -5.6524215404     -0.3627348550     -0.9299225833
H       -6.4259108644     0.9509555610     0.0965579474
H       -4.6825314219     0.1120583306     0.8374287019
O       -3.5850846579     0.5875509596     1.1845029977
H       -4.1480477441     1.8180935279     -1.2661009828
H       -3.4793830771     1.0348910119     0.2356913357
H       -2.8345429827     0.0020024848     1.0347637357
$end
--------------------------------------------------------------
 ----------------------------------------------------------------
             Standard Nuclear Orientation (Angstroms)
    I     Atom           X                Y                Z
 ----------------------------------------------------------------
    1      C      -5.5214011664     0.4699694503    -0.2509755899
    2      C      -4.3514089425     1.2503507861    -0.3690553991
    3      H      -5.6524215404    -0.3627348550    -0.9299225833
    4      H      -6.4259108644     0.9509555610     0.0965579474
    5      H      -4.6825314219     0.1120583306     0.8374287019
    6      O      -3.5850846579     0.5875509596     1.1845029977
    7      H      -4.1480477441     1.8180935279    -1.2661009828
    8      H      -3.4793830771     1.0348910119     0.2356913357
    9      H      -2.8345429827     0.0020024848     1.0347637357
 ----------------------------------------------------------------
 Nuclear Repulsion Energy =          81.34068937 hartrees
 There are       13 alpha and       13 beta electrons
 Requested basis set is 6-311+G(2df,2pd)
 There are 60 shells and 186 basis functions

 Total QAlloc Memory Limit   2000 MB
 Mega-Array Size       188 MB
 MEM_STATIC part       192 MB

                       Distance Matrix (Angstroms)
             C (  1)   C (  2)   H (  3)   H (  4)   H (  5)   O (  6)
   C (  2)  1.411318
   H (  3)  1.082373  2.146917
   H (  4)  1.081788  2.147089  1.837860
   H (  5)  1.420009  1.691436  2.071146  2.071717
   O (  6)  2.413244  1.854751  3.106078  3.063655  1.245369
   H (  7)  2.175780  1.080916  2.670612  2.792388  2.760628  2.799397
   H (  8)  2.173895  1.082853  2.834451  2.951005  1.631341  1.054291
   H (  9)  3.015183  2.414532  3.454485  3.831275  1.861750  0.963640
             H (  7)   H (  8)
   H (  8)  1.820961
   H (  9)  3.212080  1.456432
 
 A cutoff of  1.0D-09 yielded   1770 shell pairs
 There are     17182 function pairs (     21351 Cartesian)
 Smallest overlap matrix eigenvalue = 1.31E-04

 Scale SEOQF with 1.000000e-02/1.000000e-01/1.000000e-01

 Standard Electronic Orientation quadrupole field applied
 Nucleus-field energy     =     0.0000000015 hartrees
 Requested basis set is 6-31G(d)
 There are 24 shells and 54 basis functions
 A cutoff of  1.0D-09 yielded    297 shell pairs
 There are      1548 function pairs (      1731 Cartesian)
 Smallest overlap matrix eigenvalue = 7.34E-03
 Guess from superposition of atomic densities
 Warning:  Energy on first SCF cycle will be non-variational
 SAD guess density has 26.000000 electrons
 Long-range K will be added via erf
 Coulomb attenuation parameter = 0.2 bohr**(-1)
 A restricted hybrid HF-DFT SCF calculation will be
 performed using Relaxed Constraint Minimization + Pulay DIIS
 Exchange:     0.2220 Hartree-Fock + 1.0000 wB97X-D + LR-HF
 Correlation:  1.0000 wB97X-D
 Using Euler-Maclaurin-Lebedev (75,302) quadrature formula
 Dispersion:   Grimme D
 SCF converges when DIIS error is below 1.0E-04
 using 6 threads for integral computing
 -------------------------------------------------------
 OpenMP Integral computing Module                
 Release: version 1.0, May 2013, Q-Chem Inc. Pittsburgh 
 -------------------------------------------------------
 using 6 threads for integral computing
 -------------------------------------------------------
 OpenMP Integral computing Module                
 Release: version 1.0, May 2013, Q-Chem Inc. Pittsburgh 
 -------------------------------------------------------
 ---------------------------------------
  Cycle       Energy         DIIS Error
 ---------------------------------------
    1    -155.5885323632      1.12E-01
    2    -154.4926783159      1.79E-02
    3    -154.5358893737      3.30E-03
    4    -154.5873354895      2.20E-03
    5    -154.5883332629      6.47E-04 Done RCA. Switching to DIIS
    6    -154.5898480143      6.23E-04
    7    -154.5903262767      3.59E-04
    8    -154.5910988461      4.01E-04
    9    -154.5911005540      4.01E-04
   10    -154.5917272473      3.26E-04
   11    -154.5922252685      3.97E-04
   12    -154.5929020313      4.04E-04
   13    -154.5933466864      4.04E-04
   14    -154.5939200988      3.19E-04
   15    -154.5943395689      3.92E-04
   16    -154.5968736515      4.50E-04
   17    -154.5971515795      3.57E-04
   18    -154.5954208728      7.46E-04
   19    -154.5974202618      2.40E-04
   20    -154.5975607637      3.12E-04
   21    -154.5976335246      2.55E-04
   22    -154.5977268396      1.13E-04
   23    -154.5977411301      5.34E-05 Convergence criterion met
 ---------------------------------------
 SCF time:  CPU 35.77 s  wall 6.00 s
 SCF   energy in the small basis set = -154.59774113
 Total energy in the small basis set = -154.59774113
 ----------------------------------------------------
  Cycle       Energy    
 ----------------------------------------------------
    1     -18.7612103770     -1.88E+01
 Long-range K will be added via erf
 Coulomb attenuation parameter = 0.2 bohr**(-1)
 A restricted hybrid HF-DFT SCF calculation will be
 performed using Relaxed Constraint Minimization + Pulay DIIS
 Exchange:     0.2220 Hartree-Fock + 1.0000 wB97X-D + LR-HF
 Correlation:  1.0000 wB97X-D
 Using Euler-Maclaurin-Lebedev (75,302) quadrature formula
 Dispersion:   Grimme D
 SCF converges when DIIS error is below 1.0E-05
 Basis2 calculation detected. Using small basis as guess for larger.
 SCFMinFind is unable to tell whether the solution found is close.
 Resetting ReadMinima to 0 and attempting to follow guess.
 SCFMinFind following SCF Guess.
 using 6 threads for integral computing
 -------------------------------------------------------
 OpenMP Integral computing Module                
 Release: version 1.0, May 2013, Q-Chem Inc. Pittsburgh 
 -------------------------------------------------------
 using 6 threads for integral computing
 -------------------------------------------------------
 OpenMP Integral computing Module                
 Release: version 1.0, May 2013, Q-Chem Inc. Pittsburgh 
 -------------------------------------------------------
 ---------------------------------------
  Cycle       Energy         DIIS Error
 ---------------------------------------
    1    -154.5544144241      7.18E-03
    2    -154.5166973357      7.26E-03
    3    -154.5732480068      1.94E-03
    4    -154.6535672913      1.74E-03
    5    -154.6595433778      2.58E-04 Done RCA. Switching to DIIS
    6    -154.6694338502      1.81E-04
    7    -154.6704940931      1.66E-04
    8    -154.6716934163      1.35E-04
    9    -154.6735239370      1.01E-04
   10    -154.6747597005      7.02E-05
   11    -154.6752185868      3.61E-05
   12    -154.6753555228      3.52E-05
   13    -154.6753660506      2.00E-05
   14    -154.6753771215      5.32E-06 Convergence criterion met
 ---------------------------------------
 SCF time:  CPU 97.94 s  wall 16.37 s
 SCF   energy in the final basis set = -154.67537712
 Total energy in the final basis set = -154.67537712
 
 --------------------------------------------------------------
 
                    Orbital Energies (a.u.)
 --------------------------------------------------------------
 
 Alpha MOs
 -- Occupied --
-19.2448 -10.3082 -10.2592  -1.1612  -0.8718  -0.7133  -0.6409  -0.5727
 -0.5279  -0.5049  -0.4650  -0.3182  -0.2437
 -- Virtual --
 -0.0498   0.0667   0.0876   0.0961   0.1079   0.1351   0.1397   0.1439
  0.1801   0.1873   0.2209   0.2307   0.2602   0.2729   0.2806   0.3020
  0.3083   0.3403   0.3750   0.3877   0.4712   0.5092   0.5222   0.5396
  0.5611   0.5763   0.5975   0.6028   0.6177   0.6481   0.6644   0.6911
  0.6971   0.7314   0.7661   0.7999   0.8274   0.8622   0.9011   0.9638
  0.9804   1.0015   1.0457   1.0496   1.0890   1.1393   1.1730   1.2119
  1.2301   1.2538   1.2762   1.3023   1.3395   1.3991   1.4133   1.4266
  1.4488   1.4672   1.5007   1.5112   1.5653   1.6004   1.6432   1.6646
  1.8430   1.8622   2.0119   2.1278   2.2163   2.2603   2.3740   2.4618
  2.5285   2.5664   2.5966   2.6923   2.7443   2.7674   2.8013   2.8636
  2.8907   2.9320   2.9517   2.9553   2.9971   3.0265   3.0341   3.0911
  3.1298   3.1508   3.1675   3.2108   3.2381   3.2784   3.3056   3.3368
  3.3473   3.3813   3.4226   3.4363   3.4651   3.4820   3.4926   3.5517
  3.5627   3.5957   3.6235   3.6489   3.7504   3.8029   3.8112   3.8268
  3.8609   3.9025   3.9419   3.9482   3.9779   3.9999   4.0244   4.0539
  4.0976   4.1274   4.1779   4.2055   4.2407   4.2531   4.2893   4.2974
  4.3567   4.4152   4.4423   4.5007   4.6089   4.6221   4.6398   4.7440
  4.8092   4.8608   4.8867   4.9504   5.0377   5.0800   5.1251   5.1466
  5.1638   5.2646   5.3057   5.3776   5.4535   5.6557   5.7309   5.7640
  5.8328   5.8707   6.1211   6.1668   6.3465   6.4135   6.4974   6.6707
  6.7147   6.9244   6.9571   7.2958   7.3859   7.4297   7.6735   7.8755
  8.0016   8.3741  25.0478  25.3182  50.6061
 --------------------------------------------------------------
 
 -----------------------------------------------------------------
                    Cartesian Multipole Moments
 -----------------------------------------------------------------
    Charge (ESU x 10^10)
                 0.0000
    Dipole Moment (Debye)
         X       0.9686      Y      -0.7864      Z      -1.1376
       Tot       1.6884
    Quadrupole Moments (Debye-Ang)
        XX     -26.5056     XY       1.8640     YY     -21.6311
        XZ       4.1699     YZ      -1.2621     ZZ     -24.5297
    Octopole Moments (Debye-Ang^2)
       XXX     303.2410    XXY     -15.7829    XYY      95.4886
       YYY     -46.8080    XXZ     -16.1868    XYZ       2.5882
       YYZ      -5.5201    XZZ     109.2622    YZZ     -19.0115
       ZZZ     -12.6714
    Hexadecapole Moments (Debye-Ang^3)
      XXXX   -2695.6412   XXXY     160.3557   XXYY    -460.9356
      XYYY     202.6031   YYYY    -119.2694   XXXZ      44.8010
      XXYZ       2.6012   XYYZ      13.7925   YYYZ      -2.4731
      XXZZ    -527.4573   XYZZ      81.6236   YYZZ     -38.6985
      XZZZ      25.1219   YZZZ      -0.0907   ZZZZ    -113.0232
 -----------------------------------------------------------------
Archival summary:
1\1\centos77-c1\SP\ProcedureUnspecified\BasisUnspecified\126\shihchen\WedJul2900:11:102020WedJul2900:11:102020\0\\#,ProcedureUnspecified,BasisUnspecified,\\0,1\O\H,1,0.96364\H,1,1.05429,2,92.2864\C,3,1.08285,1,120.417,2,138.079,0\H,4,1.08092,3,114.612,1,172.742,0\H,1,1.24537,2,114.27,3,91.0028,0\C,4,1.41132,3,120.721,1,-28.4741,0\H,7,1.08179,4,118.306,3,116.706,0\H,7,1.08237,4,118.247,3,-94.0095,0\\\@

 Total job time:  24.82s(wall), 138.21s(cpu) 
 Wed Jul 29 00:11:10 2020

        *************************************************************
        *                                                           *
        *  Thank you very much for using Q-Chem.  Have a nice day.  *
        *                                                           *
        *************************************************************


