                  Welcome to Q-Chem
     A Quantum Leap Into The Future Of Chemistry


 Q-Chem 5.3 (devel), Q-Chem, Inc., Pleasanton, CA (2020)

 Yihan Shao,  Zhengting Gan,  E. Epifanovsky,  A. T. B. Gilbert,  M. Wormit,  
 J. Kussmann,  A. W. Lange,  A. Behn,  Jia Deng,  Xintian Feng,  D. Ghosh,  
 M. Goldey,  P. R. Horn,  L. D. Jacobson,  I. Kaliman,  T. Kus,  A. Landau,  
 Jie Liu,  E. I. Proynov,  R. M. Richard,  R. P. Steele,  E. J. Sundstrom,  
 H. L. Woodcock III,  P. M. Zimmerman,  D. Zuev,  B. Alam,  B. Albrecht,  
 E. Alguire,  S. A. Baeppler,  D. Barton,  Z. Benda,  Y. A. Bernard,  
 E. J. Berquist,  K. B. Bravaya,  H. Burton,  K. Carter-Fenk,  D. Casanova,  
 Chun-Min Chang,  Yunqing Chen,  A. Chien,  K. D. Closser,  M. P. Coons,  
 S. Coriani,  S. Dasgupta,  A. L. Dempwolff,  M. Diedenhofen,  Hainam Do,  
 R. G. Edgar,  Po-Tung Fang,  S. Faraji,  S. Fatehi,  Qingguo Feng,  
 J. Fosso-Tande,  J. Gayvert,  Qinghui Ge,  A. Ghysels,  G. Gidofalvi,  
 J. Gomes,  J. Gonthier,  A. Gunina,  D. Hait,  M. W. D. Hanson-Heine,  
 P. H. P. Harbach,  A. W. Hauser,  M. F. Herbst,  J. E. Herr,  
 E. G. Hohenstein,  Z. C. Holden,  Kerwin Hui,  B. C. Huynh,  T.-C. Jagau,  
 Hyunjun Ji,  B. Kaduk,  K. Khistyaev,  Jaehoon Kim,  P. Klunzinger,  K. Koh,  
 D. Kosenkov,  L. Koulias,  T. Kowalczyk,  C. M. Krauter,  A. Kunitsa,  
 Ka Un Lao,  A. Laurent,  K. V. Lawler,  Joonho Lee,  D. Lefrancois,  
 S. Lehtola,  D. S. Levine,  Yi-Pei Li,  You-Sheng Lin,  Fenglai Liu,  
 Kuan-Yu Liu,  E. Livshits,  M. Loipersberger,  A. Luenser,  P. Manohar,  
 E. Mansoor,  S. F. Manzer,  Shan-Ping Mao,  Yuezhi Mao,  N. Mardirossian,  
 A. V. Marenich,  T. Markovich,  L. A. Martinez-Martinez,  S. A. Maurer,  
 N. J. Mayhall,  S. C. McKenzie,  J.-M. Mewes,  P. Morgante,  A. F. Morrison,  
 J. W. Mullinax,  K. Nanda,  T. S. Nguyen-Beck,  R. Olivares-Amaya,  
 K. J. Oosterbaan,  J. A. Parkhill,  S. K. Paul,  F. Pavosevic,  Zheng Pei,  
 T. M. Perrine,  F. Plasser,  P. Pokhilko,  S. Prager,  A. Prociuk,  
 E. Ramos,  B. Rana,  D. R. Rehn,  F. Rob,  M. Scheurer,  M. Schneider,  
 N. Sergueev,  S. M. Sharada,  S. Sharma,  D. W. Small,  T. Stauch,  
 C. J. Stein,  T. Stein,  Yu-Chuan Su,  S. P. Veccham,  Zhen Tao,  
 A. J. W. Thom,  A. Tkatchenko,  T. Tsuchimochi,  N. M. Tubman,  L. Vogt,  
 M. L. Vidal,  O. Vydrov,  M. A. Watson,  J. Wenzel,  M. de Wergifosse,  
 T. A. Wesolowski,  A. White,  J. Witte,  A. Yamada,  Jun Yang,  K. Yao,  
 S. Yeganeh,  S. R. Yost,  Zhi-Qiang You,  A. Zech,  Igor Ying Zhang,  
 Xing Zhang,  Yan Zhao,  Ying Zhu,  B. R. Brooks,  G. K. L. Chan,  
 C. J. Cramer,  M. S. Gordon,  W. J. Hehre,  A. Klamt,  M. W. Schmidt,  
 C. D. Sherrill,  D. G. Truhlar,  A. Aspuru-Guzik,  R. Baer,  A. T. Bell,  
 N. A. Besley,  Jeng-Da Chai,  A. E. DePrince, III,  R. A. DiStasio Jr.,  
 A. Dreuw,  B. D. Dunietz,  T. R. Furlani,  Chao-Ping Hsu,  Yousung Jung,  
 Jing Kong,  D. S. Lambrecht,  WanZhen Liang,  C. Ochsenfeld,  
 V. A. Rassolov,  L. V. Slipchenko,  J. E. Subotnik,  T. Van Voorhis,  
 J. M. Herbert,  A. I. Krylov,  P. M. W. Gill,  M. Head-Gordon

 Contributors to earlier versions of Q-Chem not listed above: 
 R. D. Adamson,  B. Austin,  J. Baker,  G. J. O. Beran,  K. Brandhorst,  
 S. T. Brown,  E. F. C. Byrd,  A. K. Chakraborty,  C.-L. Cheng,  
 Siu Hung Chien,  D. M. Chipman,  D. L. Crittenden,  H. Dachsel,  
 R. J. Doerksen,  A. D. Dutoi,  L. Fusti-Molnar,  W. A. Goddard III,  
 A. Golubeva-Zadorozhnaya,  S. R. Gwaltney,  G. Hawkins,  A. Heyden,  
 S. Hirata,  G. Kedziora,  F. J. Keil,  C. Kelley,  Jihan Kim,  R. A. King,  
 R. Z. Khaliullin,  P. P. Korambath,  W. Kurlancheek,  A. M. Lee,  M. S. Lee,  
 S. V. Levchenko,  Ching Yeh Lin,  D. Liotard,  R. C. Lochan,  I. Lotan,  
 P. E. Maslen,  N. Nair,  D. P. O'Neill,  D. Neuhauser,  E. Neuscamman,  
 C. M. Oana,  R. Olson,  B. Peters,  R. Peverati,  P. A. Pieniazek,  
 Y. M. Rhee,  J. Ritchie,  M. A. Rohrdanz,  E. Rosta,  N. J. Russ,  
 H. F. Schaefer III,  N. E. Schultz,  N. Shenvi,  A. C. Simmonett,  A. Sodt,  
 D. Stuck,  K. S. Thanthiriwatte,  V. Vanovschi,  Tao Wang,  A. Warshel,  
 C. F. Williams,  Q. Wu,  X. Xu,  W. Zhang

 Please cite Q-Chem as follows:
 Y. Shao et al., Mol. Phys. 113, 184-215 (2015)
 DOI: 10.1080/00268976.2014.952696

 Q-Chem 5.3.0 for Intel X86 EM64T Linux

 Parts of Q-Chem use Armadillo 9.800.1 (Horizon Scraper).
 http://arma.sourceforge.net/

 Q-Chem begins on Wed Jul 29 00:15:46 2020  

Host: centos77-c1
0

     Scratch files written to /tmp/30084.centos77-h1/qchem26185//
Processing $rem in /opt/qchem-5.3.0-intel2020u1//config/preferences:
Processing $rem in /home/shihchengli/.qchemrc:

Checking the input file for inconsistencies... 	...done.

--------------------------------------------------------------
User input:
--------------------------------------------------------------
$rem
   JOBTYPE  sp
   EXCHANGE   omegaB97X-D
   BASIS   6-311+G(2df,2pd)
   UNRESTRICTED   False
   max_scf_cycles   250
   geom_opt_max_cycles   1500
   basis2 6-31G*
   scf_algorithm rca_diis
   SYM_IGNORE  TRUE
   print_input   true
   geom_opt_dmax   80
   pop_mulliken false
   XC_GRID 000075000302
$end

$molecule
0 1
C       -5.5316399769     0.5281138751     -0.0720514639
C       -4.3034252517     1.2189464058     0.0057860459
H       -5.9461252804     0.3289257125     -1.0518768706
H       -6.2440409401     0.6561469440     0.7319120881
H       -4.5447306043     -0.4344727831     0.2683358680
O       -3.3342759974     -0.2779573101     0.5158146720
H       -4.0491260595     1.8078865079     0.8757629733
H       -3.7595320144     1.4832870532     -0.8924760572
H       -2.9678362725     0.5522608518     0.1916829077
$end
--------------------------------------------------------------
 ----------------------------------------------------------------
             Standard Nuclear Orientation (Angstroms)
    I     Atom           X                Y                Z
 ----------------------------------------------------------------
    1      C      -5.5316399769     0.5281138751    -0.0720514639
    2      C      -4.3034252517     1.2189464058     0.0057860459
    3      H      -5.9461252804     0.3289257125    -1.0518768706
    4      H      -6.2440409401     0.6561469440     0.7319120881
    5      H      -4.5447306043    -0.4344727831     0.2683358680
    6      O      -3.3342759974    -0.2779573101     0.5158146720
    7      H      -4.0491260595     1.8078865079     0.8757629733
    8      H      -3.7595320144     1.4832870532    -0.8924760572
    9      H      -2.9678362725     0.5522608518     0.1916829077
 ----------------------------------------------------------------
 Nuclear Repulsion Energy =          80.59552250 hartrees
 There are       13 alpha and       13 beta electrons
 Requested basis set is 6-311+G(2df,2pd)
 There are 60 shells and 186 basis functions

 Total QAlloc Memory Limit   2000 MB
 Mega-Array Size       188 MB
 MEM_STATIC part       192 MB

                       Distance Matrix (Angstroms)
             C (  1)   C (  2)   H (  3)   H (  4)   H (  5)   O (  6)
   C (  2)  1.411318
   H (  3)  1.082373  2.146917
   H (  4)  1.081788  2.147089  1.837860
   H (  5)  1.420009  1.691436  2.071146  2.071717
   O (  6)  2.413244  1.854751  3.106078  3.063655  1.245369
   H (  7)  2.175780  1.080916  3.082487  2.482911  2.375451  2.234126
   H (  8)  2.173895  1.082853  2.477731  3.081490  2.375252  2.294800
   H (  9)  2.577446  1.504269  3.235201  3.322071  1.861750  0.963640
             H (  7)   H (  8)
   H (  8)  1.820961
   H (  9)  1.792693  1.633705
 
 A cutoff of  1.0D-09 yielded   1785 shell pairs
 There are     17307 function pairs (     21500 Cartesian)
 Smallest overlap matrix eigenvalue = 8.66E-05

 Scale SEOQF with 1.000000e-02/1.000000e-01/1.000000e-01

 Standard Electronic Orientation quadrupole field applied
 Nucleus-field energy     =     0.0000000025 hartrees
 Requested basis set is 6-31G(d)
 There are 24 shells and 54 basis functions
 A cutoff of  1.0D-09 yielded    297 shell pairs
 There are      1548 function pairs (      1731 Cartesian)
 Smallest overlap matrix eigenvalue = 6.81E-03
 Guess from superposition of atomic densities
 Warning:  Energy on first SCF cycle will be non-variational
 SAD guess density has 26.000000 electrons
 Long-range K will be added via erf
 Coulomb attenuation parameter = 0.2 bohr**(-1)
 A restricted hybrid HF-DFT SCF calculation will be
 performed using Relaxed Constraint Minimization + Pulay DIIS
 Exchange:     0.2220 Hartree-Fock + 1.0000 wB97X-D + LR-HF
 Correlation:  1.0000 wB97X-D
 Using Euler-Maclaurin-Lebedev (75,302) quadrature formula
 Dispersion:   Grimme D
 SCF converges when DIIS error is below 1.0E-04
 using 6 threads for integral computing
 -------------------------------------------------------
 OpenMP Integral computing Module                
 Release: version 1.0, May 2013, Q-Chem Inc. Pittsburgh 
 -------------------------------------------------------
 using 6 threads for integral computing
 -------------------------------------------------------
 OpenMP Integral computing Module                
 Release: version 1.0, May 2013, Q-Chem Inc. Pittsburgh 
 -------------------------------------------------------
 ---------------------------------------
  Cycle       Energy         DIIS Error
 ---------------------------------------
    1    -155.4137984849      1.04E-01
    2    -154.6907540312      1.84E-02
    3    -154.7343675545      3.86E-03
    4    -154.7927360333      2.34E-03
    5    -154.7938456716      4.97E-04 Done RCA. Switching to DIIS
    6    -154.7948058484      5.39E-04
    7    -154.7948960992      5.78E-05 Convergence criterion met
 ---------------------------------------
 SCF time:  CPU 14.33 s  wall 2.40 s
 SCF   energy in the small basis set = -154.79489610
 Total energy in the small basis set = -154.79489610
 ----------------------------------------------------
  Cycle       Energy    
 ----------------------------------------------------
    1     -18.7064098714     -1.87E+01
 Long-range K will be added via erf
 Coulomb attenuation parameter = 0.2 bohr**(-1)
 A restricted hybrid HF-DFT SCF calculation will be
 performed using Relaxed Constraint Minimization + Pulay DIIS
 Exchange:     0.2220 Hartree-Fock + 1.0000 wB97X-D + LR-HF
 Correlation:  1.0000 wB97X-D
 Using Euler-Maclaurin-Lebedev (75,302) quadrature formula
 Dispersion:   Grimme D
 SCF converges when DIIS error is below 1.0E-05
 Basis2 calculation detected. Using small basis as guess for larger.
 SCFMinFind is unable to tell whether the solution found is close.
 Resetting ReadMinima to 0 and attempting to follow guess.
 SCFMinFind following SCF Guess.
 using 6 threads for integral computing
 -------------------------------------------------------
 OpenMP Integral computing Module                
 Release: version 1.0, May 2013, Q-Chem Inc. Pittsburgh 
 -------------------------------------------------------
 using 6 threads for integral computing
 -------------------------------------------------------
 OpenMP Integral computing Module                
 Release: version 1.0, May 2013, Q-Chem Inc. Pittsburgh 
 -------------------------------------------------------
 ---------------------------------------
  Cycle       Energy         DIIS Error
 ---------------------------------------
    1    -154.8179951961      6.19E-03
    2    -154.8057738351      5.06E-03
    3    -154.8331069714      1.25E-03
    4    -154.8716722938      1.30E-03
    5    -154.8740244885      1.68E-04 Done RCA. Switching to DIIS
    6    -154.8772485156      1.87E-04
    7    -154.8773578054      1.97E-05
    8    -154.8773633507      4.95E-06 Convergence criterion met
 ---------------------------------------
 SCF time:  CPU 57.40 s  wall 9.60 s
 SCF   energy in the final basis set = -154.87736335
 Total energy in the final basis set = -154.87736335
 
 --------------------------------------------------------------
 
                    Orbital Energies (a.u.)
 --------------------------------------------------------------
 
 Alpha MOs
 -- Occupied --
-19.2226 -10.3844 -10.2661  -1.1023  -0.8823  -0.7375  -0.6012  -0.5917
 -0.5162  -0.4905  -0.4679  -0.3803  -0.3010
 -- Virtual --
  0.0232   0.0609   0.0832   0.0924   0.1121   0.1253   0.1304   0.1421
  0.1651   0.1960   0.2058   0.2246   0.2662   0.2717   0.2910   0.3114
  0.3175   0.3241   0.3586   0.3947   0.4382   0.4546   0.4923   0.5262
  0.5374   0.5475   0.5601   0.5921   0.5932   0.6286   0.6444   0.6701
  0.6882   0.7486   0.8011   0.8204   0.8375   0.9225   0.9373   0.9795
  0.9978   1.0047   1.0830   1.1165   1.1463   1.1641   1.1848   1.2093
  1.2258   1.2341   1.2572   1.2814   1.3440   1.3715   1.3852   1.4276
  1.4331   1.4510   1.4687   1.4852   1.4974   1.5706   1.6282   1.6684
  1.7005   1.7451   1.9666   2.0042   2.0739   2.2646   2.3264   2.4080
  2.4615   2.5574   2.6205   2.6514   2.6683   2.7169   2.7506   2.8262
  2.8546   2.9060   2.9326   2.9611   2.9853   2.9913   3.0554   3.0870
  3.1186   3.1669   3.2010   3.2090   3.2399   3.2870   3.3292   3.3606
  3.3828   3.3915   3.4108   3.4383   3.4816   3.4949   3.5213   3.5466
  3.5831   3.6330   3.6634   3.7235   3.7388   3.7448   3.8101   3.8409
  3.8613   3.9126   3.9373   3.9637   3.9755   4.0194   4.0602   4.1061
  4.1491   4.1758   4.2336   4.2462   4.2746   4.2999   4.3218   4.3836
  4.4167   4.4558   4.4622   4.5419   4.5896   4.6740   4.7048   4.7632
  4.8210   4.8459   4.9489   4.9886   5.0007   5.0631   5.1064   5.1374
  5.1821   5.2229   5.2641   5.2763   5.3392   5.3901   5.4356   5.5125
  5.6121   5.6467   5.7910   5.9658   6.0062   6.2009   6.2280   6.2579
  6.4425   6.6531   6.8344   6.8840   7.1775   7.2227   7.4724   7.5866
  7.7687   8.0379  24.9664  25.2971  50.4760
 --------------------------------------------------------------
 
 -----------------------------------------------------------------
                    Cartesian Multipole Moments
 -----------------------------------------------------------------
    Charge (ESU x 10^10)
                -0.0000
    Dipole Moment (Debye)
         X      -0.3885      Y       2.6762      Z      -0.9616
       Tot       2.8701
    Quadrupole Moments (Debye-Ang)
        XX     -18.7920     XY      -8.0308     YY     -18.7826
        XZ       2.3025     YZ       0.8169     ZZ     -20.5786
    Octopole Moments (Debye-Ang^2)
       XXX     271.1326    XXY      11.3368    XYY      86.8150
       YYY     -28.7037    XXZ      -5.8775    XYZ      -3.9127
       YYZ      -1.2718    XZZ      88.9428    YZZ      -8.0805
       ZZZ     -10.1513
    Hexadecapole Moments (Debye-Ang^3)
      XXXX   -2599.0083   XXXY     108.4607   XXYY    -444.3770
      XYYY     144.6334   YYYY    -102.5671   XXXZ       9.6316
      XXYZ      21.4029   XYYZ       0.6713   YYYZ       4.5445
      XXZZ    -415.1779   XYZZ      41.1517   YYZZ     -22.2421
      XZZZ      30.9761   YZZZ       3.3394   ZZZZ     -44.7715
 -----------------------------------------------------------------
Archival summary:
1\1\centos77-c1\SP\ProcedureUnspecified\BasisUnspecified\126\shihchen\WedJul2900:16:002020WedJul2900:16:002020\0\\#,ProcedureUnspecified,BasisUnspecified,\\0,1\C\H,1,1.08092\H,1,1.08285,2,114.612\C,1,1.41132,2,121.053,3,-158.707,0\H,4,1.08179,1,118.306,2,4.12185,0\H,4,1.08237,1,118.247,2,153.406,0\H,4,1.42001,1,73.3671,2,-101.28,0\O,7,1.24537,4,129.64,1,4.34102,0\H,8,0.96364,7,114.27,4,-19.2925,0\\\@

 Total job time:  14.25s(wall), 75.71s(cpu) 
 Wed Jul 29 00:16:00 2020

        *************************************************************
        *                                                           *
        *  Thank you very much for using Q-Chem.  Have a nice day.  *
        *                                                           *
        *************************************************************


