                  Welcome to Q-Chem
     A Quantum Leap Into The Future Of Chemistry


 Q-Chem 5.3 (devel), Q-Chem, Inc., Pleasanton, CA (2020)

 Yihan Shao,  Zhengting Gan,  E. Epifanovsky,  A. T. B. Gilbert,  M. Wormit,  
 J. Kussmann,  A. W. Lange,  A. Behn,  Jia Deng,  Xintian Feng,  D. Ghosh,  
 M. Goldey,  P. R. Horn,  L. D. Jacobson,  I. Kaliman,  T. Kus,  A. Landau,  
 Jie Liu,  E. I. Proynov,  R. M. Richard,  R. P. Steele,  E. J. Sundstrom,  
 H. L. Woodcock III,  P. M. Zimmerman,  D. Zuev,  B. Alam,  B. Albrecht,  
 E. Alguire,  S. A. Baeppler,  D. Barton,  Z. Benda,  Y. A. Bernard,  
 E. J. Berquist,  K. B. Bravaya,  H. Burton,  K. Carter-Fenk,  D. Casanova,  
 Chun-Min Chang,  Yunqing Chen,  A. Chien,  K. D. Closser,  M. P. Coons,  
 S. Coriani,  S. Dasgupta,  A. L. Dempwolff,  M. Diedenhofen,  Hainam Do,  
 R. G. Edgar,  Po-Tung Fang,  S. Faraji,  S. Fatehi,  Qingguo Feng,  
 J. Fosso-Tande,  J. Gayvert,  Qinghui Ge,  A. Ghysels,  G. Gidofalvi,  
 J. Gomes,  J. Gonthier,  A. Gunina,  D. Hait,  M. W. D. Hanson-Heine,  
 P. H. P. Harbach,  A. W. Hauser,  M. F. Herbst,  J. E. Herr,  
 E. G. Hohenstein,  Z. C. Holden,  Kerwin Hui,  B. C. Huynh,  T.-C. Jagau,  
 Hyunjun Ji,  B. Kaduk,  K. Khistyaev,  Jaehoon Kim,  P. Klunzinger,  K. Koh,  
 D. Kosenkov,  L. Koulias,  T. Kowalczyk,  C. M. Krauter,  A. Kunitsa,  
 Ka Un Lao,  A. Laurent,  K. V. Lawler,  Joonho Lee,  D. Lefrancois,  
 S. Lehtola,  D. S. Levine,  Yi-Pei Li,  You-Sheng Lin,  Fenglai Liu,  
 Kuan-Yu Liu,  E. Livshits,  M. Loipersberger,  A. Luenser,  P. Manohar,  
 E. Mansoor,  S. F. Manzer,  Shan-Ping Mao,  Yuezhi Mao,  N. Mardirossian,  
 A. V. Marenich,  T. Markovich,  L. A. Martinez-Martinez,  S. A. Maurer,  
 N. J. Mayhall,  S. C. McKenzie,  J.-M. Mewes,  P. Morgante,  A. F. Morrison,  
 J. W. Mullinax,  K. Nanda,  T. S. Nguyen-Beck,  R. Olivares-Amaya,  
 K. J. Oosterbaan,  J. A. Parkhill,  S. K. Paul,  F. Pavosevic,  Zheng Pei,  
 T. M. Perrine,  F. Plasser,  P. Pokhilko,  S. Prager,  A. Prociuk,  
 E. Ramos,  B. Rana,  D. R. Rehn,  F. Rob,  M. Scheurer,  M. Schneider,  
 N. Sergueev,  S. M. Sharada,  S. Sharma,  D. W. Small,  T. Stauch,  
 C. J. Stein,  T. Stein,  Yu-Chuan Su,  S. P. Veccham,  Zhen Tao,  
 A. J. W. Thom,  A. Tkatchenko,  T. Tsuchimochi,  N. M. Tubman,  L. Vogt,  
 M. L. Vidal,  O. Vydrov,  M. A. Watson,  J. Wenzel,  M. de Wergifosse,  
 T. A. Wesolowski,  A. White,  J. Witte,  A. Yamada,  Jun Yang,  K. Yao,  
 S. Yeganeh,  S. R. Yost,  Zhi-Qiang You,  A. Zech,  Igor Ying Zhang,  
 Xing Zhang,  Yan Zhao,  Ying Zhu,  B. R. Brooks,  G. K. L. Chan,  
 C. J. Cramer,  M. S. Gordon,  W. J. Hehre,  A. Klamt,  M. W. Schmidt,  
 C. D. Sherrill,  D. G. Truhlar,  A. Aspuru-Guzik,  R. Baer,  A. T. Bell,  
 N. A. Besley,  Jeng-Da Chai,  A. E. DePrince, III,  R. A. DiStasio Jr.,  
 A. Dreuw,  B. D. Dunietz,  T. R. Furlani,  Chao-Ping Hsu,  Yousung Jung,  
 Jing Kong,  D. S. Lambrecht,  WanZhen Liang,  C. Ochsenfeld,  
 V. A. Rassolov,  L. V. Slipchenko,  J. E. Subotnik,  T. Van Voorhis,  
 J. M. Herbert,  A. I. Krylov,  P. M. W. Gill,  M. Head-Gordon

 Contributors to earlier versions of Q-Chem not listed above: 
 R. D. Adamson,  B. Austin,  J. Baker,  G. J. O. Beran,  K. Brandhorst,  
 S. T. Brown,  E. F. C. Byrd,  A. K. Chakraborty,  C.-L. Cheng,  
 Siu Hung Chien,  D. M. Chipman,  D. L. Crittenden,  H. Dachsel,  
 R. J. Doerksen,  A. D. Dutoi,  L. Fusti-Molnar,  W. A. Goddard III,  
 A. Golubeva-Zadorozhnaya,  S. R. Gwaltney,  G. Hawkins,  A. Heyden,  
 S. Hirata,  G. Kedziora,  F. J. Keil,  C. Kelley,  Jihan Kim,  R. A. King,  
 R. Z. Khaliullin,  P. P. Korambath,  W. Kurlancheek,  A. M. Lee,  M. S. Lee,  
 S. V. Levchenko,  Ching Yeh Lin,  D. Liotard,  R. C. Lochan,  I. Lotan,  
 P. E. Maslen,  N. Nair,  D. P. O'Neill,  D. Neuhauser,  E. Neuscamman,  
 C. M. Oana,  R. Olson,  B. Peters,  R. Peverati,  P. A. Pieniazek,  
 Y. M. Rhee,  J. Ritchie,  M. A. Rohrdanz,  E. Rosta,  N. J. Russ,  
 H. F. Schaefer III,  N. E. Schultz,  N. Shenvi,  A. C. Simmonett,  A. Sodt,  
 D. Stuck,  K. S. Thanthiriwatte,  V. Vanovschi,  Tao Wang,  A. Warshel,  
 C. F. Williams,  Q. Wu,  X. Xu,  W. Zhang

 Please cite Q-Chem as follows:
 Y. Shao et al., Mol. Phys. 113, 184-215 (2015)
 DOI: 10.1080/00268976.2014.952696

 Q-Chem 5.3.0 for Intel X86 EM64T Linux

 Parts of Q-Chem use Armadillo 9.800.1 (Horizon Scraper).
 http://arma.sourceforge.net/

 Q-Chem begins on Wed Jul 29 00:06:50 2020  

Host: centos77-c1
0

     Scratch files written to /tmp/30084.centos77-h1/qchem24751//
Processing $rem in /opt/qchem-5.3.0-intel2020u1//config/preferences:
Processing $rem in /home/shihchengli/.qchemrc:

Checking the input file for inconsistencies... 	...done.

--------------------------------------------------------------
User input:
--------------------------------------------------------------
$rem
   JOBTYPE  sp
   EXCHANGE   omegaB97X-D
   BASIS   6-311+G(2df,2pd)
   UNRESTRICTED   False
   max_scf_cycles   250
   geom_opt_max_cycles   1500
   basis2 6-31G*
   scf_algorithm rca_diis
   SYM_IGNORE  TRUE
   print_input   true
   geom_opt_dmax   80
   pop_mulliken false
   XC_GRID 000075000302
$end

$molecule
0 1
C       -5.5518115057     0.5212477777     -0.1873304327
C       -4.4049593931     1.3418593530     -0.2434245413
H       -5.8184059306     -0.0474177610     -1.0688511279
H       -6.3702279287     0.8264458554     0.4508808834
H       -4.5413776638     -0.1408246468     0.5590677693
O       -3.3900590156     0.2367483113     0.8468997318
H       -3.4244113624     0.9456964241     -0.0199097311
H       -4.4891149241     2.4173040101     -0.1490461881
H       -2.6903646733     -0.2379220667     0.3846037999
$end
--------------------------------------------------------------
 ----------------------------------------------------------------
             Standard Nuclear Orientation (Angstroms)
    I     Atom           X                Y                Z
 ----------------------------------------------------------------
    1      C      -5.5518115057     0.5212477777    -0.1873304327
    2      C      -4.4049593931     1.3418593530    -0.2434245413
    3      H      -5.8184059306    -0.0474177610    -1.0688511279
    4      H      -6.3702279287     0.8264458554     0.4508808834
    5      H      -4.5413776638    -0.1408246468     0.5590677693
    6      O      -3.3900590156     0.2367483113     0.8468997318
    7      H      -3.4244113624     0.9456964241    -0.0199097311
    8      H      -4.4891149241     2.4173040101    -0.1490461881
    9      H      -2.6903646733    -0.2379220667     0.3846037999
 ----------------------------------------------------------------
 Nuclear Repulsion Energy =          81.19919530 hartrees
 There are       13 alpha and       13 beta electrons
 Requested basis set is 6-311+G(2df,2pd)
 There are 60 shells and 186 basis functions

 Total QAlloc Memory Limit   2000 MB
 Mega-Array Size       188 MB
 MEM_STATIC part       192 MB

                       Distance Matrix (Angstroms)
             C (  1)   C (  2)   H (  3)   H (  4)   H (  5)   O (  6)
   C (  2)  1.411318
   H (  3)  1.082373  2.146917
   H (  4)  1.081788  2.147089  1.837860
   H (  5)  1.420009  1.691436  2.071146  2.071717
   O (  6)  2.413244  1.854751  3.106078  3.063655  1.245369
   H (  7)  2.175780  1.080916  2.796026  2.985582  1.662335  1.120333
   H (  8)  2.173895  1.082853  2.947526  2.535612  2.654841  2.637168
   H (  9)  3.015183  2.414532  3.454485  3.831275  1.861750  0.963640
             H (  7)   H (  8)
   H (  8)  1.820961
   H (  9)  1.450313  3.251232
 
 A cutoff of  1.0D-09 yielded   1772 shell pairs
 There are     17197 function pairs (     21370 Cartesian)
 Smallest overlap matrix eigenvalue = 1.27E-04

 Scale SEOQF with 1.000000e-02/1.000000e-01/1.000000e-01

 Standard Electronic Orientation quadrupole field applied
 Nucleus-field energy     =     0.0000000025 hartrees
 Requested basis set is 6-31G(d)
 There are 24 shells and 54 basis functions
 A cutoff of  1.0D-09 yielded    297 shell pairs
 There are      1548 function pairs (      1731 Cartesian)
 Smallest overlap matrix eigenvalue = 7.42E-03
 Guess from superposition of atomic densities
 Warning:  Energy on first SCF cycle will be non-variational
 SAD guess density has 26.000000 electrons
 Long-range K will be added via erf
 Coulomb attenuation parameter = 0.2 bohr**(-1)
 A restricted hybrid HF-DFT SCF calculation will be
 performed using Relaxed Constraint Minimization + Pulay DIIS
 Exchange:     0.2220 Hartree-Fock + 1.0000 wB97X-D + LR-HF
 Correlation:  1.0000 wB97X-D
 Using Euler-Maclaurin-Lebedev (75,302) quadrature formula
 Dispersion:   Grimme D
 SCF converges when DIIS error is below 1.0E-04
 using 6 threads for integral computing
 -------------------------------------------------------
 OpenMP Integral computing Module                
 Release: version 1.0, May 2013, Q-Chem Inc. Pittsburgh 
 -------------------------------------------------------
 using 6 threads for integral computing
 -------------------------------------------------------
 OpenMP Integral computing Module                
 Release: version 1.0, May 2013, Q-Chem Inc. Pittsburgh 
 -------------------------------------------------------
 ---------------------------------------
  Cycle       Energy         DIIS Error
 ---------------------------------------
    1    -155.5499279485      1.10E-01
    2    -154.6469622274      1.38E-02
    3    -154.6774805973      3.49E-03
    4    -154.7034418101      3.99E-03
    5    -154.7053355805      6.41E-04 Done RCA. Switching to DIIS
    6    -154.7078029369      8.45E-04
    7    -154.7080007428      4.90E-05 Convergence criterion met
 ---------------------------------------
 SCF time:  CPU 16.08 s  wall 2.70 s
 SCF   energy in the small basis set = -154.70800074
 Total energy in the small basis set = -154.70800074
 ----------------------------------------------------
  Cycle       Energy    
 ----------------------------------------------------
    1     -18.7501772143     -1.88E+01
 Long-range K will be added via erf
 Coulomb attenuation parameter = 0.2 bohr**(-1)
 A restricted hybrid HF-DFT SCF calculation will be
 performed using Relaxed Constraint Minimization + Pulay DIIS
 Exchange:     0.2220 Hartree-Fock + 1.0000 wB97X-D + LR-HF
 Correlation:  1.0000 wB97X-D
 Using Euler-Maclaurin-Lebedev (75,302) quadrature formula
 Dispersion:   Grimme D
 SCF converges when DIIS error is below 1.0E-05
 Basis2 calculation detected. Using small basis as guess for larger.
 SCFMinFind is unable to tell whether the solution found is close.
 Resetting ReadMinima to 0 and attempting to follow guess.
 SCFMinFind following SCF Guess.
 using 6 threads for integral computing
 -------------------------------------------------------
 OpenMP Integral computing Module                
 Release: version 1.0, May 2013, Q-Chem Inc. Pittsburgh 
 -------------------------------------------------------
 using 6 threads for integral computing
 -------------------------------------------------------
 OpenMP Integral computing Module                
 Release: version 1.0, May 2013, Q-Chem Inc. Pittsburgh 
 -------------------------------------------------------
 ---------------------------------------
  Cycle       Energy         DIIS Error
 ---------------------------------------
    1    -154.7395118929      5.99E-03
    2    -154.7388418226      4.29E-03
    3    -154.7589303696      9.52E-04 Done RCA. Switching to DIIS
    4    -154.7865541700      9.94E-04
    5    -154.7895231119      9.55E-05
    6    -154.7896045588      2.32E-05
    7    -154.7896207023      1.74E-05
    8    -154.7896253555      8.16E-06 Convergence criterion met
 ---------------------------------------
 SCF time:  CPU 56.88 s  wall 9.51 s
 SCF   energy in the final basis set = -154.78962536
 Total energy in the final basis set = -154.78962536
 
 --------------------------------------------------------------
 
                    Orbital Energies (a.u.)
 --------------------------------------------------------------
 
 Alpha MOs
 -- Occupied --
-19.2706 -10.3077 -10.2592  -1.1698  -0.8690  -0.7113  -0.6393  -0.5802
 -0.5365  -0.4933  -0.4656  -0.3222  -0.3043
 -- Virtual --
  0.0114   0.0716   0.0897   0.0969   0.1123   0.1321   0.1419   0.1506
  0.1813   0.1849   0.2154   0.2429   0.2472   0.2715   0.2810   0.3006
  0.3077   0.3422   0.3679   0.3898   0.4667   0.4863   0.4994   0.5231
  0.5633   0.5824   0.5990   0.6114   0.6185   0.6250   0.6650   0.6787
  0.7037   0.7338   0.7811   0.8296   0.8331   0.8764   0.9145   0.9703
  0.9778   1.0287   1.0349   1.0658   1.0704   1.1428   1.1524   1.1718
  1.2091   1.2658   1.2949   1.3290   1.3482   1.4031   1.4155   1.4358
  1.4534   1.4708   1.5016   1.5444   1.5504   1.6117   1.6182   1.6313
  1.7293   1.8537   1.9789   2.0897   2.1462   2.2654   2.3696   2.4528
  2.5304   2.5703   2.6268   2.6527   2.7067   2.7801   2.8447   2.8627
  2.8718   2.9104   2.9232   2.9543   2.9984   3.0184   3.0557   3.0851
  3.1030   3.1542   3.1791   3.2051   3.2572   3.3055   3.3334   3.3566
  3.3618   3.3905   3.4072   3.4478   3.4516   3.4881   3.5453   3.5552
  3.5837   3.6133   3.6352   3.6925   3.7130   3.7752   3.8061   3.8265
  3.8589   3.8965   3.9127   3.9264   3.9626   3.9949   4.0366   4.0614
  4.0899   4.1396   4.2005   4.2074   4.2524   4.2590   4.2758   4.3115
  4.3166   4.3860   4.4522   4.4732   4.5679   4.6483   4.6850   4.7343
  4.8047   4.8528   4.9049   4.9610   4.9876   5.0412   5.1063   5.1445
  5.1812   5.2135   5.3197   5.3826   5.4252   5.5459   5.6553   5.7360
  5.7936   5.9834   6.0818   6.1408   6.1878   6.3553   6.4315   6.4900
  6.6950   6.7894   6.9016   7.2500   7.3508   7.3821   7.5838   7.7314
  7.9747   8.2636  25.0163  25.3177  50.5029
 --------------------------------------------------------------
 
 -----------------------------------------------------------------
                    Cartesian Multipole Moments
 -----------------------------------------------------------------
    Charge (ESU x 10^10)
                 0.0000
    Dipole Moment (Debye)
         X       0.9013      Y      -0.3439      Z      -0.6306
       Tot       1.1525
    Quadrupole Moments (Debye-Ang)
        XX     -26.8844     XY       0.4077     YY     -19.6978
        XZ       1.7071     YZ       0.5011     ZZ     -23.5754
    Octopole Moments (Debye-Ang^2)
       XXX     314.1983    XXY     -13.9315    XYY      89.0014
       YYY     -38.2227    XXZ      -6.1231    XYZ      -3.2672
       YYZ      -2.1144    XZZ     101.3762    YZZ     -16.1840
       ZZZ     -10.0184
    Hexadecapole Moments (Debye-Ang^3)
      XXXX   -2843.8329   XXXY     195.4588   XXYY    -448.6759
      XYYY     175.8728   YYYY    -111.4410   XXXZ      12.7148
      XXYZ      22.0818   XYYZ       2.5893   YYYZ       2.7102
      XXZZ    -472.3764   XYZZ      72.7807   YYZZ     -32.4024
      XZZZ      21.2529   YZZZ       5.3060   ZZZZ     -64.4580
 -----------------------------------------------------------------
Archival summary:
1\1\centos77-c1\SP\ProcedureUnspecified\BasisUnspecified\126\shihchen\WedJul2900:07:052020WedJul2900:07:052020\0\\#,ProcedureUnspecified,BasisUnspecified,\\0,1\O\H,1,0.96364\H,1,1.12033,2,87.8676\C,3,1.08092,1,114.818,2,146.417,0\H,4,1.08285,3,114.612,1,118.095,0\H,1,1.24537,2,114.27,3,88.0746,0\C,4,1.41132,3,121.053,1,-40.6115,0\H,7,1.08179,4,118.306,3,124.122,0\H,7,1.08237,4,118.247,3,-86.5938,0\\\@

 Total job time:  14.63s(wall), 77.35s(cpu) 
 Wed Jul 29 00:07:05 2020

        *************************************************************
        *                                                           *
        *  Thank you very much for using Q-Chem.  Have a nice day.  *
        *                                                           *
        *************************************************************


