                  Welcome to Q-Chem
     A Quantum Leap Into The Future Of Chemistry


 Q-Chem 5.3 (devel), Q-Chem, Inc., Pleasanton, CA (2020)

 Yihan Shao,  Zhengting Gan,  E. Epifanovsky,  A. T. B. Gilbert,  M. Wormit,  
 J. Kussmann,  A. W. Lange,  A. Behn,  Jia Deng,  Xintian Feng,  D. Ghosh,  
 M. Goldey,  P. R. Horn,  L. D. Jacobson,  I. Kaliman,  T. Kus,  A. Landau,  
 Jie Liu,  E. I. Proynov,  R. M. Richard,  R. P. Steele,  E. J. Sundstrom,  
 H. L. Woodcock III,  P. M. Zimmerman,  D. Zuev,  B. Alam,  B. Albrecht,  
 E. Alguire,  S. A. Baeppler,  D. Barton,  Z. Benda,  Y. A. Bernard,  
 E. J. Berquist,  K. B. Bravaya,  H. Burton,  K. Carter-Fenk,  D. Casanova,  
 Chun-Min Chang,  Yunqing Chen,  A. Chien,  K. D. Closser,  M. P. Coons,  
 S. Coriani,  S. Dasgupta,  A. L. Dempwolff,  M. Diedenhofen,  Hainam Do,  
 R. G. Edgar,  Po-Tung Fang,  S. Faraji,  S. Fatehi,  Qingguo Feng,  
 J. Fosso-Tande,  J. Gayvert,  Qinghui Ge,  A. Ghysels,  G. Gidofalvi,  
 J. Gomes,  J. Gonthier,  A. Gunina,  D. Hait,  M. W. D. Hanson-Heine,  
 P. H. P. Harbach,  A. W. Hauser,  M. F. Herbst,  J. E. Herr,  
 E. G. Hohenstein,  Z. C. Holden,  Kerwin Hui,  B. C. Huynh,  T.-C. Jagau,  
 Hyunjun Ji,  B. Kaduk,  K. Khistyaev,  Jaehoon Kim,  P. Klunzinger,  K. Koh,  
 D. Kosenkov,  L. Koulias,  T. Kowalczyk,  C. M. Krauter,  A. Kunitsa,  
 Ka Un Lao,  A. Laurent,  K. V. Lawler,  Joonho Lee,  D. Lefrancois,  
 S. Lehtola,  D. S. Levine,  Yi-Pei Li,  You-Sheng Lin,  Fenglai Liu,  
 Kuan-Yu Liu,  E. Livshits,  M. Loipersberger,  A. Luenser,  P. Manohar,  
 E. Mansoor,  S. F. Manzer,  Shan-Ping Mao,  Yuezhi Mao,  N. Mardirossian,  
 A. V. Marenich,  T. Markovich,  L. A. Martinez-Martinez,  S. A. Maurer,  
 N. J. Mayhall,  S. C. McKenzie,  J.-M. Mewes,  P. Morgante,  A. F. Morrison,  
 J. W. Mullinax,  K. Nanda,  T. S. Nguyen-Beck,  R. Olivares-Amaya,  
 K. J. Oosterbaan,  J. A. Parkhill,  S. K. Paul,  F. Pavosevic,  Zheng Pei,  
 T. M. Perrine,  F. Plasser,  P. Pokhilko,  S. Prager,  A. Prociuk,  
 E. Ramos,  B. Rana,  D. R. Rehn,  F. Rob,  M. Scheurer,  M. Schneider,  
 N. Sergueev,  S. M. Sharada,  S. Sharma,  D. W. Small,  T. Stauch,  
 C. J. Stein,  T. Stein,  Yu-Chuan Su,  S. P. Veccham,  Zhen Tao,  
 A. J. W. Thom,  A. Tkatchenko,  T. Tsuchimochi,  N. M. Tubman,  L. Vogt,  
 M. L. Vidal,  O. Vydrov,  M. A. Watson,  J. Wenzel,  M. de Wergifosse,  
 T. A. Wesolowski,  A. White,  J. Witte,  A. Yamada,  Jun Yang,  K. Yao,  
 S. Yeganeh,  S. R. Yost,  Zhi-Qiang You,  A. Zech,  Igor Ying Zhang,  
 Xing Zhang,  Yan Zhao,  Ying Zhu,  B. R. Brooks,  G. K. L. Chan,  
 C. J. Cramer,  M. S. Gordon,  W. J. Hehre,  A. Klamt,  M. W. Schmidt,  
 C. D. Sherrill,  D. G. Truhlar,  A. Aspuru-Guzik,  R. Baer,  A. T. Bell,  
 N. A. Besley,  Jeng-Da Chai,  A. E. DePrince, III,  R. A. DiStasio Jr.,  
 A. Dreuw,  B. D. Dunietz,  T. R. Furlani,  Chao-Ping Hsu,  Yousung Jung,  
 Jing Kong,  D. S. Lambrecht,  WanZhen Liang,  C. Ochsenfeld,  
 V. A. Rassolov,  L. V. Slipchenko,  J. E. Subotnik,  T. Van Voorhis,  
 J. M. Herbert,  A. I. Krylov,  P. M. W. Gill,  M. Head-Gordon

 Contributors to earlier versions of Q-Chem not listed above: 
 R. D. Adamson,  B. Austin,  J. Baker,  G. J. O. Beran,  K. Brandhorst,  
 S. T. Brown,  E. F. C. Byrd,  A. K. Chakraborty,  C.-L. Cheng,  
 Siu Hung Chien,  D. M. Chipman,  D. L. Crittenden,  H. Dachsel,  
 R. J. Doerksen,  A. D. Dutoi,  L. Fusti-Molnar,  W. A. Goddard III,  
 A. Golubeva-Zadorozhnaya,  S. R. Gwaltney,  G. Hawkins,  A. Heyden,  
 S. Hirata,  G. Kedziora,  F. J. Keil,  C. Kelley,  Jihan Kim,  R. A. King,  
 R. Z. Khaliullin,  P. P. Korambath,  W. Kurlancheek,  A. M. Lee,  M. S. Lee,  
 S. V. Levchenko,  Ching Yeh Lin,  D. Liotard,  R. C. Lochan,  I. Lotan,  
 P. E. Maslen,  N. Nair,  D. P. O'Neill,  D. Neuhauser,  E. Neuscamman,  
 C. M. Oana,  R. Olson,  B. Peters,  R. Peverati,  P. A. Pieniazek,  
 Y. M. Rhee,  J. Ritchie,  M. A. Rohrdanz,  E. Rosta,  N. J. Russ,  
 H. F. Schaefer III,  N. E. Schultz,  N. Shenvi,  A. C. Simmonett,  A. Sodt,  
 D. Stuck,  K. S. Thanthiriwatte,  V. Vanovschi,  Tao Wang,  A. Warshel,  
 C. F. Williams,  Q. Wu,  X. Xu,  W. Zhang

 Please cite Q-Chem as follows:
 Y. Shao et al., Mol. Phys. 113, 184-215 (2015)
 DOI: 10.1080/00268976.2014.952696

 Q-Chem 5.3.0 for Intel X86 EM64T Linux

 Parts of Q-Chem use Armadillo 9.800.1 (Horizon Scraper).
 http://arma.sourceforge.net/

 Q-Chem begins on Wed Jul 29 00:05:53 2020  

Host: centos77-c1
0

     Scratch files written to /tmp/30084.centos77-h1/qchem24623//
Processing $rem in /opt/qchem-5.3.0-intel2020u1//config/preferences:
Processing $rem in /home/shihchengli/.qchemrc:

Checking the input file for inconsistencies... 	...done.

--------------------------------------------------------------
User input:
--------------------------------------------------------------
$rem
   JOBTYPE  sp
   EXCHANGE   omegaB97X-D
   BASIS   6-311+G(2df,2pd)
   UNRESTRICTED   False
   max_scf_cycles   250
   geom_opt_max_cycles   1500
   basis2 6-31G*
   scf_algorithm rca_diis
   SYM_IGNORE  TRUE
   print_input   true
   geom_opt_dmax   80
   pop_mulliken false
   XC_GRID 000075000302
$end

$molecule
0 1
C       -5.5466226092     0.5273308692     -0.1646528379
C       -4.3989881322     1.3485769153     -0.1822515186
H       -5.8379815250     0.0344923467     -1.0832125754
H       -6.3471027691     0.7790466049     0.5180884702
H       -4.5191775490     -0.1957655476     0.4970985812
O       -3.3595230289     0.1552805229     0.7850417308
H       -3.5304924203     1.1058757590     0.4137264377
H       -4.4671690273     2.3881745709     -0.4774780714
H       -2.6736753363     -0.2798747840     0.2665299467
$end
--------------------------------------------------------------
 ----------------------------------------------------------------
             Standard Nuclear Orientation (Angstroms)
    I     Atom           X                Y                Z
 ----------------------------------------------------------------
    1      C      -5.5466226092     0.5273308692    -0.1646528379
    2      C      -4.3989881322     1.3485769153    -0.1822515186
    3      H      -5.8379815250     0.0344923467    -1.0832125754
    4      H      -6.3471027691     0.7790466049     0.5180884702
    5      H      -4.5191775490    -0.1957655476     0.4970985812
    6      O      -3.3595230289     0.1552805229     0.7850417308
    7      H      -3.5304924203     1.1058757590     0.4137264377
    8      H      -4.4671690273     2.3881745709    -0.4774780714
    9      H      -2.6736753363    -0.2798747840     0.2665299467
 ----------------------------------------------------------------
 Nuclear Repulsion Energy =          81.37409280 hartrees
 There are       13 alpha and       13 beta electrons
 Requested basis set is 6-311+G(2df,2pd)
 There are 60 shells and 186 basis functions

 Total QAlloc Memory Limit   2000 MB
 Mega-Array Size       188 MB
 MEM_STATIC part       192 MB

                       Distance Matrix (Angstroms)
             C (  1)   C (  2)   H (  3)   H (  4)   H (  5)   O (  6)
   C (  2)  1.411318
   H (  3)  1.082373  2.146917
   H (  4)  1.081788  2.147089  1.837860
   H (  5)  1.420009  1.691436  2.071146  2.071717
   O (  6)  2.413244  1.854751  3.106078  3.063655  1.245369
   H (  7)  2.175780  1.080916  2.951812  2.837429  1.636679  1.034764
   H (  8)  2.173895  1.082853  2.790316  2.667320  2.762110  2.794039
   H (  9)  3.015183  2.414532  3.454485  3.831275  1.861750  0.963640
             H (  7)   H (  8)
   H (  8)  1.820961
   H (  9)  1.635881  3.299796
 
 A cutoff of  1.0D-09 yielded   1768 shell pairs
 There are     17172 function pairs (     21339 Cartesian)
 Smallest overlap matrix eigenvalue = 1.31E-04

 Scale SEOQF with 1.000000e-02/1.000000e-01/1.000000e-01

 Standard Electronic Orientation quadrupole field applied
 Nucleus-field energy     =     0.0000000025 hartrees
 Requested basis set is 6-31G(d)
 There are 24 shells and 54 basis functions
 A cutoff of  1.0D-09 yielded    297 shell pairs
 There are      1548 function pairs (      1731 Cartesian)
 Smallest overlap matrix eigenvalue = 7.36E-03
 Guess from superposition of atomic densities
 Warning:  Energy on first SCF cycle will be non-variational
 SAD guess density has 26.000000 electrons
 Long-range K will be added via erf
 Coulomb attenuation parameter = 0.2 bohr**(-1)
 A restricted hybrid HF-DFT SCF calculation will be
 performed using Relaxed Constraint Minimization + Pulay DIIS
 Exchange:     0.2220 Hartree-Fock + 1.0000 wB97X-D + LR-HF
 Correlation:  1.0000 wB97X-D
 Using Euler-Maclaurin-Lebedev (75,302) quadrature formula
 Dispersion:   Grimme D
 SCF converges when DIIS error is below 1.0E-04
 using 6 threads for integral computing
 -------------------------------------------------------
 OpenMP Integral computing Module                
 Release: version 1.0, May 2013, Q-Chem Inc. Pittsburgh 
 -------------------------------------------------------
 using 6 threads for integral computing
 -------------------------------------------------------
 OpenMP Integral computing Module                
 Release: version 1.0, May 2013, Q-Chem Inc. Pittsburgh 
 -------------------------------------------------------
 ---------------------------------------
  Cycle       Energy         DIIS Error
 ---------------------------------------
    1    -155.5872340202      1.12E-01
    2    -154.5047805405      1.76E-02
    3    -154.5465016469      3.16E-03
    4    -154.5966427217      1.99E-03
    5    -154.5977349035      1.07E-03
    6    -154.5992119030      1.15E-03
    7    -154.5997119539      1.16E-03
    8    -154.6002837280      1.30E-03
    9    -154.6006677427      5.64E-04 Done RCA. Switching to DIIS
   10    -154.6014005508      5.39E-04
   11    -154.6029695213      2.21E-04
   12    -154.6029790742      7.21E-05 Convergence criterion met
 ---------------------------------------
 SCF time:  CPU 28.00 s  wall 4.70 s
 SCF   energy in the small basis set = -154.60297907
 Total energy in the small basis set = -154.60297907
 ----------------------------------------------------
  Cycle       Energy    
 ----------------------------------------------------
    1     -18.7850178458     -1.88E+01
 Long-range K will be added via erf
 Coulomb attenuation parameter = 0.2 bohr**(-1)
 A restricted hybrid HF-DFT SCF calculation will be
 performed using Relaxed Constraint Minimization + Pulay DIIS
 Exchange:     0.2220 Hartree-Fock + 1.0000 wB97X-D + LR-HF
 Correlation:  1.0000 wB97X-D
 Using Euler-Maclaurin-Lebedev (75,302) quadrature formula
 Dispersion:   Grimme D
 SCF converges when DIIS error is below 1.0E-05
 Basis2 calculation detected. Using small basis as guess for larger.
 SCFMinFind is unable to tell whether the solution found is close.
 Resetting ReadMinima to 0 and attempting to follow guess.
 SCFMinFind following SCF Guess.
 using 6 threads for integral computing
 -------------------------------------------------------
 OpenMP Integral computing Module                
 Release: version 1.0, May 2013, Q-Chem Inc. Pittsburgh 
 -------------------------------------------------------
 using 6 threads for integral computing
 -------------------------------------------------------
 OpenMP Integral computing Module                
 Release: version 1.0, May 2013, Q-Chem Inc. Pittsburgh 
 -------------------------------------------------------
 ---------------------------------------
  Cycle       Energy         DIIS Error
 ---------------------------------------
    1    -154.5277657108      7.88E-03
    2    -154.4314567324      9.20E-03
    3    -154.5214857999      2.58E-03
    4    -154.6483260279      2.02E-03
    5    -154.6591151069      5.03E-04 Done RCA. Switching to DIIS
    6    -154.6740992192      6.05E-04
    7    -154.6756569768      7.91E-05
    8    -154.6759316757      7.01E-05
    9    -154.6763266367      5.64E-05
   10    -154.6768951492      4.50E-05
   11    -154.6771653255      3.29E-05
   12    -154.6773513777      1.49E-05
   13    -154.6773967464      6.51E-06 Convergence criterion met
 ---------------------------------------
 SCF time:  CPU 92.90 s  wall 15.52 s
 SCF   energy in the final basis set = -154.67739675
 Total energy in the final basis set = -154.67739675
 
 --------------------------------------------------------------
 
                    Orbital Energies (a.u.)
 --------------------------------------------------------------
 
 Alpha MOs
 -- Occupied --
-19.2803 -10.2932 -10.2574  -1.1817  -0.8652  -0.7269  -0.6491  -0.5773
 -0.5359  -0.4961  -0.4677  -0.3221  -0.2445
 -- Virtual --
 -0.0524   0.0682   0.0888   0.0939   0.1109   0.1341   0.1417   0.1460
  0.1760   0.1840   0.2213   0.2345   0.2559   0.2691   0.2858   0.3000
  0.3070   0.3409   0.3735   0.3872   0.4725   0.5046   0.5269   0.5406
  0.5567   0.5785   0.6054   0.6125   0.6191   0.6588   0.6641   0.6881
  0.6989   0.7511   0.7695   0.7835   0.8178   0.8496   0.9028   0.9567
  0.9751   1.0283   1.0407   1.0556   1.0869   1.1317   1.1732   1.1831
  1.2271   1.2508   1.2886   1.3197   1.3545   1.3965   1.4144   1.4416
  1.4445   1.4569   1.4909   1.5027   1.5306   1.5967   1.6489   1.6813
  1.8107   1.8859   2.0346   2.1275   2.2327   2.2435   2.3494   2.4692
  2.5218   2.5727   2.5902   2.6475   2.7286   2.7975   2.8100   2.8620
  2.8743   2.8886   2.9498   2.9752   3.0065   3.0292   3.0561   3.0946
  3.1251   3.1597   3.1913   3.2114   3.2479   3.2715   3.2880   3.3300
  3.3490   3.3649   3.4288   3.4489   3.4649   3.4894   3.5003   3.5407
  3.5869   3.6079   3.6342   3.6526   3.6833   3.7708   3.7981   3.8556
  3.8688   3.8886   3.8953   3.9439   3.9726   4.0159   4.0329   4.0739
  4.0983   4.1708   4.1931   4.2156   4.2284   4.2578   4.2728   4.3166
  4.3399   4.4057   4.4563   4.4920   4.6008   4.6321   4.6742   4.7520
  4.8128   4.8710   4.8801   4.9189   5.0191   5.0728   5.1382   5.1719
  5.1950   5.2214   5.3313   5.3688   5.4212   5.6167   5.6769   5.7803
  5.8134   5.8773   6.1037   6.1564   6.3183   6.3607   6.4546   6.7205
  6.7790   6.8851   7.0262   7.2522   7.3821   7.4442   7.7022   7.7730
  7.9872   8.4040  25.0590  25.3234  50.5752
 --------------------------------------------------------------
 
 -----------------------------------------------------------------
                    Cartesian Multipole Moments
 -----------------------------------------------------------------
    Charge (ESU x 10^10)
                -0.0000
    Dipole Moment (Debye)
         X       1.2605      Y      -0.3271      Z      -0.7775
       Tot       1.5167
    Quadrupole Moments (Debye-Ang)
        XX     -29.4807     XY       0.3439     YY     -20.6443
        XZ       1.4001     YZ       0.5270     ZZ     -23.6806
    Octopole Moments (Debye-Ang^2)
       XXX     325.3602    XXY     -11.1738    XYY      92.5449
       YYY     -39.2842    XXZ       0.1677    XYZ      -3.8262
       YYZ      -1.9713    XZZ     103.5866    YZZ     -16.8797
       ZZZ      -8.0952
    Hexadecapole Moments (Debye-Ang^3)
      XXXX   -2858.4888   XXXY     160.4211   XXYY    -460.1103
      XYYY     179.5121   YYYY    -116.9996   XXXZ     -43.4483
      XXYZ      28.1774   XYYZ       1.2879   YYYZ       5.3126
      XXZZ    -489.7758   XYZZ      77.0663   YYZZ     -36.4233
      XZZZ      13.1852   YZZZ       8.4349   ZZZZ     -62.9277
 -----------------------------------------------------------------
Archival summary:
1\1\centos77-c1\SP\ProcedureUnspecified\BasisUnspecified\126\shihchen\WedJul2900:06:152020WedJul2900:06:152020\0\\#,ProcedureUnspecified,BasisUnspecified,\\0,1\O\H,1,0.96364\H,1,1.03476,2,109.838\C,3,1.08092,1,122.471,2,104.178,0\H,4,1.08285,3,114.612,1,178.129,0\H,1,1.24537,2,114.27,3,100.864,0\C,4,1.41132,3,121.053,1,19.4226,0\H,7,1.08179,4,118.306,3,94.1218,0\H,7,1.08237,4,118.247,3,-116.594,0\\\@

 Total job time:  22.52s(wall), 124.99s(cpu) 
 Wed Jul 29 00:06:15 2020

        *************************************************************
        *                                                           *
        *  Thank you very much for using Q-Chem.  Have a nice day.  *
        *                                                           *
        *************************************************************


