                  Welcome to Q-Chem
     A Quantum Leap Into The Future Of Chemistry


 Q-Chem 5.3 (devel), Q-Chem, Inc., Pleasanton, CA (2020)

 Yihan Shao,  Zhengting Gan,  E. Epifanovsky,  A. T. B. Gilbert,  M. Wormit,  
 J. Kussmann,  A. W. Lange,  A. Behn,  Jia Deng,  Xintian Feng,  D. Ghosh,  
 M. Goldey,  P. R. Horn,  L. D. Jacobson,  I. Kaliman,  T. Kus,  A. Landau,  
 Jie Liu,  E. I. Proynov,  R. M. Richard,  R. P. Steele,  E. J. Sundstrom,  
 H. L. Woodcock III,  P. M. Zimmerman,  D. Zuev,  B. Alam,  B. Albrecht,  
 E. Alguire,  S. A. Baeppler,  D. Barton,  Z. Benda,  Y. A. Bernard,  
 E. J. Berquist,  K. B. Bravaya,  H. Burton,  K. Carter-Fenk,  D. Casanova,  
 Chun-Min Chang,  Yunqing Chen,  A. Chien,  K. D. Closser,  M. P. Coons,  
 S. Coriani,  S. Dasgupta,  A. L. Dempwolff,  M. Diedenhofen,  Hainam Do,  
 R. G. Edgar,  Po-Tung Fang,  S. Faraji,  S. Fatehi,  Qingguo Feng,  
 J. Fosso-Tande,  J. Gayvert,  Qinghui Ge,  A. Ghysels,  G. Gidofalvi,  
 J. Gomes,  J. Gonthier,  A. Gunina,  D. Hait,  M. W. D. Hanson-Heine,  
 P. H. P. Harbach,  A. W. Hauser,  M. F. Herbst,  J. E. Herr,  
 E. G. Hohenstein,  Z. C. Holden,  Kerwin Hui,  B. C. Huynh,  T.-C. Jagau,  
 Hyunjun Ji,  B. Kaduk,  K. Khistyaev,  Jaehoon Kim,  P. Klunzinger,  K. Koh,  
 D. Kosenkov,  L. Koulias,  T. Kowalczyk,  C. M. Krauter,  A. Kunitsa,  
 Ka Un Lao,  A. Laurent,  K. V. Lawler,  Joonho Lee,  D. Lefrancois,  
 S. Lehtola,  D. S. Levine,  Yi-Pei Li,  You-Sheng Lin,  Fenglai Liu,  
 Kuan-Yu Liu,  E. Livshits,  M. Loipersberger,  A. Luenser,  P. Manohar,  
 E. Mansoor,  S. F. Manzer,  Shan-Ping Mao,  Yuezhi Mao,  N. Mardirossian,  
 A. V. Marenich,  T. Markovich,  L. A. Martinez-Martinez,  S. A. Maurer,  
 N. J. Mayhall,  S. C. McKenzie,  J.-M. Mewes,  P. Morgante,  A. F. Morrison,  
 J. W. Mullinax,  K. Nanda,  T. S. Nguyen-Beck,  R. Olivares-Amaya,  
 K. J. Oosterbaan,  J. A. Parkhill,  S. K. Paul,  F. Pavosevic,  Zheng Pei,  
 T. M. Perrine,  F. Plasser,  P. Pokhilko,  S. Prager,  A. Prociuk,  
 E. Ramos,  B. Rana,  D. R. Rehn,  F. Rob,  M. Scheurer,  M. Schneider,  
 N. Sergueev,  S. M. Sharada,  S. Sharma,  D. W. Small,  T. Stauch,  
 C. J. Stein,  T. Stein,  Yu-Chuan Su,  S. P. Veccham,  Zhen Tao,  
 A. J. W. Thom,  A. Tkatchenko,  T. Tsuchimochi,  N. M. Tubman,  L. Vogt,  
 M. L. Vidal,  O. Vydrov,  M. A. Watson,  J. Wenzel,  M. de Wergifosse,  
 T. A. Wesolowski,  A. White,  J. Witte,  A. Yamada,  Jun Yang,  K. Yao,  
 S. Yeganeh,  S. R. Yost,  Zhi-Qiang You,  A. Zech,  Igor Ying Zhang,  
 Xing Zhang,  Yan Zhao,  Ying Zhu,  B. R. Brooks,  G. K. L. Chan,  
 C. J. Cramer,  M. S. Gordon,  W. J. Hehre,  A. Klamt,  M. W. Schmidt,  
 C. D. Sherrill,  D. G. Truhlar,  A. Aspuru-Guzik,  R. Baer,  A. T. Bell,  
 N. A. Besley,  Jeng-Da Chai,  A. E. DePrince, III,  R. A. DiStasio Jr.,  
 A. Dreuw,  B. D. Dunietz,  T. R. Furlani,  Chao-Ping Hsu,  Yousung Jung,  
 Jing Kong,  D. S. Lambrecht,  WanZhen Liang,  C. Ochsenfeld,  
 V. A. Rassolov,  L. V. Slipchenko,  J. E. Subotnik,  T. Van Voorhis,  
 J. M. Herbert,  A. I. Krylov,  P. M. W. Gill,  M. Head-Gordon

 Contributors to earlier versions of Q-Chem not listed above: 
 R. D. Adamson,  B. Austin,  J. Baker,  G. J. O. Beran,  K. Brandhorst,  
 S. T. Brown,  E. F. C. Byrd,  A. K. Chakraborty,  C.-L. Cheng,  
 Siu Hung Chien,  D. M. Chipman,  D. L. Crittenden,  H. Dachsel,  
 R. J. Doerksen,  A. D. Dutoi,  L. Fusti-Molnar,  W. A. Goddard III,  
 A. Golubeva-Zadorozhnaya,  S. R. Gwaltney,  G. Hawkins,  A. Heyden,  
 S. Hirata,  G. Kedziora,  F. J. Keil,  C. Kelley,  Jihan Kim,  R. A. King,  
 R. Z. Khaliullin,  P. P. Korambath,  W. Kurlancheek,  A. M. Lee,  M. S. Lee,  
 S. V. Levchenko,  Ching Yeh Lin,  D. Liotard,  R. C. Lochan,  I. Lotan,  
 P. E. Maslen,  N. Nair,  D. P. O'Neill,  D. Neuhauser,  E. Neuscamman,  
 C. M. Oana,  R. Olson,  B. Peters,  R. Peverati,  P. A. Pieniazek,  
 Y. M. Rhee,  J. Ritchie,  M. A. Rohrdanz,  E. Rosta,  N. J. Russ,  
 H. F. Schaefer III,  N. E. Schultz,  N. Shenvi,  A. C. Simmonett,  A. Sodt,  
 D. Stuck,  K. S. Thanthiriwatte,  V. Vanovschi,  Tao Wang,  A. Warshel,  
 C. F. Williams,  Q. Wu,  X. Xu,  W. Zhang

 Please cite Q-Chem as follows:
 Y. Shao et al., Mol. Phys. 113, 184-215 (2015)
 DOI: 10.1080/00268976.2014.952696

 Q-Chem 5.3.0 for Intel X86 EM64T Linux

 Parts of Q-Chem use Armadillo 9.800.1 (Horizon Scraper).
 http://arma.sourceforge.net/

 Q-Chem begins on Wed Jul 29 00:46:19 2020  

Host: centos77-c1
0

     Scratch files written to /tmp/30084.centos77-h1/qchem31095//
Processing $rem in /opt/qchem-5.3.0-intel2020u1//config/preferences:
Processing $rem in /home/shihchengli/.qchemrc:

Checking the input file for inconsistencies... 	...done.

--------------------------------------------------------------
User input:
--------------------------------------------------------------
$rem
   JOBTYPE  sp
   EXCHANGE   omegaB97X-D
   BASIS   6-311+G(2df,2pd)
   UNRESTRICTED   False
   max_scf_cycles   250
   geom_opt_max_cycles   1500
   basis2 6-31G*
   scf_algorithm rca_diis
   SYM_IGNORE  TRUE
   print_input   true
   geom_opt_dmax   80
   pop_mulliken false
   XC_GRID 000075000302
$end

$molecule
0 1
C       -5.5190265314     0.5527990309     -0.0663714045
C       -4.3873437581     1.3790821585     0.0642520491
H       -5.9244092960     0.2979263000     -1.1862784309
H       -6.3577746138     0.5827477815     0.7923215782
H       -4.4511663565     -0.2995914932     0.2929693410
O       -3.2768657510     -0.0125386184     0.5884954507
H       -4.2448352630     1.9377283967     0.9024459588
H       -3.8919482903     1.6925671218     -0.7386975930
H       -2.6273625372     -0.2675834208     -0.0762467862
$end
--------------------------------------------------------------
 ----------------------------------------------------------------
             Standard Nuclear Orientation (Angstroms)
    I     Atom           X                Y                Z
 ----------------------------------------------------------------
    1      C      -5.5190265314     0.5527990309    -0.0663714045
    2      C      -4.3873437581     1.3790821585     0.0642520491
    3      H      -5.9244092960     0.2979263000    -1.1862784309
    4      H      -6.3577746138     0.5827477815     0.7923215782
    5      H      -4.4511663565    -0.2995914932     0.2929693410
    6      O      -3.2768657510    -0.0125386184     0.5884954507
    7      H      -4.2448352630     1.9377283967     0.9024459588
    8      H      -3.8919482903     1.6925671218    -0.7386975930
    9      H      -2.6273625372    -0.2675834208    -0.0762467862
 ----------------------------------------------------------------
 Nuclear Repulsion Energy =          79.19765647 hartrees
 There are       13 alpha and       13 beta electrons
 Requested basis set is 6-311+G(2df,2pd)
 There are 60 shells and 186 basis functions

 Total QAlloc Memory Limit   2000 MB
 Mega-Array Size       188 MB
 MEM_STATIC part       192 MB

                       Distance Matrix (Angstroms)
             C (  1)   C (  2)   H (  3)   H (  4)   H (  5)   O (  6)
   C (  2)  1.407307
   H (  3)  1.217985  2.257276
   H (  4)  1.200728  2.246515  2.045431
   H (  5)  1.412806  1.695385  2.171554  2.159405
   O (  6)  2.403277  1.855964  3.202452  3.144505  1.244475
   H (  7)  2.116648  1.017331  3.142084  2.512491  2.328011  2.199789
   H (  8)  2.097255  0.994192  2.505244  3.107413  2.312089  2.246587
   H (  9)  3.005802  2.414287  3.524555  3.923449  1.861076  0.963735
             H (  7)   H (  8)
   H (  8)  1.696463
   H (  9)  2.904730  2.424914
 
 A cutoff of  1.0D-09 yielded   1773 shell pairs
 There are     17208 function pairs (     21373 Cartesian)
 Smallest overlap matrix eigenvalue = 8.83E-05

 Scale SEOQF with 1.000000e-02/1.000000e-01/1.000000e-01

 Standard Electronic Orientation quadrupole field applied
 Nucleus-field energy     =     0.0000000026 hartrees
 Requested basis set is 6-31G(d)
 There are 24 shells and 54 basis functions
 A cutoff of  1.0D-09 yielded    296 shell pairs
 There are      1547 function pairs (      1730 Cartesian)
 Smallest overlap matrix eigenvalue = 6.62E-03
 Guess from superposition of atomic densities
 Warning:  Energy on first SCF cycle will be non-variational
 SAD guess density has 26.000000 electrons
 Long-range K will be added via erf
 Coulomb attenuation parameter = 0.2 bohr**(-1)
 A restricted hybrid HF-DFT SCF calculation will be
 performed using Relaxed Constraint Minimization + Pulay DIIS
 Exchange:     0.2220 Hartree-Fock + 1.0000 wB97X-D + LR-HF
 Correlation:  1.0000 wB97X-D
 Using Euler-Maclaurin-Lebedev (75,302) quadrature formula
 Dispersion:   Grimme D
 SCF converges when DIIS error is below 1.0E-04
 using 6 threads for integral computing
 -------------------------------------------------------
 OpenMP Integral computing Module                
 Release: version 1.0, May 2013, Q-Chem Inc. Pittsburgh 
 -------------------------------------------------------
 using 6 threads for integral computing
 -------------------------------------------------------
 OpenMP Integral computing Module                
 Release: version 1.0, May 2013, Q-Chem Inc. Pittsburgh 
 -------------------------------------------------------
 ---------------------------------------
  Cycle       Energy         DIIS Error
 ---------------------------------------
    1    -155.2131363638      9.90E-02
    2    -154.7671797393      1.50E-02
    3    -154.7970583317      3.18E-03
    4    -154.8346029512      1.96E-03
    5    -154.8352982790      4.57E-04 Done RCA. Switching to DIIS
    6    -154.8360703089      3.88E-04
    7    -154.8361154071      4.67E-05 Convergence criterion met
 ---------------------------------------
 SCF time:  CPU 18.39 s  wall 3.08 s
 SCF   energy in the small basis set = -154.83611541
 Total energy in the small basis set = -154.83611541
 ----------------------------------------------------
  Cycle       Energy    
 ----------------------------------------------------
    1     -18.6523507628     -1.87E+01
 Long-range K will be added via erf
 Coulomb attenuation parameter = 0.2 bohr**(-1)
 A restricted hybrid HF-DFT SCF calculation will be
 performed using Relaxed Constraint Minimization + Pulay DIIS
 Exchange:     0.2220 Hartree-Fock + 1.0000 wB97X-D + LR-HF
 Correlation:  1.0000 wB97X-D
 Using Euler-Maclaurin-Lebedev (75,302) quadrature formula
 Dispersion:   Grimme D
 SCF converges when DIIS error is below 1.0E-05
 Basis2 calculation detected. Using small basis as guess for larger.
 SCFMinFind is unable to tell whether the solution found is close.
 Resetting ReadMinima to 0 and attempting to follow guess.
 SCFMinFind following SCF Guess.
 using 6 threads for integral computing
 -------------------------------------------------------
 OpenMP Integral computing Module                
 Release: version 1.0, May 2013, Q-Chem Inc. Pittsburgh 
 -------------------------------------------------------
 using 6 threads for integral computing
 -------------------------------------------------------
 OpenMP Integral computing Module                
 Release: version 1.0, May 2013, Q-Chem Inc. Pittsburgh 
 -------------------------------------------------------
 ---------------------------------------
  Cycle       Energy         DIIS Error
 ---------------------------------------
    1    -154.8623212873      5.97E-03
    2    -154.8582815672      4.39E-03
    3    -154.8793544429      9.95E-04 Done RCA. Switching to DIIS
    4    -154.9083337103      1.10E-03
    5    -154.9118396888      7.81E-05
    6    -154.9118700415      1.72E-05
    7    -154.9118723460      5.38E-06 Convergence criterion met
 ---------------------------------------
 SCF time:  CPU 54.98 s  wall 9.20 s
 SCF   energy in the final basis set = -154.91187235
 Total energy in the final basis set = -154.91187235
 
 --------------------------------------------------------------
 
                    Orbital Energies (a.u.)
 --------------------------------------------------------------
 
 Alpha MOs
 -- Occupied --
-19.2429 -10.3402 -10.2784  -1.0897  -0.8794  -0.6996  -0.6098  -0.5767
 -0.4996  -0.4522  -0.4318  -0.4302  -0.3061
 -- Virtual --
  0.0501   0.0670   0.0894   0.0964   0.1124   0.1283   0.1377   0.1467
  0.1801   0.1847   0.2038   0.2288   0.2496   0.2734   0.2906   0.2994
  0.3252   0.3270   0.3598   0.3977   0.4618   0.4639   0.4910   0.5487
  0.5607   0.5674   0.5798   0.5895   0.6151   0.6337   0.6694   0.6808
  0.6947   0.7560   0.7960   0.8296   0.8371   0.8802   0.9046   0.9375
  0.9793   0.9972   1.0535   1.0709   1.1314   1.1518   1.1794   1.1949
  1.2274   1.2537   1.2601   1.2993   1.3187   1.3486   1.3944   1.4088
  1.4314   1.4350   1.4706   1.4974   1.5076   1.5600   1.5763   1.6955
  1.7080   1.7852   1.9118   2.0031   2.0510   2.2645   2.3114   2.4374
  2.4838   2.5528   2.6498   2.6921   2.7103   2.7296   2.7484   2.7924
  2.8641   2.8791   2.9229   2.9722   3.0017   3.0215   3.0556   3.0782
  3.1293   3.1487   3.1706   3.2007   3.2215   3.2588   3.2638   3.3207
  3.3434   3.3621   3.3985   3.4392   3.4622   3.5048   3.5321   3.5586
  3.5757   3.6041   3.6289   3.6458   3.6924   3.7201   3.7433   3.8103
  3.8147   3.8431   3.8698   3.9023   3.9215   3.9531   4.0472   4.0707
  4.1059   4.1139   4.1574   4.1906   4.2071   4.2138   4.2520   4.2609
  4.3135   4.3696   4.3732   4.4190   4.4601   4.4979   4.5501   4.6356
  4.6834   4.6972   4.7733   4.8498   4.9043   4.9119   5.0148   5.1070
  5.1111   5.1919   5.2914   5.3823   5.4077   5.4384   5.4484   5.5063
  5.5390   5.6912   5.7771   5.8143   6.0370   6.0579   6.1918   6.2214
  6.5612   6.6288   6.7316   6.8819   7.1644   7.2271   7.4097   7.6210
  7.7808   8.1730  24.7634  25.3140  50.4389
 --------------------------------------------------------------
 
 -----------------------------------------------------------------
                    Cartesian Multipole Moments
 -----------------------------------------------------------------
    Charge (ESU x 10^10)
                 0.0000
    Dipole Moment (Debye)
         X       0.5707      Y       1.0184      Z      -1.4353
       Tot       1.8502
    Quadrupole Moments (Debye-Ang)
        XX     -25.7122     XY      -3.9180     YY     -19.0113
        XZ       3.1337     YZ       0.9006     ZZ     -20.8860
    Octopole Moments (Debye-Ang^2)
       XXX     314.2955    XXY      -0.7547    XYY      88.2444
       YYY     -34.2584    XXZ      -6.4428    XYZ      -4.7206
       YYZ      -2.0844    XZZ      90.1819    YZZ     -10.7512
       ZZZ     -11.7857
    Hexadecapole Moments (Debye-Ang^3)
      XXXX   -2881.9855   XXXY     163.3254   XXYY    -457.6624
      XYYY     168.8042   YYYY    -112.9831   XXXZ       2.9414
      XXYZ      25.1660   XYYZ       3.2335   YYYZ       1.3591
      XXZZ    -423.1330   XYZZ      52.2645   YYZZ     -25.6254
      XZZZ      36.5940   YZZZ      -0.0095   ZZZZ     -49.3700
 -----------------------------------------------------------------
Archival summary:
1\1\centos77-c1\SP\ProcedureUnspecified\BasisUnspecified\126\shihchen\WedJul2900:46:342020WedJul2900:46:342020\0\\#,ProcedureUnspecified,BasisUnspecified,\\0,1\C\H,1,0.994192\H,1,1.01733,2,114.991\C,1,1.40731,2,120.722,3,158.989,0\H,4,1.20073,1,118.731,2,-153.092,0\H,4,1.21798,1,118.415,2,-4.38793,0\H,4,1.41281,1,73.9081,2,101.214,0\O,7,1.24447,4,129.38,1,4.46652,0\H,8,0.963735,7,114.274,4,-109.293,0\\\@

 Total job time:  15.37s(wall), 78.30s(cpu) 
 Wed Jul 29 00:46:34 2020

        *************************************************************
        *                                                           *
        *  Thank you very much for using Q-Chem.  Have a nice day.  *
        *                                                           *
        *************************************************************


