                  Welcome to Q-Chem
     A Quantum Leap Into The Future Of Chemistry


 Q-Chem 5.3 (devel), Q-Chem, Inc., Pleasanton, CA (2020)

 Yihan Shao,  Zhengting Gan,  E. Epifanovsky,  A. T. B. Gilbert,  M. Wormit,  
 J. Kussmann,  A. W. Lange,  A. Behn,  Jia Deng,  Xintian Feng,  D. Ghosh,  
 M. Goldey,  P. R. Horn,  L. D. Jacobson,  I. Kaliman,  T. Kus,  A. Landau,  
 Jie Liu,  E. I. Proynov,  R. M. Richard,  R. P. Steele,  E. J. Sundstrom,  
 H. L. Woodcock III,  P. M. Zimmerman,  D. Zuev,  B. Alam,  B. Albrecht,  
 E. Alguire,  S. A. Baeppler,  D. Barton,  Z. Benda,  Y. A. Bernard,  
 E. J. Berquist,  K. B. Bravaya,  H. Burton,  K. Carter-Fenk,  D. Casanova,  
 Chun-Min Chang,  Yunqing Chen,  A. Chien,  K. D. Closser,  M. P. Coons,  
 S. Coriani,  S. Dasgupta,  A. L. Dempwolff,  M. Diedenhofen,  Hainam Do,  
 R. G. Edgar,  Po-Tung Fang,  S. Faraji,  S. Fatehi,  Qingguo Feng,  
 J. Fosso-Tande,  J. Gayvert,  Qinghui Ge,  A. Ghysels,  G. Gidofalvi,  
 J. Gomes,  J. Gonthier,  A. Gunina,  D. Hait,  M. W. D. Hanson-Heine,  
 P. H. P. Harbach,  A. W. Hauser,  M. F. Herbst,  J. E. Herr,  
 E. G. Hohenstein,  Z. C. Holden,  Kerwin Hui,  B. C. Huynh,  T.-C. Jagau,  
 Hyunjun Ji,  B. Kaduk,  K. Khistyaev,  Jaehoon Kim,  P. Klunzinger,  K. Koh,  
 D. Kosenkov,  L. Koulias,  T. Kowalczyk,  C. M. Krauter,  A. Kunitsa,  
 Ka Un Lao,  A. Laurent,  K. V. Lawler,  Joonho Lee,  D. Lefrancois,  
 S. Lehtola,  D. S. Levine,  Yi-Pei Li,  You-Sheng Lin,  Fenglai Liu,  
 Kuan-Yu Liu,  E. Livshits,  M. Loipersberger,  A. Luenser,  P. Manohar,  
 E. Mansoor,  S. F. Manzer,  Shan-Ping Mao,  Yuezhi Mao,  N. Mardirossian,  
 A. V. Marenich,  T. Markovich,  L. A. Martinez-Martinez,  S. A. Maurer,  
 N. J. Mayhall,  S. C. McKenzie,  J.-M. Mewes,  P. Morgante,  A. F. Morrison,  
 J. W. Mullinax,  K. Nanda,  T. S. Nguyen-Beck,  R. Olivares-Amaya,  
 K. J. Oosterbaan,  J. A. Parkhill,  S. K. Paul,  F. Pavosevic,  Zheng Pei,  
 T. M. Perrine,  F. Plasser,  P. Pokhilko,  S. Prager,  A. Prociuk,  
 E. Ramos,  B. Rana,  D. R. Rehn,  F. Rob,  M. Scheurer,  M. Schneider,  
 N. Sergueev,  S. M. Sharada,  S. Sharma,  D. W. Small,  T. Stauch,  
 C. J. Stein,  T. Stein,  Yu-Chuan Su,  S. P. Veccham,  Zhen Tao,  
 A. J. W. Thom,  A. Tkatchenko,  T. Tsuchimochi,  N. M. Tubman,  L. Vogt,  
 M. L. Vidal,  O. Vydrov,  M. A. Watson,  J. Wenzel,  M. de Wergifosse,  
 T. A. Wesolowski,  A. White,  J. Witte,  A. Yamada,  Jun Yang,  K. Yao,  
 S. Yeganeh,  S. R. Yost,  Zhi-Qiang You,  A. Zech,  Igor Ying Zhang,  
 Xing Zhang,  Yan Zhao,  Ying Zhu,  B. R. Brooks,  G. K. L. Chan,  
 C. J. Cramer,  M. S. Gordon,  W. J. Hehre,  A. Klamt,  M. W. Schmidt,  
 C. D. Sherrill,  D. G. Truhlar,  A. Aspuru-Guzik,  R. Baer,  A. T. Bell,  
 N. A. Besley,  Jeng-Da Chai,  A. E. DePrince, III,  R. A. DiStasio Jr.,  
 A. Dreuw,  B. D. Dunietz,  T. R. Furlani,  Chao-Ping Hsu,  Yousung Jung,  
 Jing Kong,  D. S. Lambrecht,  WanZhen Liang,  C. Ochsenfeld,  
 V. A. Rassolov,  L. V. Slipchenko,  J. E. Subotnik,  T. Van Voorhis,  
 J. M. Herbert,  A. I. Krylov,  P. M. W. Gill,  M. Head-Gordon

 Contributors to earlier versions of Q-Chem not listed above: 
 R. D. Adamson,  B. Austin,  J. Baker,  G. J. O. Beran,  K. Brandhorst,  
 S. T. Brown,  E. F. C. Byrd,  A. K. Chakraborty,  C.-L. Cheng,  
 Siu Hung Chien,  D. M. Chipman,  D. L. Crittenden,  H. Dachsel,  
 R. J. Doerksen,  A. D. Dutoi,  L. Fusti-Molnar,  W. A. Goddard III,  
 A. Golubeva-Zadorozhnaya,  S. R. Gwaltney,  G. Hawkins,  A. Heyden,  
 S. Hirata,  G. Kedziora,  F. J. Keil,  C. Kelley,  Jihan Kim,  R. A. King,  
 R. Z. Khaliullin,  P. P. Korambath,  W. Kurlancheek,  A. M. Lee,  M. S. Lee,  
 S. V. Levchenko,  Ching Yeh Lin,  D. Liotard,  R. C. Lochan,  I. Lotan,  
 P. E. Maslen,  N. Nair,  D. P. O'Neill,  D. Neuhauser,  E. Neuscamman,  
 C. M. Oana,  R. Olson,  B. Peters,  R. Peverati,  P. A. Pieniazek,  
 Y. M. Rhee,  J. Ritchie,  M. A. Rohrdanz,  E. Rosta,  N. J. Russ,  
 H. F. Schaefer III,  N. E. Schultz,  N. Shenvi,  A. C. Simmonett,  A. Sodt,  
 D. Stuck,  K. S. Thanthiriwatte,  V. Vanovschi,  Tao Wang,  A. Warshel,  
 C. F. Williams,  Q. Wu,  X. Xu,  W. Zhang

 Please cite Q-Chem as follows:
 Y. Shao et al., Mol. Phys. 113, 184-215 (2015)
 DOI: 10.1080/00268976.2014.952696

 Q-Chem 5.3.0 for Intel X86 EM64T Linux

 Parts of Q-Chem use Armadillo 9.800.1 (Horizon Scraper).
 http://arma.sourceforge.net/

 Q-Chem begins on Wed Jul 29 00:40:08 2020  

Host: centos77-c1
0

     Scratch files written to /tmp/30084.centos77-h1/qchem30210//
Processing $rem in /opt/qchem-5.3.0-intel2020u1//config/preferences:
Processing $rem in /home/shihchengli/.qchemrc:

Checking the input file for inconsistencies... 	...done.

--------------------------------------------------------------
User input:
--------------------------------------------------------------
$rem
   JOBTYPE  sp
   EXCHANGE   omegaB97X-D
   BASIS   6-311+G(2df,2pd)
   UNRESTRICTED   False
   max_scf_cycles   250
   geom_opt_max_cycles   1500
   basis2 6-31G*
   scf_algorithm rca_diis
   SYM_IGNORE  TRUE
   print_input   true
   geom_opt_dmax   80
   pop_mulliken false
   XC_GRID 000075000302
$end

$molecule
0 1
C       -5.5489383770     0.5458582519     -0.0822600662
C       -4.4209012374     1.3845088036     0.0454220269
H       -5.9282015054     0.3841980009     -1.0827838554
H       -6.2784891270     0.4892178883     0.7153134428
H       -4.4797502744     -0.3041810332     0.3603321734
O       -3.2839688492     -0.0076306654     0.5427236268
H       -4.2925727188     1.9852790820     0.9353341712
H       -3.8475409126     1.7204010659     -0.8091047815
H       -2.6003693955     -0.3345141369     -0.0520865748
$end
--------------------------------------------------------------
 ----------------------------------------------------------------
             Standard Nuclear Orientation (Angstroms)
    I     Atom           X                Y                Z
 ----------------------------------------------------------------
    1      C      -5.5489383770     0.5458582519    -0.0822600662
    2      C      -4.4209012374     1.3845088036     0.0454220269
    3      H      -5.9282015054     0.3841980009    -1.0827838554
    4      H      -6.2784891270     0.4892178883     0.7153134428
    5      H      -4.4797502744    -0.3041810332     0.3603321734
    6      O      -3.2839688492    -0.0076306654     0.5427236268
    7      H      -4.2925727188     1.9852790820     0.9353341712
    8      H      -3.8475409126     1.7204010659    -0.8091047815
    9      H      -2.6003693955    -0.3345141369    -0.0520865748
 ----------------------------------------------------------------
 Nuclear Repulsion Energy =          79.12011716 hartrees
 There are       13 alpha and       13 beta electrons
 Requested basis set is 6-311+G(2df,2pd)
 There are 60 shells and 186 basis functions

 Total QAlloc Memory Limit   2000 MB
 Mega-Array Size       188 MB
 MEM_STATIC part       192 MB

                       Distance Matrix (Angstroms)
             C (  1)   C (  2)   H (  3)   H (  4)   H (  5)   O (  6)
   C (  2)  1.411420
   H (  3)  1.082138  2.132000
   H (  4)  1.082394  2.168164  1.834907
   H (  5)  1.435834  1.718809  2.157420  1.997737
   O (  6)  2.413927  1.864933  3.128541  3.040361  1.245432
   H (  7)  2.164691  1.081359  3.051482  2.496091  2.367972  2.267843
   H (  8)  2.191485  1.082489  2.487868  3.122366  2.422025  2.265204
   H (  9)  3.077341  2.505770  3.557155  3.846557  1.924339  0.963307
             H (  7)   H (  8)
   H (  8)  1.819693
   H (  9)  3.036444  2.520157
 
 A cutoff of  1.0D-09 yielded   1771 shell pairs
 There are     17191 function pairs (     21356 Cartesian)
 Smallest overlap matrix eigenvalue = 8.94E-05

 Scale SEOQF with 1.000000e-02/1.000000e-01/1.000000e-01

 Standard Electronic Orientation quadrupole field applied
 Nucleus-field energy     =     0.0000000027 hartrees
 Requested basis set is 6-31G(d)
 There are 24 shells and 54 basis functions
 A cutoff of  1.0D-09 yielded    297 shell pairs
 There are      1548 function pairs (      1731 Cartesian)
 Smallest overlap matrix eigenvalue = 6.81E-03
 Guess from superposition of atomic densities
 Warning:  Energy on first SCF cycle will be non-variational
 SAD guess density has 26.000000 electrons
 Long-range K will be added via erf
 Coulomb attenuation parameter = 0.2 bohr**(-1)
 A restricted hybrid HF-DFT SCF calculation will be
 performed using Relaxed Constraint Minimization + Pulay DIIS
 Exchange:     0.2220 Hartree-Fock + 1.0000 wB97X-D + LR-HF
 Correlation:  1.0000 wB97X-D
 Using Euler-Maclaurin-Lebedev (75,302) quadrature formula
 Dispersion:   Grimme D
 SCF converges when DIIS error is below 1.0E-04
 using 6 threads for integral computing
 -------------------------------------------------------
 OpenMP Integral computing Module                
 Release: version 1.0, May 2013, Q-Chem Inc. Pittsburgh 
 -------------------------------------------------------
 using 6 threads for integral computing
 -------------------------------------------------------
 OpenMP Integral computing Module                
 Release: version 1.0, May 2013, Q-Chem Inc. Pittsburgh 
 -------------------------------------------------------
 ---------------------------------------
  Cycle       Energy         DIIS Error
 ---------------------------------------
    1    -155.2369851036      9.85E-02
    2    -154.7823237232      1.57E-02
    3    -154.8161980424      3.21E-03
    4    -154.8566387802      2.28E-03
    5    -154.8574914718      4.78E-04 Done RCA. Switching to DIIS
    6    -154.8585252972      3.18E-04
    7    -154.8585593467      4.08E-05 Convergence criterion met
 ---------------------------------------
 SCF time:  CPU 20.52 s  wall 3.44 s
 SCF   energy in the small basis set = -154.85855935
 Total energy in the small basis set = -154.85855935
 ----------------------------------------------------
  Cycle       Energy    
 ----------------------------------------------------
    1     -18.6684920908     -1.87E+01
 Long-range K will be added via erf
 Coulomb attenuation parameter = 0.2 bohr**(-1)
 A restricted hybrid HF-DFT SCF calculation will be
 performed using Relaxed Constraint Minimization + Pulay DIIS
 Exchange:     0.2220 Hartree-Fock + 1.0000 wB97X-D + LR-HF
 Correlation:  1.0000 wB97X-D
 Using Euler-Maclaurin-Lebedev (75,302) quadrature formula
 Dispersion:   Grimme D
 SCF converges when DIIS error is below 1.0E-05
 Basis2 calculation detected. Using small basis as guess for larger.
 SCFMinFind is unable to tell whether the solution found is close.
 Resetting ReadMinima to 0 and attempting to follow guess.
 SCFMinFind following SCF Guess.
 using 6 threads for integral computing
 -------------------------------------------------------
 OpenMP Integral computing Module                
 Release: version 1.0, May 2013, Q-Chem Inc. Pittsburgh 
 -------------------------------------------------------
 using 6 threads for integral computing
 -------------------------------------------------------
 OpenMP Integral computing Module                
 Release: version 1.0, May 2013, Q-Chem Inc. Pittsburgh 
 -------------------------------------------------------
 ---------------------------------------
  Cycle       Energy         DIIS Error
 ---------------------------------------
    1    -154.8837955231      6.00E-03
    2    -154.8797933435      4.45E-03
    3    -154.9013721575      1.00E-03
    4    -154.9310697181      1.09E-03
    5    -154.9325461352      1.74E-04 Done RCA. Switching to DIIS
    6    -154.9344212001      2.06E-04
    7    -154.9345460011      1.00E-05
    8    -154.9345467675      9.59E-06 Convergence criterion met
 ---------------------------------------
 SCF time:  CPU 79.20 s  wall 13.24 s
 SCF   energy in the final basis set = -154.93454677
 Total energy in the final basis set = -154.93454677
 
 --------------------------------------------------------------
 
                    Orbital Energies (a.u.)
 --------------------------------------------------------------
 
 Alpha MOs
 -- Occupied --
-19.2381 -10.3526 -10.2561  -1.0825  -0.8734  -0.6972  -0.6145  -0.5657
 -0.5059  -0.4595  -0.4310  -0.4218  -0.3058
 -- Virtual --
  0.0510   0.0699   0.0893   0.0977   0.1128   0.1289   0.1388   0.1487
  0.1763   0.1870   0.2138   0.2437   0.2482   0.2730   0.2876   0.2962
  0.3273   0.3321   0.3594   0.3884   0.4651   0.4666   0.4866   0.5483
  0.5680   0.5788   0.5832   0.6098   0.6151   0.6476   0.6552   0.6837
  0.7049   0.7494   0.7947   0.8402   0.8531   0.8912   0.9102   0.9206
  0.9783   1.0187   1.0681   1.0898   1.1332   1.1574   1.1784   1.1982
  1.2272   1.2651   1.2845   1.3017   1.3259   1.3584   1.4071   1.4306
  1.4399   1.4574   1.4753   1.4925   1.5336   1.5846   1.5913   1.6646
  1.7208   1.7944   1.8883   1.9461   2.0434   2.2705   2.3088   2.4174
  2.4847   2.5599   2.6220   2.6572   2.7096   2.7517   2.7794   2.8163
  2.8731   2.8760   2.9367   2.9946   2.9977   3.0423   3.0777   3.0869
  3.0951   3.1271   3.1486   3.2082   3.2293   3.2962   3.3121   3.3526
  3.3637   3.4063   3.4149   3.4484   3.4656   3.4971   3.5154   3.5564
  3.5748   3.6032   3.6298   3.6606   3.7046   3.7501   3.7583   3.8210
  3.8350   3.8389   3.8921   3.9344   3.9519   3.9575   4.0374   4.0746
  4.1080   4.1325   4.1751   4.2047   4.2389   4.2439   4.2749   4.3097
  4.3357   4.3752   4.4191   4.4461   4.4778   4.5755   4.6422   4.7090
  4.7411   4.8163   4.8449   4.9601   4.9820   5.0095   5.0642   5.0938
  5.1151   5.2151   5.2253   5.2947   5.3343   5.3815   5.4067   5.4679
  5.5775   5.6146   5.7195   5.8068   6.0332   6.2035   6.2317   6.2913
  6.4799   6.6400   6.7011   6.9369   7.1348   7.1651   7.3808   7.6545
  7.8128   8.1421  24.9551  25.3016  50.4390
 --------------------------------------------------------------
 
 -----------------------------------------------------------------
                    Cartesian Multipole Moments
 -----------------------------------------------------------------
    Charge (ESU x 10^10)
                 0.0000
    Dipole Moment (Debye)
         X       0.4367      Y       0.8299      Z      -1.2925
       Tot       1.5968
    Quadrupole Moments (Debye-Ang)
        XX     -24.1183     XY      -3.3412     YY     -18.9797
        XZ       2.6752     YZ       0.5887     ZZ     -20.7327
    Octopole Moments (Debye-Ang^2)
       XXX     301.3969    XXY      -2.9496    XYY      88.0875
       YYY     -35.0907    XXZ      -5.0695    XYZ      -3.1055
       YYZ      -1.8775    XZZ      89.6250    YZZ     -10.7240
       ZZZ     -10.7284
    Hexadecapole Moments (Debye-Ang^3)
      XXXX   -2790.1338   XXXY     174.4029   XXYY    -456.6859
      XYYY     172.2161   YYYY    -117.2626   XXXZ       1.7365
      XXYZ      16.1504   XYYZ       2.6428   YYYZ       2.4627
      XXZZ    -420.5087   XYZZ      52.1037   YYZZ     -25.1818
      XZZZ      32.7314   YZZZ       0.4793   ZZZZ     -46.2906
 -----------------------------------------------------------------
Archival summary:
1\1\centos77-c1\SP\ProcedureUnspecified\BasisUnspecified\126\shihchen\WedJul2900:40:282020WedJul2900:40:282020\0\\#,ProcedureUnspecified,BasisUnspecified,\\0,1\C\H,1,1.08136\H,1,1.08249,2,114.482\C,1,1.41142,2,119.961,3,-160.498,0\H,4,1.08214,1,116.905,2,148.607,0\H,4,1.08239,1,120.207,2,-1.02294,0\H,4,1.43583,1,74.2612,2,-98.4355,0\O,7,1.24543,4,128.253,1,-3.83596,0\H,8,0.963307,7,120.672,4,-109.293,0\\\@

 Total job time:  20.08s(wall), 105.32s(cpu) 
 Wed Jul 29 00:40:28 2020

        *************************************************************
        *                                                           *
        *  Thank you very much for using Q-Chem.  Have a nice day.  *
        *                                                           *
        *************************************************************


