                  Welcome to Q-Chem
     A Quantum Leap Into The Future Of Chemistry


 Q-Chem 5.3 (devel), Q-Chem, Inc., Pleasanton, CA (2020)

 Yihan Shao,  Zhengting Gan,  E. Epifanovsky,  A. T. B. Gilbert,  M. Wormit,  
 J. Kussmann,  A. W. Lange,  A. Behn,  Jia Deng,  Xintian Feng,  D. Ghosh,  
 M. Goldey,  P. R. Horn,  L. D. Jacobson,  I. Kaliman,  T. Kus,  A. Landau,  
 Jie Liu,  E. I. Proynov,  R. M. Richard,  R. P. Steele,  E. J. Sundstrom,  
 H. L. Woodcock III,  P. M. Zimmerman,  D. Zuev,  B. Alam,  B. Albrecht,  
 E. Alguire,  S. A. Baeppler,  D. Barton,  Z. Benda,  Y. A. Bernard,  
 E. J. Berquist,  K. B. Bravaya,  H. Burton,  K. Carter-Fenk,  D. Casanova,  
 Chun-Min Chang,  Yunqing Chen,  A. Chien,  K. D. Closser,  M. P. Coons,  
 S. Coriani,  S. Dasgupta,  A. L. Dempwolff,  M. Diedenhofen,  Hainam Do,  
 R. G. Edgar,  Po-Tung Fang,  S. Faraji,  S. Fatehi,  Qingguo Feng,  
 J. Fosso-Tande,  J. Gayvert,  Qinghui Ge,  A. Ghysels,  G. Gidofalvi,  
 J. Gomes,  J. Gonthier,  A. Gunina,  D. Hait,  M. W. D. Hanson-Heine,  
 P. H. P. Harbach,  A. W. Hauser,  M. F. Herbst,  J. E. Herr,  
 E. G. Hohenstein,  Z. C. Holden,  Kerwin Hui,  B. C. Huynh,  T.-C. Jagau,  
 Hyunjun Ji,  B. Kaduk,  K. Khistyaev,  Jaehoon Kim,  P. Klunzinger,  K. Koh,  
 D. Kosenkov,  L. Koulias,  T. Kowalczyk,  C. M. Krauter,  A. Kunitsa,  
 Ka Un Lao,  A. Laurent,  K. V. Lawler,  Joonho Lee,  D. Lefrancois,  
 S. Lehtola,  D. S. Levine,  Yi-Pei Li,  You-Sheng Lin,  Fenglai Liu,  
 Kuan-Yu Liu,  E. Livshits,  M. Loipersberger,  A. Luenser,  P. Manohar,  
 E. Mansoor,  S. F. Manzer,  Shan-Ping Mao,  Yuezhi Mao,  N. Mardirossian,  
 A. V. Marenich,  T. Markovich,  L. A. Martinez-Martinez,  S. A. Maurer,  
 N. J. Mayhall,  S. C. McKenzie,  J.-M. Mewes,  P. Morgante,  A. F. Morrison,  
 J. W. Mullinax,  K. Nanda,  T. S. Nguyen-Beck,  R. Olivares-Amaya,  
 K. J. Oosterbaan,  J. A. Parkhill,  S. K. Paul,  F. Pavosevic,  Zheng Pei,  
 T. M. Perrine,  F. Plasser,  P. Pokhilko,  S. Prager,  A. Prociuk,  
 E. Ramos,  B. Rana,  D. R. Rehn,  F. Rob,  M. Scheurer,  M. Schneider,  
 N. Sergueev,  S. M. Sharada,  S. Sharma,  D. W. Small,  T. Stauch,  
 C. J. Stein,  T. Stein,  Yu-Chuan Su,  S. P. Veccham,  Zhen Tao,  
 A. J. W. Thom,  A. Tkatchenko,  T. Tsuchimochi,  N. M. Tubman,  L. Vogt,  
 M. L. Vidal,  O. Vydrov,  M. A. Watson,  J. Wenzel,  M. de Wergifosse,  
 T. A. Wesolowski,  A. White,  J. Witte,  A. Yamada,  Jun Yang,  K. Yao,  
 S. Yeganeh,  S. R. Yost,  Zhi-Qiang You,  A. Zech,  Igor Ying Zhang,  
 Xing Zhang,  Yan Zhao,  Ying Zhu,  B. R. Brooks,  G. K. L. Chan,  
 C. J. Cramer,  M. S. Gordon,  W. J. Hehre,  A. Klamt,  M. W. Schmidt,  
 C. D. Sherrill,  D. G. Truhlar,  A. Aspuru-Guzik,  R. Baer,  A. T. Bell,  
 N. A. Besley,  Jeng-Da Chai,  A. E. DePrince, III,  R. A. DiStasio Jr.,  
 A. Dreuw,  B. D. Dunietz,  T. R. Furlani,  Chao-Ping Hsu,  Yousung Jung,  
 Jing Kong,  D. S. Lambrecht,  WanZhen Liang,  C. Ochsenfeld,  
 V. A. Rassolov,  L. V. Slipchenko,  J. E. Subotnik,  T. Van Voorhis,  
 J. M. Herbert,  A. I. Krylov,  P. M. W. Gill,  M. Head-Gordon

 Contributors to earlier versions of Q-Chem not listed above: 
 R. D. Adamson,  B. Austin,  J. Baker,  G. J. O. Beran,  K. Brandhorst,  
 S. T. Brown,  E. F. C. Byrd,  A. K. Chakraborty,  C.-L. Cheng,  
 Siu Hung Chien,  D. M. Chipman,  D. L. Crittenden,  H. Dachsel,  
 R. J. Doerksen,  A. D. Dutoi,  L. Fusti-Molnar,  W. A. Goddard III,  
 A. Golubeva-Zadorozhnaya,  S. R. Gwaltney,  G. Hawkins,  A. Heyden,  
 S. Hirata,  G. Kedziora,  F. J. Keil,  C. Kelley,  Jihan Kim,  R. A. King,  
 R. Z. Khaliullin,  P. P. Korambath,  W. Kurlancheek,  A. M. Lee,  M. S. Lee,  
 S. V. Levchenko,  Ching Yeh Lin,  D. Liotard,  R. C. Lochan,  I. Lotan,  
 P. E. Maslen,  N. Nair,  D. P. O'Neill,  D. Neuhauser,  E. Neuscamman,  
 C. M. Oana,  R. Olson,  B. Peters,  R. Peverati,  P. A. Pieniazek,  
 Y. M. Rhee,  J. Ritchie,  M. A. Rohrdanz,  E. Rosta,  N. J. Russ,  
 H. F. Schaefer III,  N. E. Schultz,  N. Shenvi,  A. C. Simmonett,  A. Sodt,  
 D. Stuck,  K. S. Thanthiriwatte,  V. Vanovschi,  Tao Wang,  A. Warshel,  
 C. F. Williams,  Q. Wu,  X. Xu,  W. Zhang

 Please cite Q-Chem as follows:
 Y. Shao et al., Mol. Phys. 113, 184-215 (2015)
 DOI: 10.1080/00268976.2014.952696

 Q-Chem 5.3.0 for Intel X86 EM64T Linux

 Parts of Q-Chem use Armadillo 9.800.1 (Horizon Scraper).
 http://arma.sourceforge.net/

 Q-Chem begins on Wed Jul 29 00:28:47 2020  

Host: centos77-c1
0

     Scratch files written to /tmp/30084.centos77-h1/qchem28457//
Processing $rem in /opt/qchem-5.3.0-intel2020u1//config/preferences:
Processing $rem in /home/shihchengli/.qchemrc:

Checking the input file for inconsistencies... 	...done.

--------------------------------------------------------------
User input:
--------------------------------------------------------------
$rem
   JOBTYPE  sp
   EXCHANGE   omegaB97X-D
   BASIS   6-311+G(2df,2pd)
   UNRESTRICTED   False
   max_scf_cycles   250
   geom_opt_max_cycles   1500
   basis2 6-31G*
   scf_algorithm rca_diis
   SYM_IGNORE  TRUE
   print_input   true
   geom_opt_dmax   80
   pop_mulliken false
   XC_GRID 000075000302
$end

$molecule
0 1
C       -5.5438264852     0.5387462105     -0.0976786641
C       -4.4074780879     1.3645535095     0.0303880939
H       -5.9600273595     0.2504705876     -1.0531869954
H       -6.2452493920     0.6382510062     0.7211883105
H       -4.4677381742     -0.3079634911     0.2820075605
O       -3.2942061524     -0.0156328708     0.5746410129
H       -4.3283051102     1.9043841823     0.9633920707
H       -3.8059760877     1.7648690391     -0.7762293448
H       -2.6279255482     -0.2745409163     -0.0716318809
$end
--------------------------------------------------------------
 ----------------------------------------------------------------
             Standard Nuclear Orientation (Angstroms)
    I     Atom           X                Y                Z
 ----------------------------------------------------------------
    1      C      -5.5438264852     0.5387462105    -0.0976786641
    2      C      -4.4074780879     1.3645535095     0.0303880939
    3      H      -5.9600273595     0.2504705876    -1.0531869954
    4      H      -6.2452493920     0.6382510062     0.7211883105
    5      H      -4.4677381742    -0.3079634911     0.2820075605
    6      O      -3.2942061524    -0.0156328708     0.5746410129
    7      H      -4.3283051102     1.9043841823     0.9633920707
    8      H      -3.8059760877     1.7648690391    -0.7762293448
    9      H      -2.6279255482    -0.2745409163    -0.0716318809
 ----------------------------------------------------------------
 Nuclear Repulsion Energy =          79.39886615 hartrees
 There are       13 alpha and       13 beta electrons
 Requested basis set is 6-311+G(2df,2pd)
 There are 60 shells and 186 basis functions

 Total QAlloc Memory Limit   2000 MB
 Mega-Array Size       188 MB
 MEM_STATIC part       192 MB

                       Distance Matrix (Angstroms)
             C (  1)   C (  2)   H (  3)   H (  4)   H (  5)   O (  6)
   C (  2)  1.410548
   H (  3)  1.081352  2.196753
   H (  4)  1.082792  2.093352  1.838514
   H (  5)  1.420931  1.692412  2.078827  2.061006
   O (  6)  2.412497  1.854859  3.134843  3.026169  1.244295
   H (  7)  2.113843  1.080825  3.076449  2.310072  2.319097  2.215164
   H (  8)  2.232472  1.082908  2.647649  3.075968  2.419593  2.292803
   H (  9)  3.027308  2.421538  3.513117  3.814025  1.873790  0.963655
             H (  7)   H (  8)
   H (  8)  1.821696
   H (  9)  2.951318  2.458344
 
 A cutoff of  1.0D-09 yielded   1775 shell pairs
 There are     17213 function pairs (     21381 Cartesian)
 Smallest overlap matrix eigenvalue = 9.11E-05

 Scale SEOQF with 1.000000e-02/1.000000e-01/1.000000e-01

 Standard Electronic Orientation quadrupole field applied
 Nucleus-field energy     =     0.0000000027 hartrees
 Requested basis set is 6-31G(d)
 There are 24 shells and 54 basis functions
 A cutoff of  1.0D-09 yielded    297 shell pairs
 There are      1548 function pairs (      1731 Cartesian)
 Smallest overlap matrix eigenvalue = 6.36E-03
 Guess from superposition of atomic densities
 Warning:  Energy on first SCF cycle will be non-variational
 SAD guess density has 26.000000 electrons
 Long-range K will be added via erf
 Coulomb attenuation parameter = 0.2 bohr**(-1)
 A restricted hybrid HF-DFT SCF calculation will be
 performed using Relaxed Constraint Minimization + Pulay DIIS
 Exchange:     0.2220 Hartree-Fock + 1.0000 wB97X-D + LR-HF
 Correlation:  1.0000 wB97X-D
 Using Euler-Maclaurin-Lebedev (75,302) quadrature formula
 Dispersion:   Grimme D
 SCF converges when DIIS error is below 1.0E-04
 using 6 threads for integral computing
 -------------------------------------------------------
 OpenMP Integral computing Module                
 Release: version 1.0, May 2013, Q-Chem Inc. Pittsburgh 
 -------------------------------------------------------
 using 6 threads for integral computing
 -------------------------------------------------------
 OpenMP Integral computing Module                
 Release: version 1.0, May 2013, Q-Chem Inc. Pittsburgh 
 -------------------------------------------------------
 ---------------------------------------
  Cycle       Energy         DIIS Error
 ---------------------------------------
    1    -155.2615300407      9.94E-02
    2    -154.7838849509      1.57E-02
    3    -154.8177338532      3.27E-03
    4    -154.8580554443      2.38E-03
    5    -154.8589632375      4.99E-04 Done RCA. Switching to DIIS
    6    -154.8600888626      3.18E-04
    7    -154.8601245170      4.11E-05 Convergence criterion met
 ---------------------------------------
 SCF time:  CPU 17.50 s  wall 2.93 s
 SCF   energy in the small basis set = -154.86012452
 Total energy in the small basis set = -154.86012452
 ----------------------------------------------------
  Cycle       Energy    
 ----------------------------------------------------
    1     -18.6738803633     -1.87E+01
 Long-range K will be added via erf
 Coulomb attenuation parameter = 0.2 bohr**(-1)
 A restricted hybrid HF-DFT SCF calculation will be
 performed using Relaxed Constraint Minimization + Pulay DIIS
 Exchange:     0.2220 Hartree-Fock + 1.0000 wB97X-D + LR-HF
 Correlation:  1.0000 wB97X-D
 Using Euler-Maclaurin-Lebedev (75,302) quadrature formula
 Dispersion:   Grimme D
 SCF converges when DIIS error is below 1.0E-05
 Basis2 calculation detected. Using small basis as guess for larger.
 SCFMinFind is unable to tell whether the solution found is close.
 Resetting ReadMinima to 0 and attempting to follow guess.
 SCFMinFind following SCF Guess.
 using 6 threads for integral computing
 -------------------------------------------------------
 OpenMP Integral computing Module                
 Release: version 1.0, May 2013, Q-Chem Inc. Pittsburgh 
 -------------------------------------------------------
 using 6 threads for integral computing
 -------------------------------------------------------
 OpenMP Integral computing Module                
 Release: version 1.0, May 2013, Q-Chem Inc. Pittsburgh 
 -------------------------------------------------------
 ---------------------------------------
  Cycle       Energy         DIIS Error
 ---------------------------------------
    1    -154.8857005105      5.98E-03
    2    -154.8817006712      4.41E-03
    3    -154.9028937199      1.00E-03
    4    -154.9320672071      1.10E-03
    5    -154.9335733306      1.79E-04 Done RCA. Switching to DIIS
    6    -154.9354895816      2.15E-04
    7    -154.9356246830      8.16E-06 Convergence criterion met
 ---------------------------------------
 SCF time:  CPU 63.51 s  wall 10.62 s
 SCF   energy in the final basis set = -154.93562468
 Total energy in the final basis set = -154.93562468
 
 --------------------------------------------------------------
 
                    Orbital Energies (a.u.)
 --------------------------------------------------------------
 
 Alpha MOs
 -- Occupied --
-19.2415 -10.3536 -10.2547  -1.0876  -0.8749  -0.6973  -0.6113  -0.5690
 -0.5092  -0.4539  -0.4381  -0.4271  -0.3056
 -- Virtual --
  0.0530   0.0689   0.0887   0.0969   0.1130   0.1282   0.1378   0.1488
  0.1775   0.1888   0.2169   0.2395   0.2499   0.2767   0.2858   0.2971
  0.3246   0.3324   0.3594   0.3942   0.4612   0.4663   0.4926   0.5499
  0.5615   0.5772   0.5877   0.6061   0.6155   0.6396   0.6482   0.6883
  0.7054   0.7473   0.8057   0.8282   0.8370   0.8891   0.9049   0.9373
  0.9868   1.0148   1.0694   1.0936   1.1292   1.1520   1.1594   1.1901
  1.2411   1.2572   1.2725   1.3086   1.3173   1.3523   1.4126   1.4282
  1.4399   1.4590   1.4779   1.4908   1.5399   1.5706   1.5899   1.6595
  1.7209   1.7895   1.9063   1.9912   2.0577   2.2653   2.3142   2.4237
  2.4878   2.5533   2.6621   2.6674   2.6938   2.7499   2.7780   2.8018
  2.8737   2.8861   2.9327   2.9876   3.0014   3.0419   3.0740   3.0862
  3.1037   3.1185   3.1605   3.2306   3.2450   3.2776   3.3126   3.3342
  3.3606   3.3959   3.4182   3.4541   3.4676   3.5153   3.5280   3.5483
  3.5687   3.6021   3.6355   3.6645   3.7298   3.7422   3.7583   3.8019
  3.8352   3.8802   3.8863   3.9156   3.9226   3.9549   4.0502   4.0698
  4.0979   4.1330   4.1689   4.2037   4.2276   4.2505   4.2661   4.3162
  4.3258   4.3536   4.4303   4.4688   4.5000   4.5765   4.6298   4.7068
  4.7400   4.8143   4.8497   4.9648   4.9900   5.0051   5.0602   5.1060
  5.1167   5.2128   5.2178   5.3004   5.3631   5.3938   5.4422   5.4671
  5.6127   5.6466   5.7706   5.8189   6.0292   6.1658   6.2728   6.3282
  6.4961   6.6307   6.7340   6.8939   7.1590   7.2146   7.4052   7.6321
  7.7869   8.1718  24.9570  25.3142  50.4385
 --------------------------------------------------------------
 
 -----------------------------------------------------------------
                    Cartesian Multipole Moments
 -----------------------------------------------------------------
    Charge (ESU x 10^10)
                 0.0000
    Dipole Moment (Debye)
         X       0.4999      Y       0.9298      Z      -1.4211
       Tot       1.7703
    Quadrupole Moments (Debye-Ang)
        XX     -24.7595     XY      -3.6458     YY     -19.0717
        XZ       3.1457     YZ       0.9498     ZZ     -20.8692
    Octopole Moments (Debye-Ang^2)
       XXX     305.8431    XXY      -1.2289    XYY      88.0960
       YYY     -34.7361    XXZ      -6.8749    XYZ      -5.3503
       YYZ      -1.9233    XZZ      90.3258    YZZ     -10.6617
       ZZZ     -10.4842
    Hexadecapole Moments (Debye-Ang^3)
      XXXX   -2815.1309   XXXY     160.7485   XXYY    -453.8946
      XYYY     169.9951   YYYY    -115.7481   XXXZ       8.6840
      XXYZ      29.9161   XYYZ       1.8682   YYYZ       1.6786
      XXZZ    -424.0267   XYZZ      51.7834   YYZZ     -25.0372
      XZZZ      30.8451   YZZZ       1.2737   ZZZZ     -47.2747
 -----------------------------------------------------------------
Archival summary:
1\1\centos77-c1\SP\ProcedureUnspecified\BasisUnspecified\126\shihchen\WedJul2900:29:032020WedJul2900:29:032020\0\\#,ProcedureUnspecified,BasisUnspecified,\\0,1\C\H,1,1.08082\H,1,1.08291,2,114.687\C,1,1.41055,2,115.455,3,-161.017,0\H,4,1.08135,1,123.118,2,155.709,0\H,4,1.08279,1,113.541,2,6.2028,0\H,4,1.42093,1,73.4115,2,-98.9208,0\O,7,1.24429,4,129.575,1,4.11614,0\H,8,0.963655,7,115.547,4,-109.293,0\\\@

 Total job time:  16.29s(wall), 85.73s(cpu) 
 Wed Jul 29 00:29:03 2020

        *************************************************************
        *                                                           *
        *  Thank you very much for using Q-Chem.  Have a nice day.  *
        *                                                           *
        *************************************************************


