                  Welcome to Q-Chem
     A Quantum Leap Into The Future Of Chemistry


 Q-Chem 5.3 (devel), Q-Chem, Inc., Pleasanton, CA (2020)

 Yihan Shao,  Zhengting Gan,  E. Epifanovsky,  A. T. B. Gilbert,  M. Wormit,  
 J. Kussmann,  A. W. Lange,  A. Behn,  Jia Deng,  Xintian Feng,  D. Ghosh,  
 M. Goldey,  P. R. Horn,  L. D. Jacobson,  I. Kaliman,  T. Kus,  A. Landau,  
 Jie Liu,  E. I. Proynov,  R. M. Richard,  R. P. Steele,  E. J. Sundstrom,  
 H. L. Woodcock III,  P. M. Zimmerman,  D. Zuev,  B. Alam,  B. Albrecht,  
 E. Alguire,  S. A. Baeppler,  D. Barton,  Z. Benda,  Y. A. Bernard,  
 E. J. Berquist,  K. B. Bravaya,  H. Burton,  K. Carter-Fenk,  D. Casanova,  
 Chun-Min Chang,  Yunqing Chen,  A. Chien,  K. D. Closser,  M. P. Coons,  
 S. Coriani,  S. Dasgupta,  A. L. Dempwolff,  M. Diedenhofen,  Hainam Do,  
 R. G. Edgar,  Po-Tung Fang,  S. Faraji,  S. Fatehi,  Qingguo Feng,  
 J. Fosso-Tande,  J. Gayvert,  Qinghui Ge,  A. Ghysels,  G. Gidofalvi,  
 J. Gomes,  J. Gonthier,  A. Gunina,  D. Hait,  M. W. D. Hanson-Heine,  
 P. H. P. Harbach,  A. W. Hauser,  M. F. Herbst,  J. E. Herr,  
 E. G. Hohenstein,  Z. C. Holden,  Kerwin Hui,  B. C. Huynh,  T.-C. Jagau,  
 Hyunjun Ji,  B. Kaduk,  K. Khistyaev,  Jaehoon Kim,  P. Klunzinger,  K. Koh,  
 D. Kosenkov,  L. Koulias,  T. Kowalczyk,  C. M. Krauter,  A. Kunitsa,  
 Ka Un Lao,  A. Laurent,  K. V. Lawler,  Joonho Lee,  D. Lefrancois,  
 S. Lehtola,  D. S. Levine,  Yi-Pei Li,  You-Sheng Lin,  Fenglai Liu,  
 Kuan-Yu Liu,  E. Livshits,  M. Loipersberger,  A. Luenser,  P. Manohar,  
 E. Mansoor,  S. F. Manzer,  Shan-Ping Mao,  Yuezhi Mao,  N. Mardirossian,  
 A. V. Marenich,  T. Markovich,  L. A. Martinez-Martinez,  S. A. Maurer,  
 N. J. Mayhall,  S. C. McKenzie,  J.-M. Mewes,  P. Morgante,  A. F. Morrison,  
 J. W. Mullinax,  K. Nanda,  T. S. Nguyen-Beck,  R. Olivares-Amaya,  
 K. J. Oosterbaan,  J. A. Parkhill,  S. K. Paul,  F. Pavosevic,  Zheng Pei,  
 T. M. Perrine,  F. Plasser,  P. Pokhilko,  S. Prager,  A. Prociuk,  
 E. Ramos,  B. Rana,  D. R. Rehn,  F. Rob,  M. Scheurer,  M. Schneider,  
 N. Sergueev,  S. M. Sharada,  S. Sharma,  D. W. Small,  T. Stauch,  
 C. J. Stein,  T. Stein,  Yu-Chuan Su,  S. P. Veccham,  Zhen Tao,  
 A. J. W. Thom,  A. Tkatchenko,  T. Tsuchimochi,  N. M. Tubman,  L. Vogt,  
 M. L. Vidal,  O. Vydrov,  M. A. Watson,  J. Wenzel,  M. de Wergifosse,  
 T. A. Wesolowski,  A. White,  J. Witte,  A. Yamada,  Jun Yang,  K. Yao,  
 S. Yeganeh,  S. R. Yost,  Zhi-Qiang You,  A. Zech,  Igor Ying Zhang,  
 Xing Zhang,  Yan Zhao,  Ying Zhu,  B. R. Brooks,  G. K. L. Chan,  
 C. J. Cramer,  M. S. Gordon,  W. J. Hehre,  A. Klamt,  M. W. Schmidt,  
 C. D. Sherrill,  D. G. Truhlar,  A. Aspuru-Guzik,  R. Baer,  A. T. Bell,  
 N. A. Besley,  Jeng-Da Chai,  A. E. DePrince, III,  R. A. DiStasio Jr.,  
 A. Dreuw,  B. D. Dunietz,  T. R. Furlani,  Chao-Ping Hsu,  Yousung Jung,  
 Jing Kong,  D. S. Lambrecht,  WanZhen Liang,  C. Ochsenfeld,  
 V. A. Rassolov,  L. V. Slipchenko,  J. E. Subotnik,  T. Van Voorhis,  
 J. M. Herbert,  A. I. Krylov,  P. M. W. Gill,  M. Head-Gordon

 Contributors to earlier versions of Q-Chem not listed above: 
 R. D. Adamson,  B. Austin,  J. Baker,  G. J. O. Beran,  K. Brandhorst,  
 S. T. Brown,  E. F. C. Byrd,  A. K. Chakraborty,  C.-L. Cheng,  
 Siu Hung Chien,  D. M. Chipman,  D. L. Crittenden,  H. Dachsel,  
 R. J. Doerksen,  A. D. Dutoi,  L. Fusti-Molnar,  W. A. Goddard III,  
 A. Golubeva-Zadorozhnaya,  S. R. Gwaltney,  G. Hawkins,  A. Heyden,  
 S. Hirata,  G. Kedziora,  F. J. Keil,  C. Kelley,  Jihan Kim,  R. A. King,  
 R. Z. Khaliullin,  P. P. Korambath,  W. Kurlancheek,  A. M. Lee,  M. S. Lee,  
 S. V. Levchenko,  Ching Yeh Lin,  D. Liotard,  R. C. Lochan,  I. Lotan,  
 P. E. Maslen,  N. Nair,  D. P. O'Neill,  D. Neuhauser,  E. Neuscamman,  
 C. M. Oana,  R. Olson,  B. Peters,  R. Peverati,  P. A. Pieniazek,  
 Y. M. Rhee,  J. Ritchie,  M. A. Rohrdanz,  E. Rosta,  N. J. Russ,  
 H. F. Schaefer III,  N. E. Schultz,  N. Shenvi,  A. C. Simmonett,  A. Sodt,  
 D. Stuck,  K. S. Thanthiriwatte,  V. Vanovschi,  Tao Wang,  A. Warshel,  
 C. F. Williams,  Q. Wu,  X. Xu,  W. Zhang

 Please cite Q-Chem as follows:
 Y. Shao et al., Mol. Phys. 113, 184-215 (2015)
 DOI: 10.1080/00268976.2014.952696

 Q-Chem 5.3.0 for Intel X86 EM64T Linux

 Parts of Q-Chem use Armadillo 9.800.1 (Horizon Scraper).
 http://arma.sourceforge.net/

 Q-Chem begins on Wed Jul 29 00:44:17 2020  

Host: centos77-c1
0

     Scratch files written to /tmp/30084.centos77-h1/qchem30800//
Processing $rem in /opt/qchem-5.3.0-intel2020u1//config/preferences:
Processing $rem in /home/shihchengli/.qchemrc:

Checking the input file for inconsistencies... 	...done.

--------------------------------------------------------------
User input:
--------------------------------------------------------------
$rem
   JOBTYPE  sp
   EXCHANGE   omegaB97X-D
   BASIS   6-311+G(2df,2pd)
   UNRESTRICTED   False
   max_scf_cycles   250
   geom_opt_max_cycles   1500
   basis2 6-31G*
   scf_algorithm rca_diis
   SYM_IGNORE  TRUE
   print_input   true
   geom_opt_dmax   80
   pop_mulliken false
   XC_GRID 000075000302
$end

$molecule
0 1
C       -5.5192985598     0.4965180311     -0.0660468595
C       -4.4024083220     1.3339019498     0.0748352328
H       -5.9255530128     0.3045561378     -1.0491505046
H       -6.2959229820     0.5075966176     0.6852526672
H       -4.4343691349     -0.0828992747     0.2679337459
O       -3.3271422883     -0.0322745470     0.5541663896
H       -4.2598700303     1.9643845786     0.9401803828
H       -3.8622188882     1.7191025219     -0.7801295724
H       -2.6539491790     -0.3477487579     -0.0541513185
$end
--------------------------------------------------------------
 ----------------------------------------------------------------
             Standard Nuclear Orientation (Angstroms)
    I     Atom           X                Y                Z
 ----------------------------------------------------------------
    1      C      -5.5192985598     0.4965180311    -0.0660468595
    2      C      -4.4024083220     1.3339019498     0.0748352328
    3      H      -5.9255530128     0.3045561378    -1.0491505046
    4      H      -6.2959229820     0.5075966176     0.6852526672
    5      H      -4.4343691349    -0.0828992747     0.2679337459
    6      O      -3.3271422883    -0.0322745470     0.5541663896
    7      H      -4.2598700303     1.9643845786     0.9401803828
    8      H      -3.8622188882     1.7191025219    -0.7801295724
    9      H      -2.6539491790    -0.3477487579    -0.0541513185
 ----------------------------------------------------------------
 Nuclear Repulsion Energy =          81.19826180 hartrees
 There are       13 alpha and       13 beta electrons
 Requested basis set is 6-311+G(2df,2pd)
 There are 60 shells and 186 basis functions

 Total QAlloc Memory Limit   2000 MB
 Mega-Array Size       188 MB
 MEM_STATIC part       192 MB

                       Distance Matrix (Angstroms)
             C (  1)   C (  2)   H (  3)   H (  4)   H (  5)   O (  6)
   C (  2)  1.403034
   H (  3)  1.080919  2.154731
   H (  4)  1.080611  2.154249  1.785092
   H (  5)  1.274496  1.430257  2.026934  1.997054
   O (  6)  2.338768  1.803439  3.071778  3.020315  1.144746
   H (  7)  2.180203  1.080115  3.080092  2.516492  2.161883  2.237328
   H (  8)  2.179573  1.082196  2.516081  3.088366  2.161713  2.265828
   H (  9)  2.987165  2.429341  3.481223  3.813438  1.828600  0.960606
             H (  7)   H (  8)
   H (  8)  1.782626
   H (  9)  2.985572  2.501766
 
 A cutoff of  1.0D-09 yielded   1780 shell pairs
 There are     17258 function pairs (     21441 Cartesian)
 Smallest overlap matrix eigenvalue = 9.40E-05

 Scale SEOQF with 1.000000e-02/1.000000e-01/1.000000e-01

 Standard Electronic Orientation quadrupole field applied
 Nucleus-field energy     =     0.0000000026 hartrees
 Requested basis set is 6-31G(d)
 There are 24 shells and 54 basis functions
 A cutoff of  1.0D-09 yielded    298 shell pairs
 There are      1549 function pairs (      1732 Cartesian)
 Smallest overlap matrix eigenvalue = 6.28E-03
 Guess from superposition of atomic densities
 Warning:  Energy on first SCF cycle will be non-variational
 SAD guess density has 26.000000 electrons
 Long-range K will be added via erf
 Coulomb attenuation parameter = 0.2 bohr**(-1)
 A restricted hybrid HF-DFT SCF calculation will be
 performed using Relaxed Constraint Minimization + Pulay DIIS
 Exchange:     0.2220 Hartree-Fock + 1.0000 wB97X-D + LR-HF
 Correlation:  1.0000 wB97X-D
 Using Euler-Maclaurin-Lebedev (75,302) quadrature formula
 Dispersion:   Grimme D
 SCF converges when DIIS error is below 1.0E-04
 using 6 threads for integral computing
 -------------------------------------------------------
 OpenMP Integral computing Module                
 Release: version 1.0, May 2013, Q-Chem Inc. Pittsburgh 
 -------------------------------------------------------
 using 6 threads for integral computing
 -------------------------------------------------------
 OpenMP Integral computing Module                
 Release: version 1.0, May 2013, Q-Chem Inc. Pittsburgh 
 -------------------------------------------------------
 ---------------------------------------
  Cycle       Energy         DIIS Error
 ---------------------------------------
    1    -155.4829538262      1.07E-01
    2    -154.7633321845      1.59E-02
    3    -154.7993138623      3.20E-03
    4    -154.8390276481      2.53E-03
    5    -154.8399388542      4.29E-04 Done RCA. Switching to DIIS
    6    -154.8410988920      2.82E-04
    7    -154.8411283238      3.65E-05 Convergence criterion met
 ---------------------------------------
 SCF time:  CPU 20.27 s  wall 3.40 s
 SCF   energy in the small basis set = -154.84112832
 Total energy in the small basis set = -154.84112832
 ----------------------------------------------------
  Cycle       Energy    
 ----------------------------------------------------
    1     -18.7448980189     -1.87E+01
 Long-range K will be added via erf
 Coulomb attenuation parameter = 0.2 bohr**(-1)
 A restricted hybrid HF-DFT SCF calculation will be
 performed using Relaxed Constraint Minimization + Pulay DIIS
 Exchange:     0.2220 Hartree-Fock + 1.0000 wB97X-D + LR-HF
 Correlation:  1.0000 wB97X-D
 Using Euler-Maclaurin-Lebedev (75,302) quadrature formula
 Dispersion:   Grimme D
 SCF converges when DIIS error is below 1.0E-05
 Basis2 calculation detected. Using small basis as guess for larger.
 SCFMinFind is unable to tell whether the solution found is close.
 Resetting ReadMinima to 0 and attempting to follow guess.
 SCFMinFind following SCF Guess.
 using 6 threads for integral computing
 -------------------------------------------------------
 OpenMP Integral computing Module                
 Release: version 1.0, May 2013, Q-Chem Inc. Pittsburgh 
 -------------------------------------------------------
 using 6 threads for integral computing
 -------------------------------------------------------
 OpenMP Integral computing Module                
 Release: version 1.0, May 2013, Q-Chem Inc. Pittsburgh 
 -------------------------------------------------------
 ---------------------------------------
  Cycle       Energy         DIIS Error
 ---------------------------------------
    1    -154.8715473346      5.94E-03
    2    -154.8744555791      4.03E-03
    3    -154.8925099237      8.24E-04 Done RCA. Switching to DIIS
    4    -154.9169648272      8.21E-04
    5    -154.9189298994      7.02E-05
    6    -154.9189562973      1.39E-05
    7    -154.9189582898      5.96E-06 Convergence criterion met
 ---------------------------------------
 SCF time:  CPU 62.61 s  wall 10.47 s
 SCF   energy in the final basis set = -154.91895829
 Total energy in the final basis set = -154.91895829
 
 --------------------------------------------------------------
 
                    Orbital Energies (a.u.)
 --------------------------------------------------------------
 
 Alpha MOs
 -- Occupied --
-19.2378 -10.3574 -10.2463  -1.1089  -0.8919  -0.7023  -0.6428  -0.5717
 -0.5160  -0.4531  -0.4328  -0.4267  -0.3070
 -- Virtual --
  0.0607   0.0684   0.0900   0.0970   0.1149   0.1303   0.1397   0.1524
  0.1832   0.1883   0.2096   0.2415   0.2593   0.2826   0.2930   0.3023
  0.3309   0.3453   0.3676   0.4054   0.4504   0.4611   0.5077   0.5452
  0.5621   0.5786   0.5877   0.6122   0.6244   0.6501   0.6566   0.6778
  0.7142   0.7651   0.8115   0.8325   0.8528   0.8908   0.9221   0.9259
  1.0081   1.0380   1.0700   1.1008   1.1368   1.1597   1.1767   1.2027
  1.2386   1.2569   1.2890   1.3175   1.3313   1.3408   1.4038   1.4351
  1.4455   1.4557   1.4846   1.4877   1.5396   1.5808   1.6302   1.7068
  1.7786   1.8056   1.9008   2.0519   2.0958   2.2502   2.3792   2.4522
  2.5377   2.5854   2.6408   2.6684   2.6860   2.7306   2.7578   2.8333
  2.8639   2.9121   2.9605   3.0033   3.0200   3.0566   3.0951   3.1159
  3.1336   3.1701   3.1868   3.2199   3.2479   3.2728   3.3063   3.3588
  3.3833   3.4263   3.4393   3.4481   3.4699   3.5151   3.5387   3.5674
  3.5775   3.6371   3.6761   3.6961   3.7265   3.7913   3.7934   3.8397
  3.8595   3.8854   3.9061   3.9380   3.9524   3.9955   4.0767   4.0973
  4.1366   4.1589   4.1968   4.2319   4.2426   4.2791   4.3144   4.3634
  4.4307   4.4551   4.5370   4.5598   4.5824   4.6233   4.6692   4.7819
  4.8835   4.9005   5.0029   5.0312   5.0516   5.0571   5.1608   5.1686
  5.2672   5.2957   5.3033   5.3309   5.4124   5.4220   5.4982   5.5300
  5.5885   5.7451   5.8908   6.0616   6.1619   6.1947   6.3241   6.5066
  6.5386   6.6564   6.9488   7.1393   7.1866   7.2908   7.5518   7.6461
  7.8451   8.2538  25.0678  25.4124  50.5048
 --------------------------------------------------------------
 
 -----------------------------------------------------------------
                    Cartesian Multipole Moments
 -----------------------------------------------------------------
    Charge (ESU x 10^10)
                -0.0000
    Dipole Moment (Debye)
         X       0.6106      Y       1.0684      Z      -1.3873
       Tot       1.8544
    Quadrupole Moments (Debye-Ang)
        XX     -25.2223     XY      -4.4455     YY     -18.9025
        XZ       3.3323     YZ       0.9414     ZZ     -20.7825
    Octopole Moments (Debye-Ang^2)
       XXX     304.9003    XXY       2.9408    XYY      87.7503
       YYY     -32.8844    XXZ      -8.9678    XYZ      -4.7065
       YYZ      -2.0451    XZZ      90.2107    YZZ     -10.1918
       ZZZ     -11.2716
    Hexadecapole Moments (Debye-Ang^3)
      XXXX   -2774.5310   XXXY     138.0855   XXYY    -452.3653
      XYYY     160.9661   YYYY    -108.4526   XXXZ      24.4859
      XXYZ      23.5317   XYYZ       3.6523   YYYZ       1.5561
      XXZZ    -423.4095   XYZZ      49.4206   YYZZ     -23.8987
      XZZZ      35.8949   YZZZ      -0.2010   ZZZZ     -45.8584
 -----------------------------------------------------------------
Archival summary:
1\1\centos77-c1\SP\ProcedureUnspecified\BasisUnspecified\126\shihchen\WedJul2900:44:342020WedJul2900:44:342020\0\\#,ProcedureUnspecified,BasisUnspecified,\\0,1\C\H,1,1.08011\H,1,1.0822,2,111.057\C,1,1.40303,2,122.268,3,-156.255,0\H,4,1.08061,1,119.748,2,3.09405,0\H,4,1.08092,1,119.769,2,147.185,0\H,4,1.2745,1,64.3657,2,-103.199,0\O,7,1.14475,4,150.317,1,3.53711,0\H,8,0.960606,7,120.329,4,-109.293,0\\\@

 Total job time:  17.02s(wall), 88.07s(cpu) 
 Wed Jul 29 00:44:35 2020

        *************************************************************
        *                                                           *
        *  Thank you very much for using Q-Chem.  Have a nice day.  *
        *                                                           *
        *************************************************************


