                  Welcome to Q-Chem
     A Quantum Leap Into The Future Of Chemistry


 Q-Chem 5.3 (devel), Q-Chem, Inc., Pleasanton, CA (2020)

 Yihan Shao,  Zhengting Gan,  E. Epifanovsky,  A. T. B. Gilbert,  M. Wormit,  
 J. Kussmann,  A. W. Lange,  A. Behn,  Jia Deng,  Xintian Feng,  D. Ghosh,  
 M. Goldey,  P. R. Horn,  L. D. Jacobson,  I. Kaliman,  T. Kus,  A. Landau,  
 Jie Liu,  E. I. Proynov,  R. M. Richard,  R. P. Steele,  E. J. Sundstrom,  
 H. L. Woodcock III,  P. M. Zimmerman,  D. Zuev,  B. Alam,  B. Albrecht,  
 E. Alguire,  S. A. Baeppler,  D. Barton,  Z. Benda,  Y. A. Bernard,  
 E. J. Berquist,  K. B. Bravaya,  H. Burton,  K. Carter-Fenk,  D. Casanova,  
 Chun-Min Chang,  Yunqing Chen,  A. Chien,  K. D. Closser,  M. P. Coons,  
 S. Coriani,  S. Dasgupta,  A. L. Dempwolff,  M. Diedenhofen,  Hainam Do,  
 R. G. Edgar,  Po-Tung Fang,  S. Faraji,  S. Fatehi,  Qingguo Feng,  
 J. Fosso-Tande,  J. Gayvert,  Qinghui Ge,  A. Ghysels,  G. Gidofalvi,  
 J. Gomes,  J. Gonthier,  A. Gunina,  D. Hait,  M. W. D. Hanson-Heine,  
 P. H. P. Harbach,  A. W. Hauser,  M. F. Herbst,  J. E. Herr,  
 E. G. Hohenstein,  Z. C. Holden,  Kerwin Hui,  B. C. Huynh,  T.-C. Jagau,  
 Hyunjun Ji,  B. Kaduk,  K. Khistyaev,  Jaehoon Kim,  P. Klunzinger,  K. Koh,  
 D. Kosenkov,  L. Koulias,  T. Kowalczyk,  C. M. Krauter,  A. Kunitsa,  
 Ka Un Lao,  A. Laurent,  K. V. Lawler,  Joonho Lee,  D. Lefrancois,  
 S. Lehtola,  D. S. Levine,  Yi-Pei Li,  You-Sheng Lin,  Fenglai Liu,  
 Kuan-Yu Liu,  E. Livshits,  M. Loipersberger,  A. Luenser,  P. Manohar,  
 E. Mansoor,  S. F. Manzer,  Shan-Ping Mao,  Yuezhi Mao,  N. Mardirossian,  
 A. V. Marenich,  T. Markovich,  L. A. Martinez-Martinez,  S. A. Maurer,  
 N. J. Mayhall,  S. C. McKenzie,  J.-M. Mewes,  P. Morgante,  A. F. Morrison,  
 J. W. Mullinax,  K. Nanda,  T. S. Nguyen-Beck,  R. Olivares-Amaya,  
 K. J. Oosterbaan,  J. A. Parkhill,  S. K. Paul,  F. Pavosevic,  Zheng Pei,  
 T. M. Perrine,  F. Plasser,  P. Pokhilko,  S. Prager,  A. Prociuk,  
 E. Ramos,  B. Rana,  D. R. Rehn,  F. Rob,  M. Scheurer,  M. Schneider,  
 N. Sergueev,  S. M. Sharada,  S. Sharma,  D. W. Small,  T. Stauch,  
 C. J. Stein,  T. Stein,  Yu-Chuan Su,  S. P. Veccham,  Zhen Tao,  
 A. J. W. Thom,  A. Tkatchenko,  T. Tsuchimochi,  N. M. Tubman,  L. Vogt,  
 M. L. Vidal,  O. Vydrov,  M. A. Watson,  J. Wenzel,  M. de Wergifosse,  
 T. A. Wesolowski,  A. White,  J. Witte,  A. Yamada,  Jun Yang,  K. Yao,  
 S. Yeganeh,  S. R. Yost,  Zhi-Qiang You,  A. Zech,  Igor Ying Zhang,  
 Xing Zhang,  Yan Zhao,  Ying Zhu,  B. R. Brooks,  G. K. L. Chan,  
 C. J. Cramer,  M. S. Gordon,  W. J. Hehre,  A. Klamt,  M. W. Schmidt,  
 C. D. Sherrill,  D. G. Truhlar,  A. Aspuru-Guzik,  R. Baer,  A. T. Bell,  
 N. A. Besley,  Jeng-Da Chai,  A. E. DePrince, III,  R. A. DiStasio Jr.,  
 A. Dreuw,  B. D. Dunietz,  T. R. Furlani,  Chao-Ping Hsu,  Yousung Jung,  
 Jing Kong,  D. S. Lambrecht,  WanZhen Liang,  C. Ochsenfeld,  
 V. A. Rassolov,  L. V. Slipchenko,  J. E. Subotnik,  T. Van Voorhis,  
 J. M. Herbert,  A. I. Krylov,  P. M. W. Gill,  M. Head-Gordon

 Contributors to earlier versions of Q-Chem not listed above: 
 R. D. Adamson,  B. Austin,  J. Baker,  G. J. O. Beran,  K. Brandhorst,  
 S. T. Brown,  E. F. C. Byrd,  A. K. Chakraborty,  C.-L. Cheng,  
 Siu Hung Chien,  D. M. Chipman,  D. L. Crittenden,  H. Dachsel,  
 R. J. Doerksen,  A. D. Dutoi,  L. Fusti-Molnar,  W. A. Goddard III,  
 A. Golubeva-Zadorozhnaya,  S. R. Gwaltney,  G. Hawkins,  A. Heyden,  
 S. Hirata,  G. Kedziora,  F. J. Keil,  C. Kelley,  Jihan Kim,  R. A. King,  
 R. Z. Khaliullin,  P. P. Korambath,  W. Kurlancheek,  A. M. Lee,  M. S. Lee,  
 S. V. Levchenko,  Ching Yeh Lin,  D. Liotard,  R. C. Lochan,  I. Lotan,  
 P. E. Maslen,  N. Nair,  D. P. O'Neill,  D. Neuhauser,  E. Neuscamman,  
 C. M. Oana,  R. Olson,  B. Peters,  R. Peverati,  P. A. Pieniazek,  
 Y. M. Rhee,  J. Ritchie,  M. A. Rohrdanz,  E. Rosta,  N. J. Russ,  
 H. F. Schaefer III,  N. E. Schultz,  N. Shenvi,  A. C. Simmonett,  A. Sodt,  
 D. Stuck,  K. S. Thanthiriwatte,  V. Vanovschi,  Tao Wang,  A. Warshel,  
 C. F. Williams,  Q. Wu,  X. Xu,  W. Zhang

 Please cite Q-Chem as follows:
 Y. Shao et al., Mol. Phys. 113, 184-215 (2015)
 DOI: 10.1080/00268976.2014.952696

 Q-Chem 5.3.0 for Intel X86 EM64T Linux

 Parts of Q-Chem use Armadillo 9.800.1 (Horizon Scraper).
 http://arma.sourceforge.net/

 Q-Chem begins on Wed Jul 29 00:42:33 2020  

Host: centos77-c1
0

     Scratch files written to /tmp/30084.centos77-h1/qchem30555//
Processing $rem in /opt/qchem-5.3.0-intel2020u1//config/preferences:
Processing $rem in /home/shihchengli/.qchemrc:

Checking the input file for inconsistencies... 	...done.

--------------------------------------------------------------
User input:
--------------------------------------------------------------
$rem
   JOBTYPE  sp
   EXCHANGE   omegaB97X-D
   BASIS   6-311+G(2df,2pd)
   UNRESTRICTED   False
   max_scf_cycles   250
   geom_opt_max_cycles   1500
   basis2 6-31G*
   scf_algorithm rca_diis
   SYM_IGNORE  TRUE
   print_input   true
   geom_opt_dmax   80
   pop_mulliken false
   XC_GRID 000075000302
$end

$molecule
0 1
C       -5.5619780045     0.5339012443     -0.0776443974
C       -4.3966677044     1.3785193576     0.0635496493
H       -5.8610203514     0.3359584827     -1.0991687749
H       -6.2666773249     0.5830656387     0.7422196662
H       -4.4595556407     -0.2752635969     0.2908267038
O       -3.2973775208     -0.0165323795     0.5843028229
H       -4.3002326580     1.9280790240     0.9893705197
H       -3.8955900477     1.6738315217     -0.8495073977
H       -2.6416331449     -0.2784220356     -0.0710586287
$end
--------------------------------------------------------------
 ----------------------------------------------------------------
             Standard Nuclear Orientation (Angstroms)
    I     Atom           X                Y                Z
 ----------------------------------------------------------------
    1      C      -5.5619780045     0.5339012443    -0.0776443974
    2      C      -4.3966677044     1.3785193576     0.0635496493
    3      H      -5.8610203514     0.3359584827    -1.0991687749
    4      H      -6.2666773249     0.5830656387     0.7422196662
    5      H      -4.4595556407    -0.2752635969     0.2908267038
    6      O      -3.2973775208    -0.0165323795     0.5843028229
    7      H      -4.3002326580     1.9280790240     0.9893705197
    8      H      -3.8955900477     1.6738315217    -0.8495073977
    9      H      -2.6416331449    -0.2784220356    -0.0710586287
 ----------------------------------------------------------------
 Nuclear Repulsion Energy =          79.16987953 hartrees
 There are       13 alpha and       13 beta electrons
 Requested basis set is 6-311+G(2df,2pd)
 There are 60 shells and 186 basis functions

 Total QAlloc Memory Limit   2000 MB
 Mega-Array Size       188 MB
 MEM_STATIC part       192 MB

                       Distance Matrix (Angstroms)
             C (  1)   C (  2)   H (  3)   H (  4)   H (  5)   O (  6)
   C (  2)  1.446120
   H (  3)  1.082645  2.140835
   H (  4)  1.082218  2.142493  1.901665
   H (  5)  1.416282  1.670511  2.066345  2.050896
   O (  6)  2.422719  1.850890  3.087166  3.033347  1.226266
   H (  7)  2.162002  1.080953  3.054980  2.395214  2.316909  2.225154
   H (  8)  2.161495  1.082572  2.390638  3.057028  2.327529  2.295866
   H (  9)  3.031225  2.417379  3.434957  3.813729  1.853595  0.963372
             H (  7)   H (  8)
   H (  8)  1.899960
   H (  9)  2.957044  2.447383
 
 A cutoff of  1.0D-09 yielded   1776 shell pairs
 There are     17238 function pairs (     21417 Cartesian)
 Smallest overlap matrix eigenvalue = 9.75E-05

 Scale SEOQF with 1.000000e-02/1.000000e-01/1.000000e-01

 Standard Electronic Orientation quadrupole field applied
 Nucleus-field energy     =     0.0000000026 hartrees
 Requested basis set is 6-31G(d)
 There are 24 shells and 54 basis functions
 A cutoff of  1.0D-09 yielded    298 shell pairs
 There are      1549 function pairs (      1732 Cartesian)
 Smallest overlap matrix eigenvalue = 6.80E-03
 Guess from superposition of atomic densities
 Warning:  Energy on first SCF cycle will be non-variational
 SAD guess density has 26.000000 electrons
 Long-range K will be added via erf
 Coulomb attenuation parameter = 0.2 bohr**(-1)
 A restricted hybrid HF-DFT SCF calculation will be
 performed using Relaxed Constraint Minimization + Pulay DIIS
 Exchange:     0.2220 Hartree-Fock + 1.0000 wB97X-D + LR-HF
 Correlation:  1.0000 wB97X-D
 Using Euler-Maclaurin-Lebedev (75,302) quadrature formula
 Dispersion:   Grimme D
 SCF converges when DIIS error is below 1.0E-04
 using 6 threads for integral computing
 -------------------------------------------------------
 OpenMP Integral computing Module                
 Release: version 1.0, May 2013, Q-Chem Inc. Pittsburgh 
 -------------------------------------------------------
 using 6 threads for integral computing
 -------------------------------------------------------
 OpenMP Integral computing Module                
 Release: version 1.0, May 2013, Q-Chem Inc. Pittsburgh 
 -------------------------------------------------------
 ---------------------------------------
  Cycle       Energy         DIIS Error
 ---------------------------------------
    1    -155.2324744346      9.80E-02
    2    -154.7818987994      1.57E-02
    3    -154.8160559055      3.24E-03
    4    -154.8563714440      2.39E-03
    5    -154.8572690534      4.91E-04 Done RCA. Switching to DIIS
    6    -154.8583942002      3.01E-04
    7    -154.8584272426      4.23E-05 Convergence criterion met
 ---------------------------------------
 SCF time:  CPU 17.37 s  wall 2.91 s
 SCF   energy in the small basis set = -154.85842724
 Total energy in the small basis set = -154.85842724
 ----------------------------------------------------
  Cycle       Energy    
 ----------------------------------------------------
    1     -18.6633283522     -1.87E+01
 Long-range K will be added via erf
 Coulomb attenuation parameter = 0.2 bohr**(-1)
 A restricted hybrid HF-DFT SCF calculation will be
 performed using Relaxed Constraint Minimization + Pulay DIIS
 Exchange:     0.2220 Hartree-Fock + 1.0000 wB97X-D + LR-HF
 Correlation:  1.0000 wB97X-D
 Using Euler-Maclaurin-Lebedev (75,302) quadrature formula
 Dispersion:   Grimme D
 SCF converges when DIIS error is below 1.0E-05
 Basis2 calculation detected. Using small basis as guess for larger.
 SCFMinFind is unable to tell whether the solution found is close.
 Resetting ReadMinima to 0 and attempting to follow guess.
 SCFMinFind following SCF Guess.
 using 6 threads for integral computing
 -------------------------------------------------------
 OpenMP Integral computing Module                
 Release: version 1.0, May 2013, Q-Chem Inc. Pittsburgh 
 -------------------------------------------------------
 using 6 threads for integral computing
 -------------------------------------------------------
 OpenMP Integral computing Module                
 Release: version 1.0, May 2013, Q-Chem Inc. Pittsburgh 
 -------------------------------------------------------
 ---------------------------------------
  Cycle       Energy         DIIS Error
 ---------------------------------------
    1    -154.8846702044      5.97E-03
    2    -154.8822857496      4.32E-03
    3    -154.9027230714      9.70E-04 Done RCA. Switching to DIIS
    4    -154.9308475000      1.04E-03
    5    -154.9340240102      7.44E-05
    6    -154.9340529811      1.69E-05
    7    -154.9340553410      7.47E-06 Convergence criterion met
 ---------------------------------------
 SCF time:  CPU 54.97 s  wall 9.19 s
 SCF   energy in the final basis set = -154.93405534
 Total energy in the final basis set = -154.93405534
 
 --------------------------------------------------------------
 
                    Orbital Energies (a.u.)
 --------------------------------------------------------------
 
 Alpha MOs
 -- Occupied --
-19.2440 -10.3572 -10.2549  -1.0920  -0.8708  -0.6922  -0.6147  -0.5772
 -0.4953  -0.4616  -0.4408  -0.4285  -0.3023
 -- Virtual --
  0.0524   0.0677   0.0909   0.0949   0.1138   0.1271   0.1370   0.1485
  0.1744   0.1873   0.2228   0.2397   0.2516   0.2758   0.2872   0.2943
  0.3201   0.3304   0.3543   0.3936   0.4567   0.4649   0.4939   0.5512
  0.5707   0.5788   0.5820   0.6052   0.6139   0.6334   0.6442   0.6882
  0.6937   0.7524   0.8033   0.8295   0.8580   0.8722   0.9028   0.9355
  0.9741   0.9858   1.0592   1.0872   1.1310   1.1560   1.1667   1.1811
  1.2334   1.2497   1.2774   1.3014   1.3327   1.3534   1.4009   1.4211
  1.4419   1.4526   1.4773   1.4934   1.5100   1.5663   1.5986   1.6699
  1.7160   1.7806   1.9154   2.0163   2.0605   2.2620   2.3180   2.4477
  2.4920   2.5602   2.6529   2.6738   2.6948   2.7620   2.7706   2.8103
  2.8825   2.8888   2.9663   2.9667   2.9798   3.0030   3.0269   3.0584
  3.0797   3.1188   3.1624   3.2248   3.2440   3.2883   3.3136   3.3636
  3.3690   3.3791   3.4251   3.4570   3.4797   3.5000   3.5458   3.5489
  3.5721   3.6102   3.6427   3.6749   3.7132   3.7200   3.7710   3.7849
  3.8080   3.8417   3.8628   3.8948   3.9149   3.9354   4.0022   4.0532
  4.0921   4.1332   4.1870   4.2062   4.2288   4.2647   4.2791   4.3038
  4.3282   4.3694   4.4108   4.4737   4.4913   4.5678   4.6148   4.6623
  4.7431   4.8247   4.8507   4.9222   4.9796   4.9918   5.0477   5.0577
  5.0868   5.1376   5.2300   5.2535   5.3710   5.4402   5.4706   5.5550
  5.6428   5.6905   5.7905   5.8461   6.0711   6.1331   6.2047   6.2482
  6.4437   6.6285   6.7534   6.9426   7.1617   7.2266   7.4171   7.6310
  7.7853   8.1739  24.9516  25.2633  50.4437
 --------------------------------------------------------------
 
 -----------------------------------------------------------------
                    Cartesian Multipole Moments
 -----------------------------------------------------------------
    Charge (ESU x 10^10)
                 0.0000
    Dipole Moment (Debye)
         X       0.6052      Y       0.9711      Z      -1.4135
       Tot       1.8186
    Quadrupole Moments (Debye-Ang)
        XX     -26.1600     XY      -3.9750     YY     -19.3474
        XZ       3.0194     YZ       0.9334     ZZ     -20.4497
    Octopole Moments (Debye-Ang^2)
       XXX     319.0470    XXY       0.3695    XYY      89.2509
       YYY     -35.4910    XXZ      -5.6847    XYZ      -4.9764
       YYZ      -1.9478    XZZ      88.4702    YZZ     -10.1237
       ZZZ     -11.5431
    Hexadecapole Moments (Debye-Ang^3)
      XXXX   -2922.7218   XXXY     155.6320   XXYY    -459.7819
      XYYY     172.9500   YYYY    -117.4865   XXXZ      -1.0398
      XXYZ      26.6777   XYYZ       2.5417   YYYZ       1.9573
      XXZZ    -416.0599   XYZZ      49.3486   YYZZ     -24.6225
      XZZZ      35.6747   YZZZ       0.3580   ZZZZ     -47.6477
 -----------------------------------------------------------------
Archival summary:
1\1\centos77-c1\SP\ProcedureUnspecified\BasisUnspecified\126\shihchen\WedJul2900:42:482020WedJul2900:42:482020\0\\#,ProcedureUnspecified,BasisUnspecified,\\0,1\C\H,1,1.08095\H,1,1.08257,2,122.847\C,1,1.44612,2,116.901,3,-158.144,0\H,4,1.08222,1,115.101,2,3.79713,0\H,4,1.08264,1,114.929,2,155.353,0\H,4,1.41628,1,71.4003,2,-99.7065,0\O,7,1.22627,4,132.799,1,4.14833,0\H,8,0.963372,7,115.147,4,-109.293,0\\\@

 Total job time:  14.83s(wall), 77.01s(cpu) 
 Wed Jul 29 00:42:48 2020

        *************************************************************
        *                                                           *
        *  Thank you very much for using Q-Chem.  Have a nice day.  *
        *                                                           *
        *************************************************************


