                  Welcome to Q-Chem
     A Quantum Leap Into The Future Of Chemistry


 Q-Chem 5.3 (devel), Q-Chem, Inc., Pleasanton, CA (2020)

 Yihan Shao,  Zhengting Gan,  E. Epifanovsky,  A. T. B. Gilbert,  M. Wormit,  
 J. Kussmann,  A. W. Lange,  A. Behn,  Jia Deng,  Xintian Feng,  D. Ghosh,  
 M. Goldey,  P. R. Horn,  L. D. Jacobson,  I. Kaliman,  T. Kus,  A. Landau,  
 Jie Liu,  E. I. Proynov,  R. M. Richard,  R. P. Steele,  E. J. Sundstrom,  
 H. L. Woodcock III,  P. M. Zimmerman,  D. Zuev,  B. Alam,  B. Albrecht,  
 E. Alguire,  S. A. Baeppler,  D. Barton,  Z. Benda,  Y. A. Bernard,  
 E. J. Berquist,  K. B. Bravaya,  H. Burton,  K. Carter-Fenk,  D. Casanova,  
 Chun-Min Chang,  Yunqing Chen,  A. Chien,  K. D. Closser,  M. P. Coons,  
 S. Coriani,  S. Dasgupta,  A. L. Dempwolff,  M. Diedenhofen,  Hainam Do,  
 R. G. Edgar,  Po-Tung Fang,  S. Faraji,  S. Fatehi,  Qingguo Feng,  
 J. Fosso-Tande,  J. Gayvert,  Qinghui Ge,  A. Ghysels,  G. Gidofalvi,  
 J. Gomes,  J. Gonthier,  A. Gunina,  D. Hait,  M. W. D. Hanson-Heine,  
 P. H. P. Harbach,  A. W. Hauser,  M. F. Herbst,  J. E. Herr,  
 E. G. Hohenstein,  Z. C. Holden,  Kerwin Hui,  B. C. Huynh,  T.-C. Jagau,  
 Hyunjun Ji,  B. Kaduk,  K. Khistyaev,  Jaehoon Kim,  P. Klunzinger,  K. Koh,  
 D. Kosenkov,  L. Koulias,  T. Kowalczyk,  C. M. Krauter,  A. Kunitsa,  
 Ka Un Lao,  A. Laurent,  K. V. Lawler,  Joonho Lee,  D. Lefrancois,  
 S. Lehtola,  D. S. Levine,  Yi-Pei Li,  You-Sheng Lin,  Fenglai Liu,  
 Kuan-Yu Liu,  E. Livshits,  M. Loipersberger,  A. Luenser,  P. Manohar,  
 E. Mansoor,  S. F. Manzer,  Shan-Ping Mao,  Yuezhi Mao,  N. Mardirossian,  
 A. V. Marenich,  T. Markovich,  L. A. Martinez-Martinez,  S. A. Maurer,  
 N. J. Mayhall,  S. C. McKenzie,  J.-M. Mewes,  P. Morgante,  A. F. Morrison,  
 J. W. Mullinax,  K. Nanda,  T. S. Nguyen-Beck,  R. Olivares-Amaya,  
 K. J. Oosterbaan,  J. A. Parkhill,  S. K. Paul,  F. Pavosevic,  Zheng Pei,  
 T. M. Perrine,  F. Plasser,  P. Pokhilko,  S. Prager,  A. Prociuk,  
 E. Ramos,  B. Rana,  D. R. Rehn,  F. Rob,  M. Scheurer,  M. Schneider,  
 N. Sergueev,  S. M. Sharada,  S. Sharma,  D. W. Small,  T. Stauch,  
 C. J. Stein,  T. Stein,  Yu-Chuan Su,  S. P. Veccham,  Zhen Tao,  
 A. J. W. Thom,  A. Tkatchenko,  T. Tsuchimochi,  N. M. Tubman,  L. Vogt,  
 M. L. Vidal,  O. Vydrov,  M. A. Watson,  J. Wenzel,  M. de Wergifosse,  
 T. A. Wesolowski,  A. White,  J. Witte,  A. Yamada,  Jun Yang,  K. Yao,  
 S. Yeganeh,  S. R. Yost,  Zhi-Qiang You,  A. Zech,  Igor Ying Zhang,  
 Xing Zhang,  Yan Zhao,  Ying Zhu,  B. R. Brooks,  G. K. L. Chan,  
 C. J. Cramer,  M. S. Gordon,  W. J. Hehre,  A. Klamt,  M. W. Schmidt,  
 C. D. Sherrill,  D. G. Truhlar,  A. Aspuru-Guzik,  R. Baer,  A. T. Bell,  
 N. A. Besley,  Jeng-Da Chai,  A. E. DePrince, III,  R. A. DiStasio Jr.,  
 A. Dreuw,  B. D. Dunietz,  T. R. Furlani,  Chao-Ping Hsu,  Yousung Jung,  
 Jing Kong,  D. S. Lambrecht,  WanZhen Liang,  C. Ochsenfeld,  
 V. A. Rassolov,  L. V. Slipchenko,  J. E. Subotnik,  T. Van Voorhis,  
 J. M. Herbert,  A. I. Krylov,  P. M. W. Gill,  M. Head-Gordon

 Contributors to earlier versions of Q-Chem not listed above: 
 R. D. Adamson,  B. Austin,  J. Baker,  G. J. O. Beran,  K. Brandhorst,  
 S. T. Brown,  E. F. C. Byrd,  A. K. Chakraborty,  C.-L. Cheng,  
 Siu Hung Chien,  D. M. Chipman,  D. L. Crittenden,  H. Dachsel,  
 R. J. Doerksen,  A. D. Dutoi,  L. Fusti-Molnar,  W. A. Goddard III,  
 A. Golubeva-Zadorozhnaya,  S. R. Gwaltney,  G. Hawkins,  A. Heyden,  
 S. Hirata,  G. Kedziora,  F. J. Keil,  C. Kelley,  Jihan Kim,  R. A. King,  
 R. Z. Khaliullin,  P. P. Korambath,  W. Kurlancheek,  A. M. Lee,  M. S. Lee,  
 S. V. Levchenko,  Ching Yeh Lin,  D. Liotard,  R. C. Lochan,  I. Lotan,  
 P. E. Maslen,  N. Nair,  D. P. O'Neill,  D. Neuhauser,  E. Neuscamman,  
 C. M. Oana,  R. Olson,  B. Peters,  R. Peverati,  P. A. Pieniazek,  
 Y. M. Rhee,  J. Ritchie,  M. A. Rohrdanz,  E. Rosta,  N. J. Russ,  
 H. F. Schaefer III,  N. E. Schultz,  N. Shenvi,  A. C. Simmonett,  A. Sodt,  
 D. Stuck,  K. S. Thanthiriwatte,  V. Vanovschi,  Tao Wang,  A. Warshel,  
 C. F. Williams,  Q. Wu,  X. Xu,  W. Zhang

 Please cite Q-Chem as follows:
 Y. Shao et al., Mol. Phys. 113, 184-215 (2015)
 DOI: 10.1080/00268976.2014.952696

 Q-Chem 5.3.0 for Intel X86 EM64T Linux

 Parts of Q-Chem use Armadillo 9.800.1 (Horizon Scraper).
 http://arma.sourceforge.net/

 Q-Chem begins on Wed Jul 29 00:49:03 2020  

Host: centos77-c1
0

     Scratch files written to /tmp/30084.centos77-h1/qchem31480//
Processing $rem in /opt/qchem-5.3.0-intel2020u1//config/preferences:
Processing $rem in /home/shihchengli/.qchemrc:

Checking the input file for inconsistencies... 	...done.

--------------------------------------------------------------
User input:
--------------------------------------------------------------
$rem
   JOBTYPE  sp
   EXCHANGE   omegaB97X-D
   BASIS   6-311+G(2df,2pd)
   UNRESTRICTED   False
   max_scf_cycles   250
   geom_opt_max_cycles   1500
   basis2 6-31G*
   scf_algorithm rca_diis
   SYM_IGNORE  TRUE
   print_input   true
   geom_opt_dmax   80
   pop_mulliken false
   XC_GRID 000075000302
$end

$molecule
0 1
C       -5.5413902978     0.5387082540     -0.0909394460
C       -4.4110643704     1.3687605514     0.0716911541
H       -5.8710821465     0.3315151744     -1.0358645924
H       -6.3417047895     0.5617491735     0.7323006427
H       -4.4648581432     -0.3094748101     0.2800923780
O       -3.2933150862     -0.0187869888     0.5866990251
H       -4.2713558491     1.9340516979     0.9240171640
H       -3.8484290196     1.7279801998     -0.8229892779
H       -2.6375326949     -0.2713659949     -0.0721168842
$end
--------------------------------------------------------------
 ----------------------------------------------------------------
             Standard Nuclear Orientation (Angstroms)
    I     Atom           X                Y                Z
 ----------------------------------------------------------------
    1      C      -5.5413902978     0.5387082540    -0.0909394460
    2      C      -4.4110643704     1.3687605514     0.0716911541
    3      H      -5.8710821465     0.3315151744    -1.0358645924
    4      H      -6.3417047895     0.5617491735     0.7323006427
    5      H      -4.4648581432    -0.3094748101     0.2800923780
    6      O      -3.2933150862    -0.0187869888     0.5866990251
    7      H      -4.2713558491     1.9340516979     0.9240171640
    8      H      -3.8484290196     1.7279801998    -0.8229892779
    9      H      -2.6375326949    -0.2713659949    -0.0721168842
 ----------------------------------------------------------------
 Nuclear Repulsion Energy =          79.42870800 hartrees
 There are       13 alpha and       13 beta electrons
 Requested basis set is 6-311+G(2df,2pd)
 There are 60 shells and 186 basis functions

 Total QAlloc Memory Limit   2000 MB
 Mega-Array Size       188 MB
 MEM_STATIC part       192 MB

                       Distance Matrix (Angstroms)
             C (  1)   C (  2)   H (  3)   H (  4)   H (  5)   O (  6)
   C (  2)  1.411762
   H (  3)  1.022012  2.105756
   H (  4)  1.148372  2.194321  1.844153
   H (  5)  1.419859  1.691981  2.029797  2.118036
   O (  6)  2.413263  1.854693  3.065992  3.106590  1.245400
   H (  7)  2.142454  1.032246  2.994726  2.491248  2.342113  2.209961
   H (  8)  2.194626  1.116266  2.467095  3.161557  2.397498  2.312265
   H (  9)  3.014791  2.419940  3.427553  3.880987  1.861349  0.963268
             H (  7)   H (  8)
   H (  8)  1.809244
   H (  9)  2.919851  2.455090
 
 A cutoff of  1.0D-09 yielded   1777 shell pairs
 There are     17243 function pairs (     21422 Cartesian)
 Smallest overlap matrix eigenvalue = 8.92E-05

 Scale SEOQF with 1.000000e-02/1.000000e-01/1.000000e-01

 Standard Electronic Orientation quadrupole field applied
 Nucleus-field energy     =     0.0000000027 hartrees
 Requested basis set is 6-31G(d)
 There are 24 shells and 54 basis functions
 A cutoff of  1.0D-09 yielded    297 shell pairs
 There are      1548 function pairs (      1731 Cartesian)
 Smallest overlap matrix eigenvalue = 6.71E-03
 Guess from superposition of atomic densities
 Warning:  Energy on first SCF cycle will be non-variational
 SAD guess density has 26.000000 electrons
 Long-range K will be added via erf
 Coulomb attenuation parameter = 0.2 bohr**(-1)
 A restricted hybrid HF-DFT SCF calculation will be
 performed using Relaxed Constraint Minimization + Pulay DIIS
 Exchange:     0.2220 Hartree-Fock + 1.0000 wB97X-D + LR-HF
 Correlation:  1.0000 wB97X-D
 Using Euler-Maclaurin-Lebedev (75,302) quadrature formula
 Dispersion:   Grimme D
 SCF converges when DIIS error is below 1.0E-04
 using 6 threads for integral computing
 -------------------------------------------------------
 OpenMP Integral computing Module                
 Release: version 1.0, May 2013, Q-Chem Inc. Pittsburgh 
 -------------------------------------------------------
 using 6 threads for integral computing
 -------------------------------------------------------
 OpenMP Integral computing Module                
 Release: version 1.0, May 2013, Q-Chem Inc. Pittsburgh 
 -------------------------------------------------------
 ---------------------------------------
  Cycle       Energy         DIIS Error
 ---------------------------------------
    1    -155.2616217585      9.97E-02
    2    -154.7783035029      1.56E-02
    3    -154.8121495059      3.27E-03
    4    -154.8521821047      2.43E-03
    5    -154.8531092668      5.01E-04 Done RCA. Switching to DIIS
    6    -154.8542746604      3.10E-04
    7    -154.8543100240      4.12E-05 Convergence criterion met
 ---------------------------------------
 SCF time:  CPU 17.89 s  wall 3.00 s
 SCF   energy in the small basis set = -154.85431002
 Total energy in the small basis set = -154.85431002
 ----------------------------------------------------
  Cycle       Energy    
 ----------------------------------------------------
    1     -18.6788231529     -1.87E+01
 Long-range K will be added via erf
 Coulomb attenuation parameter = 0.2 bohr**(-1)
 A restricted hybrid HF-DFT SCF calculation will be
 performed using Relaxed Constraint Minimization + Pulay DIIS
 Exchange:     0.2220 Hartree-Fock + 1.0000 wB97X-D + LR-HF
 Correlation:  1.0000 wB97X-D
 Using Euler-Maclaurin-Lebedev (75,302) quadrature formula
 Dispersion:   Grimme D
 SCF converges when DIIS error is below 1.0E-05
 Basis2 calculation detected. Using small basis as guess for larger.
 SCFMinFind is unable to tell whether the solution found is close.
 Resetting ReadMinima to 0 and attempting to follow guess.
 SCFMinFind following SCF Guess.
 using 6 threads for integral computing
 -------------------------------------------------------
 OpenMP Integral computing Module                
 Release: version 1.0, May 2013, Q-Chem Inc. Pittsburgh 
 -------------------------------------------------------
 using 6 threads for integral computing
 -------------------------------------------------------
 OpenMP Integral computing Module                
 Release: version 1.0, May 2013, Q-Chem Inc. Pittsburgh 
 -------------------------------------------------------
 ---------------------------------------
  Cycle       Energy         DIIS Error
 ---------------------------------------
    1    -154.8803322271      5.98E-03
    2    -154.8765874719      4.39E-03
    3    -154.8975963844      9.99E-04 Done RCA. Switching to DIIS
    4    -154.9265125222      1.10E-03
    5    -154.9299952677      7.34E-05
    6    -154.9300227578      1.61E-05
    7    -154.9300248808      4.30E-06 Convergence criterion met
 ---------------------------------------
 SCF time:  CPU 55.74 s  wall 9.32 s
 SCF   energy in the final basis set = -154.93002488
 Total energy in the final basis set = -154.93002488
 
 --------------------------------------------------------------
 
                    Orbital Energies (a.u.)
 --------------------------------------------------------------
 
 Alpha MOs
 -- Occupied --
-19.2424 -10.3529 -10.2547  -1.0886  -0.8754  -0.7007  -0.6119  -0.5682
 -0.5105  -0.4529  -0.4420  -0.4277  -0.3052
 -- Virtual --
  0.0522   0.0681   0.0890   0.0966   0.1134   0.1280   0.1384   0.1491
  0.1770   0.1884   0.2130   0.2417   0.2505   0.2757   0.2874   0.2980
  0.3256   0.3330   0.3585   0.3950   0.4616   0.4638   0.4922   0.5500
  0.5633   0.5777   0.5839   0.6027   0.6118   0.6416   0.6535   0.6906
  0.7039   0.7501   0.8018   0.8303   0.8429   0.8794   0.9090   0.9346
  0.9856   1.0159   1.0695   1.0945   1.1300   1.1559   1.1652   1.1940
  1.2330   1.2542   1.2795   1.2938   1.3211   1.3488   1.4071   1.4289
  1.4463   1.4522   1.4693   1.4840   1.5384   1.5777   1.6059   1.6633
  1.7231   1.7857   1.9093   2.0064   2.0554   2.2620   2.3105   2.4318
  2.4670   2.5538   2.6411   2.6702   2.6979   2.7499   2.7746   2.8006
  2.8741   2.8851   2.9569   2.9745   2.9978   3.0458   3.0760   3.0825
  3.1014   3.1236   3.1614   3.2201   3.2509   3.2728   3.3162   3.3422
  3.3589   3.4027   3.4192   3.4556   3.4670   3.5048   3.5272   3.5524
  3.5604   3.6057   3.6356   3.6679   3.6992   3.7367   3.7587   3.8203
  3.8356   3.8544   3.8899   3.9097   3.9383   3.9541   4.0554   4.0750
  4.1016   4.1170   4.1814   4.2003   4.2298   4.2550   4.2749   4.3101
  4.3224   4.3608   4.4064   4.4683   4.4976   4.5756   4.6131   4.7231
  4.7318   4.8028   4.8309   4.8860   4.9665   5.0302   5.0983   5.1088
  5.1541   5.2120   5.2483   5.3612   5.3838   5.4373   5.4582   5.4968
  5.6043   5.6583   5.7776   5.8199   6.0349   6.1605   6.2327   6.3718
  6.4744   6.6303   6.7338   6.8796   7.1623   7.2263   7.4072   7.6262
  7.7779   8.1765  24.9547  25.3008  50.4408
 --------------------------------------------------------------
 
 -----------------------------------------------------------------
                    Cartesian Multipole Moments
 -----------------------------------------------------------------
    Charge (ESU x 10^10)
                 0.0000
    Dipole Moment (Debye)
         X       0.4935      Y       0.9623      Z      -1.4583
       Tot       1.8156
    Quadrupole Moments (Debye-Ang)
        XX     -24.8153     XY      -3.7766     YY     -19.0570
        XZ       3.3334     YZ       0.9093     ZZ     -20.8278
    Octopole Moments (Debye-Ang^2)
       XXX     306.6357    XXY      -0.7949    XYY      88.1011
       YYY     -34.5328    XXZ      -7.8471    XYZ      -4.7011
       YYZ      -2.0686    XZZ      90.1808    YZZ     -10.5175
       ZZZ     -11.6702
    Hexadecapole Moments (Debye-Ang^3)
      XXXX   -2821.0042   XXXY     159.9802   XXYY    -454.7994
      XYYY     169.2571   YYYY    -114.8647   XXXZ      13.6608
      XXYZ      24.7241   XYYZ       3.4813   YYYZ       2.2496
      XXZZ    -423.7779   XYZZ      51.2361   YYZZ     -24.9598
      XZZZ      36.7612   YZZZ       0.5376   ZZZZ     -47.4125
 -----------------------------------------------------------------
Archival summary:
1\1\centos77-c1\SP\ProcedureUnspecified\BasisUnspecified\126\shihchen\WedJul2900:49:182020WedJul2900:49:182020\0\\#,ProcedureUnspecified,BasisUnspecified,\\0,1\C\H,1,1.03225\H,1,1.11627,2,114.667\C,1,1.41176,2,121.699,3,-158.572,0\H,4,1.02201,1,118.946,2,153.069,0\H,4,1.14837,1,117.62,2,3.80628,0\H,4,1.41986,1,73.3859,2,-101.246,0\O,7,1.2454,4,129.653,1,3.62767,0\H,8,0.963268,7,114.257,4,-109.293,0\\\@

 Total job time:  15.10s(wall), 78.34s(cpu) 
 Wed Jul 29 00:49:18 2020

        *************************************************************
        *                                                           *
        *  Thank you very much for using Q-Chem.  Have a nice day.  *
        *                                                           *
        *************************************************************


