                  Welcome to Q-Chem
     A Quantum Leap Into The Future Of Chemistry


 Q-Chem 5.3 (devel), Q-Chem, Inc., Pleasanton, CA (2020)

 Yihan Shao,  Zhengting Gan,  E. Epifanovsky,  A. T. B. Gilbert,  M. Wormit,  
 J. Kussmann,  A. W. Lange,  A. Behn,  Jia Deng,  Xintian Feng,  D. Ghosh,  
 M. Goldey,  P. R. Horn,  L. D. Jacobson,  I. Kaliman,  T. Kus,  A. Landau,  
 Jie Liu,  E. I. Proynov,  R. M. Richard,  R. P. Steele,  E. J. Sundstrom,  
 H. L. Woodcock III,  P. M. Zimmerman,  D. Zuev,  B. Alam,  B. Albrecht,  
 E. Alguire,  S. A. Baeppler,  D. Barton,  Z. Benda,  Y. A. Bernard,  
 E. J. Berquist,  K. B. Bravaya,  H. Burton,  K. Carter-Fenk,  D. Casanova,  
 Chun-Min Chang,  Yunqing Chen,  A. Chien,  K. D. Closser,  M. P. Coons,  
 S. Coriani,  S. Dasgupta,  A. L. Dempwolff,  M. Diedenhofen,  Hainam Do,  
 R. G. Edgar,  Po-Tung Fang,  S. Faraji,  S. Fatehi,  Qingguo Feng,  
 J. Fosso-Tande,  J. Gayvert,  Qinghui Ge,  A. Ghysels,  G. Gidofalvi,  
 J. Gomes,  J. Gonthier,  A. Gunina,  D. Hait,  M. W. D. Hanson-Heine,  
 P. H. P. Harbach,  A. W. Hauser,  M. F. Herbst,  J. E. Herr,  
 E. G. Hohenstein,  Z. C. Holden,  Kerwin Hui,  B. C. Huynh,  T.-C. Jagau,  
 Hyunjun Ji,  B. Kaduk,  K. Khistyaev,  Jaehoon Kim,  P. Klunzinger,  K. Koh,  
 D. Kosenkov,  L. Koulias,  T. Kowalczyk,  C. M. Krauter,  A. Kunitsa,  
 Ka Un Lao,  A. Laurent,  K. V. Lawler,  Joonho Lee,  D. Lefrancois,  
 S. Lehtola,  D. S. Levine,  Yi-Pei Li,  You-Sheng Lin,  Fenglai Liu,  
 Kuan-Yu Liu,  E. Livshits,  M. Loipersberger,  A. Luenser,  P. Manohar,  
 E. Mansoor,  S. F. Manzer,  Shan-Ping Mao,  Yuezhi Mao,  N. Mardirossian,  
 A. V. Marenich,  T. Markovich,  L. A. Martinez-Martinez,  S. A. Maurer,  
 N. J. Mayhall,  S. C. McKenzie,  J.-M. Mewes,  P. Morgante,  A. F. Morrison,  
 J. W. Mullinax,  K. Nanda,  T. S. Nguyen-Beck,  R. Olivares-Amaya,  
 K. J. Oosterbaan,  J. A. Parkhill,  S. K. Paul,  F. Pavosevic,  Zheng Pei,  
 T. M. Perrine,  F. Plasser,  P. Pokhilko,  S. Prager,  A. Prociuk,  
 E. Ramos,  B. Rana,  D. R. Rehn,  F. Rob,  M. Scheurer,  M. Schneider,  
 N. Sergueev,  S. M. Sharada,  S. Sharma,  D. W. Small,  T. Stauch,  
 C. J. Stein,  T. Stein,  Yu-Chuan Su,  S. P. Veccham,  Zhen Tao,  
 A. J. W. Thom,  A. Tkatchenko,  T. Tsuchimochi,  N. M. Tubman,  L. Vogt,  
 M. L. Vidal,  O. Vydrov,  M. A. Watson,  J. Wenzel,  M. de Wergifosse,  
 T. A. Wesolowski,  A. White,  J. Witte,  A. Yamada,  Jun Yang,  K. Yao,  
 S. Yeganeh,  S. R. Yost,  Zhi-Qiang You,  A. Zech,  Igor Ying Zhang,  
 Xing Zhang,  Yan Zhao,  Ying Zhu,  B. R. Brooks,  G. K. L. Chan,  
 C. J. Cramer,  M. S. Gordon,  W. J. Hehre,  A. Klamt,  M. W. Schmidt,  
 C. D. Sherrill,  D. G. Truhlar,  A. Aspuru-Guzik,  R. Baer,  A. T. Bell,  
 N. A. Besley,  Jeng-Da Chai,  A. E. DePrince, III,  R. A. DiStasio Jr.,  
 A. Dreuw,  B. D. Dunietz,  T. R. Furlani,  Chao-Ping Hsu,  Yousung Jung,  
 Jing Kong,  D. S. Lambrecht,  WanZhen Liang,  C. Ochsenfeld,  
 V. A. Rassolov,  L. V. Slipchenko,  J. E. Subotnik,  T. Van Voorhis,  
 J. M. Herbert,  A. I. Krylov,  P. M. W. Gill,  M. Head-Gordon

 Contributors to earlier versions of Q-Chem not listed above: 
 R. D. Adamson,  B. Austin,  J. Baker,  G. J. O. Beran,  K. Brandhorst,  
 S. T. Brown,  E. F. C. Byrd,  A. K. Chakraborty,  C.-L. Cheng,  
 Siu Hung Chien,  D. M. Chipman,  D. L. Crittenden,  H. Dachsel,  
 R. J. Doerksen,  A. D. Dutoi,  L. Fusti-Molnar,  W. A. Goddard III,  
 A. Golubeva-Zadorozhnaya,  S. R. Gwaltney,  G. Hawkins,  A. Heyden,  
 S. Hirata,  G. Kedziora,  F. J. Keil,  C. Kelley,  Jihan Kim,  R. A. King,  
 R. Z. Khaliullin,  P. P. Korambath,  W. Kurlancheek,  A. M. Lee,  M. S. Lee,  
 S. V. Levchenko,  Ching Yeh Lin,  D. Liotard,  R. C. Lochan,  I. Lotan,  
 P. E. Maslen,  N. Nair,  D. P. O'Neill,  D. Neuhauser,  E. Neuscamman,  
 C. M. Oana,  R. Olson,  B. Peters,  R. Peverati,  P. A. Pieniazek,  
 Y. M. Rhee,  J. Ritchie,  M. A. Rohrdanz,  E. Rosta,  N. J. Russ,  
 H. F. Schaefer III,  N. E. Schultz,  N. Shenvi,  A. C. Simmonett,  A. Sodt,  
 D. Stuck,  K. S. Thanthiriwatte,  V. Vanovschi,  Tao Wang,  A. Warshel,  
 C. F. Williams,  Q. Wu,  X. Xu,  W. Zhang

 Please cite Q-Chem as follows:
 Y. Shao et al., Mol. Phys. 113, 184-215 (2015)
 DOI: 10.1080/00268976.2014.952696

 Q-Chem 5.3.0 for Intel X86 EM64T Linux

 Parts of Q-Chem use Armadillo 9.800.1 (Horizon Scraper).
 http://arma.sourceforge.net/

 Q-Chem begins on Wed Jul 29 00:29:32 2020  

Host: centos77-c1
0

     Scratch files written to /tmp/30084.centos77-h1/qchem28586//
Processing $rem in /opt/qchem-5.3.0-intel2020u1//config/preferences:
Processing $rem in /home/shihchengli/.qchemrc:

Checking the input file for inconsistencies... 	...done.

--------------------------------------------------------------
User input:
--------------------------------------------------------------
$rem
   JOBTYPE  sp
   EXCHANGE   omegaB97X-D
   BASIS   6-311+G(2df,2pd)
   UNRESTRICTED   False
   max_scf_cycles   250
   geom_opt_max_cycles   1500
   basis2 6-31G*
   scf_algorithm rca_diis
   SYM_IGNORE  TRUE
   print_input   true
   geom_opt_dmax   80
   pop_mulliken false
   XC_GRID 000075000302
$end

$molecule
0 1
C       -5.5489612719     0.5411425905     -0.0481959465
C       -4.4136169888     1.3677038128     0.0993979916
H       -5.8352253294     0.3838933480     -1.0811863212
H       -6.3460304297     0.4979365637     0.6804381019
H       -4.4659990663     -0.3085020135     0.2969229407
O       -3.2918257357     -0.0191419416     0.5989287759
H       -4.1881852679     2.0114359276     0.9380661845
H       -3.9344372294     1.6530902913     -0.8287149999
H       -2.6564510782     -0.2644213217     -0.0827665637
$end
--------------------------------------------------------------
 ----------------------------------------------------------------
             Standard Nuclear Orientation (Angstroms)
    I     Atom           X                Y                Z
 ----------------------------------------------------------------
    1      C      -5.5489612719     0.5411425905    -0.0481959465
    2      C      -4.4136169888     1.3677038128     0.0993979916
    3      H      -5.8352253294     0.3838933480    -1.0811863212
    4      H      -6.3460304297     0.4979365637     0.6804381019
    5      H      -4.4659990663    -0.3085020135     0.2969229407
    6      O      -3.2918257357    -0.0191419416     0.5989287759
    7      H      -4.1881852679     2.0114359276     0.9380661845
    8      H      -3.9344372294     1.6530902913    -0.8287149999
    9      H      -2.6564510782    -0.2644213217    -0.0827665637
 ----------------------------------------------------------------
 Nuclear Repulsion Energy =          79.39936227 hartrees
 There are       13 alpha and       13 beta electrons
 Requested basis set is 6-311+G(2df,2pd)
 There are 60 shells and 186 basis functions

 Total QAlloc Memory Limit   2000 MB
 Mega-Array Size       188 MB
 MEM_STATIC part       192 MB

                       Distance Matrix (Angstroms)
             C (  1)   C (  2)   H (  3)   H (  4)   H (  5)   O (  6)
   C (  2)  1.412089
   H (  3)  1.083394  2.093474
   H (  4)  1.080784  2.197345  1.837729
   H (  5)  1.419088  1.688617  2.062372  2.081333
   O (  6)  2.413990  1.852374  3.074753  3.098738  1.246443
   H (  7)  2.232977  1.081006  3.072298  2.648273  2.422882  2.245378
   H (  8)  2.110053  1.082798  2.299478  3.070457  2.323244  2.290737
   H (  9)  3.002789  2.405130  3.394372  3.844043  1.849479  0.963624
             H (  7)   H (  8)
   H (  8)  1.820526
   H (  9)  2.927086  2.422094
 
 A cutoff of  1.0D-09 yielded   1777 shell pairs
 There are     17242 function pairs (     21421 Cartesian)
 Smallest overlap matrix eigenvalue = 8.91E-05

 Scale SEOQF with 1.000000e-02/1.000000e-01/1.000000e-01

 Standard Electronic Orientation quadrupole field applied
 Nucleus-field energy     =     0.0000000026 hartrees
 Requested basis set is 6-31G(d)
 There are 24 shells and 54 basis functions
 A cutoff of  1.0D-09 yielded    298 shell pairs
 There are      1549 function pairs (      1732 Cartesian)
 Smallest overlap matrix eigenvalue = 6.46E-03
 Guess from superposition of atomic densities
 Warning:  Energy on first SCF cycle will be non-variational
 SAD guess density has 26.000000 electrons
 Long-range K will be added via erf
 Coulomb attenuation parameter = 0.2 bohr**(-1)
 A restricted hybrid HF-DFT SCF calculation will be
 performed using Relaxed Constraint Minimization + Pulay DIIS
 Exchange:     0.2220 Hartree-Fock + 1.0000 wB97X-D + LR-HF
 Correlation:  1.0000 wB97X-D
 Using Euler-Maclaurin-Lebedev (75,302) quadrature formula
 Dispersion:   Grimme D
 SCF converges when DIIS error is below 1.0E-04
 using 6 threads for integral computing
 -------------------------------------------------------
 OpenMP Integral computing Module                
 Release: version 1.0, May 2013, Q-Chem Inc. Pittsburgh 
 -------------------------------------------------------
 using 6 threads for integral computing
 -------------------------------------------------------
 OpenMP Integral computing Module                
 Release: version 1.0, May 2013, Q-Chem Inc. Pittsburgh 
 -------------------------------------------------------
 ---------------------------------------
  Cycle       Energy         DIIS Error
 ---------------------------------------
    1    -155.2619910490      9.94E-02
    2    -154.7842166830      1.56E-02
    3    -154.8180576019      3.27E-03
    4    -154.8581695128      2.43E-03
    5    -154.8590976000      5.04E-04 Done RCA. Switching to DIIS
    6    -154.8602609012      3.14E-04
    7    -154.8602968390      4.09E-05 Convergence criterion met
 ---------------------------------------
 SCF time:  CPU 15.43 s  wall 2.59 s
 SCF   energy in the small basis set = -154.86029684
 Total energy in the small basis set = -154.86029684
 ----------------------------------------------------
  Cycle       Energy    
 ----------------------------------------------------
    1     -18.6729866097     -1.87E+01
 Long-range K will be added via erf
 Coulomb attenuation parameter = 0.2 bohr**(-1)
 A restricted hybrid HF-DFT SCF calculation will be
 performed using Relaxed Constraint Minimization + Pulay DIIS
 Exchange:     0.2220 Hartree-Fock + 1.0000 wB97X-D + LR-HF
 Correlation:  1.0000 wB97X-D
 Using Euler-Maclaurin-Lebedev (75,302) quadrature formula
 Dispersion:   Grimme D
 SCF converges when DIIS error is below 1.0E-05
 Basis2 calculation detected. Using small basis as guess for larger.
 SCFMinFind is unable to tell whether the solution found is close.
 Resetting ReadMinima to 0 and attempting to follow guess.
 SCFMinFind following SCF Guess.
 using 6 threads for integral computing
 -------------------------------------------------------
 OpenMP Integral computing Module                
 Release: version 1.0, May 2013, Q-Chem Inc. Pittsburgh 
 -------------------------------------------------------
 using 6 threads for integral computing
 -------------------------------------------------------
 OpenMP Integral computing Module                
 Release: version 1.0, May 2013, Q-Chem Inc. Pittsburgh 
 -------------------------------------------------------
 ---------------------------------------
  Cycle       Energy         DIIS Error
 ---------------------------------------
    1    -154.8862038913      5.97E-03
    2    -154.8826576695      4.37E-03
    3    -154.9034885161      9.95E-04 Done RCA. Switching to DIIS
    4    -154.9321465213      1.09E-03
    5    -154.9355989917      7.27E-05
    6    -154.9356261104      1.60E-05
    7    -154.9356282206      4.13E-06 Convergence criterion met
 ---------------------------------------
 SCF time:  CPU 48.09 s  wall 8.04 s
 SCF   energy in the final basis set = -154.93562822
 Total energy in the final basis set = -154.93562822
 
 --------------------------------------------------------------
 
                    Orbital Energies (a.u.)
 --------------------------------------------------------------
 
 Alpha MOs
 -- Occupied --
-19.2432 -10.3549 -10.2546  -1.0895  -0.8752  -0.6974  -0.6111  -0.5708
 -0.5031  -0.4606  -0.4398  -0.4283  -0.3049
 -- Virtual --
  0.0528   0.0672   0.0891   0.0966   0.1138   0.1279   0.1384   0.1494
  0.1773   0.1884   0.2165   0.2400   0.2510   0.2750   0.2886   0.2959
  0.3228   0.3288   0.3619   0.3969   0.4593   0.4641   0.4931   0.5489
  0.5708   0.5797   0.5845   0.6012   0.6118   0.6303   0.6469   0.6835
  0.7066   0.7516   0.7969   0.8244   0.8501   0.8691   0.9155   0.9364
  0.9866   1.0152   1.0675   1.0925   1.1297   1.1516   1.1701   1.1971
  1.2103   1.2504   1.2777   1.3040   1.3226   1.3563   1.4014   1.4267
  1.4426   1.4542   1.4815   1.4888   1.5280   1.5760   1.5885   1.6564
  1.7194   1.7890   1.9156   2.0182   2.0573   2.2614   2.3081   2.4270
  2.4796   2.5463   2.6420   2.6730   2.6879   2.7548   2.7728   2.8039
  2.8710   2.8871   2.9388   2.9936   3.0060   3.0253   3.0810   3.0842
  3.1083   3.1318   3.1670   3.2179   3.2226   3.2803   3.3250   3.3299
  3.3520   3.3992   3.4252   3.4530   3.4663   3.5115   3.5375   3.5497
  3.5684   3.5947   3.6136   3.6914   3.7035   3.7395   3.7713   3.8018
  3.8263   3.8483   3.8621   3.9155   3.9281   3.9853   4.0457   4.0738
  4.0999   4.1097   4.1856   4.2103   4.2326   4.2351   4.2623   4.3157
  4.3236   4.3518   4.4190   4.4570   4.5065   4.5785   4.6275   4.7260
  4.7385   4.7928   4.8487   4.9654   4.9841   5.0237   5.0520   5.0949
  5.1145   5.2085   5.2237   5.2980   5.3770   5.3847   5.4432   5.4962
  5.5963   5.6462   5.7802   5.8230   6.0316   6.1492   6.2724   6.3161
  6.5028   6.6269   6.7284   6.8695   7.1659   7.2376   7.4149   7.6144
  7.7710   8.1784  24.9544  25.3119  50.4416
 --------------------------------------------------------------
 
 -----------------------------------------------------------------
                    Cartesian Multipole Moments
 -----------------------------------------------------------------
    Charge (ESU x 10^10)
                 0.0000
    Dipole Moment (Debye)
         X       0.4637      Y       0.9766      Z      -1.4723
       Tot       1.8266
    Quadrupole Moments (Debye-Ang)
        XX     -24.6887     XY      -3.7808     YY     -19.0884
        XZ       3.3837     YZ       0.8456     ZZ     -20.8097
    Octopole Moments (Debye-Ang^2)
       XXX     306.1102    XXY      -1.1210    XYY      88.3377
       YYY     -34.4614    XXZ      -8.1882    XYZ      -3.9193
       YYZ      -2.2157    XZZ      90.2256    YZZ     -10.4371
       ZZZ     -12.8718
    Hexadecapole Moments (Debye-Ang^3)
      XXXX   -2815.7639   XXXY     163.4860   XXYY    -456.5140
      XYYY     169.1469   YYYY    -114.6706   XXXZ      15.3226
      XXYZ      18.6042   XYYZ       4.7859   YYYZ       1.9572
      XXZZ    -424.9174   XYZZ      50.9708   YYZZ     -25.0093
      XZZZ      41.7716   YZZZ      -0.8414   ZZZZ     -48.1739
 -----------------------------------------------------------------
Archival summary:
1\1\centos77-c1\SP\ProcedureUnspecified\BasisUnspecified\126\shihchen\WedJul2900:29:452020WedJul2900:29:452020\0\\#,ProcedureUnspecified,BasisUnspecified,\\0,1\C\H,1,1.08101\H,1,1.0828,2,114.567\C,1,1.41209,2,126.679,3,-156.487,0\H,4,1.08078,1,123.086,2,2.08564,0\H,4,1.08339,1,113.395,2,151.049,0\H,4,1.41909,1,73.2297,2,-103.639,0\O,7,1.24644,4,129.704,1,4.57008,0\H,8,0.963624,7,112.994,4,-109.293,0\\\@

 Total job time:  12.92s(wall), 67.60s(cpu) 
 Wed Jul 29 00:29:45 2020

        *************************************************************
        *                                                           *
        *  Thank you very much for using Q-Chem.  Have a nice day.  *
        *                                                           *
        *************************************************************


