                  Welcome to Q-Chem
     A Quantum Leap Into The Future Of Chemistry


 Q-Chem 5.3 (devel), Q-Chem, Inc., Pleasanton, CA (2020)

 Yihan Shao,  Zhengting Gan,  E. Epifanovsky,  A. T. B. Gilbert,  M. Wormit,  
 J. Kussmann,  A. W. Lange,  A. Behn,  Jia Deng,  Xintian Feng,  D. Ghosh,  
 M. Goldey,  P. R. Horn,  L. D. Jacobson,  I. Kaliman,  T. Kus,  A. Landau,  
 Jie Liu,  E. I. Proynov,  R. M. Richard,  R. P. Steele,  E. J. Sundstrom,  
 H. L. Woodcock III,  P. M. Zimmerman,  D. Zuev,  B. Alam,  B. Albrecht,  
 E. Alguire,  S. A. Baeppler,  D. Barton,  Z. Benda,  Y. A. Bernard,  
 E. J. Berquist,  K. B. Bravaya,  H. Burton,  K. Carter-Fenk,  D. Casanova,  
 Chun-Min Chang,  Yunqing Chen,  A. Chien,  K. D. Closser,  M. P. Coons,  
 S. Coriani,  S. Dasgupta,  A. L. Dempwolff,  M. Diedenhofen,  Hainam Do,  
 R. G. Edgar,  Po-Tung Fang,  S. Faraji,  S. Fatehi,  Qingguo Feng,  
 J. Fosso-Tande,  J. Gayvert,  Qinghui Ge,  A. Ghysels,  G. Gidofalvi,  
 J. Gomes,  J. Gonthier,  A. Gunina,  D. Hait,  M. W. D. Hanson-Heine,  
 P. H. P. Harbach,  A. W. Hauser,  M. F. Herbst,  J. E. Herr,  
 E. G. Hohenstein,  Z. C. Holden,  Kerwin Hui,  B. C. Huynh,  T.-C. Jagau,  
 Hyunjun Ji,  B. Kaduk,  K. Khistyaev,  Jaehoon Kim,  P. Klunzinger,  K. Koh,  
 D. Kosenkov,  L. Koulias,  T. Kowalczyk,  C. M. Krauter,  A. Kunitsa,  
 Ka Un Lao,  A. Laurent,  K. V. Lawler,  Joonho Lee,  D. Lefrancois,  
 S. Lehtola,  D. S. Levine,  Yi-Pei Li,  You-Sheng Lin,  Fenglai Liu,  
 Kuan-Yu Liu,  E. Livshits,  M. Loipersberger,  A. Luenser,  P. Manohar,  
 E. Mansoor,  S. F. Manzer,  Shan-Ping Mao,  Yuezhi Mao,  N. Mardirossian,  
 A. V. Marenich,  T. Markovich,  L. A. Martinez-Martinez,  S. A. Maurer,  
 N. J. Mayhall,  S. C. McKenzie,  J.-M. Mewes,  P. Morgante,  A. F. Morrison,  
 J. W. Mullinax,  K. Nanda,  T. S. Nguyen-Beck,  R. Olivares-Amaya,  
 K. J. Oosterbaan,  J. A. Parkhill,  S. K. Paul,  F. Pavosevic,  Zheng Pei,  
 T. M. Perrine,  F. Plasser,  P. Pokhilko,  S. Prager,  A. Prociuk,  
 E. Ramos,  B. Rana,  D. R. Rehn,  F. Rob,  M. Scheurer,  M. Schneider,  
 N. Sergueev,  S. M. Sharada,  S. Sharma,  D. W. Small,  T. Stauch,  
 C. J. Stein,  T. Stein,  Yu-Chuan Su,  S. P. Veccham,  Zhen Tao,  
 A. J. W. Thom,  A. Tkatchenko,  T. Tsuchimochi,  N. M. Tubman,  L. Vogt,  
 M. L. Vidal,  O. Vydrov,  M. A. Watson,  J. Wenzel,  M. de Wergifosse,  
 T. A. Wesolowski,  A. White,  J. Witte,  A. Yamada,  Jun Yang,  K. Yao,  
 S. Yeganeh,  S. R. Yost,  Zhi-Qiang You,  A. Zech,  Igor Ying Zhang,  
 Xing Zhang,  Yan Zhao,  Ying Zhu,  B. R. Brooks,  G. K. L. Chan,  
 C. J. Cramer,  M. S. Gordon,  W. J. Hehre,  A. Klamt,  M. W. Schmidt,  
 C. D. Sherrill,  D. G. Truhlar,  A. Aspuru-Guzik,  R. Baer,  A. T. Bell,  
 N. A. Besley,  Jeng-Da Chai,  A. E. DePrince, III,  R. A. DiStasio Jr.,  
 A. Dreuw,  B. D. Dunietz,  T. R. Furlani,  Chao-Ping Hsu,  Yousung Jung,  
 Jing Kong,  D. S. Lambrecht,  WanZhen Liang,  C. Ochsenfeld,  
 V. A. Rassolov,  L. V. Slipchenko,  J. E. Subotnik,  T. Van Voorhis,  
 J. M. Herbert,  A. I. Krylov,  P. M. W. Gill,  M. Head-Gordon

 Contributors to earlier versions of Q-Chem not listed above: 
 R. D. Adamson,  B. Austin,  J. Baker,  G. J. O. Beran,  K. Brandhorst,  
 S. T. Brown,  E. F. C. Byrd,  A. K. Chakraborty,  C.-L. Cheng,  
 Siu Hung Chien,  D. M. Chipman,  D. L. Crittenden,  H. Dachsel,  
 R. J. Doerksen,  A. D. Dutoi,  L. Fusti-Molnar,  W. A. Goddard III,  
 A. Golubeva-Zadorozhnaya,  S. R. Gwaltney,  G. Hawkins,  A. Heyden,  
 S. Hirata,  G. Kedziora,  F. J. Keil,  C. Kelley,  Jihan Kim,  R. A. King,  
 R. Z. Khaliullin,  P. P. Korambath,  W. Kurlancheek,  A. M. Lee,  M. S. Lee,  
 S. V. Levchenko,  Ching Yeh Lin,  D. Liotard,  R. C. Lochan,  I. Lotan,  
 P. E. Maslen,  N. Nair,  D. P. O'Neill,  D. Neuhauser,  E. Neuscamman,  
 C. M. Oana,  R. Olson,  B. Peters,  R. Peverati,  P. A. Pieniazek,  
 Y. M. Rhee,  J. Ritchie,  M. A. Rohrdanz,  E. Rosta,  N. J. Russ,  
 H. F. Schaefer III,  N. E. Schultz,  N. Shenvi,  A. C. Simmonett,  A. Sodt,  
 D. Stuck,  K. S. Thanthiriwatte,  V. Vanovschi,  Tao Wang,  A. Warshel,  
 C. F. Williams,  Q. Wu,  X. Xu,  W. Zhang

 Please cite Q-Chem as follows:
 Y. Shao et al., Mol. Phys. 113, 184-215 (2015)
 DOI: 10.1080/00268976.2014.952696

 Q-Chem 5.3.0 for Intel X86 EM64T Linux

 Parts of Q-Chem use Armadillo 9.800.1 (Horizon Scraper).
 http://arma.sourceforge.net/

 Q-Chem begins on Wed Jul 29 00:36:56 2020  

Host: centos77-c1
0

     Scratch files written to /tmp/30084.centos77-h1/qchem29731//
Processing $rem in /opt/qchem-5.3.0-intel2020u1//config/preferences:
Processing $rem in /home/shihchengli/.qchemrc:

Checking the input file for inconsistencies... 	...done.

--------------------------------------------------------------
User input:
--------------------------------------------------------------
$rem
   JOBTYPE  sp
   EXCHANGE   omegaB97X-D
   BASIS   6-311+G(2df,2pd)
   UNRESTRICTED   False
   max_scf_cycles   250
   geom_opt_max_cycles   1500
   basis2 6-31G*
   scf_algorithm rca_diis
   SYM_IGNORE  TRUE
   print_input   true
   geom_opt_dmax   80
   pop_mulliken false
   XC_GRID 000075000302
$end

$molecule
0 1
C       -5.5391908159     0.5388248405     -0.1164086437
C       -4.4246831761     1.3743988173     0.0928139889
H       -5.9439364137     0.3113094778     -1.0931894713
H       -6.2468951425     0.5719305546     0.7019360743
H       -4.4710530487     -0.3069779320     0.2899996716
O       -3.2951899126     -0.0120214904     0.5776872526
H       -4.2363468272     1.9760341133     0.9710909581
H       -3.9056457690     1.6959328858     -0.8009864075
H       -2.6177912917     -0.2862940099     -0.0500532599
$end
--------------------------------------------------------------
 ----------------------------------------------------------------
             Standard Nuclear Orientation (Angstroms)
    I     Atom           X                Y                Z
 ----------------------------------------------------------------
    1      C      -5.5391908159     0.5388248405    -0.1164086437
    2      C      -4.4246831761     1.3743988173     0.0928139889
    3      H      -5.9439364137     0.3113094778    -1.0931894713
    4      H      -6.2468951425     0.5719305546     0.7019360743
    5      H      -4.4710530487    -0.3069779320     0.2899996716
    6      O      -3.2951899126    -0.0120214904     0.5776872526
    7      H      -4.2363468272     1.9760341133     0.9710909581
    8      H      -3.9056457690     1.6959328858    -0.8009864075
    9      H      -2.6177912917    -0.2862940099    -0.0500532599
 ----------------------------------------------------------------
 Nuclear Repulsion Energy =          79.40372330 hartrees
 There are       13 alpha and       13 beta electrons
 Requested basis set is 6-311+G(2df,2pd)
 There are 60 shells and 186 basis functions

 Total QAlloc Memory Limit   2000 MB
 Mega-Array Size       188 MB
 MEM_STATIC part       192 MB

                       Distance Matrix (Angstroms)
             C (  1)   C (  2)   H (  3)   H (  4)   H (  5)   O (  6)
   C (  2)  1.408576
   H (  3)  1.081519  2.201112
   H (  4)  1.082418  2.082172  1.839071
   H (  5)  1.421784  1.693535  2.113026  2.023805
   O (  6)  2.412621  1.852841  3.148369  3.011478  1.245960
   H (  7)  2.223877  1.081113  3.154112  2.467034  2.393975  2.234482
   H (  8)  2.115660  1.082434  2.481369  3.000601  2.349806  2.278268
   H (  9)  3.036412  2.458286  3.536736  3.804265  1.884315  0.963407
             H (  7)   H (  8)
   H (  8)  1.824302
   H (  9)  2.963205  2.480261
 
 A cutoff of  1.0D-09 yielded   1777 shell pairs
 There are     17243 function pairs (     21422 Cartesian)
 Smallest overlap matrix eigenvalue = 8.87E-05

 Scale SEOQF with 1.000000e-02/1.000000e-01/1.000000e-01

 Standard Electronic Orientation quadrupole field applied
 Nucleus-field energy     =     0.0000000027 hartrees
 Requested basis set is 6-31G(d)
 There are 24 shells and 54 basis functions
 A cutoff of  1.0D-09 yielded    297 shell pairs
 There are      1548 function pairs (      1731 Cartesian)
 Smallest overlap matrix eigenvalue = 6.57E-03
 Guess from superposition of atomic densities
 Warning:  Energy on first SCF cycle will be non-variational
 SAD guess density has 26.000000 electrons
 Long-range K will be added via erf
 Coulomb attenuation parameter = 0.2 bohr**(-1)
 A restricted hybrid HF-DFT SCF calculation will be
 performed using Relaxed Constraint Minimization + Pulay DIIS
 Exchange:     0.2220 Hartree-Fock + 1.0000 wB97X-D + LR-HF
 Correlation:  1.0000 wB97X-D
 Using Euler-Maclaurin-Lebedev (75,302) quadrature formula
 Dispersion:   Grimme D
 SCF converges when DIIS error is below 1.0E-04
 using 6 threads for integral computing
 -------------------------------------------------------
 OpenMP Integral computing Module                
 Release: version 1.0, May 2013, Q-Chem Inc. Pittsburgh 
 -------------------------------------------------------
 using 6 threads for integral computing
 -------------------------------------------------------
 OpenMP Integral computing Module                
 Release: version 1.0, May 2013, Q-Chem Inc. Pittsburgh 
 -------------------------------------------------------
 ---------------------------------------
  Cycle       Energy         DIIS Error
 ---------------------------------------
    1    -155.2623375001      9.94E-02
    2    -154.7828932268      1.57E-02
    3    -154.8167381902      3.24E-03
    4    -154.8568257799      2.37E-03
    5    -154.8577205158      4.89E-04 Done RCA. Switching to DIIS
    6    -154.8588299421      3.08E-04
    7    -154.8588638015      4.03E-05 Convergence criterion met
 ---------------------------------------
 SCF time:  CPU 19.71 s  wall 3.31 s
 SCF   energy in the small basis set = -154.85886380
 Total energy in the small basis set = -154.85886380
 ----------------------------------------------------
  Cycle       Energy    
 ----------------------------------------------------
    1     -18.6749958273     -1.87E+01
 Long-range K will be added via erf
 Coulomb attenuation parameter = 0.2 bohr**(-1)
 A restricted hybrid HF-DFT SCF calculation will be
 performed using Relaxed Constraint Minimization + Pulay DIIS
 Exchange:     0.2220 Hartree-Fock + 1.0000 wB97X-D + LR-HF
 Correlation:  1.0000 wB97X-D
 Using Euler-Maclaurin-Lebedev (75,302) quadrature formula
 Dispersion:   Grimme D
 SCF converges when DIIS error is below 1.0E-05
 Basis2 calculation detected. Using small basis as guess for larger.
 SCFMinFind is unable to tell whether the solution found is close.
 Resetting ReadMinima to 0 and attempting to follow guess.
 SCFMinFind following SCF Guess.
 using 6 threads for integral computing
 -------------------------------------------------------
 OpenMP Integral computing Module                
 Release: version 1.0, May 2013, Q-Chem Inc. Pittsburgh 
 -------------------------------------------------------
 using 6 threads for integral computing
 -------------------------------------------------------
 OpenMP Integral computing Module                
 Release: version 1.0, May 2013, Q-Chem Inc. Pittsburgh 
 -------------------------------------------------------
 ---------------------------------------
  Cycle       Energy         DIIS Error
 ---------------------------------------
    1    -154.8845589824      5.98E-03
    2    -154.8809841490      4.40E-03
    3    -154.9020903882      9.93E-04 Done RCA. Switching to DIIS
    4    -154.9311174101      1.08E-03
    5    -154.9345144184      7.32E-05
    6    -154.9345416360      1.58E-05
    7    -154.9345436924      4.11E-06 Convergence criterion met
 ---------------------------------------
 SCF time:  CPU 63.32 s  wall 10.60 s
 SCF   energy in the final basis set = -154.93454369
 Total energy in the final basis set = -154.93454369
 
 --------------------------------------------------------------
 
                    Orbital Energies (a.u.)
 --------------------------------------------------------------
 
 Alpha MOs
 -- Occupied --
-19.2402 -10.3534 -10.2547  -1.0863  -0.8755  -0.6970  -0.6125  -0.5696
 -0.5100  -0.4481  -0.4407  -0.4256  -0.3058
 -- Virtual --
  0.0529   0.0692   0.0893   0.0964   0.1132   0.1280   0.1386   0.1495
  0.1770   0.1879   0.2154   0.2389   0.2544   0.2762   0.2868   0.2954
  0.3238   0.3313   0.3595   0.3919   0.4595   0.4641   0.4915   0.5477
  0.5740   0.5823   0.5834   0.6018   0.6146   0.6438   0.6520   0.6881
  0.7044   0.7515   0.8068   0.8302   0.8483   0.8803   0.9059   0.9352
  0.9780   1.0140   1.0604   1.0956   1.1374   1.1542   1.1727   1.1984
  1.2344   1.2530   1.2757   1.2920   1.3290   1.3541   1.4250   1.4297
  1.4402   1.4583   1.4756   1.4915   1.5320   1.5677   1.5902   1.6593
  1.7261   1.7893   1.9041   1.9819   2.0497   2.2663   2.3146   2.4306
  2.4679   2.5678   2.6321   2.6599   2.6857   2.7672   2.7897   2.8186
  2.8719   2.8849   2.9394   2.9944   3.0042   3.0556   3.0747   3.0874
  3.0981   3.1191   3.1543   3.2113   3.2489   3.2925   3.3257   3.3355
  3.3694   3.4048   3.4102   3.4404   3.4541   3.5043   3.5293   3.5601
  3.5723   3.5976   3.6392   3.6605   3.7053   3.7300   3.7650   3.8162
  3.8449   3.8697   3.9049   3.9194   3.9373   3.9394   4.0636   4.0771
  4.1069   4.1257   4.1907   4.2141   4.2232   4.2337   4.2866   4.3069
  4.3369   4.3554   4.4262   4.4625   4.4906   4.5726   4.6195   4.7232
  4.7417   4.8174   4.8404   4.9695   4.9898   5.0031   5.0785   5.1107
  5.1289   5.2060   5.2210   5.2967   5.3426   5.3888   5.4313   5.4608
  5.5979   5.7020   5.7644   5.8137   6.0366   6.1812   6.2551   6.2896
  6.4708   6.6331   6.7304   6.8931   7.1566   7.2040   7.3969   7.6453
  7.7908   8.1675  24.9688  25.3149  50.4392
 --------------------------------------------------------------
 
 -----------------------------------------------------------------
                    Cartesian Multipole Moments
 -----------------------------------------------------------------
    Charge (ESU x 10^10)
                 0.0000
    Dipole Moment (Debye)
         X       0.4769      Y       0.9260      Z      -1.3731
       Tot       1.7234
    Quadrupole Moments (Debye-Ang)
        XX     -24.6232     XY      -3.6926     YY     -19.0226
        XZ       3.2742     YZ       1.0639     ZZ     -20.7441
    Octopole Moments (Debye-Ang^2)
       XXX     305.8314    XXY      -1.2145    XYY      87.9836
       YYY     -34.6971    XXZ      -9.2052    XYZ      -5.1911
       YYZ      -1.4936    XZZ      89.6739    YZZ     -10.4796
       ZZZ     -11.3949
    Hexadecapole Moments (Debye-Ang^3)
      XXXX   -2822.1634   XXXY     163.6764   XXYY    -454.3832
      XYYY     170.0670   YYYY    -115.6268   XXXZ      27.8500
      XXYZ      25.8168   XYYZ       0.8298   YYYZ       2.5090
      XXZZ    -420.7114   XYZZ      51.1942   YYZZ     -24.9644
      XZZZ      34.4018   YZZZ       0.0303   ZZZZ     -47.9089
 -----------------------------------------------------------------
Archival summary:
1\1\centos77-c1\SP\ProcedureUnspecified\BasisUnspecified\126\shihchen\WedJul2900:37:132020WedJul2900:37:132020\0\\#,ProcedureUnspecified,BasisUnspecified,\\0,1\C\H,1,1.08111\H,1,1.08243,2,114.959\C,1,1.40858,2,126.059,3,-158.379,0\H,4,1.08152,1,123.714,2,151.197,0\H,4,1.08242,1,112.76,2,1.93254,0\H,4,1.42178,1,73.5014,2,-100.04,0\O,7,1.24596,4,129.359,1,-0.363951,0\H,8,0.963407,7,116.47,4,-109.293,0\\\@

 Total job time:  17.05s(wall), 88.21s(cpu) 
 Wed Jul 29 00:37:13 2020

        *************************************************************
        *                                                           *
        *  Thank you very much for using Q-Chem.  Have a nice day.  *
        *                                                           *
        *************************************************************


