                  Welcome to Q-Chem
     A Quantum Leap Into The Future Of Chemistry


 Q-Chem 5.3 (devel), Q-Chem, Inc., Pleasanton, CA (2020)

 Yihan Shao,  Zhengting Gan,  E. Epifanovsky,  A. T. B. Gilbert,  M. Wormit,  
 J. Kussmann,  A. W. Lange,  A. Behn,  Jia Deng,  Xintian Feng,  D. Ghosh,  
 M. Goldey,  P. R. Horn,  L. D. Jacobson,  I. Kaliman,  T. Kus,  A. Landau,  
 Jie Liu,  E. I. Proynov,  R. M. Richard,  R. P. Steele,  E. J. Sundstrom,  
 H. L. Woodcock III,  P. M. Zimmerman,  D. Zuev,  B. Alam,  B. Albrecht,  
 E. Alguire,  S. A. Baeppler,  D. Barton,  Z. Benda,  Y. A. Bernard,  
 E. J. Berquist,  K. B. Bravaya,  H. Burton,  K. Carter-Fenk,  D. Casanova,  
 Chun-Min Chang,  Yunqing Chen,  A. Chien,  K. D. Closser,  M. P. Coons,  
 S. Coriani,  S. Dasgupta,  A. L. Dempwolff,  M. Diedenhofen,  Hainam Do,  
 R. G. Edgar,  Po-Tung Fang,  S. Faraji,  S. Fatehi,  Qingguo Feng,  
 J. Fosso-Tande,  J. Gayvert,  Qinghui Ge,  A. Ghysels,  G. Gidofalvi,  
 J. Gomes,  J. Gonthier,  A. Gunina,  D. Hait,  M. W. D. Hanson-Heine,  
 P. H. P. Harbach,  A. W. Hauser,  M. F. Herbst,  J. E. Herr,  
 E. G. Hohenstein,  Z. C. Holden,  Kerwin Hui,  B. C. Huynh,  T.-C. Jagau,  
 Hyunjun Ji,  B. Kaduk,  K. Khistyaev,  Jaehoon Kim,  P. Klunzinger,  K. Koh,  
 D. Kosenkov,  L. Koulias,  T. Kowalczyk,  C. M. Krauter,  A. Kunitsa,  
 Ka Un Lao,  A. Laurent,  K. V. Lawler,  Joonho Lee,  D. Lefrancois,  
 S. Lehtola,  D. S. Levine,  Yi-Pei Li,  You-Sheng Lin,  Fenglai Liu,  
 Kuan-Yu Liu,  E. Livshits,  M. Loipersberger,  A. Luenser,  P. Manohar,  
 E. Mansoor,  S. F. Manzer,  Shan-Ping Mao,  Yuezhi Mao,  N. Mardirossian,  
 A. V. Marenich,  T. Markovich,  L. A. Martinez-Martinez,  S. A. Maurer,  
 N. J. Mayhall,  S. C. McKenzie,  J.-M. Mewes,  P. Morgante,  A. F. Morrison,  
 J. W. Mullinax,  K. Nanda,  T. S. Nguyen-Beck,  R. Olivares-Amaya,  
 K. J. Oosterbaan,  J. A. Parkhill,  S. K. Paul,  F. Pavosevic,  Zheng Pei,  
 T. M. Perrine,  F. Plasser,  P. Pokhilko,  S. Prager,  A. Prociuk,  
 E. Ramos,  B. Rana,  D. R. Rehn,  F. Rob,  M. Scheurer,  M. Schneider,  
 N. Sergueev,  S. M. Sharada,  S. Sharma,  D. W. Small,  T. Stauch,  
 C. J. Stein,  T. Stein,  Yu-Chuan Su,  S. P. Veccham,  Zhen Tao,  
 A. J. W. Thom,  A. Tkatchenko,  T. Tsuchimochi,  N. M. Tubman,  L. Vogt,  
 M. L. Vidal,  O. Vydrov,  M. A. Watson,  J. Wenzel,  M. de Wergifosse,  
 T. A. Wesolowski,  A. White,  J. Witte,  A. Yamada,  Jun Yang,  K. Yao,  
 S. Yeganeh,  S. R. Yost,  Zhi-Qiang You,  A. Zech,  Igor Ying Zhang,  
 Xing Zhang,  Yan Zhao,  Ying Zhu,  B. R. Brooks,  G. K. L. Chan,  
 C. J. Cramer,  M. S. Gordon,  W. J. Hehre,  A. Klamt,  M. W. Schmidt,  
 C. D. Sherrill,  D. G. Truhlar,  A. Aspuru-Guzik,  R. Baer,  A. T. Bell,  
 N. A. Besley,  Jeng-Da Chai,  A. E. DePrince, III,  R. A. DiStasio Jr.,  
 A. Dreuw,  B. D. Dunietz,  T. R. Furlani,  Chao-Ping Hsu,  Yousung Jung,  
 Jing Kong,  D. S. Lambrecht,  WanZhen Liang,  C. Ochsenfeld,  
 V. A. Rassolov,  L. V. Slipchenko,  J. E. Subotnik,  T. Van Voorhis,  
 J. M. Herbert,  A. I. Krylov,  P. M. W. Gill,  M. Head-Gordon

 Contributors to earlier versions of Q-Chem not listed above: 
 R. D. Adamson,  B. Austin,  J. Baker,  G. J. O. Beran,  K. Brandhorst,  
 S. T. Brown,  E. F. C. Byrd,  A. K. Chakraborty,  C.-L. Cheng,  
 Siu Hung Chien,  D. M. Chipman,  D. L. Crittenden,  H. Dachsel,  
 R. J. Doerksen,  A. D. Dutoi,  L. Fusti-Molnar,  W. A. Goddard III,  
 A. Golubeva-Zadorozhnaya,  S. R. Gwaltney,  G. Hawkins,  A. Heyden,  
 S. Hirata,  G. Kedziora,  F. J. Keil,  C. Kelley,  Jihan Kim,  R. A. King,  
 R. Z. Khaliullin,  P. P. Korambath,  W. Kurlancheek,  A. M. Lee,  M. S. Lee,  
 S. V. Levchenko,  Ching Yeh Lin,  D. Liotard,  R. C. Lochan,  I. Lotan,  
 P. E. Maslen,  N. Nair,  D. P. O'Neill,  D. Neuhauser,  E. Neuscamman,  
 C. M. Oana,  R. Olson,  B. Peters,  R. Peverati,  P. A. Pieniazek,  
 Y. M. Rhee,  J. Ritchie,  M. A. Rohrdanz,  E. Rosta,  N. J. Russ,  
 H. F. Schaefer III,  N. E. Schultz,  N. Shenvi,  A. C. Simmonett,  A. Sodt,  
 D. Stuck,  K. S. Thanthiriwatte,  V. Vanovschi,  Tao Wang,  A. Warshel,  
 C. F. Williams,  Q. Wu,  X. Xu,  W. Zhang

 Please cite Q-Chem as follows:
 Y. Shao et al., Mol. Phys. 113, 184-215 (2015)
 DOI: 10.1080/00268976.2014.952696

 Q-Chem 5.3.0 for Intel X86 EM64T Linux

 Parts of Q-Chem use Armadillo 9.800.1 (Horizon Scraper).
 http://arma.sourceforge.net/

 Q-Chem begins on Wed Jul 29 00:26:11 2020  

Host: centos77-c1
0

     Scratch files written to /tmp/30084.centos77-h1/qchem28033//
Processing $rem in /opt/qchem-5.3.0-intel2020u1//config/preferences:
Processing $rem in /home/shihchengli/.qchemrc:

Checking the input file for inconsistencies... 	...done.

--------------------------------------------------------------
User input:
--------------------------------------------------------------
$rem
   JOBTYPE  sp
   EXCHANGE   omegaB97X-D
   BASIS   6-311+G(2df,2pd)
   UNRESTRICTED   False
   max_scf_cycles   250
   geom_opt_max_cycles   1500
   basis2 6-31G*
   scf_algorithm rca_diis
   SYM_IGNORE  TRUE
   print_input   true
   geom_opt_dmax   80
   pop_mulliken false
   XC_GRID 000075000302
$end

$molecule
0 1
C       -5.5307465660     0.5247952483     -0.1057640726
C       -4.4128819585     1.3719117334     0.0632841474
H       -5.8871211348     0.3109812972     -1.1041659943
H       -6.2682459896     0.5014393252     0.6860296673
H       -4.4205676360     -0.2131647700     0.3577099673
O       -3.1752509844     0.0824476467     0.6284693624
H       -4.2858618477     1.9445651746     0.9706860380
H       -3.8520071965     1.7399823985     -0.7858444082
H       -2.8480490839     -0.3998207968     -0.1375145441
$end
--------------------------------------------------------------
 ----------------------------------------------------------------
             Standard Nuclear Orientation (Angstroms)
    I     Atom           X                Y                Z
 ----------------------------------------------------------------
    1      C      -5.5307465660     0.5247952483    -0.1057640726
    2      C      -4.4128819585     1.3719117334     0.0632841474
    3      H      -5.8871211348     0.3109812972    -1.1041659943
    4      H      -6.2682459896     0.5014393252     0.6860296673
    5      H      -4.4205676360    -0.2131647700     0.3577099673
    6      O      -3.1752509844     0.0824476467     0.6284693624
    7      H      -4.2858618477     1.9445651746     0.9706860380
    8      H      -3.8520071965     1.7399823985    -0.7858444082
    9      H      -2.8480490839    -0.3998207968    -0.1375145441
 ----------------------------------------------------------------
 Nuclear Repulsion Energy =          78.88125950 hartrees
 There are       13 alpha and       13 beta electrons
 Requested basis set is 6-311+G(2df,2pd)
 There are 60 shells and 186 basis functions

 Total QAlloc Memory Limit   2000 MB
 Mega-Array Size       188 MB
 MEM_STATIC part       192 MB

                       Distance Matrix (Angstroms)
             C (  1)   C (  2)   H (  3)   H (  4)   H (  5)   O (  6)
   C (  2)  1.412730
   H (  3)  1.081446  2.159142
   H (  4)  1.082307  2.141941  1.840199
   H (  5)  1.411343  1.612208  2.136022  2.008076
   O (  6)  2.506617  1.874535  3.226220  3.121776  1.308247
   H (  7)  2.173529  1.080483  3.088307  2.468499  2.247150  2.195006
   H (  8)  2.181136  1.082163  2.507002  3.088464  2.333616  2.281601
   H (  9)  2.837744  2.372353  3.267356  3.631562  1.659187  0.962484
             H (  7)   H (  8)
   H (  8)  1.820847
   H (  9)  2.965056  2.450923
 
 A cutoff of  1.0D-09 yielded   1779 shell pairs
 There are     17257 function pairs (     21435 Cartesian)
 Smallest overlap matrix eigenvalue = 9.52E-05

 Scale SEOQF with 1.000000e-02/1.000000e-01/1.000000e-01

 Standard Electronic Orientation quadrupole field applied
 Nucleus-field energy     =     0.0000000026 hartrees
 Requested basis set is 6-31G(d)
 There are 24 shells and 54 basis functions
 A cutoff of  1.0D-09 yielded    296 shell pairs
 There are      1547 function pairs (      1730 Cartesian)
 Smallest overlap matrix eigenvalue = 6.79E-03
 Guess from superposition of atomic densities
 Warning:  Energy on first SCF cycle will be non-variational
 SAD guess density has 26.000000 electrons
 Long-range K will be added via erf
 Coulomb attenuation parameter = 0.2 bohr**(-1)
 A restricted hybrid HF-DFT SCF calculation will be
 performed using Relaxed Constraint Minimization + Pulay DIIS
 Exchange:     0.2220 Hartree-Fock + 1.0000 wB97X-D + LR-HF
 Correlation:  1.0000 wB97X-D
 Using Euler-Maclaurin-Lebedev (75,302) quadrature formula
 Dispersion:   Grimme D
 SCF converges when DIIS error is below 1.0E-04
 using 6 threads for integral computing
 -------------------------------------------------------
 OpenMP Integral computing Module                
 Release: version 1.0, May 2013, Q-Chem Inc. Pittsburgh 
 -------------------------------------------------------
 using 6 threads for integral computing
 -------------------------------------------------------
 OpenMP Integral computing Module                
 Release: version 1.0, May 2013, Q-Chem Inc. Pittsburgh 
 -------------------------------------------------------
 ---------------------------------------
  Cycle       Energy         DIIS Error
 ---------------------------------------
    1    -155.2503741959      9.92E-02
    2    -154.7718502887      1.65E-02
    3    -154.8070131419      3.75E-03
    4    -154.8538515015      2.35E-03
    5    -154.8548895437      5.62E-04 Done RCA. Switching to DIIS
    6    -154.8558861831      6.17E-04
    7    -154.8559946133      4.75E-05 Convergence criterion met
 ---------------------------------------
 SCF time:  CPU 17.40 s  wall 2.92 s
 SCF   energy in the small basis set = -154.85599461
 Total energy in the small basis set = -154.85599461
 ----------------------------------------------------
  Cycle       Energy    
 ----------------------------------------------------
    1     -18.6642968962     -1.87E+01
 Long-range K will be added via erf
 Coulomb attenuation parameter = 0.2 bohr**(-1)
 A restricted hybrid HF-DFT SCF calculation will be
 performed using Relaxed Constraint Minimization + Pulay DIIS
 Exchange:     0.2220 Hartree-Fock + 1.0000 wB97X-D + LR-HF
 Correlation:  1.0000 wB97X-D
 Using Euler-Maclaurin-Lebedev (75,302) quadrature formula
 Dispersion:   Grimme D
 SCF converges when DIIS error is below 1.0E-05
 Basis2 calculation detected. Using small basis as guess for larger.
 SCFMinFind is unable to tell whether the solution found is close.
 Resetting ReadMinima to 0 and attempting to follow guess.
 SCFMinFind following SCF Guess.
 using 6 threads for integral computing
 -------------------------------------------------------
 OpenMP Integral computing Module                
 Release: version 1.0, May 2013, Q-Chem Inc. Pittsburgh 
 -------------------------------------------------------
 using 6 threads for integral computing
 -------------------------------------------------------
 OpenMP Integral computing Module                
 Release: version 1.0, May 2013, Q-Chem Inc. Pittsburgh 
 -------------------------------------------------------
 ---------------------------------------
  Cycle       Energy         DIIS Error
 ---------------------------------------
    1    -154.8778847105      6.06E-03
    2    -154.8658733777      4.85E-03
    3    -154.8908702497      1.22E-03
    4    -154.9257878756      1.17E-03
    5    -154.9281445489      1.03E-04 Done RCA. Switching to DIIS
    6    -154.9316257354      8.11E-05
    7    -154.9316547962      1.39E-05
    8    -154.9316567772      4.29E-06 Convergence criterion met
 ---------------------------------------
 SCF time:  CPU 62.68 s  wall 10.48 s
 SCF   energy in the final basis set = -154.93165678
 Total energy in the final basis set = -154.93165678
 
 --------------------------------------------------------------
 
                    Orbital Energies (a.u.)
 --------------------------------------------------------------
 
 Alpha MOs
 -- Occupied --
-19.2346 -10.3614 -10.2663  -1.0813  -0.8826  -0.7035  -0.5937  -0.5657
 -0.5215  -0.4698  -0.4510  -0.4086  -0.3088
 -- Virtual --
  0.0493   0.0692   0.0882   0.0952   0.1091   0.1264   0.1365   0.1520
  0.1729   0.1905   0.2104   0.2460   0.2473   0.2732   0.2879   0.2999
  0.3209   0.3261   0.3560   0.3997   0.4429   0.4560   0.4881   0.5328
  0.5545   0.5755   0.5817   0.5929   0.6170   0.6372   0.6463   0.6814
  0.6884   0.7554   0.7601   0.7994   0.8363   0.8888   0.9217   0.9489
  0.9940   1.0058   1.0359   1.0966   1.1289   1.1355   1.1770   1.1952
  1.2325   1.2447   1.2718   1.3048   1.3146   1.3330   1.3914   1.4155
  1.4207   1.4448   1.4769   1.4937   1.5510   1.5741   1.6081   1.6535
  1.7079   1.7520   1.9149   1.9882   2.0393   2.2690   2.3153   2.4470
  2.5052   2.5325   2.6158   2.6475   2.6771   2.7310   2.7862   2.8071
  2.8330   2.8722   2.9342   2.9535   2.9860   3.0069   3.0552   3.0686
  3.1031   3.1272   3.1493   3.1797   3.2407   3.2787   3.3276   3.3393
  3.3678   3.3842   3.4168   3.4475   3.4647   3.5201   3.5307   3.5503
  3.5706   3.6092   3.6291   3.6543   3.6934   3.7580   3.7970   3.8192
  3.8196   3.8483   3.8631   3.9029   3.9133   3.9410   3.9847   4.0422
  4.1095   4.1481   4.1818   4.1861   4.2106   4.2323   4.2563   4.2878
  4.3357   4.4244   4.4328   4.5121   4.5326   4.5605   4.6490   4.6957
  4.7330   4.8140   4.8968   4.9591   4.9890   5.0323   5.0671   5.1045
  5.1403   5.2172   5.2209   5.2890   5.3441   5.4166   5.5016   5.5537
  5.5842   5.6229   5.7201   5.8149   5.9771   6.2027   6.2335   6.2680
  6.4585   6.5186   6.6434   6.7797   7.1585   7.2989   7.4307   7.4834
  7.7548   8.1579  24.9659  25.2935  50.4776
 --------------------------------------------------------------
 
 -----------------------------------------------------------------
                    Cartesian Multipole Moments
 -----------------------------------------------------------------
    Charge (ESU x 10^10)
                -0.0000
    Dipole Moment (Debye)
         X      -0.4926      Y       0.8020      Z      -1.5718
       Tot       1.8320
    Quadrupole Moments (Debye-Ang)
        XX     -18.2272     XY      -3.7059     YY     -18.5792
        XZ       3.4337     YZ       0.8827     ZZ     -20.5900
    Octopole Moments (Debye-Ang^2)
       XXX     268.1113    XXY       0.6351    XYY      85.3574
       YYY     -35.1882    XXZ      -7.6093    XYZ      -4.5349
       YYZ      -2.2002    XZZ      88.0613    YZZ     -10.8106
       ZZZ     -11.7834
    Hexadecapole Moments (Debye-Ang^3)
      XXXX   -2589.1627   XXXY     146.9176   XXYY    -439.9193
      XYYY     169.0528   YYYY    -112.8821   XXXZ      10.0918
      XXYZ      22.8845   XYYZ       2.8332   YYYZ       0.9912
      XXZZ    -411.0347   XYZZ      51.5433   YYZZ     -24.8703
      XZZZ      34.2650   YZZZ      -0.4230   ZZZZ     -49.0347
 -----------------------------------------------------------------
Archival summary:
1\1\centos77-c1\SP\ProcedureUnspecified\BasisUnspecified\126\shihchen\WedJul2900:26:272020WedJul2900:26:272020\0\\#,ProcedureUnspecified,BasisUnspecified,\\0,1\C\H,1,1.08048\H,1,1.08216,2,114.694\C,1,1.41273,2,120.752,3,-160.015,0\H,4,1.08145,1,119.326,2,153.139,0\H,4,1.08231,1,117.684,2,2.30864,0\H,4,1.41134,1,69.6232,2,-96.1924,0\O,7,1.30825,4,134.314,1,-2.24745,0\H,8,0.962484,7,92.6177,4,-109.293,0\\\@

 Total job time:  16.09s(wall), 84.97s(cpu) 
 Wed Jul 29 00:26:27 2020

        *************************************************************
        *                                                           *
        *  Thank you very much for using Q-Chem.  Have a nice day.  *
        *                                                           *
        *************************************************************


