                  Welcome to Q-Chem
     A Quantum Leap Into The Future Of Chemistry


 Q-Chem 5.3 (devel), Q-Chem, Inc., Pleasanton, CA (2020)

 Yihan Shao,  Zhengting Gan,  E. Epifanovsky,  A. T. B. Gilbert,  M. Wormit,  
 J. Kussmann,  A. W. Lange,  A. Behn,  Jia Deng,  Xintian Feng,  D. Ghosh,  
 M. Goldey,  P. R. Horn,  L. D. Jacobson,  I. Kaliman,  T. Kus,  A. Landau,  
 Jie Liu,  E. I. Proynov,  R. M. Richard,  R. P. Steele,  E. J. Sundstrom,  
 H. L. Woodcock III,  P. M. Zimmerman,  D. Zuev,  B. Alam,  B. Albrecht,  
 E. Alguire,  S. A. Baeppler,  D. Barton,  Z. Benda,  Y. A. Bernard,  
 E. J. Berquist,  K. B. Bravaya,  H. Burton,  K. Carter-Fenk,  D. Casanova,  
 Chun-Min Chang,  Yunqing Chen,  A. Chien,  K. D. Closser,  M. P. Coons,  
 S. Coriani,  S. Dasgupta,  A. L. Dempwolff,  M. Diedenhofen,  Hainam Do,  
 R. G. Edgar,  Po-Tung Fang,  S. Faraji,  S. Fatehi,  Qingguo Feng,  
 J. Fosso-Tande,  J. Gayvert,  Qinghui Ge,  A. Ghysels,  G. Gidofalvi,  
 J. Gomes,  J. Gonthier,  A. Gunina,  D. Hait,  M. W. D. Hanson-Heine,  
 P. H. P. Harbach,  A. W. Hauser,  M. F. Herbst,  J. E. Herr,  
 E. G. Hohenstein,  Z. C. Holden,  Kerwin Hui,  B. C. Huynh,  T.-C. Jagau,  
 Hyunjun Ji,  B. Kaduk,  K. Khistyaev,  Jaehoon Kim,  P. Klunzinger,  K. Koh,  
 D. Kosenkov,  L. Koulias,  T. Kowalczyk,  C. M. Krauter,  A. Kunitsa,  
 Ka Un Lao,  A. Laurent,  K. V. Lawler,  Joonho Lee,  D. Lefrancois,  
 S. Lehtola,  D. S. Levine,  Yi-Pei Li,  You-Sheng Lin,  Fenglai Liu,  
 Kuan-Yu Liu,  E. Livshits,  M. Loipersberger,  A. Luenser,  P. Manohar,  
 E. Mansoor,  S. F. Manzer,  Shan-Ping Mao,  Yuezhi Mao,  N. Mardirossian,  
 A. V. Marenich,  T. Markovich,  L. A. Martinez-Martinez,  S. A. Maurer,  
 N. J. Mayhall,  S. C. McKenzie,  J.-M. Mewes,  P. Morgante,  A. F. Morrison,  
 J. W. Mullinax,  K. Nanda,  T. S. Nguyen-Beck,  R. Olivares-Amaya,  
 K. J. Oosterbaan,  J. A. Parkhill,  S. K. Paul,  F. Pavosevic,  Zheng Pei,  
 T. M. Perrine,  F. Plasser,  P. Pokhilko,  S. Prager,  A. Prociuk,  
 E. Ramos,  B. Rana,  D. R. Rehn,  F. Rob,  M. Scheurer,  M. Schneider,  
 N. Sergueev,  S. M. Sharada,  S. Sharma,  D. W. Small,  T. Stauch,  
 C. J. Stein,  T. Stein,  Yu-Chuan Su,  S. P. Veccham,  Zhen Tao,  
 A. J. W. Thom,  A. Tkatchenko,  T. Tsuchimochi,  N. M. Tubman,  L. Vogt,  
 M. L. Vidal,  O. Vydrov,  M. A. Watson,  J. Wenzel,  M. de Wergifosse,  
 T. A. Wesolowski,  A. White,  J. Witte,  A. Yamada,  Jun Yang,  K. Yao,  
 S. Yeganeh,  S. R. Yost,  Zhi-Qiang You,  A. Zech,  Igor Ying Zhang,  
 Xing Zhang,  Yan Zhao,  Ying Zhu,  B. R. Brooks,  G. K. L. Chan,  
 C. J. Cramer,  M. S. Gordon,  W. J. Hehre,  A. Klamt,  M. W. Schmidt,  
 C. D. Sherrill,  D. G. Truhlar,  A. Aspuru-Guzik,  R. Baer,  A. T. Bell,  
 N. A. Besley,  Jeng-Da Chai,  A. E. DePrince, III,  R. A. DiStasio Jr.,  
 A. Dreuw,  B. D. Dunietz,  T. R. Furlani,  Chao-Ping Hsu,  Yousung Jung,  
 Jing Kong,  D. S. Lambrecht,  WanZhen Liang,  C. Ochsenfeld,  
 V. A. Rassolov,  L. V. Slipchenko,  J. E. Subotnik,  T. Van Voorhis,  
 J. M. Herbert,  A. I. Krylov,  P. M. W. Gill,  M. Head-Gordon

 Contributors to earlier versions of Q-Chem not listed above: 
 R. D. Adamson,  B. Austin,  J. Baker,  G. J. O. Beran,  K. Brandhorst,  
 S. T. Brown,  E. F. C. Byrd,  A. K. Chakraborty,  C.-L. Cheng,  
 Siu Hung Chien,  D. M. Chipman,  D. L. Crittenden,  H. Dachsel,  
 R. J. Doerksen,  A. D. Dutoi,  L. Fusti-Molnar,  W. A. Goddard III,  
 A. Golubeva-Zadorozhnaya,  S. R. Gwaltney,  G. Hawkins,  A. Heyden,  
 S. Hirata,  G. Kedziora,  F. J. Keil,  C. Kelley,  Jihan Kim,  R. A. King,  
 R. Z. Khaliullin,  P. P. Korambath,  W. Kurlancheek,  A. M. Lee,  M. S. Lee,  
 S. V. Levchenko,  Ching Yeh Lin,  D. Liotard,  R. C. Lochan,  I. Lotan,  
 P. E. Maslen,  N. Nair,  D. P. O'Neill,  D. Neuhauser,  E. Neuscamman,  
 C. M. Oana,  R. Olson,  B. Peters,  R. Peverati,  P. A. Pieniazek,  
 Y. M. Rhee,  J. Ritchie,  M. A. Rohrdanz,  E. Rosta,  N. J. Russ,  
 H. F. Schaefer III,  N. E. Schultz,  N. Shenvi,  A. C. Simmonett,  A. Sodt,  
 D. Stuck,  K. S. Thanthiriwatte,  V. Vanovschi,  Tao Wang,  A. Warshel,  
 C. F. Williams,  Q. Wu,  X. Xu,  W. Zhang

 Please cite Q-Chem as follows:
 Y. Shao et al., Mol. Phys. 113, 184-215 (2015)
 DOI: 10.1080/00268976.2014.952696

 Q-Chem 5.3.0 for Intel X86 EM64T Linux

 Parts of Q-Chem use Armadillo 9.800.1 (Horizon Scraper).
 http://arma.sourceforge.net/

 Q-Chem begins on Wed Jul 29 00:34:38 2020  

Host: centos77-c1
0

     Scratch files written to /tmp/30084.centos77-h1/qchem29397//
Processing $rem in /opt/qchem-5.3.0-intel2020u1//config/preferences:
Processing $rem in /home/shihchengli/.qchemrc:

Checking the input file for inconsistencies... 	...done.

--------------------------------------------------------------
User input:
--------------------------------------------------------------
$rem
   JOBTYPE  sp
   EXCHANGE   omegaB97X-D
   BASIS   6-311+G(2df,2pd)
   UNRESTRICTED   False
   max_scf_cycles   250
   geom_opt_max_cycles   1500
   basis2 6-31G*
   scf_algorithm rca_diis
   SYM_IGNORE  TRUE
   print_input   true
   geom_opt_dmax   80
   pop_mulliken false
   XC_GRID 000075000302
$end

$molecule
0 1
C       -5.5082389313     0.5765278471     -0.0564708402
C       -4.3644136156     1.3256214025     0.1125271292
H       -5.8190234525     0.3402547858     -1.0640945148
H       -6.2632362266     0.6217107442     0.7146646285
H       -4.4541422389     -0.3618629670     0.2860713812
O       -3.2730632517     -0.0779956145     0.5707873615
H       -4.4102360434     2.0412390412     0.9204103488
H       -3.9560105069     1.7277561283     -0.8059333164
H       -2.6323681303     -0.3301141105     -0.1050720146
$end
--------------------------------------------------------------
 ----------------------------------------------------------------
             Standard Nuclear Orientation (Angstroms)
    I     Atom           X                Y                Z
 ----------------------------------------------------------------
    1      C      -5.5082389313     0.5765278471    -0.0564708402
    2      C      -4.3644136156     1.3256214025     0.1125271292
    3      H      -5.8190234525     0.3402547858    -1.0640945148
    4      H      -6.2632362266     0.6217107442     0.7146646285
    5      H      -4.4541422389    -0.3618629670     0.2860713812
    6      O      -3.2730632517    -0.0779956145     0.5707873615
    7      H      -4.4102360434     2.0412390412     0.9204103488
    8      H      -3.9560105069     1.7277561283    -0.8059333164
    9      H      -2.6323681303    -0.3301141105    -0.1050720146
 ----------------------------------------------------------------
 Nuclear Repulsion Energy =          79.78785101 hartrees
 There are       13 alpha and       13 beta electrons
 Requested basis set is 6-311+G(2df,2pd)
 There are 60 shells and 186 basis functions

 Total QAlloc Memory Limit   2000 MB
 Mega-Array Size       188 MB
 MEM_STATIC part       192 MB

                       Distance Matrix (Angstroms)
             C (  1)   C (  2)   H (  3)   H (  4)   H (  5)   O (  6)
   C (  2)  1.377693
   H (  3)  1.080610  2.114539
   H (  4)  1.080145  2.112720  1.854866
   H (  5)  1.452251  1.698756  2.044216  2.103314
   O (  6)  2.412025  1.836080  3.054453  3.074317  1.247634
   H (  7)  2.074918  1.080224  2.969224  2.343289  2.485802  2.430340
   H (  8)  2.072784  1.082624  2.337226  2.976381  2.409796  2.371185
   H (  9)  3.015791  2.405991  3.394686  3.842023  1.863562  0.964800
             H (  7)   H (  8)
   H (  8)  1.812417
   H (  9)  3.136199  2.545204
 
 A cutoff of  1.0D-09 yielded   1776 shell pairs
 There are     17244 function pairs (     21426 Cartesian)
 Smallest overlap matrix eigenvalue = 7.29E-05

 Scale SEOQF with 1.000000e-02/1.000000e-01/1.000000e-01

 Standard Electronic Orientation quadrupole field applied
 Nucleus-field energy     =     0.0000000027 hartrees
 Requested basis set is 6-31G(d)
 There are 24 shells and 54 basis functions
 A cutoff of  1.0D-09 yielded    298 shell pairs
 There are      1549 function pairs (      1732 Cartesian)
 Smallest overlap matrix eigenvalue = 5.97E-03
 Guess from superposition of atomic densities
 Warning:  Energy on first SCF cycle will be non-variational
 SAD guess density has 26.000000 electrons
 Long-range K will be added via erf
 Coulomb attenuation parameter = 0.2 bohr**(-1)
 A restricted hybrid HF-DFT SCF calculation will be
 performed using Relaxed Constraint Minimization + Pulay DIIS
 Exchange:     0.2220 Hartree-Fock + 1.0000 wB97X-D + LR-HF
 Correlation:  1.0000 wB97X-D
 Using Euler-Maclaurin-Lebedev (75,302) quadrature formula
 Dispersion:   Grimme D
 SCF converges when DIIS error is below 1.0E-04
 using 6 threads for integral computing
 -------------------------------------------------------
 OpenMP Integral computing Module                
 Release: version 1.0, May 2013, Q-Chem Inc. Pittsburgh 
 -------------------------------------------------------
 using 6 threads for integral computing
 -------------------------------------------------------
 OpenMP Integral computing Module                
 Release: version 1.0, May 2013, Q-Chem Inc. Pittsburgh 
 -------------------------------------------------------
 ---------------------------------------
  Cycle       Energy         DIIS Error
 ---------------------------------------
    1    -155.3093379094      1.02E-01
    2    -154.7796797040      1.52E-02
    3    -154.8134605885      3.22E-03
    4    -154.8494106215      2.96E-03
    5    -154.8505998251      5.13E-04 Done RCA. Switching to DIIS
    6    -154.8521737868      4.72E-04
    7    -154.8522501805      4.18E-05 Convergence criterion met
 ---------------------------------------
 SCF time:  CPU 18.97 s  wall 3.19 s
 SCF   energy in the small basis set = -154.85225018
 Total energy in the small basis set = -154.85225018
 ----------------------------------------------------
  Cycle       Energy    
 ----------------------------------------------------
    1     -18.6835051163     -1.87E+01
 Long-range K will be added via erf
 Coulomb attenuation parameter = 0.2 bohr**(-1)
 A restricted hybrid HF-DFT SCF calculation will be
 performed using Relaxed Constraint Minimization + Pulay DIIS
 Exchange:     0.2220 Hartree-Fock + 1.0000 wB97X-D + LR-HF
 Correlation:  1.0000 wB97X-D
 Using Euler-Maclaurin-Lebedev (75,302) quadrature formula
 Dispersion:   Grimme D
 SCF converges when DIIS error is below 1.0E-05
 Basis2 calculation detected. Using small basis as guess for larger.
 SCFMinFind is unable to tell whether the solution found is close.
 Resetting ReadMinima to 0 and attempting to follow guess.
 SCFMinFind following SCF Guess.
 using 6 threads for integral computing
 -------------------------------------------------------
 OpenMP Integral computing Module                
 Release: version 1.0, May 2013, Q-Chem Inc. Pittsburgh 
 -------------------------------------------------------
 using 6 threads for integral computing
 -------------------------------------------------------
 OpenMP Integral computing Module                
 Release: version 1.0, May 2013, Q-Chem Inc. Pittsburgh 
 -------------------------------------------------------
 ---------------------------------------
  Cycle       Energy         DIIS Error
 ---------------------------------------
    1    -154.8822173414      5.89E-03
    2    -154.8831025900      4.03E-03
    3    -154.9009364898      8.85E-04 Done RCA. Switching to DIIS
    4    -154.9252538369      9.36E-04
    5    -154.9277928141      6.55E-05
    6    -154.9278152959      1.37E-05
    7    -154.9278169980      4.47E-06 Convergence criterion met
 ---------------------------------------
 SCF time:  CPU 51.50 s  wall 8.61 s
 SCF   energy in the final basis set = -154.92781700
 Total energy in the final basis set = -154.92781700
 
 --------------------------------------------------------------
 
                    Orbital Energies (a.u.)
 --------------------------------------------------------------
 
 Alpha MOs
 -- Occupied --
-19.2536 -10.3457 -10.2467  -1.0959  -0.8819  -0.6865  -0.6174  -0.5745
 -0.5033  -0.4544  -0.4450  -0.4346  -0.3025
 -- Virtual --
  0.0555   0.0685   0.0908   0.0948   0.1126   0.1291   0.1376   0.1494
  0.1762   0.1854   0.2114   0.2399   0.2579   0.2736   0.2900   0.3026
  0.3180   0.3262   0.3680   0.3950   0.4603   0.4700   0.4894   0.5404
  0.5580   0.5801   0.5941   0.6023   0.6133   0.6174   0.6651   0.6809
  0.7066   0.7437   0.8023   0.8311   0.8608   0.8958   0.9103   0.9455
  0.9951   1.0165   1.0824   1.0964   1.1107   1.1553   1.1635   1.1923
  1.2369   1.2654   1.2710   1.3034   1.3420   1.3586   1.3966   1.4335
  1.4525   1.4595   1.4757   1.4881   1.5008   1.5530   1.5865   1.6489
  1.6687   1.7828   1.9426   2.0005   2.0371   2.2594   2.3028   2.4331
  2.4424   2.5340   2.6185   2.6823   2.6970   2.7413   2.7663   2.8538
  2.8588   2.8783   2.9800   2.9998   3.0181   3.0252   3.0695   3.0912
  3.1212   3.1381   3.1584   3.2226   3.2373   3.2833   3.2966   3.3479
  3.3751   3.4143   3.4574   3.4726   3.4827   3.4994   3.5275   3.5282
  3.5725   3.6135   3.6443   3.6681   3.6831   3.6981   3.7908   3.8131
  3.8393   3.8560   3.9089   3.9151   3.9246   3.9967   4.0515   4.0740
  4.1256   4.1317   4.1635   4.2235   4.2361   4.2582   4.2948   4.3278
  4.3613   4.3701   4.4111   4.4620   4.5169   4.6232   4.6766   4.7055
  4.7291   4.7926   4.8830   4.9540   5.0031   5.0321   5.0443   5.0677
  5.0780   5.1750   5.2749   5.3057   5.3644   5.3957   5.4228   5.4655
  5.5792   5.6650   5.7608   5.8134   6.0044   6.0897   6.2731   6.2843
  6.4567   6.6191   6.7130   6.8533   7.1618   7.2173   7.4006   7.6151
  7.7579   8.1639  24.9171  25.4136  50.4265
 --------------------------------------------------------------
 
 -----------------------------------------------------------------
                    Cartesian Multipole Moments
 -----------------------------------------------------------------
    Charge (ESU x 10^10)
                 0.0000
    Dipole Moment (Debye)
         X       0.5046      Y       0.8392      Z      -1.4229
       Tot       1.7273
    Quadrupole Moments (Debye-Ang)
        XX     -25.1431     XY      -3.7492     YY     -19.0308
        XZ       3.1125     YZ       1.0199     ZZ     -20.7672
    Octopole Moments (Debye-Ang^2)
       XXX     309.3130    XXY       1.4267    XYY      86.5556
       YYY     -33.3882    XXZ      -6.7904    XYZ      -5.2396
       YYZ      -2.2042    XZZ      89.4094    YZZ     -10.1933
       ZZZ     -12.4582
    Hexadecapole Moments (Debye-Ang^3)
      XXXX   -2830.5923   XXXY     140.2840   XXYY    -441.3833
      XYYY     163.6231   YYYY    -114.1015   XXXZ       9.7319
      XXYZ      27.6250   XYYZ       3.5190   YYYZ       1.8302
      XXZZ    -417.7698   XYZZ      49.7692   YYZZ     -24.9062
      XZZZ      40.5858   YZZZ      -0.6488   ZZZZ     -47.1307
 -----------------------------------------------------------------
Archival summary:
1\1\centos77-c1\SP\ProcedureUnspecified\BasisUnspecified\126\shihchen\WedJul2900:34:522020WedJul2900:34:522020\0\\#,ProcedureUnspecified,BasisUnspecified,\\0,1\C\H,1,1.08022\H,1,1.08262,2,113.854\C,1,1.37769,2,114.628,3,-134.202,0\H,4,1.08014,1,118.035,2,-11.175,0\H,4,1.08061,1,118.167,2,142.211,0\H,4,1.45225,1,73.7267,2,-117.226,0\O,7,1.24763,4,126.436,1,2.9945,0\H,8,0.9648,7,114.163,4,-109.293,0\\\@

 Total job time:  14.57s(wall), 75.60s(cpu) 
 Wed Jul 29 00:34:52 2020

        *************************************************************
        *                                                           *
        *  Thank you very much for using Q-Chem.  Have a nice day.  *
        *                                                           *
        *************************************************************


