                  Welcome to Q-Chem
     A Quantum Leap Into The Future Of Chemistry


 Q-Chem 5.3 (devel), Q-Chem, Inc., Pleasanton, CA (2020)

 Yihan Shao,  Zhengting Gan,  E. Epifanovsky,  A. T. B. Gilbert,  M. Wormit,  
 J. Kussmann,  A. W. Lange,  A. Behn,  Jia Deng,  Xintian Feng,  D. Ghosh,  
 M. Goldey,  P. R. Horn,  L. D. Jacobson,  I. Kaliman,  T. Kus,  A. Landau,  
 Jie Liu,  E. I. Proynov,  R. M. Richard,  R. P. Steele,  E. J. Sundstrom,  
 H. L. Woodcock III,  P. M. Zimmerman,  D. Zuev,  B. Alam,  B. Albrecht,  
 E. Alguire,  S. A. Baeppler,  D. Barton,  Z. Benda,  Y. A. Bernard,  
 E. J. Berquist,  K. B. Bravaya,  H. Burton,  K. Carter-Fenk,  D. Casanova,  
 Chun-Min Chang,  Yunqing Chen,  A. Chien,  K. D. Closser,  M. P. Coons,  
 S. Coriani,  S. Dasgupta,  A. L. Dempwolff,  M. Diedenhofen,  Hainam Do,  
 R. G. Edgar,  Po-Tung Fang,  S. Faraji,  S. Fatehi,  Qingguo Feng,  
 J. Fosso-Tande,  J. Gayvert,  Qinghui Ge,  A. Ghysels,  G. Gidofalvi,  
 J. Gomes,  J. Gonthier,  A. Gunina,  D. Hait,  M. W. D. Hanson-Heine,  
 P. H. P. Harbach,  A. W. Hauser,  M. F. Herbst,  J. E. Herr,  
 E. G. Hohenstein,  Z. C. Holden,  Kerwin Hui,  B. C. Huynh,  T.-C. Jagau,  
 Hyunjun Ji,  B. Kaduk,  K. Khistyaev,  Jaehoon Kim,  P. Klunzinger,  K. Koh,  
 D. Kosenkov,  L. Koulias,  T. Kowalczyk,  C. M. Krauter,  A. Kunitsa,  
 Ka Un Lao,  A. Laurent,  K. V. Lawler,  Joonho Lee,  D. Lefrancois,  
 S. Lehtola,  D. S. Levine,  Yi-Pei Li,  You-Sheng Lin,  Fenglai Liu,  
 Kuan-Yu Liu,  E. Livshits,  M. Loipersberger,  A. Luenser,  P. Manohar,  
 E. Mansoor,  S. F. Manzer,  Shan-Ping Mao,  Yuezhi Mao,  N. Mardirossian,  
 A. V. Marenich,  T. Markovich,  L. A. Martinez-Martinez,  S. A. Maurer,  
 N. J. Mayhall,  S. C. McKenzie,  J.-M. Mewes,  P. Morgante,  A. F. Morrison,  
 J. W. Mullinax,  K. Nanda,  T. S. Nguyen-Beck,  R. Olivares-Amaya,  
 K. J. Oosterbaan,  J. A. Parkhill,  S. K. Paul,  F. Pavosevic,  Zheng Pei,  
 T. M. Perrine,  F. Plasser,  P. Pokhilko,  S. Prager,  A. Prociuk,  
 E. Ramos,  B. Rana,  D. R. Rehn,  F. Rob,  M. Scheurer,  M. Schneider,  
 N. Sergueev,  S. M. Sharada,  S. Sharma,  D. W. Small,  T. Stauch,  
 C. J. Stein,  T. Stein,  Yu-Chuan Su,  S. P. Veccham,  Zhen Tao,  
 A. J. W. Thom,  A. Tkatchenko,  T. Tsuchimochi,  N. M. Tubman,  L. Vogt,  
 M. L. Vidal,  O. Vydrov,  M. A. Watson,  J. Wenzel,  M. de Wergifosse,  
 T. A. Wesolowski,  A. White,  J. Witte,  A. Yamada,  Jun Yang,  K. Yao,  
 S. Yeganeh,  S. R. Yost,  Zhi-Qiang You,  A. Zech,  Igor Ying Zhang,  
 Xing Zhang,  Yan Zhao,  Ying Zhu,  B. R. Brooks,  G. K. L. Chan,  
 C. J. Cramer,  M. S. Gordon,  W. J. Hehre,  A. Klamt,  M. W. Schmidt,  
 C. D. Sherrill,  D. G. Truhlar,  A. Aspuru-Guzik,  R. Baer,  A. T. Bell,  
 N. A. Besley,  Jeng-Da Chai,  A. E. DePrince, III,  R. A. DiStasio Jr.,  
 A. Dreuw,  B. D. Dunietz,  T. R. Furlani,  Chao-Ping Hsu,  Yousung Jung,  
 Jing Kong,  D. S. Lambrecht,  WanZhen Liang,  C. Ochsenfeld,  
 V. A. Rassolov,  L. V. Slipchenko,  J. E. Subotnik,  T. Van Voorhis,  
 J. M. Herbert,  A. I. Krylov,  P. M. W. Gill,  M. Head-Gordon

 Contributors to earlier versions of Q-Chem not listed above: 
 R. D. Adamson,  B. Austin,  J. Baker,  G. J. O. Beran,  K. Brandhorst,  
 S. T. Brown,  E. F. C. Byrd,  A. K. Chakraborty,  C.-L. Cheng,  
 Siu Hung Chien,  D. M. Chipman,  D. L. Crittenden,  H. Dachsel,  
 R. J. Doerksen,  A. D. Dutoi,  L. Fusti-Molnar,  W. A. Goddard III,  
 A. Golubeva-Zadorozhnaya,  S. R. Gwaltney,  G. Hawkins,  A. Heyden,  
 S. Hirata,  G. Kedziora,  F. J. Keil,  C. Kelley,  Jihan Kim,  R. A. King,  
 R. Z. Khaliullin,  P. P. Korambath,  W. Kurlancheek,  A. M. Lee,  M. S. Lee,  
 S. V. Levchenko,  Ching Yeh Lin,  D. Liotard,  R. C. Lochan,  I. Lotan,  
 P. E. Maslen,  N. Nair,  D. P. O'Neill,  D. Neuhauser,  E. Neuscamman,  
 C. M. Oana,  R. Olson,  B. Peters,  R. Peverati,  P. A. Pieniazek,  
 Y. M. Rhee,  J. Ritchie,  M. A. Rohrdanz,  E. Rosta,  N. J. Russ,  
 H. F. Schaefer III,  N. E. Schultz,  N. Shenvi,  A. C. Simmonett,  A. Sodt,  
 D. Stuck,  K. S. Thanthiriwatte,  V. Vanovschi,  Tao Wang,  A. Warshel,  
 C. F. Williams,  Q. Wu,  X. Xu,  W. Zhang

 Please cite Q-Chem as follows:
 Y. Shao et al., Mol. Phys. 113, 184-215 (2015)
 DOI: 10.1080/00268976.2014.952696

 Q-Chem 5.3.0 for Intel X86 EM64T Linux

 Parts of Q-Chem use Armadillo 9.800.1 (Horizon Scraper).
 http://arma.sourceforge.net/

 Q-Chem begins on Wed Jul 29 00:37:13 2020  

Host: centos77-c1
0

     Scratch files written to /tmp/30084.centos77-h1/qchem29774//
Processing $rem in /opt/qchem-5.3.0-intel2020u1//config/preferences:
Processing $rem in /home/shihchengli/.qchemrc:

Checking the input file for inconsistencies... 	...done.

--------------------------------------------------------------
User input:
--------------------------------------------------------------
$rem
   JOBTYPE  sp
   EXCHANGE   omegaB97X-D
   BASIS   6-311+G(2df,2pd)
   UNRESTRICTED   False
   max_scf_cycles   250
   geom_opt_max_cycles   1500
   basis2 6-31G*
   scf_algorithm rca_diis
   SYM_IGNORE  TRUE
   print_input   true
   geom_opt_dmax   80
   pop_mulliken false
   XC_GRID 000075000302
$end

$molecule
0 1
C       -5.5330538711     0.5398744983     -0.1600444286
C       -4.4402992001     1.3787449229     0.1202224648
H       -5.9874178877     0.3080094033     -1.1127393474
H       -6.1934328300     0.5774416896     0.6975586841
H       -4.4763340729     -0.3009890431     0.2902976910
O       -3.2982450358     -0.0023570343     0.5674578619
H       -4.2132005828     1.9841687922     0.9868953824
H       -3.9427397072     1.6742760620     -0.7940268896
H       -2.5960092097     -0.2960320339     -0.0227312553
$end
--------------------------------------------------------------
 ----------------------------------------------------------------
             Standard Nuclear Orientation (Angstroms)
    I     Atom           X                Y                Z
 ----------------------------------------------------------------
    1      C      -5.5330538711     0.5398744983    -0.1600444286
    2      C      -4.4402992001     1.3787449229     0.1202224648
    3      H      -5.9874178877     0.3080094033    -1.1127393474
    4      H      -6.1934328300     0.5774416896     0.6975586841
    5      H      -4.4763340729    -0.3009890431     0.2902976910
    6      O      -3.2982450358    -0.0023570343     0.5674578619
    7      H      -4.2132005828     1.9841687922     0.9868953824
    8      H      -3.9427397072     1.6742760620    -0.7940268896
    9      H      -2.5960092097    -0.2960320339    -0.0227312553
 ----------------------------------------------------------------
 Nuclear Repulsion Energy =          79.52918358 hartrees
 There are       13 alpha and       13 beta electrons
 Requested basis set is 6-311+G(2df,2pd)
 There are 60 shells and 186 basis functions

 Total QAlloc Memory Limit   2000 MB
 Mega-Array Size       188 MB
 MEM_STATIC part       192 MB

                       Distance Matrix (Angstroms)
             C (  1)   C (  2)   H (  3)   H (  4)   H (  5)   O (  6)
   C (  2)  1.405833
   H (  3)  1.080664  2.249499
   H (  4)  1.083049  2.012183  1.841797
   H (  5)  1.423558  1.688707  2.150062  1.971276
   O (  6)  2.411980  1.847092  3.186070  2.955538  1.246552
   H (  7)  2.267922  1.081311  3.219600  2.446205  2.403421  2.226961
   H (  8)  2.053753  1.082015  2.479712  2.914360  2.315633  2.253911
   H (  9)  3.056767  2.495339  3.613120  3.771370  1.906209  0.963174
             H (  7)   H (  8)
   H (  8)  1.827804
   H (  9)  2.972199  2.508126
 
 A cutoff of  1.0D-09 yielded   1775 shell pairs
 There are     17219 function pairs (     21398 Cartesian)
 Smallest overlap matrix eigenvalue = 9.10E-05

 Scale SEOQF with 1.000000e-02/1.000000e-01/1.000000e-01

 Standard Electronic Orientation quadrupole field applied
 Nucleus-field energy     =     0.0000000027 hartrees
 Requested basis set is 6-31G(d)
 There are 24 shells and 54 basis functions
 A cutoff of  1.0D-09 yielded    297 shell pairs
 There are      1548 function pairs (      1731 Cartesian)
 Smallest overlap matrix eigenvalue = 6.17E-03
 Guess from superposition of atomic densities
 Warning:  Energy on first SCF cycle will be non-variational
 SAD guess density has 26.000000 electrons
 Long-range K will be added via erf
 Coulomb attenuation parameter = 0.2 bohr**(-1)
 A restricted hybrid HF-DFT SCF calculation will be
 performed using Relaxed Constraint Minimization + Pulay DIIS
 Exchange:     0.2220 Hartree-Fock + 1.0000 wB97X-D + LR-HF
 Correlation:  1.0000 wB97X-D
 Using Euler-Maclaurin-Lebedev (75,302) quadrature formula
 Dispersion:   Grimme D
 SCF converges when DIIS error is below 1.0E-04
 using 6 threads for integral computing
 -------------------------------------------------------
 OpenMP Integral computing Module                
 Release: version 1.0, May 2013, Q-Chem Inc. Pittsburgh 
 -------------------------------------------------------
 using 6 threads for integral computing
 -------------------------------------------------------
 OpenMP Integral computing Module                
 Release: version 1.0, May 2013, Q-Chem Inc. Pittsburgh 
 -------------------------------------------------------
 ---------------------------------------
  Cycle       Energy         DIIS Error
 ---------------------------------------
    1    -155.2745988946      9.98E-02
    2    -154.7736082646      1.57E-02
    3    -154.8075088867      3.22E-03
    4    -154.8475314245      2.33E-03
    5    -154.8484013040      4.75E-04 Done RCA. Switching to DIIS
    6    -154.8494765850      2.98E-04
    7    -154.8495083068      4.04E-05 Convergence criterion met
 ---------------------------------------
 SCF time:  CPU 20.09 s  wall 3.37 s
 SCF   energy in the small basis set = -154.84950831
 Total energy in the small basis set = -154.84950831
 ----------------------------------------------------
  Cycle       Energy    
 ----------------------------------------------------
    1     -18.6779804219     -1.87E+01
 Long-range K will be added via erf
 Coulomb attenuation parameter = 0.2 bohr**(-1)
 A restricted hybrid HF-DFT SCF calculation will be
 performed using Relaxed Constraint Minimization + Pulay DIIS
 Exchange:     0.2220 Hartree-Fock + 1.0000 wB97X-D + LR-HF
 Correlation:  1.0000 wB97X-D
 Using Euler-Maclaurin-Lebedev (75,302) quadrature formula
 Dispersion:   Grimme D
 SCF converges when DIIS error is below 1.0E-05
 Basis2 calculation detected. Using small basis as guess for larger.
 SCFMinFind is unable to tell whether the solution found is close.
 Resetting ReadMinima to 0 and attempting to follow guess.
 SCFMinFind following SCF Guess.
 using 6 threads for integral computing
 -------------------------------------------------------
 OpenMP Integral computing Module                
 Release: version 1.0, May 2013, Q-Chem Inc. Pittsburgh 
 -------------------------------------------------------
 using 6 threads for integral computing
 -------------------------------------------------------
 OpenMP Integral computing Module                
 Release: version 1.0, May 2013, Q-Chem Inc. Pittsburgh 
 -------------------------------------------------------
 ---------------------------------------
  Cycle       Energy         DIIS Error
 ---------------------------------------
    1    -154.8754948932      5.99E-03
    2    -154.8721865925      4.40E-03
    3    -154.8933580768      9.85E-04 Done RCA. Switching to DIIS
    4    -154.9224477550      1.07E-03
    5    -154.9257339803      7.33E-05
    6    -154.9257612275      1.57E-05
    7    -154.9257632516      4.38E-06 Convergence criterion met
 ---------------------------------------
 SCF time:  CPU 63.34 s  wall 10.60 s
 SCF   energy in the final basis set = -154.92576325
 Total energy in the final basis set = -154.92576325
 
 --------------------------------------------------------------
 
                    Orbital Energies (a.u.)
 --------------------------------------------------------------
 
 Alpha MOs
 -- Occupied --
-19.2380 -10.3527 -10.2555  -1.0848  -0.8778  -0.6966  -0.6143  -0.5705
 -0.5169  -0.4424  -0.4338  -0.4220  -0.3068
 -- Virtual --
  0.0536   0.0700   0.0890   0.0955   0.1127   0.1284   0.1383   0.1498
  0.1772   0.1874   0.2136   0.2376   0.2578   0.2738   0.2875   0.2943
  0.3206   0.3276   0.3593   0.3885   0.4587   0.4656   0.4900   0.5445
  0.5766   0.5805   0.5900   0.6027   0.6164   0.6452   0.6655   0.6899
  0.7053   0.7552   0.8097   0.8186   0.8593   0.8841   0.8971   0.9386
  0.9645   1.0224   1.0433   1.0982   1.1438   1.1510   1.1788   1.2050
  1.2226   1.2501   1.2819   1.3015   1.3353   1.3633   1.4155   1.4320
  1.4518   1.4550   1.4828   1.4966   1.5272   1.5610   1.5924   1.6452
  1.7307   1.7929   1.9069   1.9521   2.0415   2.2681   2.3167   2.4329
  2.4584   2.5820   2.6203   2.6428   2.6883   2.7763   2.8114   2.8447
  2.8759   2.8883   2.9327   3.0022   3.0200   3.0765   3.0818   3.0864
  3.0939   3.1101   3.1410   3.2142   3.2518   3.3075   3.3302   3.3470
  3.3690   3.3938   3.4113   3.4280   3.4315   3.4874   3.5190   3.5533
  3.5702   3.6019   3.6399   3.6570   3.6929   3.7283   3.7764   3.8126
  3.8380   3.8743   3.9046   3.9400   3.9459   3.9764   4.0698   4.0772
  4.1248   4.1450   4.1866   4.1972   4.2266   4.2328   4.2796   4.3131
  4.3359   4.3615   4.4279   4.4573   4.5015   4.5432   4.6132   4.7607
  4.7675   4.8100   4.8717   4.9597   5.0064   5.0246   5.0943   5.1375
  5.1501   5.1875   5.2156   5.2884   5.3450   5.3725   5.4295   5.4448
  5.6037   5.7468   5.8119   5.8393   6.0298   6.1300   6.2703   6.3295
  6.4855   6.6410   6.7162   6.9152   7.1530   7.1802   7.3868   7.6671
  7.8012   8.1533  24.9989  25.3111  50.4386
 --------------------------------------------------------------
 
 -----------------------------------------------------------------
                    Cartesian Multipole Moments
 -----------------------------------------------------------------
    Charge (ESU x 10^10)
                -0.0000
    Dipole Moment (Debye)
         X       0.4752      Y       0.8818      Z      -1.2910
       Tot       1.6341
    Quadrupole Moments (Debye-Ang)
        XX     -24.5351     XY      -3.5808     YY     -19.0295
        XZ       3.2741     YZ       1.2162     ZZ     -20.6716
    Octopole Moments (Debye-Ang^2)
       XXX     305.6984    XXY      -1.7168    XYY      88.0489
       YYY     -34.9972    XXZ     -10.9270    XYZ      -5.6873
       YYZ      -0.9257    XZZ      89.2421    YZZ     -10.4908
       ZZZ     -11.0513
    Hexadecapole Moments (Debye-Ang^3)
      XXXX   -2828.4395   XXXY     167.6048   XXYY    -454.7918
      XYYY     171.4916   YYYY    -115.9647   XXXZ      44.3703
      XXYZ      27.0842   XYYZ      -1.5743   YYYZ       3.1108
      XXZZ    -418.0479   XYZZ      51.3359   YYZZ     -24.9744
      XZZZ      32.2960   YZZZ      -0.2006   ZZZZ     -48.2139
 -----------------------------------------------------------------
Archival summary:
1\1\centos77-c1\SP\ProcedureUnspecified\BasisUnspecified\126\shihchen\WedJul2900:37:312020WedJul2900:37:312020\0\\#,ProcedureUnspecified,BasisUnspecified,\\0,1\C\H,1,1.08131\H,1,1.08201,2,115.323\C,1,1.40583,2,131.082,3,-158.296,0\H,4,1.08066,1,129.094,2,148.845,0\H,4,1.08305,1,107.181,2,-0.132757,0\H,4,1.42356,1,73.2855,2,-98.7849,0\O,7,1.24655,4,129.078,1,-5.06697,0\H,8,0.963174,7,118.67,4,-109.293,0\\\@

 Total job time:  17.15s(wall), 88.64s(cpu) 
 Wed Jul 29 00:37:31 2020

        *************************************************************
        *                                                           *
        *  Thank you very much for using Q-Chem.  Have a nice day.  *
        *                                                           *
        *************************************************************


