                  Welcome to Q-Chem
     A Quantum Leap Into The Future Of Chemistry


 Q-Chem 5.3 (devel), Q-Chem, Inc., Pleasanton, CA (2020)

 Yihan Shao,  Zhengting Gan,  E. Epifanovsky,  A. T. B. Gilbert,  M. Wormit,  
 J. Kussmann,  A. W. Lange,  A. Behn,  Jia Deng,  Xintian Feng,  D. Ghosh,  
 M. Goldey,  P. R. Horn,  L. D. Jacobson,  I. Kaliman,  T. Kus,  A. Landau,  
 Jie Liu,  E. I. Proynov,  R. M. Richard,  R. P. Steele,  E. J. Sundstrom,  
 H. L. Woodcock III,  P. M. Zimmerman,  D. Zuev,  B. Alam,  B. Albrecht,  
 E. Alguire,  S. A. Baeppler,  D. Barton,  Z. Benda,  Y. A. Bernard,  
 E. J. Berquist,  K. B. Bravaya,  H. Burton,  K. Carter-Fenk,  D. Casanova,  
 Chun-Min Chang,  Yunqing Chen,  A. Chien,  K. D. Closser,  M. P. Coons,  
 S. Coriani,  S. Dasgupta,  A. L. Dempwolff,  M. Diedenhofen,  Hainam Do,  
 R. G. Edgar,  Po-Tung Fang,  S. Faraji,  S. Fatehi,  Qingguo Feng,  
 J. Fosso-Tande,  J. Gayvert,  Qinghui Ge,  A. Ghysels,  G. Gidofalvi,  
 J. Gomes,  J. Gonthier,  A. Gunina,  D. Hait,  M. W. D. Hanson-Heine,  
 P. H. P. Harbach,  A. W. Hauser,  M. F. Herbst,  J. E. Herr,  
 E. G. Hohenstein,  Z. C. Holden,  Kerwin Hui,  B. C. Huynh,  T.-C. Jagau,  
 Hyunjun Ji,  B. Kaduk,  K. Khistyaev,  Jaehoon Kim,  P. Klunzinger,  K. Koh,  
 D. Kosenkov,  L. Koulias,  T. Kowalczyk,  C. M. Krauter,  A. Kunitsa,  
 Ka Un Lao,  A. Laurent,  K. V. Lawler,  Joonho Lee,  D. Lefrancois,  
 S. Lehtola,  D. S. Levine,  Yi-Pei Li,  You-Sheng Lin,  Fenglai Liu,  
 Kuan-Yu Liu,  E. Livshits,  M. Loipersberger,  A. Luenser,  P. Manohar,  
 E. Mansoor,  S. F. Manzer,  Shan-Ping Mao,  Yuezhi Mao,  N. Mardirossian,  
 A. V. Marenich,  T. Markovich,  L. A. Martinez-Martinez,  S. A. Maurer,  
 N. J. Mayhall,  S. C. McKenzie,  J.-M. Mewes,  P. Morgante,  A. F. Morrison,  
 J. W. Mullinax,  K. Nanda,  T. S. Nguyen-Beck,  R. Olivares-Amaya,  
 K. J. Oosterbaan,  J. A. Parkhill,  S. K. Paul,  F. Pavosevic,  Zheng Pei,  
 T. M. Perrine,  F. Plasser,  P. Pokhilko,  S. Prager,  A. Prociuk,  
 E. Ramos,  B. Rana,  D. R. Rehn,  F. Rob,  M. Scheurer,  M. Schneider,  
 N. Sergueev,  S. M. Sharada,  S. Sharma,  D. W. Small,  T. Stauch,  
 C. J. Stein,  T. Stein,  Yu-Chuan Su,  S. P. Veccham,  Zhen Tao,  
 A. J. W. Thom,  A. Tkatchenko,  T. Tsuchimochi,  N. M. Tubman,  L. Vogt,  
 M. L. Vidal,  O. Vydrov,  M. A. Watson,  J. Wenzel,  M. de Wergifosse,  
 T. A. Wesolowski,  A. White,  J. Witte,  A. Yamada,  Jun Yang,  K. Yao,  
 S. Yeganeh,  S. R. Yost,  Zhi-Qiang You,  A. Zech,  Igor Ying Zhang,  
 Xing Zhang,  Yan Zhao,  Ying Zhu,  B. R. Brooks,  G. K. L. Chan,  
 C. J. Cramer,  M. S. Gordon,  W. J. Hehre,  A. Klamt,  M. W. Schmidt,  
 C. D. Sherrill,  D. G. Truhlar,  A. Aspuru-Guzik,  R. Baer,  A. T. Bell,  
 N. A. Besley,  Jeng-Da Chai,  A. E. DePrince, III,  R. A. DiStasio Jr.,  
 A. Dreuw,  B. D. Dunietz,  T. R. Furlani,  Chao-Ping Hsu,  Yousung Jung,  
 Jing Kong,  D. S. Lambrecht,  WanZhen Liang,  C. Ochsenfeld,  
 V. A. Rassolov,  L. V. Slipchenko,  J. E. Subotnik,  T. Van Voorhis,  
 J. M. Herbert,  A. I. Krylov,  P. M. W. Gill,  M. Head-Gordon

 Contributors to earlier versions of Q-Chem not listed above: 
 R. D. Adamson,  B. Austin,  J. Baker,  G. J. O. Beran,  K. Brandhorst,  
 S. T. Brown,  E. F. C. Byrd,  A. K. Chakraborty,  C.-L. Cheng,  
 Siu Hung Chien,  D. M. Chipman,  D. L. Crittenden,  H. Dachsel,  
 R. J. Doerksen,  A. D. Dutoi,  L. Fusti-Molnar,  W. A. Goddard III,  
 A. Golubeva-Zadorozhnaya,  S. R. Gwaltney,  G. Hawkins,  A. Heyden,  
 S. Hirata,  G. Kedziora,  F. J. Keil,  C. Kelley,  Jihan Kim,  R. A. King,  
 R. Z. Khaliullin,  P. P. Korambath,  W. Kurlancheek,  A. M. Lee,  M. S. Lee,  
 S. V. Levchenko,  Ching Yeh Lin,  D. Liotard,  R. C. Lochan,  I. Lotan,  
 P. E. Maslen,  N. Nair,  D. P. O'Neill,  D. Neuhauser,  E. Neuscamman,  
 C. M. Oana,  R. Olson,  B. Peters,  R. Peverati,  P. A. Pieniazek,  
 Y. M. Rhee,  J. Ritchie,  M. A. Rohrdanz,  E. Rosta,  N. J. Russ,  
 H. F. Schaefer III,  N. E. Schultz,  N. Shenvi,  A. C. Simmonett,  A. Sodt,  
 D. Stuck,  K. S. Thanthiriwatte,  V. Vanovschi,  Tao Wang,  A. Warshel,  
 C. F. Williams,  Q. Wu,  X. Xu,  W. Zhang

 Please cite Q-Chem as follows:
 Y. Shao et al., Mol. Phys. 113, 184-215 (2015)
 DOI: 10.1080/00268976.2014.952696

 Q-Chem 5.3.0 for Intel X86 EM64T Linux

 Parts of Q-Chem use Armadillo 9.800.1 (Horizon Scraper).
 http://arma.sourceforge.net/

 Q-Chem begins on Wed Jul 29 00:41:28 2020  

Host: centos77-c1
0

     Scratch files written to /tmp/30084.centos77-h1/qchem30385//
Processing $rem in /opt/qchem-5.3.0-intel2020u1//config/preferences:
Processing $rem in /home/shihchengli/.qchemrc:

Checking the input file for inconsistencies... 	...done.

--------------------------------------------------------------
User input:
--------------------------------------------------------------
$rem
   JOBTYPE  sp
   EXCHANGE   omegaB97X-D
   BASIS   6-311+G(2df,2pd)
   UNRESTRICTED   False
   max_scf_cycles   250
   geom_opt_max_cycles   1500
   basis2 6-31G*
   scf_algorithm rca_diis
   SYM_IGNORE  TRUE
   print_input   true
   geom_opt_dmax   80
   pop_mulliken false
   XC_GRID 000075000302
$end

$molecule
0 1
C       -5.4911362634     0.5849723693     -0.0674246101
C       -4.3518368672     1.3966826438     0.0671912447
H       -5.9983875565     0.3328660339     -0.9927089019
H       -6.3482888179     0.5554473258     0.5954064669
H       -4.4384927816     -0.2913695767     0.2956561808
O       -3.2647245630     0.0038404966     0.5973995501
H       -4.2863584461     1.8931123711     1.0221370472
H       -3.8831349345     1.6399303652     -0.8744069710
H       -2.6183721671     -0.2523447720     -0.0703598435
$end
--------------------------------------------------------------
 ----------------------------------------------------------------
             Standard Nuclear Orientation (Angstroms)
    I     Atom           X                Y                Z
 ----------------------------------------------------------------
    1      C      -5.4911362634     0.5849723693    -0.0674246101
    2      C      -4.3518368672     1.3966826438     0.0671912447
    3      H      -5.9983875565     0.3328660339    -0.9927089019
    4      H      -6.3482888179     0.5554473258     0.5954064669
    5      H      -4.4384927816    -0.2913695767     0.2956561808
    6      O      -3.2647245630     0.0038404966     0.5973995501
    7      H      -4.2863584461     1.8931123711     1.0221370472
    8      H      -3.8831349345     1.6399303652    -0.8744069710
    9      H      -2.6183721671    -0.2523447720    -0.0703598435
 ----------------------------------------------------------------
 Nuclear Repulsion Energy =          79.59489620 hartrees
 There are       13 alpha and       13 beta electrons
 Requested basis set is 6-311+G(2df,2pd)
 There are 60 shells and 186 basis functions

 Total QAlloc Memory Limit   2000 MB
 Mega-Array Size       188 MB
 MEM_STATIC part       192 MB

                       Distance Matrix (Angstroms)
             C (  1)   C (  2)   H (  3)   H (  4)   H (  5)   O (  6)
   C (  2)  1.405346
   H (  3)  1.084902  2.228502
   H (  4)  1.083941  2.229912  1.641366
   H (  5)  1.416990  1.705645  2.117269  2.110514
   O (  6)  2.395123  1.844707  3.179562  3.132514  1.247369
   H (  7)  2.085633  1.078263  3.070019  2.494595  2.307137  2.189403
   H (  8)  2.085623  1.079564  2.489318  3.068133  2.325379  2.285921
   H (  9)  2.992304  2.396479  3.552141  3.874023  1.856968  0.964005
             H (  7)   H (  8)
   H (  8)  1.955395
   H (  9)  2.928944  2.413881
 
 A cutoff of  1.0D-09 yielded   1775 shell pairs
 There are     17210 function pairs (     21375 Cartesian)
 Smallest overlap matrix eigenvalue = 8.69E-05

 Scale SEOQF with 1.000000e-02/1.000000e-01/1.000000e-01

 Standard Electronic Orientation quadrupole field applied
 Nucleus-field energy     =     0.0000000027 hartrees
 Requested basis set is 6-31G(d)
 There are 24 shells and 54 basis functions
 A cutoff of  1.0D-09 yielded    296 shell pairs
 There are      1547 function pairs (      1730 Cartesian)
 Smallest overlap matrix eigenvalue = 6.45E-03
 Guess from superposition of atomic densities
 Warning:  Energy on first SCF cycle will be non-variational
 SAD guess density has 26.000000 electrons
 Long-range K will be added via erf
 Coulomb attenuation parameter = 0.2 bohr**(-1)
 A restricted hybrid HF-DFT SCF calculation will be
 performed using Relaxed Constraint Minimization + Pulay DIIS
 Exchange:     0.2220 Hartree-Fock + 1.0000 wB97X-D + LR-HF
 Correlation:  1.0000 wB97X-D
 Using Euler-Maclaurin-Lebedev (75,302) quadrature formula
 Dispersion:   Grimme D
 SCF converges when DIIS error is below 1.0E-04
 using 6 threads for integral computing
 -------------------------------------------------------
 OpenMP Integral computing Module                
 Release: version 1.0, May 2013, Q-Chem Inc. Pittsburgh 
 -------------------------------------------------------
 using 6 threads for integral computing
 -------------------------------------------------------
 OpenMP Integral computing Module                
 Release: version 1.0, May 2013, Q-Chem Inc. Pittsburgh 
 -------------------------------------------------------
 ---------------------------------------
  Cycle       Energy         DIIS Error
 ---------------------------------------
    1    -155.2787745180      1.00E-01
    2    -154.7698456439      1.58E-02
    3    -154.8049955853      3.29E-03
    4    -154.8459449104      2.55E-03
    5    -154.8469364564      5.09E-04 Done RCA. Switching to DIIS
    6    -154.8482075652      3.13E-04
    7    -154.8482458409      4.17E-05 Convergence criterion met
 ---------------------------------------
 SCF time:  CPU 21.11 s  wall 3.54 s
 SCF   energy in the small basis set = -154.84824584
 Total energy in the small basis set = -154.84824584
 ----------------------------------------------------
  Cycle       Energy    
 ----------------------------------------------------
    1     -18.6759957621     -1.87E+01
 Long-range K will be added via erf
 Coulomb attenuation parameter = 0.2 bohr**(-1)
 A restricted hybrid HF-DFT SCF calculation will be
 performed using Relaxed Constraint Minimization + Pulay DIIS
 Exchange:     0.2220 Hartree-Fock + 1.0000 wB97X-D + LR-HF
 Correlation:  1.0000 wB97X-D
 Using Euler-Maclaurin-Lebedev (75,302) quadrature formula
 Dispersion:   Grimme D
 SCF converges when DIIS error is below 1.0E-05
 Basis2 calculation detected. Using small basis as guess for larger.
 SCFMinFind is unable to tell whether the solution found is close.
 Resetting ReadMinima to 0 and attempting to follow guess.
 SCFMinFind following SCF Guess.
 using 6 threads for integral computing
 -------------------------------------------------------
 OpenMP Integral computing Module                
 Release: version 1.0, May 2013, Q-Chem Inc. Pittsburgh 
 -------------------------------------------------------
 using 6 threads for integral computing
 -------------------------------------------------------
 OpenMP Integral computing Module                
 Release: version 1.0, May 2013, Q-Chem Inc. Pittsburgh 
 -------------------------------------------------------
 ---------------------------------------
  Cycle       Energy         DIIS Error
 ---------------------------------------
    1    -154.8743289790      5.97E-03
    2    -154.8710189519      4.37E-03
    3    -154.8918920040      9.92E-04 Done RCA. Switching to DIIS
    4    -154.9206008625      1.08E-03
    5    -154.9239965362      7.43E-05
    6    -154.9240242723      1.52E-05
    7    -154.9240263228      4.01E-06 Convergence criterion met
 ---------------------------------------
 SCF time:  CPU 63.88 s  wall 10.69 s
 SCF   energy in the final basis set = -154.92402632
 Total energy in the final basis set = -154.92402632
 
 --------------------------------------------------------------
 
                    Orbital Energies (a.u.)
 --------------------------------------------------------------
 
 Alpha MOs
 -- Occupied --
-19.2443 -10.3575 -10.2499  -1.0913  -0.8768  -0.6949  -0.6148  -0.5794
 -0.5150  -0.4523  -0.4291  -0.4253  -0.3042
 -- Virtual --
  0.0513   0.0682   0.0869   0.0960   0.1121   0.1300   0.1360   0.1488
  0.1759   0.1885   0.2153   0.2391   0.2519   0.2766   0.2877   0.2956
  0.3179   0.3278   0.3592   0.3980   0.4641   0.4691   0.4967   0.5493
  0.5684   0.5780   0.5934   0.6030   0.6133   0.6387   0.6481   0.6855
  0.7132   0.7364   0.7971   0.8295   0.8473   0.8556   0.9007   0.9355
  0.9752   1.0124   1.0911   1.1170   1.1241   1.1415   1.1604   1.1802
  1.2402   1.2564   1.2779   1.3007   1.3365   1.3478   1.3974   1.4249
  1.4439   1.4530   1.4660   1.4833   1.5186   1.5874   1.6338   1.6714
  1.7325   1.8060   1.9207   2.0012   2.0628   2.2642   2.3226   2.4320
  2.4643   2.5312   2.6271   2.6441   2.7030   2.7518   2.7638   2.8107
  2.8409   2.8913   2.9267   2.9495   2.9829   3.0171   3.0816   3.0934
  3.1366   3.1383   3.2079   3.2419   3.2587   3.2790   3.3017   3.3524
  3.3776   3.3991   3.4243   3.4657   3.4817   3.5009   3.5376   3.5527
  3.5685   3.5865   3.6049   3.6466   3.7048   3.7195   3.7405   3.8085
  3.8367   3.8559   3.8592   3.8839   3.8942   3.9491   4.0119   4.0868
  4.0938   4.1213   4.1567   4.2008   4.2318   4.2319   4.2557   4.3065
  4.3373   4.3800   4.4132   4.4976   4.5210   4.5743   4.6298   4.6728
  4.7366   4.8609   4.9013   4.9100   4.9321   4.9740   5.0411   5.0944
  5.1418   5.1822   5.2395   5.3748   5.4262   5.4660   5.4798   5.5132
  5.5927   5.7251   5.7791   5.8347   6.0367   6.0522   6.2927   6.4074
  6.5496   6.6296   6.7278   6.8862   7.1705   7.2287   7.4136   7.6300
  7.7729   8.1766  24.9611  25.3189  50.4406
 --------------------------------------------------------------
 
 -----------------------------------------------------------------
                    Cartesian Multipole Moments
 -----------------------------------------------------------------
    Charge (ESU x 10^10)
                -0.0000
    Dipole Moment (Debye)
         X       0.4134      Y       0.8904      Z      -1.4640
       Tot       1.7626
    Quadrupole Moments (Debye-Ang)
        XX     -23.7676     XY      -3.5763     YY     -19.3648
        XZ       3.4177     YZ       0.8010     ZZ     -20.9587
    Octopole Moments (Debye-Ang^2)
       XXX     293.7158    XXY      -1.8284    XYY      88.3503
       YYY     -37.0203    XXZ      -9.4136    XYZ      -4.2073
       YYZ      -2.1498    XZZ      90.8732    YZZ     -10.5650
       ZZZ     -11.6555
    Hexadecapole Moments (Debye-Ang^3)
      XXXX   -2683.6788   XXXY     166.5554   XXYY    -451.9073
      XYYY     177.9911   YYYY    -120.4099   XXXZ      29.9099
      XXYZ      21.7688   XYYZ       3.3931   YYYZ       1.5213
      XXZZ    -428.7767   XYZZ      51.4189   YYZZ     -24.6362
      XZZZ      35.2724   YZZZ       0.1626   ZZZZ     -48.3153
 -----------------------------------------------------------------
Archival summary:
1\1\centos77-c1\SP\ProcedureUnspecified\BasisUnspecified\126\shihchen\WedJul2900:41:462020WedJul2900:41:462020\0\\#,ProcedureUnspecified,BasisUnspecified,\\0,1\C\H,1,1.07826\H,1,1.07956,2,129.967\C,1,1.40535,2,113.577,3,-158.935,0\H,4,1.08394,1,126.743,2,11.2631,0\H,4,1.0849,1,126.509,2,152.384,0\H,4,1.41699,1,74.3612,2,-97.8483,0\O,7,1.24737,4,127.927,1,4.71133,0\H,8,0.964005,7,113.607,4,-109.293,0\\\@

 Total job time:  17.47s(wall), 90.50s(cpu) 
 Wed Jul 29 00:41:46 2020

        *************************************************************
        *                                                           *
        *  Thank you very much for using Q-Chem.  Have a nice day.  *
        *                                                           *
        *************************************************************


