                  Welcome to Q-Chem
     A Quantum Leap Into The Future Of Chemistry


 Q-Chem 5.3 (devel), Q-Chem, Inc., Pleasanton, CA (2020)

 Yihan Shao,  Zhengting Gan,  E. Epifanovsky,  A. T. B. Gilbert,  M. Wormit,  
 J. Kussmann,  A. W. Lange,  A. Behn,  Jia Deng,  Xintian Feng,  D. Ghosh,  
 M. Goldey,  P. R. Horn,  L. D. Jacobson,  I. Kaliman,  T. Kus,  A. Landau,  
 Jie Liu,  E. I. Proynov,  R. M. Richard,  R. P. Steele,  E. J. Sundstrom,  
 H. L. Woodcock III,  P. M. Zimmerman,  D. Zuev,  B. Alam,  B. Albrecht,  
 E. Alguire,  S. A. Baeppler,  D. Barton,  Z. Benda,  Y. A. Bernard,  
 E. J. Berquist,  K. B. Bravaya,  H. Burton,  K. Carter-Fenk,  D. Casanova,  
 Chun-Min Chang,  Yunqing Chen,  A. Chien,  K. D. Closser,  M. P. Coons,  
 S. Coriani,  S. Dasgupta,  A. L. Dempwolff,  M. Diedenhofen,  Hainam Do,  
 R. G. Edgar,  Po-Tung Fang,  S. Faraji,  S. Fatehi,  Qingguo Feng,  
 J. Fosso-Tande,  J. Gayvert,  Qinghui Ge,  A. Ghysels,  G. Gidofalvi,  
 J. Gomes,  J. Gonthier,  A. Gunina,  D. Hait,  M. W. D. Hanson-Heine,  
 P. H. P. Harbach,  A. W. Hauser,  M. F. Herbst,  J. E. Herr,  
 E. G. Hohenstein,  Z. C. Holden,  Kerwin Hui,  B. C. Huynh,  T.-C. Jagau,  
 Hyunjun Ji,  B. Kaduk,  K. Khistyaev,  Jaehoon Kim,  P. Klunzinger,  K. Koh,  
 D. Kosenkov,  L. Koulias,  T. Kowalczyk,  C. M. Krauter,  A. Kunitsa,  
 Ka Un Lao,  A. Laurent,  K. V. Lawler,  Joonho Lee,  D. Lefrancois,  
 S. Lehtola,  D. S. Levine,  Yi-Pei Li,  You-Sheng Lin,  Fenglai Liu,  
 Kuan-Yu Liu,  E. Livshits,  M. Loipersberger,  A. Luenser,  P. Manohar,  
 E. Mansoor,  S. F. Manzer,  Shan-Ping Mao,  Yuezhi Mao,  N. Mardirossian,  
 A. V. Marenich,  T. Markovich,  L. A. Martinez-Martinez,  S. A. Maurer,  
 N. J. Mayhall,  S. C. McKenzie,  J.-M. Mewes,  P. Morgante,  A. F. Morrison,  
 J. W. Mullinax,  K. Nanda,  T. S. Nguyen-Beck,  R. Olivares-Amaya,  
 K. J. Oosterbaan,  J. A. Parkhill,  S. K. Paul,  F. Pavosevic,  Zheng Pei,  
 T. M. Perrine,  F. Plasser,  P. Pokhilko,  S. Prager,  A. Prociuk,  
 E. Ramos,  B. Rana,  D. R. Rehn,  F. Rob,  M. Scheurer,  M. Schneider,  
 N. Sergueev,  S. M. Sharada,  S. Sharma,  D. W. Small,  T. Stauch,  
 C. J. Stein,  T. Stein,  Yu-Chuan Su,  S. P. Veccham,  Zhen Tao,  
 A. J. W. Thom,  A. Tkatchenko,  T. Tsuchimochi,  N. M. Tubman,  L. Vogt,  
 M. L. Vidal,  O. Vydrov,  M. A. Watson,  J. Wenzel,  M. de Wergifosse,  
 T. A. Wesolowski,  A. White,  J. Witte,  A. Yamada,  Jun Yang,  K. Yao,  
 S. Yeganeh,  S. R. Yost,  Zhi-Qiang You,  A. Zech,  Igor Ying Zhang,  
 Xing Zhang,  Yan Zhao,  Ying Zhu,  B. R. Brooks,  G. K. L. Chan,  
 C. J. Cramer,  M. S. Gordon,  W. J. Hehre,  A. Klamt,  M. W. Schmidt,  
 C. D. Sherrill,  D. G. Truhlar,  A. Aspuru-Guzik,  R. Baer,  A. T. Bell,  
 N. A. Besley,  Jeng-Da Chai,  A. E. DePrince, III,  R. A. DiStasio Jr.,  
 A. Dreuw,  B. D. Dunietz,  T. R. Furlani,  Chao-Ping Hsu,  Yousung Jung,  
 Jing Kong,  D. S. Lambrecht,  WanZhen Liang,  C. Ochsenfeld,  
 V. A. Rassolov,  L. V. Slipchenko,  J. E. Subotnik,  T. Van Voorhis,  
 J. M. Herbert,  A. I. Krylov,  P. M. W. Gill,  M. Head-Gordon

 Contributors to earlier versions of Q-Chem not listed above: 
 R. D. Adamson,  B. Austin,  J. Baker,  G. J. O. Beran,  K. Brandhorst,  
 S. T. Brown,  E. F. C. Byrd,  A. K. Chakraborty,  C.-L. Cheng,  
 Siu Hung Chien,  D. M. Chipman,  D. L. Crittenden,  H. Dachsel,  
 R. J. Doerksen,  A. D. Dutoi,  L. Fusti-Molnar,  W. A. Goddard III,  
 A. Golubeva-Zadorozhnaya,  S. R. Gwaltney,  G. Hawkins,  A. Heyden,  
 S. Hirata,  G. Kedziora,  F. J. Keil,  C. Kelley,  Jihan Kim,  R. A. King,  
 R. Z. Khaliullin,  P. P. Korambath,  W. Kurlancheek,  A. M. Lee,  M. S. Lee,  
 S. V. Levchenko,  Ching Yeh Lin,  D. Liotard,  R. C. Lochan,  I. Lotan,  
 P. E. Maslen,  N. Nair,  D. P. O'Neill,  D. Neuhauser,  E. Neuscamman,  
 C. M. Oana,  R. Olson,  B. Peters,  R. Peverati,  P. A. Pieniazek,  
 Y. M. Rhee,  J. Ritchie,  M. A. Rohrdanz,  E. Rosta,  N. J. Russ,  
 H. F. Schaefer III,  N. E. Schultz,  N. Shenvi,  A. C. Simmonett,  A. Sodt,  
 D. Stuck,  K. S. Thanthiriwatte,  V. Vanovschi,  Tao Wang,  A. Warshel,  
 C. F. Williams,  Q. Wu,  X. Xu,  W. Zhang

 Please cite Q-Chem as follows:
 Y. Shao et al., Mol. Phys. 113, 184-215 (2015)
 DOI: 10.1080/00268976.2014.952696

 Q-Chem 5.3.0 for Intel X86 EM64T Linux

 Parts of Q-Chem use Armadillo 9.800.1 (Horizon Scraper).
 http://arma.sourceforge.net/

 Q-Chem begins on Wed Jul 29 00:25:21 2020  

Host: centos77-c1
0

     Scratch files written to /tmp/30084.centos77-h1/qchem27907//
Processing $rem in /opt/qchem-5.3.0-intel2020u1//config/preferences:
Processing $rem in /home/shihchengli/.qchemrc:

Checking the input file for inconsistencies... 	...done.

--------------------------------------------------------------
User input:
--------------------------------------------------------------
$rem
   JOBTYPE  sp
   EXCHANGE   omegaB97X-D
   BASIS   6-311+G(2df,2pd)
   UNRESTRICTED   False
   max_scf_cycles   250
   geom_opt_max_cycles   1500
   basis2 6-31G*
   scf_algorithm rca_diis
   SYM_IGNORE  TRUE
   print_input   true
   geom_opt_dmax   80
   pop_mulliken false
   XC_GRID 000075000302
$end

$molecule
0 1
C       -5.5463086191     0.5479655282     -0.0406794534
C       -4.3997056711     1.3626858073     0.0561242539
H       -5.9146529779     0.3243779272     -1.0345963201
H       -6.2918299810     0.6088633768     0.7401096656
H       -4.4977918874     -0.3976047011     0.1775470597
O       -3.3942540725     -0.1230055218     0.5017113846
H       -4.2110628477     1.9664994435     0.9331281549
H       -3.8992407822     1.7051683996     -0.8418217246
H       -2.5258855584     -0.1318130027     0.0813671426
$end
--------------------------------------------------------------
 ----------------------------------------------------------------
             Standard Nuclear Orientation (Angstroms)
    I     Atom           X                Y                Z
 ----------------------------------------------------------------
    1      C      -5.5463086191     0.5479655282    -0.0406794534
    2      C      -4.3997056711     1.3626858073     0.0561242539
    3      H      -5.9146529779     0.3243779272    -1.0345963201
    4      H      -6.2918299810     0.6088633768     0.7401096656
    5      H      -4.4977918874    -0.3976047011     0.1775470597
    6      O      -3.3942540725    -0.1230055218     0.5017113846
    7      H      -4.2110628477     1.9664994435     0.9331281549
    8      H      -3.8992407822     1.7051683996    -0.8418217246
    9      H      -2.5258855584    -0.1318130027     0.0813671426
 ----------------------------------------------------------------
 Nuclear Repulsion Energy =          79.91362242 hartrees
 There are       13 alpha and       13 beta electrons
 Requested basis set is 6-311+G(2df,2pd)
 There are 60 shells and 186 basis functions

 Total QAlloc Memory Limit   2000 MB
 Mega-Array Size       188 MB
 MEM_STATIC part       192 MB

                       Distance Matrix (Angstroms)
             C (  1)   C (  2)   H (  3)   H (  4)   H (  5)   O (  6)
   C (  2)  1.409907
   H (  3)  1.083300  2.136076
   H (  4)  1.081269  2.148539  1.836512
   H (  5)  1.428675  1.767198  1.999511  2.132610
   O (  6)  2.318562  1.848448  2.985432  2.998068  1.182490
   H (  7)  2.177940  1.081348  3.077454  2.491992  2.498420  2.284585
   H (  8)  2.166513  1.083543  2.450639  3.070647  2.412267  2.324288
   H (  9)  3.098379  2.396949  3.596836  3.894211  1.992062  0.964796
             H (  7)   H (  8)
   H (  8)  1.820982
   H (  9)  2.822806  2.472425
 
 A cutoff of  1.0D-09 yielded   1780 shell pairs
 There are     17273 function pairs (     21464 Cartesian)
 Smallest overlap matrix eigenvalue = 8.78E-05

 Scale SEOQF with 1.000000e-02/1.000000e-01/1.000000e-01

 Standard Electronic Orientation quadrupole field applied
 Nucleus-field energy     =     0.0000000028 hartrees
 Requested basis set is 6-31G(d)
 There are 24 shells and 54 basis functions
 A cutoff of  1.0D-09 yielded    298 shell pairs
 There are      1549 function pairs (      1732 Cartesian)
 Smallest overlap matrix eigenvalue = 6.83E-03
 Guess from superposition of atomic densities
 Warning:  Energy on first SCF cycle will be non-variational
 SAD guess density has 26.000000 electrons
 Long-range K will be added via erf
 Coulomb attenuation parameter = 0.2 bohr**(-1)
 A restricted hybrid HF-DFT SCF calculation will be
 performed using Relaxed Constraint Minimization + Pulay DIIS
 Exchange:     0.2220 Hartree-Fock + 1.0000 wB97X-D + LR-HF
 Correlation:  1.0000 wB97X-D
 Using Euler-Maclaurin-Lebedev (75,302) quadrature formula
 Dispersion:   Grimme D
 SCF converges when DIIS error is below 1.0E-04
 using 6 threads for integral computing
 -------------------------------------------------------
 OpenMP Integral computing Module                
 Release: version 1.0, May 2013, Q-Chem Inc. Pittsburgh 
 -------------------------------------------------------
 using 6 threads for integral computing
 -------------------------------------------------------
 OpenMP Integral computing Module                
 Release: version 1.0, May 2013, Q-Chem Inc. Pittsburgh 
 -------------------------------------------------------
 ---------------------------------------
  Cycle       Energy         DIIS Error
 ---------------------------------------
    1    -155.2788755543      9.97E-02
    2    -154.7793828959      1.54E-02
    3    -154.8134579205      3.05E-03
    4    -154.8517129213      2.43E-03
    5    -154.8525942825      4.37E-04 Done RCA. Switching to DIIS
    6    -154.8537253096      2.80E-04
    7    -154.8537572052      4.30E-05 Convergence criterion met
 ---------------------------------------
 SCF time:  CPU 19.29 s  wall 3.23 s
 SCF   energy in the small basis set = -154.85375721
 Total energy in the small basis set = -154.85375721
 ----------------------------------------------------
  Cycle       Energy    
 ----------------------------------------------------
    1     -18.6815322440     -1.87E+01
 Long-range K will be added via erf
 Coulomb attenuation parameter = 0.2 bohr**(-1)
 A restricted hybrid HF-DFT SCF calculation will be
 performed using Relaxed Constraint Minimization + Pulay DIIS
 Exchange:     0.2220 Hartree-Fock + 1.0000 wB97X-D + LR-HF
 Correlation:  1.0000 wB97X-D
 Using Euler-Maclaurin-Lebedev (75,302) quadrature formula
 Dispersion:   Grimme D
 SCF converges when DIIS error is below 1.0E-05
 Basis2 calculation detected. Using small basis as guess for larger.
 SCFMinFind is unable to tell whether the solution found is close.
 Resetting ReadMinima to 0 and attempting to follow guess.
 SCFMinFind following SCF Guess.
 using 6 threads for integral computing
 -------------------------------------------------------
 OpenMP Integral computing Module                
 Release: version 1.0, May 2013, Q-Chem Inc. Pittsburgh 
 -------------------------------------------------------
 using 6 threads for integral computing
 -------------------------------------------------------
 OpenMP Integral computing Module                
 Release: version 1.0, May 2013, Q-Chem Inc. Pittsburgh 
 -------------------------------------------------------
 ---------------------------------------
  Cycle       Energy         DIIS Error
 ---------------------------------------
    1    -154.8811977116      5.96E-03
    2    -154.8806883989      4.23E-03
    3    -154.9005270689      9.08E-04 Done RCA. Switching to DIIS
    4    -154.9276000602      9.50E-04
    5    -154.9302484834      7.33E-05
    6    -154.9302758694      1.38E-05
    7    -154.9302777025      5.17E-06 Convergence criterion met
 ---------------------------------------
 SCF time:  CPU 59.08 s  wall 9.88 s
 SCF   energy in the final basis set = -154.93027770
 Total energy in the final basis set = -154.93027770
 
 --------------------------------------------------------------
 
                    Orbital Energies (a.u.)
 --------------------------------------------------------------
 
 Alpha MOs
 -- Occupied --
-19.2477 -10.3507 -10.2461  -1.0959  -0.8694  -0.6965  -0.6329  -0.5689
 -0.4948  -0.4466  -0.4437  -0.4273  -0.3027
 -- Virtual --
  0.0520   0.0666   0.0903   0.0980   0.1151   0.1280   0.1398   0.1436
  0.1785   0.1899   0.2184   0.2405   0.2565   0.2718   0.2841   0.2938
  0.3317   0.3401   0.3572   0.3889   0.4623   0.4685   0.4864   0.5544
  0.5647   0.5776   0.5997   0.6106   0.6207   0.6332   0.6544   0.6900
  0.6965   0.7438   0.8109   0.8343   0.8552   0.8662   0.9078   0.9473
  0.9981   1.0289   1.0826   1.1014   1.1139   1.1615   1.1769   1.2053
  1.2316   1.2479   1.2835   1.3051   1.3292   1.3480   1.4101   1.4403
  1.4539   1.4742   1.4858   1.5016   1.5132   1.5914   1.5996   1.6377
  1.7179   1.7586   1.8994   1.9424   2.0594   2.2494   2.3099   2.4130
  2.4739   2.5654   2.6381   2.6747   2.7096   2.7422   2.7539   2.8159
  2.8600   2.9072   2.9438   2.9594   2.9997   3.0437   3.0692   3.0873
  3.1235   3.1364   3.1583   3.2409   3.2506   3.3127   3.3470   3.3526
  3.3826   3.4036   3.4187   3.4434   3.4813   3.5126   3.5433   3.5628
  3.5847   3.5963   3.6080   3.6689   3.7055   3.7576   3.7663   3.8231
  3.8349   3.8615   3.8918   3.9223   3.9661   3.9876   4.0442   4.0589
  4.1062   4.1468   4.1663   4.2016   4.2267   4.2703   4.2965   4.3034
  4.3572   4.3800   4.4664   4.4906   4.5510   4.6107   4.6668   4.7049
  4.7647   4.8007   4.8582   4.9658   4.9942   5.0224   5.0537   5.1011
  5.1601   5.2217   5.2546   5.2972   5.3481   5.3769   5.4187   5.4273
  5.5549   5.5843   5.6285   5.8564   6.1275   6.1870   6.2386   6.2955
  6.4757   6.5771   6.6985   7.1171   7.1335   7.1712   7.4998   7.5584
  7.7870   8.2341  24.9509  25.3197  50.4496
 --------------------------------------------------------------
 
 -----------------------------------------------------------------
                    Cartesian Multipole Moments
 -----------------------------------------------------------------
    Charge (ESU x 10^10)
                 0.0000
    Dipole Moment (Debye)
         X       1.1582      Y       1.2544      Z      -1.1058
       Tot       2.0342
    Quadrupole Moments (Debye-Ang)
        XX     -29.3123     XY      -4.2478     YY     -19.2911
        XZ       2.8367     YZ       0.8878     ZZ     -20.8861
    Octopole Moments (Debye-Ang^2)
       XXX     333.4132    XXY      -0.6885    XYY      89.4760
       YYY     -33.3082    XXZ      -7.8285    XYZ      -4.5988
       YYZ      -1.8230    XZZ      91.5392    YZZ      -9.9332
       ZZZ     -10.6153
    Hexadecapole Moments (Debye-Ang^3)
      XXXX   -2982.1660   XXXY     164.7451   XXYY    -462.2503
      XYYY     165.6620   YYYY    -117.0745   XXXZ      18.1135
      XXYZ      24.7099   XYYZ       3.3714   YYYZ       2.4205
      XXZZ    -432.5200   XYZZ      49.4263   YYZZ     -24.7056
      XZZZ      34.9113   YZZZ       0.9881   ZZZZ     -44.6094
 -----------------------------------------------------------------
Archival summary:
1\1\centos77-c1\SP\ProcedureUnspecified\BasisUnspecified\126\shihchen\WedJul2900:25:372020WedJul2900:25:372020\0\\#,ProcedureUnspecified,BasisUnspecified,\\0,1\C\H,1,1.08135\H,1,1.08354,2,114.522\C,1,1.40991,2,121.347,3,-157.39,0\H,4,1.08127,1,118.594,2,5.97449,0\H,4,1.0833,1,117.308,2,153.651,0\H,4,1.42868,1,77.004,2,-106.378,0\O,7,1.18249,4,124.966,1,11.279,0\H,8,0.964796,7,135.923,4,-109.293,0\\\@

 Total job time:  16.09s(wall), 83.22s(cpu) 
 Wed Jul 29 00:25:37 2020

        *************************************************************
        *                                                           *
        *  Thank you very much for using Q-Chem.  Have a nice day.  *
        *                                                           *
        *************************************************************


