                  Welcome to Q-Chem
     A Quantum Leap Into The Future Of Chemistry


 Q-Chem 5.3 (devel), Q-Chem, Inc., Pleasanton, CA (2020)

 Yihan Shao,  Zhengting Gan,  E. Epifanovsky,  A. T. B. Gilbert,  M. Wormit,  
 J. Kussmann,  A. W. Lange,  A. Behn,  Jia Deng,  Xintian Feng,  D. Ghosh,  
 M. Goldey,  P. R. Horn,  L. D. Jacobson,  I. Kaliman,  T. Kus,  A. Landau,  
 Jie Liu,  E. I. Proynov,  R. M. Richard,  R. P. Steele,  E. J. Sundstrom,  
 H. L. Woodcock III,  P. M. Zimmerman,  D. Zuev,  B. Alam,  B. Albrecht,  
 E. Alguire,  S. A. Baeppler,  D. Barton,  Z. Benda,  Y. A. Bernard,  
 E. J. Berquist,  K. B. Bravaya,  H. Burton,  K. Carter-Fenk,  D. Casanova,  
 Chun-Min Chang,  Yunqing Chen,  A. Chien,  K. D. Closser,  M. P. Coons,  
 S. Coriani,  S. Dasgupta,  A. L. Dempwolff,  M. Diedenhofen,  Hainam Do,  
 R. G. Edgar,  Po-Tung Fang,  S. Faraji,  S. Fatehi,  Qingguo Feng,  
 J. Fosso-Tande,  J. Gayvert,  Qinghui Ge,  A. Ghysels,  G. Gidofalvi,  
 J. Gomes,  J. Gonthier,  A. Gunina,  D. Hait,  M. W. D. Hanson-Heine,  
 P. H. P. Harbach,  A. W. Hauser,  M. F. Herbst,  J. E. Herr,  
 E. G. Hohenstein,  Z. C. Holden,  Kerwin Hui,  B. C. Huynh,  T.-C. Jagau,  
 Hyunjun Ji,  B. Kaduk,  K. Khistyaev,  Jaehoon Kim,  P. Klunzinger,  K. Koh,  
 D. Kosenkov,  L. Koulias,  T. Kowalczyk,  C. M. Krauter,  A. Kunitsa,  
 Ka Un Lao,  A. Laurent,  K. V. Lawler,  Joonho Lee,  D. Lefrancois,  
 S. Lehtola,  D. S. Levine,  Yi-Pei Li,  You-Sheng Lin,  Fenglai Liu,  
 Kuan-Yu Liu,  E. Livshits,  M. Loipersberger,  A. Luenser,  P. Manohar,  
 E. Mansoor,  S. F. Manzer,  Shan-Ping Mao,  Yuezhi Mao,  N. Mardirossian,  
 A. V. Marenich,  T. Markovich,  L. A. Martinez-Martinez,  S. A. Maurer,  
 N. J. Mayhall,  S. C. McKenzie,  J.-M. Mewes,  P. Morgante,  A. F. Morrison,  
 J. W. Mullinax,  K. Nanda,  T. S. Nguyen-Beck,  R. Olivares-Amaya,  
 K. J. Oosterbaan,  J. A. Parkhill,  S. K. Paul,  F. Pavosevic,  Zheng Pei,  
 T. M. Perrine,  F. Plasser,  P. Pokhilko,  S. Prager,  A. Prociuk,  
 E. Ramos,  B. Rana,  D. R. Rehn,  F. Rob,  M. Scheurer,  M. Schneider,  
 N. Sergueev,  S. M. Sharada,  S. Sharma,  D. W. Small,  T. Stauch,  
 C. J. Stein,  T. Stein,  Yu-Chuan Su,  S. P. Veccham,  Zhen Tao,  
 A. J. W. Thom,  A. Tkatchenko,  T. Tsuchimochi,  N. M. Tubman,  L. Vogt,  
 M. L. Vidal,  O. Vydrov,  M. A. Watson,  J. Wenzel,  M. de Wergifosse,  
 T. A. Wesolowski,  A. White,  J. Witte,  A. Yamada,  Jun Yang,  K. Yao,  
 S. Yeganeh,  S. R. Yost,  Zhi-Qiang You,  A. Zech,  Igor Ying Zhang,  
 Xing Zhang,  Yan Zhao,  Ying Zhu,  B. R. Brooks,  G. K. L. Chan,  
 C. J. Cramer,  M. S. Gordon,  W. J. Hehre,  A. Klamt,  M. W. Schmidt,  
 C. D. Sherrill,  D. G. Truhlar,  A. Aspuru-Guzik,  R. Baer,  A. T. Bell,  
 N. A. Besley,  Jeng-Da Chai,  A. E. DePrince, III,  R. A. DiStasio Jr.,  
 A. Dreuw,  B. D. Dunietz,  T. R. Furlani,  Chao-Ping Hsu,  Yousung Jung,  
 Jing Kong,  D. S. Lambrecht,  WanZhen Liang,  C. Ochsenfeld,  
 V. A. Rassolov,  L. V. Slipchenko,  J. E. Subotnik,  T. Van Voorhis,  
 J. M. Herbert,  A. I. Krylov,  P. M. W. Gill,  M. Head-Gordon

 Contributors to earlier versions of Q-Chem not listed above: 
 R. D. Adamson,  B. Austin,  J. Baker,  G. J. O. Beran,  K. Brandhorst,  
 S. T. Brown,  E. F. C. Byrd,  A. K. Chakraborty,  C.-L. Cheng,  
 Siu Hung Chien,  D. M. Chipman,  D. L. Crittenden,  H. Dachsel,  
 R. J. Doerksen,  A. D. Dutoi,  L. Fusti-Molnar,  W. A. Goddard III,  
 A. Golubeva-Zadorozhnaya,  S. R. Gwaltney,  G. Hawkins,  A. Heyden,  
 S. Hirata,  G. Kedziora,  F. J. Keil,  C. Kelley,  Jihan Kim,  R. A. King,  
 R. Z. Khaliullin,  P. P. Korambath,  W. Kurlancheek,  A. M. Lee,  M. S. Lee,  
 S. V. Levchenko,  Ching Yeh Lin,  D. Liotard,  R. C. Lochan,  I. Lotan,  
 P. E. Maslen,  N. Nair,  D. P. O'Neill,  D. Neuhauser,  E. Neuscamman,  
 C. M. Oana,  R. Olson,  B. Peters,  R. Peverati,  P. A. Pieniazek,  
 Y. M. Rhee,  J. Ritchie,  M. A. Rohrdanz,  E. Rosta,  N. J. Russ,  
 H. F. Schaefer III,  N. E. Schultz,  N. Shenvi,  A. C. Simmonett,  A. Sodt,  
 D. Stuck,  K. S. Thanthiriwatte,  V. Vanovschi,  Tao Wang,  A. Warshel,  
 C. F. Williams,  Q. Wu,  X. Xu,  W. Zhang

 Please cite Q-Chem as follows:
 Y. Shao et al., Mol. Phys. 113, 184-215 (2015)
 DOI: 10.1080/00268976.2014.952696

 Q-Chem 5.3.0 for Intel X86 EM64T Linux

 Parts of Q-Chem use Armadillo 9.800.1 (Horizon Scraper).
 http://arma.sourceforge.net/

 Q-Chem begins on Wed Jul 29 00:31:56 2020  

Host: centos77-c1
0

     Scratch files written to /tmp/30084.centos77-h1/qchem28976//
Processing $rem in /opt/qchem-5.3.0-intel2020u1//config/preferences:
Processing $rem in /home/shihchengli/.qchemrc:

Checking the input file for inconsistencies... 	...done.

--------------------------------------------------------------
User input:
--------------------------------------------------------------
$rem
   JOBTYPE  sp
   EXCHANGE   omegaB97X-D
   BASIS   6-311+G(2df,2pd)
   UNRESTRICTED   False
   max_scf_cycles   250
   geom_opt_max_cycles   1500
   basis2 6-31G*
   scf_algorithm rca_diis
   SYM_IGNORE  TRUE
   print_input   true
   geom_opt_dmax   80
   pop_mulliken false
   XC_GRID 000075000302
$end

$molecule
0 1
C       -5.5850486056     0.7124123983     -0.1077065368
C       -4.3970424249     1.4098121938     0.0684213364
H       -5.7694239464     0.1502101111     -1.0069721145
H       -6.1809602685     0.3935133083     0.7288313441
H       -4.5930909827     -0.1699874929     0.2345834953
O       -3.3730747685     -0.0227350584     0.5669457079
H       -4.2248135742     1.9785310436     0.9695102171
H       -3.8278446515     1.7282867403     -0.7939408070
H       -2.7294331752     -0.3169059869     -0.0867824792
$end
--------------------------------------------------------------
 ----------------------------------------------------------------
             Standard Nuclear Orientation (Angstroms)
    I     Atom           X                Y                Z
 ----------------------------------------------------------------
    1      C      -5.5850486056     0.7124123983    -0.1077065368
    2      C      -4.3970424249     1.4098121938     0.0684213364
    3      H      -5.7694239464     0.1502101111    -1.0069721145
    4      H      -6.1809602685     0.3935133083     0.7288313441
    5      H      -4.5930909827    -0.1699874929     0.2345834953
    6      O      -3.3730747685    -0.0227350584     0.5669457079
    7      H      -4.2248135742     1.9785310436     0.9695102171
    8      H      -3.8278446515     1.7282867403    -0.7939408070
    9      H      -2.7294331752    -0.3169059869    -0.0867824792
 ----------------------------------------------------------------
 Nuclear Repulsion Energy =          80.28151489 hartrees
 There are       13 alpha and       13 beta electrons
 Requested basis set is 6-311+G(2df,2pd)
 There are 60 shells and 186 basis functions

 Total QAlloc Memory Limit   2000 MB
 Mega-Array Size       188 MB
 MEM_STATIC part       192 MB

                       Distance Matrix (Angstroms)
             C (  1)   C (  2)   H (  3)   H (  4)   H (  5)   O (  6)
   C (  2)  1.388793
   H (  3)  1.076450  2.150930
   H (  4)  1.075455  2.156703  1.800437
   H (  5)  1.371048  1.600566  1.740042  1.755888
   O (  6)  2.426608  1.830090  2.872215  2.843183  1.273023
   H (  7)  2.147951  1.079382  3.104039  2.529173  2.300408  2.211918
   H (  8)  2.142588  1.081240  2.511063  3.104450  2.290613  2.263825
   H (  9)  3.035535  2.405528  3.210372  3.617038  1.896861  0.963417
             H (  7)   H (  8)
   H (  8)  1.824819
   H (  9)  2.936145  2.426807
 
 A cutoff of  1.0D-09 yielded   1785 shell pairs
 There are     17387 function pairs (     21619 Cartesian)
 Smallest overlap matrix eigenvalue = 8.43E-05

 Scale SEOQF with 1.000000e-02/1.000000e-01/1.000000e-01

 Standard Electronic Orientation quadrupole field applied
 Nucleus-field energy     =     0.0000000028 hartrees
 Requested basis set is 6-31G(d)
 There are 24 shells and 54 basis functions
 A cutoff of  1.0D-09 yielded    298 shell pairs
 There are      1549 function pairs (      1732 Cartesian)
 Smallest overlap matrix eigenvalue = 6.00E-03
 Guess from superposition of atomic densities
 Warning:  Energy on first SCF cycle will be non-variational
 SAD guess density has 26.000000 electrons
 Long-range K will be added via erf
 Coulomb attenuation parameter = 0.2 bohr**(-1)
 A restricted hybrid HF-DFT SCF calculation will be
 performed using Relaxed Constraint Minimization + Pulay DIIS
 Exchange:     0.2220 Hartree-Fock + 1.0000 wB97X-D + LR-HF
 Correlation:  1.0000 wB97X-D
 Using Euler-Maclaurin-Lebedev (75,302) quadrature formula
 Dispersion:   Grimme D
 SCF converges when DIIS error is below 1.0E-04
 using 6 threads for integral computing
 -------------------------------------------------------
 OpenMP Integral computing Module                
 Release: version 1.0, May 2013, Q-Chem Inc. Pittsburgh 
 -------------------------------------------------------
 using 6 threads for integral computing
 -------------------------------------------------------
 OpenMP Integral computing Module                
 Release: version 1.0, May 2013, Q-Chem Inc. Pittsburgh 
 -------------------------------------------------------
 ---------------------------------------
  Cycle       Energy         DIIS Error
 ---------------------------------------
    1    -155.3557150729      1.03E-01
    2    -154.7652617086      1.61E-02
    3    -154.8013737821      3.34E-03
    4    -154.8435132610      2.66E-03
    5    -154.8445922679      5.38E-04 Done RCA. Switching to DIIS
    6    -154.8459774626      3.35E-04
    7    -154.8460208577      4.01E-05 Convergence criterion met
 ---------------------------------------
 SCF time:  CPU 17.43 s  wall 2.92 s
 SCF   energy in the small basis set = -154.84602086
 Total energy in the small basis set = -154.84602086
 ----------------------------------------------------
  Cycle       Energy    
 ----------------------------------------------------
    1     -18.6992169002     -1.87E+01
 Long-range K will be added via erf
 Coulomb attenuation parameter = 0.2 bohr**(-1)
 A restricted hybrid HF-DFT SCF calculation will be
 performed using Relaxed Constraint Minimization + Pulay DIIS
 Exchange:     0.2220 Hartree-Fock + 1.0000 wB97X-D + LR-HF
 Correlation:  1.0000 wB97X-D
 Using Euler-Maclaurin-Lebedev (75,302) quadrature formula
 Dispersion:   Grimme D
 SCF converges when DIIS error is below 1.0E-05
 Basis2 calculation detected. Using small basis as guess for larger.
 SCFMinFind is unable to tell whether the solution found is close.
 Resetting ReadMinima to 0 and attempting to follow guess.
 SCFMinFind following SCF Guess.
 using 6 threads for integral computing
 -------------------------------------------------------
 OpenMP Integral computing Module                
 Release: version 1.0, May 2013, Q-Chem Inc. Pittsburgh 
 -------------------------------------------------------
 using 6 threads for integral computing
 -------------------------------------------------------
 OpenMP Integral computing Module                
 Release: version 1.0, May 2013, Q-Chem Inc. Pittsburgh 
 -------------------------------------------------------
 ---------------------------------------
  Cycle       Energy         DIIS Error
 ---------------------------------------
    1    -154.8729274570      6.01E-03
    2    -154.8674223918      4.51E-03
    3    -154.8893723766      1.05E-03
    4    -154.9196512610      1.16E-03
    5    -154.9213031426      1.94E-04 Done RCA. Switching to DIIS
    6    -154.9234034595      2.35E-04
    7    -154.9235620984      6.84E-06 Convergence criterion met
 ---------------------------------------
 SCF time:  CPU 58.93 s  wall 9.86 s
 SCF   energy in the final basis set = -154.92356210
 Total energy in the final basis set = -154.92356210
 
 --------------------------------------------------------------
 
                    Orbital Energies (a.u.)
 --------------------------------------------------------------
 
 Alpha MOs
 -- Occupied --
-19.2367 -10.3544 -10.2559  -1.0867  -0.8888  -0.7089  -0.6051  -0.5724
 -0.5191  -0.4614  -0.4424  -0.4207  -0.3025
 -- Virtual --
  0.0631   0.0673   0.0864   0.0977   0.1145   0.1278   0.1379   0.1501
  0.1748   0.1907   0.2263   0.2309   0.2400   0.2666   0.2822   0.2977
  0.3208   0.3395   0.3644   0.3890   0.4587   0.4627   0.4760   0.5433
  0.5520   0.5819   0.6086   0.6145   0.6260   0.6449   0.6549   0.6821
  0.7213   0.7461   0.7652   0.8175   0.8427   0.8833   0.9080   0.9320
  0.9668   1.0077   1.0610   1.1320   1.1602   1.1651   1.1857   1.2082
  1.2219   1.2333   1.2600   1.2957   1.3209   1.3482   1.3869   1.4395
  1.4473   1.4609   1.5001   1.5125   1.5548   1.5732   1.6099   1.6351
  1.7223   1.7622   1.9428   1.9687   2.0364   2.2587   2.2971   2.4864
  2.5103   2.5730   2.6016   2.6541   2.7030   2.7353   2.7617   2.8533
  2.8948   2.8982   2.9198   2.9585   2.9946   3.0469   3.0561   3.0923
  3.1171   3.1357   3.1628   3.1835   3.2258   3.2925   3.3179   3.3617
  3.3908   3.4261   3.4626   3.4866   3.5007   3.5120   3.5342   3.5396
  3.5548   3.6218   3.6392   3.6834   3.7058   3.7177   3.7793   3.7949
  3.8236   3.8347   3.8570   3.9426   3.9731   4.0317   4.0538   4.0760
  4.1259   4.1397   4.1633   4.1952   4.2475   4.2562   4.2907   4.3002
  4.3928   4.4079   4.4692   4.5040   4.5557   4.6077   4.6912   4.7338
  4.7730   4.8474   4.9306   4.9737   5.0418   5.0664   5.0767   5.1152
  5.1550   5.1604   5.2616   5.3491   5.4152   5.4475   5.4783   5.4934
  5.6234   5.6639   5.7766   5.8456   6.0563   6.1863   6.3267   6.3306
  6.4793   6.6351   6.7272   6.8320   7.1754   7.2113   7.4133   7.6299
  7.7700   8.1737  25.0115  25.3682  50.4376
 --------------------------------------------------------------
 
 -----------------------------------------------------------------
                    Cartesian Multipole Moments
 -----------------------------------------------------------------
    Charge (ESU x 10^10)
                 0.0000
    Dipole Moment (Debye)
         X       0.6660      Y       0.3014      Z      -1.3011
       Tot       1.4924
    Quadrupole Moments (Debye-Ang)
        XX     -27.4161     XY       0.7604     YY     -19.6073
        XZ       2.3232     YZ       1.3047     ZZ     -20.8170
    Octopole Moments (Debye-Ang^2)
       XXX     334.9514    XXY     -31.7328    XYY      92.7423
       YYY     -38.8634    XXZ      -0.6706    XYZ      -6.6249
       YYZ      -1.5390    XZZ      91.2649    YZZ     -12.0285
       ZZZ     -10.3528
    Hexadecapole Moments (Debye-Ang^3)
      XXXX   -3078.6675   XXXY     369.3339   XXYY    -487.9906
      XYYY     193.9131   YYYY    -127.4553   XXXZ     -35.9009
      XXYZ      34.2643   XYYZ       0.9909   YYYZ       2.8714
      XXZZ    -432.9619   XYZZ      60.0023   YYZZ     -26.7148
      XZZZ      30.4260   YZZZ       1.1986   ZZZZ     -46.8053
 -----------------------------------------------------------------
Archival summary:
1\1\centos77-c1\SP\ProcedureUnspecified\BasisUnspecified\126\shihchen\WedJul2900:32:112020WedJul2900:32:112020\0\\#,ProcedureUnspecified,BasisUnspecified,\\0,1\C\H,1,1.07938\H,1,1.08124,2,115.254\C,1,1.38879,2,120.461,3,-156.213,0\H,4,1.07545,1,121.618,2,-24.017,0\H,4,1.07645,1,120.979,2,179.415,0\H,4,1.37105,1,70.8905,2,-102.855,0\O,7,1.27302,4,133.166,1,4.5199,0\H,8,0.963417,7,115.327,4,-109.293,0\\\@

 Total job time:  15.55s(wall), 81.16s(cpu) 
 Wed Jul 29 00:32:11 2020

        *************************************************************
        *                                                           *
        *  Thank you very much for using Q-Chem.  Have a nice day.  *
        *                                                           *
        *************************************************************


