                  Welcome to Q-Chem
     A Quantum Leap Into The Future Of Chemistry


 Q-Chem 5.3 (devel), Q-Chem, Inc., Pleasanton, CA (2020)

 Yihan Shao,  Zhengting Gan,  E. Epifanovsky,  A. T. B. Gilbert,  M. Wormit,  
 J. Kussmann,  A. W. Lange,  A. Behn,  Jia Deng,  Xintian Feng,  D. Ghosh,  
 M. Goldey,  P. R. Horn,  L. D. Jacobson,  I. Kaliman,  T. Kus,  A. Landau,  
 Jie Liu,  E. I. Proynov,  R. M. Richard,  R. P. Steele,  E. J. Sundstrom,  
 H. L. Woodcock III,  P. M. Zimmerman,  D. Zuev,  B. Alam,  B. Albrecht,  
 E. Alguire,  S. A. Baeppler,  D. Barton,  Z. Benda,  Y. A. Bernard,  
 E. J. Berquist,  K. B. Bravaya,  H. Burton,  K. Carter-Fenk,  D. Casanova,  
 Chun-Min Chang,  Yunqing Chen,  A. Chien,  K. D. Closser,  M. P. Coons,  
 S. Coriani,  S. Dasgupta,  A. L. Dempwolff,  M. Diedenhofen,  Hainam Do,  
 R. G. Edgar,  Po-Tung Fang,  S. Faraji,  S. Fatehi,  Qingguo Feng,  
 J. Fosso-Tande,  J. Gayvert,  Qinghui Ge,  A. Ghysels,  G. Gidofalvi,  
 J. Gomes,  J. Gonthier,  A. Gunina,  D. Hait,  M. W. D. Hanson-Heine,  
 P. H. P. Harbach,  A. W. Hauser,  M. F. Herbst,  J. E. Herr,  
 E. G. Hohenstein,  Z. C. Holden,  Kerwin Hui,  B. C. Huynh,  T.-C. Jagau,  
 Hyunjun Ji,  B. Kaduk,  K. Khistyaev,  Jaehoon Kim,  P. Klunzinger,  K. Koh,  
 D. Kosenkov,  L. Koulias,  T. Kowalczyk,  C. M. Krauter,  A. Kunitsa,  
 Ka Un Lao,  A. Laurent,  K. V. Lawler,  Joonho Lee,  D. Lefrancois,  
 S. Lehtola,  D. S. Levine,  Yi-Pei Li,  You-Sheng Lin,  Fenglai Liu,  
 Kuan-Yu Liu,  E. Livshits,  M. Loipersberger,  A. Luenser,  P. Manohar,  
 E. Mansoor,  S. F. Manzer,  Shan-Ping Mao,  Yuezhi Mao,  N. Mardirossian,  
 A. V. Marenich,  T. Markovich,  L. A. Martinez-Martinez,  S. A. Maurer,  
 N. J. Mayhall,  S. C. McKenzie,  J.-M. Mewes,  P. Morgante,  A. F. Morrison,  
 J. W. Mullinax,  K. Nanda,  T. S. Nguyen-Beck,  R. Olivares-Amaya,  
 K. J. Oosterbaan,  J. A. Parkhill,  S. K. Paul,  F. Pavosevic,  Zheng Pei,  
 T. M. Perrine,  F. Plasser,  P. Pokhilko,  S. Prager,  A. Prociuk,  
 E. Ramos,  B. Rana,  D. R. Rehn,  F. Rob,  M. Scheurer,  M. Schneider,  
 N. Sergueev,  S. M. Sharada,  S. Sharma,  D. W. Small,  T. Stauch,  
 C. J. Stein,  T. Stein,  Yu-Chuan Su,  S. P. Veccham,  Zhen Tao,  
 A. J. W. Thom,  A. Tkatchenko,  T. Tsuchimochi,  N. M. Tubman,  L. Vogt,  
 M. L. Vidal,  O. Vydrov,  M. A. Watson,  J. Wenzel,  M. de Wergifosse,  
 T. A. Wesolowski,  A. White,  J. Witte,  A. Yamada,  Jun Yang,  K. Yao,  
 S. Yeganeh,  S. R. Yost,  Zhi-Qiang You,  A. Zech,  Igor Ying Zhang,  
 Xing Zhang,  Yan Zhao,  Ying Zhu,  B. R. Brooks,  G. K. L. Chan,  
 C. J. Cramer,  M. S. Gordon,  W. J. Hehre,  A. Klamt,  M. W. Schmidt,  
 C. D. Sherrill,  D. G. Truhlar,  A. Aspuru-Guzik,  R. Baer,  A. T. Bell,  
 N. A. Besley,  Jeng-Da Chai,  A. E. DePrince, III,  R. A. DiStasio Jr.,  
 A. Dreuw,  B. D. Dunietz,  T. R. Furlani,  Chao-Ping Hsu,  Yousung Jung,  
 Jing Kong,  D. S. Lambrecht,  WanZhen Liang,  C. Ochsenfeld,  
 V. A. Rassolov,  L. V. Slipchenko,  J. E. Subotnik,  T. Van Voorhis,  
 J. M. Herbert,  A. I. Krylov,  P. M. W. Gill,  M. Head-Gordon

 Contributors to earlier versions of Q-Chem not listed above: 
 R. D. Adamson,  B. Austin,  J. Baker,  G. J. O. Beran,  K. Brandhorst,  
 S. T. Brown,  E. F. C. Byrd,  A. K. Chakraborty,  C.-L. Cheng,  
 Siu Hung Chien,  D. M. Chipman,  D. L. Crittenden,  H. Dachsel,  
 R. J. Doerksen,  A. D. Dutoi,  L. Fusti-Molnar,  W. A. Goddard III,  
 A. Golubeva-Zadorozhnaya,  S. R. Gwaltney,  G. Hawkins,  A. Heyden,  
 S. Hirata,  G. Kedziora,  F. J. Keil,  C. Kelley,  Jihan Kim,  R. A. King,  
 R. Z. Khaliullin,  P. P. Korambath,  W. Kurlancheek,  A. M. Lee,  M. S. Lee,  
 S. V. Levchenko,  Ching Yeh Lin,  D. Liotard,  R. C. Lochan,  I. Lotan,  
 P. E. Maslen,  N. Nair,  D. P. O'Neill,  D. Neuhauser,  E. Neuscamman,  
 C. M. Oana,  R. Olson,  B. Peters,  R. Peverati,  P. A. Pieniazek,  
 Y. M. Rhee,  J. Ritchie,  M. A. Rohrdanz,  E. Rosta,  N. J. Russ,  
 H. F. Schaefer III,  N. E. Schultz,  N. Shenvi,  A. C. Simmonett,  A. Sodt,  
 D. Stuck,  K. S. Thanthiriwatte,  V. Vanovschi,  Tao Wang,  A. Warshel,  
 C. F. Williams,  Q. Wu,  X. Xu,  W. Zhang

 Please cite Q-Chem as follows:
 Y. Shao et al., Mol. Phys. 113, 184-215 (2015)
 DOI: 10.1080/00268976.2014.952696

 Q-Chem 5.3.0 for Intel X86 EM64T Linux

 Parts of Q-Chem use Armadillo 9.800.1 (Horizon Scraper).
 http://arma.sourceforge.net/

 Q-Chem begins on Wed Jul 29 00:26:59 2020  

Host: centos77-c1
0

     Scratch files written to /tmp/30084.centos77-h1/qchem28161//
Processing $rem in /opt/qchem-5.3.0-intel2020u1//config/preferences:
Processing $rem in /home/shihchengli/.qchemrc:

Checking the input file for inconsistencies... 	...done.

--------------------------------------------------------------
User input:
--------------------------------------------------------------
$rem
   JOBTYPE  sp
   EXCHANGE   omegaB97X-D
   BASIS   6-311+G(2df,2pd)
   UNRESTRICTED   False
   max_scf_cycles   250
   geom_opt_max_cycles   1500
   basis2 6-31G*
   scf_algorithm rca_diis
   SYM_IGNORE  TRUE
   print_input   true
   geom_opt_dmax   80
   pop_mulliken false
   XC_GRID 000075000302
$end

$molecule
0 1
C       -5.5822830372     0.5586667899     -0.0707525163
C       -4.4158016461     1.3332986848     0.0660966337
H       -5.9345836272     0.3325298740     -1.0689153090
H       -6.3320918505     0.6040594419     0.7072145336
H       -4.4692501574     -0.3059155278     0.2619554417
O       -3.2714144905     -0.0295426766     0.5734331622
H       -4.2463622358     1.9246387422     0.9540988787
H       -3.8753807573     1.6664559417     -0.8103189617
H       -2.5535645954     -0.2210540130     -0.0399216997
$end
--------------------------------------------------------------
 ----------------------------------------------------------------
             Standard Nuclear Orientation (Angstroms)
    I     Atom           X                Y                Z
 ----------------------------------------------------------------
    1      C      -5.5822830372     0.5586667899    -0.0707525163
    2      C      -4.4158016461     1.3332986848     0.0660966337
    3      H      -5.9345836272     0.3325298740    -1.0689153090
    4      H      -6.3320918505     0.6040594419     0.7072145336
    5      H      -4.4692501574    -0.3059155278     0.2619554417
    6      O      -3.2714144905    -0.0295426766     0.5734331622
    7      H      -4.2463622358     1.9246387422     0.9540988787
    8      H      -3.8753807573     1.6664559417    -0.8103189617
    9      H      -2.5535645954    -0.2210540130    -0.0399216997
 ----------------------------------------------------------------
 Nuclear Repulsion Energy =          79.08290576 hartrees
 There are       13 alpha and       13 beta electrons
 Requested basis set is 6-311+G(2df,2pd)
 There are 60 shells and 186 basis functions

 Total QAlloc Memory Limit   2000 MB
 Mega-Array Size       188 MB
 MEM_STATIC part       192 MB

                       Distance Matrix (Angstroms)
             C (  1)   C (  2)   H (  3)   H (  4)   H (  5)   O (  6)
   C (  2)  1.406933
   H (  3)  1.082397  2.143942
   H (  4)  1.081437  2.148253  1.840211
   H (  5)  1.448116  1.651739  2.079911  2.120493
   O (  6)  2.470036  1.850500  3.149742  3.128433  1.268152
   H (  7)  2.168152  1.080250  3.078553  2.480957  2.346085  2.216812
   H (  8)  2.165103  1.082198  2.467093  3.076853  2.322219  2.270673
   H (  9)  3.127627  2.427999  3.577230  3.939073  1.941181  0.963426
             H (  7)   H (  8)
   H (  8)  1.821388
   H (  9)  2.908202  2.429692
 
 A cutoff of  1.0D-09 yielded   1773 shell pairs
 There are     17191 function pairs (     21353 Cartesian)
 Smallest overlap matrix eigenvalue = 9.14E-05

 Scale SEOQF with 1.000000e-02/1.000000e-01/1.000000e-01

 Standard Electronic Orientation quadrupole field applied
 Nucleus-field energy     =     0.0000000026 hartrees
 Requested basis set is 6-31G(d)
 There are 24 shells and 54 basis functions
 A cutoff of  1.0D-09 yielded    296 shell pairs
 There are      1547 function pairs (      1730 Cartesian)
 Smallest overlap matrix eigenvalue = 6.79E-03
 Guess from superposition of atomic densities
 Warning:  Energy on first SCF cycle will be non-variational
 SAD guess density has 26.000000 electrons
 Long-range K will be added via erf
 Coulomb attenuation parameter = 0.2 bohr**(-1)
 A restricted hybrid HF-DFT SCF calculation will be
 performed using Relaxed Constraint Minimization + Pulay DIIS
 Exchange:     0.2220 Hartree-Fock + 1.0000 wB97X-D + LR-HF
 Correlation:  1.0000 wB97X-D
 Using Euler-Maclaurin-Lebedev (75,302) quadrature formula
 Dispersion:   Grimme D
 SCF converges when DIIS error is below 1.0E-04
 using 6 threads for integral computing
 -------------------------------------------------------
 OpenMP Integral computing Module                
 Release: version 1.0, May 2013, Q-Chem Inc. Pittsburgh 
 -------------------------------------------------------
 using 6 threads for integral computing
 -------------------------------------------------------
 OpenMP Integral computing Module                
 Release: version 1.0, May 2013, Q-Chem Inc. Pittsburgh 
 -------------------------------------------------------
 ---------------------------------------
  Cycle       Energy         DIIS Error
 ---------------------------------------
    1    -155.2497470872      9.90E-02
    2    -154.7836782672      1.57E-02
    3    -154.8172964480      3.31E-03
    4    -154.8578756418      2.38E-03
    5    -154.8587974452      5.13E-04 Done RCA. Switching to DIIS
    6    -154.8599341851      3.39E-04
    7    -154.8599739777      4.40E-05 Convergence criterion met
 ---------------------------------------
 SCF time:  CPU 18.37 s  wall 3.08 s
 SCF   energy in the small basis set = -154.85997398
 Total energy in the small basis set = -154.85997398
 ----------------------------------------------------
  Cycle       Energy    
 ----------------------------------------------------
    1     -18.6683184107     -1.87E+01
 Long-range K will be added via erf
 Coulomb attenuation parameter = 0.2 bohr**(-1)
 A restricted hybrid HF-DFT SCF calculation will be
 performed using Relaxed Constraint Minimization + Pulay DIIS
 Exchange:     0.2220 Hartree-Fock + 1.0000 wB97X-D + LR-HF
 Correlation:  1.0000 wB97X-D
 Using Euler-Maclaurin-Lebedev (75,302) quadrature formula
 Dispersion:   Grimme D
 SCF converges when DIIS error is below 1.0E-05
 Basis2 calculation detected. Using small basis as guess for larger.
 SCFMinFind is unable to tell whether the solution found is close.
 Resetting ReadMinima to 0 and attempting to follow guess.
 SCFMinFind following SCF Guess.
 using 6 threads for integral computing
 -------------------------------------------------------
 OpenMP Integral computing Module                
 Release: version 1.0, May 2013, Q-Chem Inc. Pittsburgh 
 -------------------------------------------------------
 using 6 threads for integral computing
 -------------------------------------------------------
 OpenMP Integral computing Module                
 Release: version 1.0, May 2013, Q-Chem Inc. Pittsburgh 
 -------------------------------------------------------
 ---------------------------------------
  Cycle       Energy         DIIS Error
 ---------------------------------------
    1    -154.8855025004      6.00E-03
    2    -154.8796935404      4.52E-03
    3    -154.9017289366      1.05E-03
    4    -154.9321320785      1.18E-03
    5    -154.9338266347      1.95E-04 Done RCA. Switching to DIIS
    6    -154.9359788875      2.41E-04
    7    -154.9361465916      7.34E-06 Convergence criterion met
 ---------------------------------------
 SCF time:  CPU 59.16 s  wall 9.90 s
 SCF   energy in the final basis set = -154.93614659
 Total energy in the final basis set = -154.93614659
 
 --------------------------------------------------------------
 
                    Orbital Energies (a.u.)
 --------------------------------------------------------------
 
 Alpha MOs
 -- Occupied --
-19.2399 -10.3534 -10.2588  -1.0837  -0.8775  -0.6963  -0.6133  -0.5716
 -0.5080  -0.4566  -0.4350  -0.4212  -0.3094
 -- Virtual --
  0.0561   0.0684   0.0892   0.0972   0.1138   0.1274   0.1386   0.1494
  0.1768   0.1893   0.2138   0.2401   0.2487   0.2722   0.2867   0.3001
  0.3167   0.3322   0.3603   0.3922   0.4600   0.4615   0.4926   0.5480
  0.5651   0.5832   0.5892   0.6007   0.6102   0.6333   0.6511   0.6888
  0.6978   0.7516   0.8134   0.8329   0.8411   0.8804   0.8973   0.9378
  0.9873   1.0104   1.0661   1.0870   1.1314   1.1619   1.1732   1.1956
  1.2358   1.2537   1.2772   1.3088   1.3213   1.3477   1.4060   1.4328
  1.4401   1.4542   1.4774   1.4872   1.5294   1.5648   1.5869   1.6617
  1.7231   1.7732   1.9089   1.9698   2.0493   2.2635   2.3070   2.4428
  2.4782   2.5413   2.6306   2.6597   2.6970   2.7288   2.7661   2.8031
  2.8757   2.9146   2.9443   2.9783   3.0006   3.0311   3.0776   3.0783
  3.0994   3.1079   3.1398   3.2157   3.2417   3.2806   3.3174   3.3430
  3.3517   3.3993   3.4231   3.4439   3.4639   3.5228   3.5460   3.5524
  3.5679   3.5908   3.6225   3.6664   3.7064   3.7546   3.7808   3.8216
  3.8262   3.8517   3.8782   3.9148   3.9329   3.9597   4.0525   4.0559
  4.0994   4.1247   4.1816   4.2083   4.2303   4.2431   4.2710   4.3263
  4.3279   4.3699   4.4369   4.4844   4.5037   4.5821   4.5944   4.7307
  4.7412   4.8003   4.8841   4.9492   4.9903   5.0257   5.0481   5.0917
  5.1015   5.2054   5.2372   5.2983   5.3694   5.3887   5.4028   5.4536
  5.5756   5.6321   5.6883   5.8166   5.9942   6.2115   6.2395   6.2764
  6.4681   6.6301   6.6630   6.8768   7.1552   7.1798   7.3909   7.6139
  7.8046   8.1546  24.9536  25.3094  50.4336
 --------------------------------------------------------------
 
 -----------------------------------------------------------------
                    Cartesian Multipole Moments
 -----------------------------------------------------------------
    Charge (ESU x 10^10)
                -0.0000
    Dipole Moment (Debye)
         X       0.4763      Y       1.0372      Z      -1.4334
       Tot       1.8323
    Quadrupole Moments (Debye-Ang)
        XX     -24.0867     XY      -4.0282     YY     -19.3895
        XZ       3.3276     YZ       0.8955     ZZ     -20.8583
    Octopole Moments (Debye-Ang^2)
       XXX     299.1877    XXY       0.5947    XYY      89.4493
       YYY     -34.6603    XXZ      -8.1440    XYZ      -4.6732
       YYZ      -2.0309    XZZ      90.2940    YZZ     -10.3540
       ZZZ     -11.6698
    Hexadecapole Moments (Debye-Ang^3)
      XXXX   -2769.0931   XXXY     150.5711   XXYY    -460.6654
      XYYY     170.9784   YYYY    -113.4387   XXXZ      15.4174
      XXYZ      24.7163   XYYZ       3.1583   YYYZ       1.9039
      XXZZ    -425.0355   XYZZ      50.8494   YYZZ     -24.4981
      XZZZ      36.2482   YZZZ       0.2998   ZZZZ     -47.2116
 -----------------------------------------------------------------
Archival summary:
1\1\centos77-c1\SP\ProcedureUnspecified\BasisUnspecified\126\shihchen\WedJul2900:27:152020WedJul2900:27:152020\0\\#,ProcedureUnspecified,BasisUnspecified,\\0,1\C\H,1,1.08025\H,1,1.0822,2,114.763\C,1,1.40693,2,120.757,3,-157.127,0\H,4,1.08144,1,118.801,2,3.08186,0\H,4,1.0824,1,118.332,2,154.161,0\H,4,1.44812,1,70.678,2,-103.304,0\O,7,1.26815,4,130.716,1,6.13205,0\H,8,0.963426,7,120.271,4,-109.293,0\\\@

 Total job time:  16.03s(wall), 82.64s(cpu) 
 Wed Jul 29 00:27:15 2020

        *************************************************************
        *                                                           *
        *  Thank you very much for using Q-Chem.  Have a nice day.  *
        *                                                           *
        *************************************************************


