                  Welcome to Q-Chem
     A Quantum Leap Into The Future Of Chemistry


 Q-Chem 5.3 (devel), Q-Chem, Inc., Pleasanton, CA (2020)

 Yihan Shao,  Zhengting Gan,  E. Epifanovsky,  A. T. B. Gilbert,  M. Wormit,  
 J. Kussmann,  A. W. Lange,  A. Behn,  Jia Deng,  Xintian Feng,  D. Ghosh,  
 M. Goldey,  P. R. Horn,  L. D. Jacobson,  I. Kaliman,  T. Kus,  A. Landau,  
 Jie Liu,  E. I. Proynov,  R. M. Richard,  R. P. Steele,  E. J. Sundstrom,  
 H. L. Woodcock III,  P. M. Zimmerman,  D. Zuev,  B. Alam,  B. Albrecht,  
 E. Alguire,  S. A. Baeppler,  D. Barton,  Z. Benda,  Y. A. Bernard,  
 E. J. Berquist,  K. B. Bravaya,  H. Burton,  K. Carter-Fenk,  D. Casanova,  
 Chun-Min Chang,  Yunqing Chen,  A. Chien,  K. D. Closser,  M. P. Coons,  
 S. Coriani,  S. Dasgupta,  A. L. Dempwolff,  M. Diedenhofen,  Hainam Do,  
 R. G. Edgar,  Po-Tung Fang,  S. Faraji,  S. Fatehi,  Qingguo Feng,  
 J. Fosso-Tande,  J. Gayvert,  Qinghui Ge,  A. Ghysels,  G. Gidofalvi,  
 J. Gomes,  J. Gonthier,  A. Gunina,  D. Hait,  M. W. D. Hanson-Heine,  
 P. H. P. Harbach,  A. W. Hauser,  M. F. Herbst,  J. E. Herr,  
 E. G. Hohenstein,  Z. C. Holden,  Kerwin Hui,  B. C. Huynh,  T.-C. Jagau,  
 Hyunjun Ji,  B. Kaduk,  K. Khistyaev,  Jaehoon Kim,  P. Klunzinger,  K. Koh,  
 D. Kosenkov,  L. Koulias,  T. Kowalczyk,  C. M. Krauter,  A. Kunitsa,  
 Ka Un Lao,  A. Laurent,  K. V. Lawler,  Joonho Lee,  D. Lefrancois,  
 S. Lehtola,  D. S. Levine,  Yi-Pei Li,  You-Sheng Lin,  Fenglai Liu,  
 Kuan-Yu Liu,  E. Livshits,  M. Loipersberger,  A. Luenser,  P. Manohar,  
 E. Mansoor,  S. F. Manzer,  Shan-Ping Mao,  Yuezhi Mao,  N. Mardirossian,  
 A. V. Marenich,  T. Markovich,  L. A. Martinez-Martinez,  S. A. Maurer,  
 N. J. Mayhall,  S. C. McKenzie,  J.-M. Mewes,  P. Morgante,  A. F. Morrison,  
 J. W. Mullinax,  K. Nanda,  T. S. Nguyen-Beck,  R. Olivares-Amaya,  
 K. J. Oosterbaan,  J. A. Parkhill,  S. K. Paul,  F. Pavosevic,  Zheng Pei,  
 T. M. Perrine,  F. Plasser,  P. Pokhilko,  S. Prager,  A. Prociuk,  
 E. Ramos,  B. Rana,  D. R. Rehn,  F. Rob,  M. Scheurer,  M. Schneider,  
 N. Sergueev,  S. M. Sharada,  S. Sharma,  D. W. Small,  T. Stauch,  
 C. J. Stein,  T. Stein,  Yu-Chuan Su,  S. P. Veccham,  Zhen Tao,  
 A. J. W. Thom,  A. Tkatchenko,  T. Tsuchimochi,  N. M. Tubman,  L. Vogt,  
 M. L. Vidal,  O. Vydrov,  M. A. Watson,  J. Wenzel,  M. de Wergifosse,  
 T. A. Wesolowski,  A. White,  J. Witte,  A. Yamada,  Jun Yang,  K. Yao,  
 S. Yeganeh,  S. R. Yost,  Zhi-Qiang You,  A. Zech,  Igor Ying Zhang,  
 Xing Zhang,  Yan Zhao,  Ying Zhu,  B. R. Brooks,  G. K. L. Chan,  
 C. J. Cramer,  M. S. Gordon,  W. J. Hehre,  A. Klamt,  M. W. Schmidt,  
 C. D. Sherrill,  D. G. Truhlar,  A. Aspuru-Guzik,  R. Baer,  A. T. Bell,  
 N. A. Besley,  Jeng-Da Chai,  A. E. DePrince, III,  R. A. DiStasio Jr.,  
 A. Dreuw,  B. D. Dunietz,  T. R. Furlani,  Chao-Ping Hsu,  Yousung Jung,  
 Jing Kong,  D. S. Lambrecht,  WanZhen Liang,  C. Ochsenfeld,  
 V. A. Rassolov,  L. V. Slipchenko,  J. E. Subotnik,  T. Van Voorhis,  
 J. M. Herbert,  A. I. Krylov,  P. M. W. Gill,  M. Head-Gordon

 Contributors to earlier versions of Q-Chem not listed above: 
 R. D. Adamson,  B. Austin,  J. Baker,  G. J. O. Beran,  K. Brandhorst,  
 S. T. Brown,  E. F. C. Byrd,  A. K. Chakraborty,  C.-L. Cheng,  
 Siu Hung Chien,  D. M. Chipman,  D. L. Crittenden,  H. Dachsel,  
 R. J. Doerksen,  A. D. Dutoi,  L. Fusti-Molnar,  W. A. Goddard III,  
 A. Golubeva-Zadorozhnaya,  S. R. Gwaltney,  G. Hawkins,  A. Heyden,  
 S. Hirata,  G. Kedziora,  F. J. Keil,  C. Kelley,  Jihan Kim,  R. A. King,  
 R. Z. Khaliullin,  P. P. Korambath,  W. Kurlancheek,  A. M. Lee,  M. S. Lee,  
 S. V. Levchenko,  Ching Yeh Lin,  D. Liotard,  R. C. Lochan,  I. Lotan,  
 P. E. Maslen,  N. Nair,  D. P. O'Neill,  D. Neuhauser,  E. Neuscamman,  
 C. M. Oana,  R. Olson,  B. Peters,  R. Peverati,  P. A. Pieniazek,  
 Y. M. Rhee,  J. Ritchie,  M. A. Rohrdanz,  E. Rosta,  N. J. Russ,  
 H. F. Schaefer III,  N. E. Schultz,  N. Shenvi,  A. C. Simmonett,  A. Sodt,  
 D. Stuck,  K. S. Thanthiriwatte,  V. Vanovschi,  Tao Wang,  A. Warshel,  
 C. F. Williams,  Q. Wu,  X. Xu,  W. Zhang

 Please cite Q-Chem as follows:
 Y. Shao et al., Mol. Phys. 113, 184-215 (2015)
 DOI: 10.1080/00268976.2014.952696

 Q-Chem 5.3.0 for Intel X86 EM64T Linux

 Parts of Q-Chem use Armadillo 9.800.1 (Horizon Scraper).
 http://arma.sourceforge.net/

 Q-Chem begins on Wed Jul 29 00:41:09 2020  

Host: centos77-c1
0

     Scratch files written to /tmp/30084.centos77-h1/qchem30338//
Processing $rem in /opt/qchem-5.3.0-intel2020u1//config/preferences:
Processing $rem in /home/shihchengli/.qchemrc:

Checking the input file for inconsistencies... 	...done.

--------------------------------------------------------------
User input:
--------------------------------------------------------------
$rem
   JOBTYPE  sp
   EXCHANGE   omegaB97X-D
   BASIS   6-311+G(2df,2pd)
   UNRESTRICTED   False
   max_scf_cycles   250
   geom_opt_max_cycles   1500
   basis2 6-31G*
   scf_algorithm rca_diis
   SYM_IGNORE  TRUE
   print_input   true
   geom_opt_dmax   80
   pop_mulliken false
   XC_GRID 000075000302
$end

$molecule
0 1
C       -5.5176023668     0.5623853501     -0.0697398816
C       -4.3810926983     1.3829201796     0.0661584024
H       -5.9487314546     0.3231210341     -1.0347014647
H       -6.3245181502     0.5606625785     0.6523950929
H       -4.4522783632     -0.3013125876     0.2925477174
O       -3.2782179274     -0.0095811428     0.5923983469
H       -4.2732741592     1.9307050259     0.9901822367
H       -3.8753016719     1.6782504147     -0.8426689639
H       -2.6297156057     -0.2640135955     -0.0736813230
$end
--------------------------------------------------------------
 ----------------------------------------------------------------
             Standard Nuclear Orientation (Angstroms)
    I     Atom           X                Y                Z
 ----------------------------------------------------------------
    1      C      -5.5176023668     0.5623853501    -0.0697398816
    2      C      -4.3810926983     1.3829201796     0.0661584024
    3      H      -5.9487314546     0.3231210341    -1.0347014647
    4      H      -6.3245181502     0.5606625785     0.6523950929
    5      H      -4.4522783632    -0.3013125876     0.2925477174
    6      O      -3.2782179274    -0.0095811428     0.5923983469
    7      H      -4.2732741592     1.9307050259     0.9901822367
    8      H      -3.8753016719     1.6782504147    -0.8426689639
    9      H      -2.6297156057    -0.2640135955    -0.0736813230
 ----------------------------------------------------------------
 Nuclear Repulsion Energy =          79.43347116 hartrees
 There are       13 alpha and       13 beta electrons
 Requested basis set is 6-311+G(2df,2pd)
 There are 60 shells and 186 basis functions

 Total QAlloc Memory Limit   2000 MB
 Mega-Array Size       188 MB
 MEM_STATIC part       192 MB

                       Distance Matrix (Angstroms)
             C (  1)   C (  2)   H (  3)   H (  4)   H (  5)   O (  6)
   C (  2)  1.408332
   H (  3)  1.083638  2.189191
   H (  4)  1.082864  2.190133  1.744688
   H (  5)  1.418500  1.700870  2.095443  2.092313
   O (  6)  2.404249  1.852652  3.144803  3.099794  1.246369
   H (  7)  2.131686  1.079589  3.080850  2.489723  2.345344  2.216547
   H (  8)  2.130663  1.081208  2.484424  3.079429  2.353782  2.294494
   H (  9)  3.003804  2.408167  3.504876  3.854717  1.859368  0.963822
             H (  7)   H (  8)
   H (  8)  1.892474
   H (  9)  2.941068  2.432122
 
 A cutoff of  1.0D-09 yielded   1775 shell pairs
 There are     17210 function pairs (     21375 Cartesian)
 Smallest overlap matrix eigenvalue = 8.71E-05

 Scale SEOQF with 1.000000e-02/1.000000e-01/1.000000e-01

 Standard Electronic Orientation quadrupole field applied
 Nucleus-field energy     =     0.0000000027 hartrees
 Requested basis set is 6-31G(d)
 There are 24 shells and 54 basis functions
 A cutoff of  1.0D-09 yielded    297 shell pairs
 There are      1548 function pairs (      1731 Cartesian)
 Smallest overlap matrix eigenvalue = 6.62E-03
 Guess from superposition of atomic densities
 Warning:  Energy on first SCF cycle will be non-variational
 SAD guess density has 26.000000 electrons
 Long-range K will be added via erf
 Coulomb attenuation parameter = 0.2 bohr**(-1)
 A restricted hybrid HF-DFT SCF calculation will be
 performed using Relaxed Constraint Minimization + Pulay DIIS
 Exchange:     0.2220 Hartree-Fock + 1.0000 wB97X-D + LR-HF
 Correlation:  1.0000 wB97X-D
 Using Euler-Maclaurin-Lebedev (75,302) quadrature formula
 Dispersion:   Grimme D
 SCF converges when DIIS error is below 1.0E-04
 using 6 threads for integral computing
 -------------------------------------------------------
 OpenMP Integral computing Module                
 Release: version 1.0, May 2013, Q-Chem Inc. Pittsburgh 
 -------------------------------------------------------
 using 6 threads for integral computing
 -------------------------------------------------------
 OpenMP Integral computing Module                
 Release: version 1.0, May 2013, Q-Chem Inc. Pittsburgh 
 -------------------------------------------------------
 ---------------------------------------
  Cycle       Energy         DIIS Error
 ---------------------------------------
    1    -155.2641095532      9.95E-02
    2    -154.7813386817      1.58E-02
    3    -154.8158157683      3.28E-03
    4    -154.8564994965      2.47E-03
    5    -154.8574496589      5.06E-04 Done RCA. Switching to DIIS
    6    -154.8586474469      3.13E-04
    7    -154.8586838961      4.12E-05 Convergence criterion met
 ---------------------------------------
 SCF time:  CPU 20.60 s  wall 3.46 s
 SCF   energy in the small basis set = -154.85868390
 Total energy in the small basis set = -154.85868390
 ----------------------------------------------------
  Cycle       Energy    
 ----------------------------------------------------
    1     -18.6741839883     -1.87E+01
 Long-range K will be added via erf
 Coulomb attenuation parameter = 0.2 bohr**(-1)
 A restricted hybrid HF-DFT SCF calculation will be
 performed using Relaxed Constraint Minimization + Pulay DIIS
 Exchange:     0.2220 Hartree-Fock + 1.0000 wB97X-D + LR-HF
 Correlation:  1.0000 wB97X-D
 Using Euler-Maclaurin-Lebedev (75,302) quadrature formula
 Dispersion:   Grimme D
 SCF converges when DIIS error is below 1.0E-05
 Basis2 calculation detected. Using small basis as guess for larger.
 SCFMinFind is unable to tell whether the solution found is close.
 Resetting ReadMinima to 0 and attempting to follow guess.
 SCFMinFind following SCF Guess.
 using 6 threads for integral computing
 -------------------------------------------------------
 OpenMP Integral computing Module                
 Release: version 1.0, May 2013, Q-Chem Inc. Pittsburgh 
 -------------------------------------------------------
 using 6 threads for integral computing
 -------------------------------------------------------
 OpenMP Integral computing Module                
 Release: version 1.0, May 2013, Q-Chem Inc. Pittsburgh 
 -------------------------------------------------------
 ---------------------------------------
  Cycle       Energy         DIIS Error
 ---------------------------------------
    1    -154.8843113056      5.98E-03
    2    -154.8806208135      4.39E-03
    3    -154.9016491763      1.00E-03
    4    -154.9305908803      1.09E-03
    5    -154.9320773690      1.78E-04 Done RCA. Switching to DIIS
    6    -154.9339700754      2.11E-04
    7    -154.9341018875      8.59E-06 Convergence criterion met
 ---------------------------------------
 SCF time:  CPU 73.17 s  wall 12.24 s
 SCF   energy in the final basis set = -154.93410189
 Total energy in the final basis set = -154.93410189
 
 --------------------------------------------------------------
 
                    Orbital Energies (a.u.)
 --------------------------------------------------------------
 
 Alpha MOs
 -- Occupied --
-19.2428 -10.3556 -10.2521  -1.0891  -0.8751  -0.6952  -0.6123  -0.5739
 -0.5104  -0.4532  -0.4364  -0.4278  -0.3045
 -- Virtual --
  0.0518   0.0685   0.0883   0.0965   0.1129   0.1286   0.1376   0.1492
  0.1766   0.1887   0.2154   0.2400   0.2518   0.2780   0.2877   0.2962
  0.3227   0.3307   0.3592   0.3971   0.4617   0.4648   0.4939   0.5497
  0.5672   0.5824   0.5900   0.6023   0.6111   0.6354   0.6477   0.6853
  0.7074   0.7451   0.8005   0.8311   0.8438   0.8704   0.9079   0.9377
  0.9822   1.0164   1.0911   1.0951   1.1279   1.1506   1.1671   1.1826
  1.2408   1.2504   1.2710   1.3109   1.3132   1.3470   1.4040   1.4352
  1.4428   1.4512   1.4680   1.4863   1.5176   1.5858   1.6062   1.6703
  1.7261   1.7984   1.9156   2.0032   2.0619   2.2635   2.3160   2.4269
  2.4687   2.5483   2.6340   2.6621   2.6943   2.7542   2.7684   2.8106
  2.8617   2.8867   2.9496   2.9738   2.9839   3.0232   3.0722   3.0875
  3.1228   3.1418   3.1800   3.2323   3.2597   3.2625   3.3116   3.3451
  3.3586   3.4096   3.4166   3.4573   3.4733   3.5277   3.5315   3.5466
  3.5669   3.6072   3.6277   3.6424   3.7042   3.7316   3.7421   3.8221
  3.8269   3.8710   3.8821   3.9092   3.9256   3.9424   4.0210   4.0889
  4.0928   4.1292   4.1681   4.2035   4.2274   4.2371   4.2680   4.3119
  4.3312   4.3754   4.4004   4.4644   4.5205   4.5872   4.6231   4.6936
  4.7310   4.8351   4.8675   4.9474   4.9668   4.9906   5.0601   5.0906
  5.1142   5.1598   5.2912   5.3422   5.3821   5.3968   5.4492   5.4710
  5.5684   5.6641   5.7763   5.8234   6.0427   6.1615   6.2505   6.3016
  6.5063   6.6293   6.7311   6.8815   7.1665   7.2277   7.4107   7.6267
  7.7758   8.1770  24.9577  25.3158  50.4408
 --------------------------------------------------------------
 
 -----------------------------------------------------------------
                    Cartesian Multipole Moments
 -----------------------------------------------------------------
    Charge (ESU x 10^10)
                -0.0000
    Dipole Moment (Debye)
         X       0.4423      Y       0.9326      Z      -1.4583
       Tot       1.7866
    Quadrupole Moments (Debye-Ang)
        XX     -24.2089     XY      -3.6954     YY     -19.1974
        XZ       3.3423     YZ       0.8597     ZZ     -20.8670
    Octopole Moments (Debye-Ang^2)
       XXX     299.6095    XXY      -1.2543    XYY      88.1523
       YYY     -35.7301    XXZ      -8.4257    XYZ      -4.4759
       YYZ      -2.0985    XZZ      90.3798    YZZ     -10.4861
       ZZZ     -11.7080
    Hexadecapole Moments (Debye-Ang^3)
      XXXX   -2747.8543   XXXY     163.0992   XXYY    -452.9264
      XYYY     173.4570   YYYY    -117.8957   XXXZ      20.4310
      XXYZ      23.3181   XYYZ       3.2756   YYYZ       1.7522
      XXZZ    -425.4190   XYZZ      51.1361   YYZZ     -24.7279
      XZZZ      36.0101   YZZZ       0.2252   ZZZZ     -48.0353
 -----------------------------------------------------------------
Archival summary:
1\1\centos77-c1\SP\ProcedureUnspecified\BasisUnspecified\126\shihchen\WedJul2900:41:282020WedJul2900:41:282020\0\\#,ProcedureUnspecified,BasisUnspecified,\\0,1\C\H,1,1.07959\H,1,1.08121,2,122.285\C,1,1.40833,2,117.31,3,-158.858,0\H,4,1.08286,1,122.542,2,7.65425,0\H,4,1.08364,1,122.387,2,152.939,0\H,4,1.4185,1,73.9808,2,-99.5681,0\O,7,1.24637,4,128.783,1,4.53509,0\H,8,0.963822,7,113.939,4,-109.293,0\\\@

 Total job time:  19.11s(wall), 99.34s(cpu) 
 Wed Jul 29 00:41:28 2020

        *************************************************************
        *                                                           *
        *  Thank you very much for using Q-Chem.  Have a nice day.  *
        *                                                           *
        *************************************************************


