                  Welcome to Q-Chem
     A Quantum Leap Into The Future Of Chemistry


 Q-Chem 5.3 (devel), Q-Chem, Inc., Pleasanton, CA (2020)

 Yihan Shao,  Zhengting Gan,  E. Epifanovsky,  A. T. B. Gilbert,  M. Wormit,  
 J. Kussmann,  A. W. Lange,  A. Behn,  Jia Deng,  Xintian Feng,  D. Ghosh,  
 M. Goldey,  P. R. Horn,  L. D. Jacobson,  I. Kaliman,  T. Kus,  A. Landau,  
 Jie Liu,  E. I. Proynov,  R. M. Richard,  R. P. Steele,  E. J. Sundstrom,  
 H. L. Woodcock III,  P. M. Zimmerman,  D. Zuev,  B. Alam,  B. Albrecht,  
 E. Alguire,  S. A. Baeppler,  D. Barton,  Z. Benda,  Y. A. Bernard,  
 E. J. Berquist,  K. B. Bravaya,  H. Burton,  K. Carter-Fenk,  D. Casanova,  
 Chun-Min Chang,  Yunqing Chen,  A. Chien,  K. D. Closser,  M. P. Coons,  
 S. Coriani,  S. Dasgupta,  A. L. Dempwolff,  M. Diedenhofen,  Hainam Do,  
 R. G. Edgar,  Po-Tung Fang,  S. Faraji,  S. Fatehi,  Qingguo Feng,  
 J. Fosso-Tande,  J. Gayvert,  Qinghui Ge,  A. Ghysels,  G. Gidofalvi,  
 J. Gomes,  J. Gonthier,  A. Gunina,  D. Hait,  M. W. D. Hanson-Heine,  
 P. H. P. Harbach,  A. W. Hauser,  M. F. Herbst,  J. E. Herr,  
 E. G. Hohenstein,  Z. C. Holden,  Kerwin Hui,  B. C. Huynh,  T.-C. Jagau,  
 Hyunjun Ji,  B. Kaduk,  K. Khistyaev,  Jaehoon Kim,  P. Klunzinger,  K. Koh,  
 D. Kosenkov,  L. Koulias,  T. Kowalczyk,  C. M. Krauter,  A. Kunitsa,  
 Ka Un Lao,  A. Laurent,  K. V. Lawler,  Joonho Lee,  D. Lefrancois,  
 S. Lehtola,  D. S. Levine,  Yi-Pei Li,  You-Sheng Lin,  Fenglai Liu,  
 Kuan-Yu Liu,  E. Livshits,  M. Loipersberger,  A. Luenser,  P. Manohar,  
 E. Mansoor,  S. F. Manzer,  Shan-Ping Mao,  Yuezhi Mao,  N. Mardirossian,  
 A. V. Marenich,  T. Markovich,  L. A. Martinez-Martinez,  S. A. Maurer,  
 N. J. Mayhall,  S. C. McKenzie,  J.-M. Mewes,  P. Morgante,  A. F. Morrison,  
 J. W. Mullinax,  K. Nanda,  T. S. Nguyen-Beck,  R. Olivares-Amaya,  
 K. J. Oosterbaan,  J. A. Parkhill,  S. K. Paul,  F. Pavosevic,  Zheng Pei,  
 T. M. Perrine,  F. Plasser,  P. Pokhilko,  S. Prager,  A. Prociuk,  
 E. Ramos,  B. Rana,  D. R. Rehn,  F. Rob,  M. Scheurer,  M. Schneider,  
 N. Sergueev,  S. M. Sharada,  S. Sharma,  D. W. Small,  T. Stauch,  
 C. J. Stein,  T. Stein,  Yu-Chuan Su,  S. P. Veccham,  Zhen Tao,  
 A. J. W. Thom,  A. Tkatchenko,  T. Tsuchimochi,  N. M. Tubman,  L. Vogt,  
 M. L. Vidal,  O. Vydrov,  M. A. Watson,  J. Wenzel,  M. de Wergifosse,  
 T. A. Wesolowski,  A. White,  J. Witte,  A. Yamada,  Jun Yang,  K. Yao,  
 S. Yeganeh,  S. R. Yost,  Zhi-Qiang You,  A. Zech,  Igor Ying Zhang,  
 Xing Zhang,  Yan Zhao,  Ying Zhu,  B. R. Brooks,  G. K. L. Chan,  
 C. J. Cramer,  M. S. Gordon,  W. J. Hehre,  A. Klamt,  M. W. Schmidt,  
 C. D. Sherrill,  D. G. Truhlar,  A. Aspuru-Guzik,  R. Baer,  A. T. Bell,  
 N. A. Besley,  Jeng-Da Chai,  A. E. DePrince, III,  R. A. DiStasio Jr.,  
 A. Dreuw,  B. D. Dunietz,  T. R. Furlani,  Chao-Ping Hsu,  Yousung Jung,  
 Jing Kong,  D. S. Lambrecht,  WanZhen Liang,  C. Ochsenfeld,  
 V. A. Rassolov,  L. V. Slipchenko,  J. E. Subotnik,  T. Van Voorhis,  
 J. M. Herbert,  A. I. Krylov,  P. M. W. Gill,  M. Head-Gordon

 Contributors to earlier versions of Q-Chem not listed above: 
 R. D. Adamson,  B. Austin,  J. Baker,  G. J. O. Beran,  K. Brandhorst,  
 S. T. Brown,  E. F. C. Byrd,  A. K. Chakraborty,  C.-L. Cheng,  
 Siu Hung Chien,  D. M. Chipman,  D. L. Crittenden,  H. Dachsel,  
 R. J. Doerksen,  A. D. Dutoi,  L. Fusti-Molnar,  W. A. Goddard III,  
 A. Golubeva-Zadorozhnaya,  S. R. Gwaltney,  G. Hawkins,  A. Heyden,  
 S. Hirata,  G. Kedziora,  F. J. Keil,  C. Kelley,  Jihan Kim,  R. A. King,  
 R. Z. Khaliullin,  P. P. Korambath,  W. Kurlancheek,  A. M. Lee,  M. S. Lee,  
 S. V. Levchenko,  Ching Yeh Lin,  D. Liotard,  R. C. Lochan,  I. Lotan,  
 P. E. Maslen,  N. Nair,  D. P. O'Neill,  D. Neuhauser,  E. Neuscamman,  
 C. M. Oana,  R. Olson,  B. Peters,  R. Peverati,  P. A. Pieniazek,  
 Y. M. Rhee,  J. Ritchie,  M. A. Rohrdanz,  E. Rosta,  N. J. Russ,  
 H. F. Schaefer III,  N. E. Schultz,  N. Shenvi,  A. C. Simmonett,  A. Sodt,  
 D. Stuck,  K. S. Thanthiriwatte,  V. Vanovschi,  Tao Wang,  A. Warshel,  
 C. F. Williams,  Q. Wu,  X. Xu,  W. Zhang

 Please cite Q-Chem as follows:
 Y. Shao et al., Mol. Phys. 113, 184-215 (2015)
 DOI: 10.1080/00268976.2014.952696

 Q-Chem 5.3.0 for Intel X86 EM64T Linux

 Parts of Q-Chem use Armadillo 9.800.1 (Horizon Scraper).
 http://arma.sourceforge.net/

 Q-Chem begins on Wed Jul 29 00:24:29 2020  

Host: centos77-c1
0

     Scratch files written to /tmp/30084.centos77-h1/qchem27698//
Processing $rem in /opt/qchem-5.3.0-intel2020u1//config/preferences:
Processing $rem in /home/shihchengli/.qchemrc:

Checking the input file for inconsistencies... 	...done.

--------------------------------------------------------------
User input:
--------------------------------------------------------------
$rem
   JOBTYPE  sp
   EXCHANGE   omegaB97X-D
   BASIS   6-311+G(2df,2pd)
   UNRESTRICTED   False
   max_scf_cycles   250
   geom_opt_max_cycles   1500
   basis2 6-31G*
   scf_algorithm rca_diis
   SYM_IGNORE  TRUE
   print_input   true
   geom_opt_dmax   80
   pop_mulliken false
   XC_GRID 000075000302
$end

$molecule
0 1
C       -5.5077980989     0.5722594232     -0.0666712184
C       -4.5061175038     1.5326901626     0.0296553130
H       -5.8315156262     0.2418375120     -1.0449115319
H       -6.2062934248     0.4409558468     0.7478526720
H       -4.6444698460     -0.1061551494     0.1853189968
O       -3.1934957741     -0.2203427953     0.6152576936
H       -4.2972045280     2.0557046119     0.9481160059
H       -3.9768530757     1.8697024633     -0.8477026542
H       -2.5169845198     -0.5235148180     0.0059748865
$end
--------------------------------------------------------------
 ----------------------------------------------------------------
             Standard Nuclear Orientation (Angstroms)
    I     Atom           X                Y                Z
 ----------------------------------------------------------------
    1      C      -5.5077980989     0.5722594232    -0.0666712184
    2      C      -4.5061175038     1.5326901626     0.0296553130
    3      H      -5.8315156262     0.2418375120    -1.0449115319
    4      H      -6.2062934248     0.4409558468     0.7478526720
    5      H      -4.6444698460    -0.1061551494     0.1853189968
    6      O      -3.1934957741    -0.2203427953     0.6152576936
    7      H      -4.2972045280     2.0557046119     0.9481160059
    8      H      -3.9768530757     1.8697024633    -0.8477026542
    9      H      -2.5169845198    -0.5235148180     0.0059748865
 ----------------------------------------------------------------
 Nuclear Repulsion Energy =          75.84774148 hartrees
 There are       13 alpha and       13 beta electrons
 Requested basis set is 6-311+G(2df,2pd)
 There are 60 shells and 186 basis functions

 Total QAlloc Memory Limit   2000 MB
 Mega-Array Size       188 MB
 MEM_STATIC part       192 MB

                       Distance Matrix (Angstroms)
             C (  1)   C (  2)   H (  3)   H (  4)   H (  5)   O (  6)
   C (  2)  1.391068
   H (  3)  1.082093  2.139550
   H (  4)  1.081011  2.144362  1.842311
   H (  5)  1.126535  1.652025  1.744604  1.747875
   O (  6)  2.539536  2.266943  3.151019  3.087369  1.517634
   H (  7)  2.167012  1.077385  3.101029  2.508414  2.318640  2.551345
   H (  8)  2.153407  1.078636  2.475603  3.091524  2.327415  2.668743
   H (  9)  3.186058  2.860977  3.560371  3.884789  2.175442  0.959587
             H (  7)   H (  8)
   H (  8)  1.833627
   H (  9)  3.272489  2.930439
 
 A cutoff of  1.0D-09 yielded   1756 shell pairs
 There are     17095 function pairs (     21246 Cartesian)
 Smallest overlap matrix eigenvalue = 8.19E-05

 Scale SEOQF with 1.000000e-02/1.000000e-01/1.000000e-01

 Standard Electronic Orientation quadrupole field applied
 Nucleus-field energy     =     0.0000000029 hartrees
 Requested basis set is 6-31G(d)
 There are 24 shells and 54 basis functions
 A cutoff of  1.0D-09 yielded    297 shell pairs
 There are      1548 function pairs (      1731 Cartesian)
 Smallest overlap matrix eigenvalue = 6.33E-03
 Guess from superposition of atomic densities
 Warning:  Energy on first SCF cycle will be non-variational
 SAD guess density has 26.000000 electrons
 Long-range K will be added via erf
 Coulomb attenuation parameter = 0.2 bohr**(-1)
 A restricted hybrid HF-DFT SCF calculation will be
 performed using Relaxed Constraint Minimization + Pulay DIIS
 Exchange:     0.2220 Hartree-Fock + 1.0000 wB97X-D + LR-HF
 Correlation:  1.0000 wB97X-D
 Using Euler-Maclaurin-Lebedev (75,302) quadrature formula
 Dispersion:   Grimme D
 SCF converges when DIIS error is below 1.0E-04
 using 6 threads for integral computing
 -------------------------------------------------------
 OpenMP Integral computing Module                
 Release: version 1.0, May 2013, Q-Chem Inc. Pittsburgh 
 -------------------------------------------------------
 using 6 threads for integral computing
 -------------------------------------------------------
 OpenMP Integral computing Module                
 Release: version 1.0, May 2013, Q-Chem Inc. Pittsburgh 
 -------------------------------------------------------
 ---------------------------------------
  Cycle       Energy         DIIS Error
 ---------------------------------------
    1    -155.2000986046      9.89E-02
    2    -154.6822308048      2.15E-02
    3    -154.7282138448      8.20E-03
    4    -154.8171628491      7.21E-03
    5    -154.8257529473      1.09E-03
    6    -154.8373998024      1.38E-03
    7    -154.8376472264      3.03E-04 Done RCA. Switching to DIIS
    8    -154.8379818741      2.93E-04
    9    -154.8380151943      1.39E-05 Convergence criterion met
 ---------------------------------------
 SCF time:  CPU 21.62 s  wall 3.63 s
 SCF   energy in the small basis set = -154.83801519
 Total energy in the small basis set = -154.83801519
 ----------------------------------------------------
  Cycle       Energy    
 ----------------------------------------------------
    1     -18.6766595990     -1.87E+01
 Long-range K will be added via erf
 Coulomb attenuation parameter = 0.2 bohr**(-1)
 A restricted hybrid HF-DFT SCF calculation will be
 performed using Relaxed Constraint Minimization + Pulay DIIS
 Exchange:     0.2220 Hartree-Fock + 1.0000 wB97X-D + LR-HF
 Correlation:  1.0000 wB97X-D
 Using Euler-Maclaurin-Lebedev (75,302) quadrature formula
 Dispersion:   Grimme D
 SCF converges when DIIS error is below 1.0E-05
 Basis2 calculation detected. Using small basis as guess for larger.
 SCFMinFind is unable to tell whether the solution found is close.
 Resetting ReadMinima to 0 and attempting to follow guess.
 SCFMinFind following SCF Guess.
 using 6 threads for integral computing
 -------------------------------------------------------
 OpenMP Integral computing Module                
 Release: version 1.0, May 2013, Q-Chem Inc. Pittsburgh 
 -------------------------------------------------------
 using 6 threads for integral computing
 -------------------------------------------------------
 OpenMP Integral computing Module                
 Release: version 1.0, May 2013, Q-Chem Inc. Pittsburgh 
 -------------------------------------------------------
 ---------------------------------------
  Cycle       Energy         DIIS Error
 ---------------------------------------
    1    -154.7668483685      7.62E-03
    2    -154.6321501241      9.81E-03
    3    -154.7190580743      4.09E-03
    4    -154.8258450962      4.44E-03
    5    -154.8638190380      3.80E-04 Done RCA. Switching to DIIS
    6    -154.9177520997      4.90E-04
    7    -154.9171043187      6.29E-04
    8    -154.9160729934      8.05E-04
    9    -154.9166126306      7.29E-04
   10    -154.9168184895      6.93E-04
   11    -154.9169319712      6.70E-04
   12    -154.9177146387      5.00E-04
   13    -154.9186829763      7.66E-05
   14    -154.9187078433      4.65E-06 Convergence criterion met
 ---------------------------------------
 SCF time:  CPU 93.35 s  wall 15.60 s
 SCF   energy in the final basis set = -154.91870784
 Total energy in the final basis set = -154.91870784
 
 --------------------------------------------------------------
 
                    Orbital Energies (a.u.)
 --------------------------------------------------------------
 
 Alpha MOs
 -- Occupied --
-19.1740 -10.3813 -10.2896  -0.9985  -0.9207  -0.7317  -0.6006  -0.5709
 -0.5223  -0.4818  -0.4331  -0.3371  -0.3115
 -- Virtual --
 -0.0127   0.0672   0.0810   0.0900   0.1071   0.1229   0.1300   0.1431
  0.1818   0.1857   0.2122   0.2424   0.2620   0.2743   0.2909   0.3163
  0.3272   0.3384   0.3567   0.4012   0.4387   0.4462   0.4781   0.5411
  0.5499   0.5768   0.5851   0.6097   0.6282   0.6396   0.6515   0.6745
  0.6940   0.7220   0.7876   0.8157   0.8576   0.8758   0.8956   0.9265
  0.9568   0.9927   1.0507   1.0771   1.1173   1.1451   1.1616   1.2061
  1.2350   1.2643   1.2714   1.2934   1.3119   1.3326   1.3901   1.4207
  1.4359   1.4550   1.4863   1.5061   1.5179   1.5585   1.6294   1.6481
  1.7228   1.7650   1.8901   1.9543   2.0046   2.2536   2.3263   2.4094
  2.4525   2.5549   2.6567   2.6677   2.7105   2.7345   2.7610   2.7756
  2.7881   2.8218   2.9360   2.9690   2.9795   2.9980   3.0074   3.0720
  3.1168   3.1252   3.1673   3.1867   3.2403   3.2666   3.2731   3.3077
  3.3131   3.3798   3.3831   3.4148   3.4358   3.4524   3.4632   3.5339
  3.5578   3.5613   3.6451   3.6961   3.7287   3.7743   3.7949   3.8153
  3.8436   3.8943   3.9134   3.9419   3.9549   3.9936   4.0141   4.0552
  4.0752   4.0976   4.1360   4.1632   4.2184   4.2579   4.2710   4.2951
  4.3592   4.3647   4.4155   4.5215   4.6034   4.6432   4.6980   4.7886
  4.8310   4.9127   4.9735   5.0162   5.0382   5.0735   5.1208   5.1586
  5.1891   5.2233   5.2510   5.2815   5.2936   5.3569   5.4223   5.4553
  5.5066   5.6343   5.6571   5.6957   6.0449   6.2339   6.2512   6.3144
  6.4487   6.5456   6.6988   6.7625   7.0838   7.1231   7.2502   7.4727
  7.7324   8.1378  25.0392  25.5478  50.4606
 --------------------------------------------------------------
 
 -----------------------------------------------------------------
                    Cartesian Multipole Moments
 -----------------------------------------------------------------
    Charge (ESU x 10^10)
                 0.0000
    Dipole Moment (Debye)
         X      -2.0682      Y       2.3587      Z      -2.1289
       Tot       3.7912
    Quadrupole Moments (Debye-Ang)
        XX      -2.7065     XY      -9.9266     YY     -16.8129
        XZ       5.4895     YZ       1.2834     ZZ     -20.8354
    Octopole Moments (Debye-Ang^2)
       XXX     155.9582    XXY      26.3868    XYY      76.2962
       YYY     -28.0495    XXZ     -15.1490    XYZ      -5.6294
       YYZ      -3.0103    XZZ      87.3737    YZZ      -8.9155
       ZZZ     -13.3585
    Hexadecapole Moments (Debye-Ang^3)
      XXXX   -1868.8367   XXXY      43.8429   XXYY    -396.0106
      XYYY     146.8793   YYYY    -122.9256   XXXZ      37.1233
      XXYZ      26.9213   XYYZ       6.4287   YYYZ       4.8940
      XXZZ    -401.1981   XYZZ      47.4709   YYZZ     -26.7959
      XZZZ      39.8815   YZZZ       3.7800   ZZZZ     -49.1669
 -----------------------------------------------------------------
Archival summary:
1\1\centos77-c1\SP\ProcedureUnspecified\BasisUnspecified\126\shihchen\WedJul2900:24:512020WedJul2900:24:512020\0\\#,ProcedureUnspecified,BasisUnspecified,\\0,1\C\H,1,1.07739\H,1,1.07864,2,116.525\C,1,1.39107,2,122.264,3,-173.113,0\H,4,1.08101,1,119.799,2,9.66145,0\H,4,1.08209,1,119.265,2,166.064,0\H,4,1.12653,1,81.2836,2,-92.3278,0\O,7,1.51763,4,147.286,1,8.29749,0\H,8,0.959587,7,121.194,4,-109.293,0\\\@

 Total job time:  21.51s(wall), 118.94s(cpu) 
 Wed Jul 29 00:24:51 2020

        *************************************************************
        *                                                           *
        *  Thank you very much for using Q-Chem.  Have a nice day.  *
        *                                                           *
        *************************************************************


