                  Welcome to Q-Chem
     A Quantum Leap Into The Future Of Chemistry


 Q-Chem 5.3 (devel), Q-Chem, Inc., Pleasanton, CA (2020)

 Yihan Shao,  Zhengting Gan,  E. Epifanovsky,  A. T. B. Gilbert,  M. Wormit,  
 J. Kussmann,  A. W. Lange,  A. Behn,  Jia Deng,  Xintian Feng,  D. Ghosh,  
 M. Goldey,  P. R. Horn,  L. D. Jacobson,  I. Kaliman,  T. Kus,  A. Landau,  
 Jie Liu,  E. I. Proynov,  R. M. Richard,  R. P. Steele,  E. J. Sundstrom,  
 H. L. Woodcock III,  P. M. Zimmerman,  D. Zuev,  B. Alam,  B. Albrecht,  
 E. Alguire,  S. A. Baeppler,  D. Barton,  Z. Benda,  Y. A. Bernard,  
 E. J. Berquist,  K. B. Bravaya,  H. Burton,  K. Carter-Fenk,  D. Casanova,  
 Chun-Min Chang,  Yunqing Chen,  A. Chien,  K. D. Closser,  M. P. Coons,  
 S. Coriani,  S. Dasgupta,  A. L. Dempwolff,  M. Diedenhofen,  Hainam Do,  
 R. G. Edgar,  Po-Tung Fang,  S. Faraji,  S. Fatehi,  Qingguo Feng,  
 J. Fosso-Tande,  J. Gayvert,  Qinghui Ge,  A. Ghysels,  G. Gidofalvi,  
 J. Gomes,  J. Gonthier,  A. Gunina,  D. Hait,  M. W. D. Hanson-Heine,  
 P. H. P. Harbach,  A. W. Hauser,  M. F. Herbst,  J. E. Herr,  
 E. G. Hohenstein,  Z. C. Holden,  Kerwin Hui,  B. C. Huynh,  T.-C. Jagau,  
 Hyunjun Ji,  B. Kaduk,  K. Khistyaev,  Jaehoon Kim,  P. Klunzinger,  K. Koh,  
 D. Kosenkov,  L. Koulias,  T. Kowalczyk,  C. M. Krauter,  A. Kunitsa,  
 Ka Un Lao,  A. Laurent,  K. V. Lawler,  Joonho Lee,  D. Lefrancois,  
 S. Lehtola,  D. S. Levine,  Yi-Pei Li,  You-Sheng Lin,  Fenglai Liu,  
 Kuan-Yu Liu,  E. Livshits,  M. Loipersberger,  A. Luenser,  P. Manohar,  
 E. Mansoor,  S. F. Manzer,  Shan-Ping Mao,  Yuezhi Mao,  N. Mardirossian,  
 A. V. Marenich,  T. Markovich,  L. A. Martinez-Martinez,  S. A. Maurer,  
 N. J. Mayhall,  S. C. McKenzie,  J.-M. Mewes,  P. Morgante,  A. F. Morrison,  
 J. W. Mullinax,  K. Nanda,  T. S. Nguyen-Beck,  R. Olivares-Amaya,  
 K. J. Oosterbaan,  J. A. Parkhill,  S. K. Paul,  F. Pavosevic,  Zheng Pei,  
 T. M. Perrine,  F. Plasser,  P. Pokhilko,  S. Prager,  A. Prociuk,  
 E. Ramos,  B. Rana,  D. R. Rehn,  F. Rob,  M. Scheurer,  M. Schneider,  
 N. Sergueev,  S. M. Sharada,  S. Sharma,  D. W. Small,  T. Stauch,  
 C. J. Stein,  T. Stein,  Yu-Chuan Su,  S. P. Veccham,  Zhen Tao,  
 A. J. W. Thom,  A. Tkatchenko,  T. Tsuchimochi,  N. M. Tubman,  L. Vogt,  
 M. L. Vidal,  O. Vydrov,  M. A. Watson,  J. Wenzel,  M. de Wergifosse,  
 T. A. Wesolowski,  A. White,  J. Witte,  A. Yamada,  Jun Yang,  K. Yao,  
 S. Yeganeh,  S. R. Yost,  Zhi-Qiang You,  A. Zech,  Igor Ying Zhang,  
 Xing Zhang,  Yan Zhao,  Ying Zhu,  B. R. Brooks,  G. K. L. Chan,  
 C. J. Cramer,  M. S. Gordon,  W. J. Hehre,  A. Klamt,  M. W. Schmidt,  
 C. D. Sherrill,  D. G. Truhlar,  A. Aspuru-Guzik,  R. Baer,  A. T. Bell,  
 N. A. Besley,  Jeng-Da Chai,  A. E. DePrince, III,  R. A. DiStasio Jr.,  
 A. Dreuw,  B. D. Dunietz,  T. R. Furlani,  Chao-Ping Hsu,  Yousung Jung,  
 Jing Kong,  D. S. Lambrecht,  WanZhen Liang,  C. Ochsenfeld,  
 V. A. Rassolov,  L. V. Slipchenko,  J. E. Subotnik,  T. Van Voorhis,  
 J. M. Herbert,  A. I. Krylov,  P. M. W. Gill,  M. Head-Gordon

 Contributors to earlier versions of Q-Chem not listed above: 
 R. D. Adamson,  B. Austin,  J. Baker,  G. J. O. Beran,  K. Brandhorst,  
 S. T. Brown,  E. F. C. Byrd,  A. K. Chakraborty,  C.-L. Cheng,  
 Siu Hung Chien,  D. M. Chipman,  D. L. Crittenden,  H. Dachsel,  
 R. J. Doerksen,  A. D. Dutoi,  L. Fusti-Molnar,  W. A. Goddard III,  
 A. Golubeva-Zadorozhnaya,  S. R. Gwaltney,  G. Hawkins,  A. Heyden,  
 S. Hirata,  G. Kedziora,  F. J. Keil,  C. Kelley,  Jihan Kim,  R. A. King,  
 R. Z. Khaliullin,  P. P. Korambath,  W. Kurlancheek,  A. M. Lee,  M. S. Lee,  
 S. V. Levchenko,  Ching Yeh Lin,  D. Liotard,  R. C. Lochan,  I. Lotan,  
 P. E. Maslen,  N. Nair,  D. P. O'Neill,  D. Neuhauser,  E. Neuscamman,  
 C. M. Oana,  R. Olson,  B. Peters,  R. Peverati,  P. A. Pieniazek,  
 Y. M. Rhee,  J. Ritchie,  M. A. Rohrdanz,  E. Rosta,  N. J. Russ,  
 H. F. Schaefer III,  N. E. Schultz,  N. Shenvi,  A. C. Simmonett,  A. Sodt,  
 D. Stuck,  K. S. Thanthiriwatte,  V. Vanovschi,  Tao Wang,  A. Warshel,  
 C. F. Williams,  Q. Wu,  X. Xu,  W. Zhang

 Please cite Q-Chem as follows:
 Y. Shao et al., Mol. Phys. 113, 184-215 (2015)
 DOI: 10.1080/00268976.2014.952696

 Q-Chem 5.3.0 for Intel X86 EM64T Linux

 Parts of Q-Chem use Armadillo 9.800.1 (Horizon Scraper).
 http://arma.sourceforge.net/

 Q-Chem begins on Wed Jul 29 00:23:42 2020  

Host: centos77-c1
0

     Scratch files written to /tmp/30084.centos77-h1/qchem27572//
Processing $rem in /opt/qchem-5.3.0-intel2020u1//config/preferences:
Processing $rem in /home/shihchengli/.qchemrc:

Checking the input file for inconsistencies... 	...done.

--------------------------------------------------------------
User input:
--------------------------------------------------------------
$rem
   JOBTYPE  sp
   EXCHANGE   omegaB97X-D
   BASIS   6-311+G(2df,2pd)
   UNRESTRICTED   False
   max_scf_cycles   250
   geom_opt_max_cycles   1500
   basis2 6-31G*
   scf_algorithm rca_diis
   SYM_IGNORE  TRUE
   print_input   true
   geom_opt_dmax   80
   pop_mulliken false
   XC_GRID 000075000302
$end

$molecule
0 1
C       -5.5395921787     0.5481441902     -0.0715374613
C       -4.4315387345     1.4047197597     0.0551559842
H       -5.8884269960     0.2995108490     -1.0654569892
H       -6.2802151732     0.5374206395     0.7166297772
H       -4.5174504904     -0.2636596653     0.2595853568
O       -3.2639125304     -0.0628519834     0.5963793460
H       -4.2630471913     1.9792645694     0.9540330643
H       -3.8917020900     1.7464609133     -0.8178146949
H       -2.6048470127     -0.3258720154     -0.0540842198
$end
--------------------------------------------------------------
 ----------------------------------------------------------------
             Standard Nuclear Orientation (Angstroms)
    I     Atom           X                Y                Z
 ----------------------------------------------------------------
    1      C      -5.5395921787     0.5481441902    -0.0715374613
    2      C      -4.4315387345     1.4047197597     0.0551559842
    3      H      -5.8884269960     0.2995108490    -1.0654569892
    4      H      -6.2802151732     0.5374206395     0.7166297772
    5      H      -4.5174504904    -0.2636596653     0.2595853568
    6      O      -3.2639125304    -0.0628519834     0.5963793460
    7      H      -4.2630471913     1.9792645694     0.9540330643
    8      H      -3.8917020900     1.7464609133    -0.8178146949
    9      H      -2.6048470127    -0.3258720154    -0.0540842198
 ----------------------------------------------------------------
 Nuclear Repulsion Energy =          78.33551118 hartrees
 There are       13 alpha and       13 beta electrons
 Requested basis set is 6-311+G(2df,2pd)
 There are 60 shells and 186 basis functions

 Total QAlloc Memory Limit   2000 MB
 Mega-Array Size       188 MB
 MEM_STATIC part       192 MB

                       Distance Matrix (Angstroms)
             C (  1)   C (  2)   H (  3)   H (  4)   H (  5)   O (  6)
   C (  2)  1.406256
   H (  3)  1.082303  2.144711
   H (  4)  1.081594  2.146476  1.840090
   H (  5)  1.346641  1.683051  1.988083  1.989462
   O (  6)  2.449111  1.951933  3.127472  3.077803  1.313435
   H (  7)  2.174734  1.080033  3.088976  2.490831  2.361713  2.301397
   H (  8)  2.169893  1.081799  2.478286  3.085659  2.364939  2.380688
   H (  9)  3.062179  2.518667  3.492259  3.853259  1.939152  0.962626
             H (  7)   H (  8)
   H (  8)  1.825250
   H (  9)  3.013235  2.556138
 
 A cutoff of  1.0D-09 yielded   1771 shell pairs
 There are     17189 function pairs (     21354 Cartesian)
 Smallest overlap matrix eigenvalue = 8.77E-05

 Scale SEOQF with 1.000000e-02/1.000000e-01/1.000000e-01

 Standard Electronic Orientation quadrupole field applied
 Nucleus-field energy     =     0.0000000027 hartrees
 Requested basis set is 6-31G(d)
 There are 24 shells and 54 basis functions
 A cutoff of  1.0D-09 yielded    297 shell pairs
 There are      1548 function pairs (      1731 Cartesian)
 Smallest overlap matrix eigenvalue = 6.71E-03
 Guess from superposition of atomic densities
 Warning:  Energy on first SCF cycle will be non-variational
 SAD guess density has 26.000000 electrons
 Long-range K will be added via erf
 Coulomb attenuation parameter = 0.2 bohr**(-1)
 A restricted hybrid HF-DFT SCF calculation will be
 performed using Relaxed Constraint Minimization + Pulay DIIS
 Exchange:     0.2220 Hartree-Fock + 1.0000 wB97X-D + LR-HF
 Correlation:  1.0000 wB97X-D
 Using Euler-Maclaurin-Lebedev (75,302) quadrature formula
 Dispersion:   Grimme D
 SCF converges when DIIS error is below 1.0E-04
 using 6 threads for integral computing
 -------------------------------------------------------
 OpenMP Integral computing Module                
 Release: version 1.0, May 2013, Q-Chem Inc. Pittsburgh 
 -------------------------------------------------------
 using 6 threads for integral computing
 -------------------------------------------------------
 OpenMP Integral computing Module                
 Release: version 1.0, May 2013, Q-Chem Inc. Pittsburgh 
 -------------------------------------------------------
 ---------------------------------------
  Cycle       Energy         DIIS Error
 ---------------------------------------
    1    -155.2187482093      9.80E-02
    2    -154.7684455240      1.72E-02
    3    -154.8056043150      3.99E-03
    4    -154.8581848145      2.42E-03
    5    -154.8594222554      5.18E-04 Done RCA. Switching to DIIS
    6    -154.8602913471      4.16E-04
    7    -154.8603559775      5.12E-05 Convergence criterion met
 ---------------------------------------
 SCF time:  CPU 13.86 s  wall 2.32 s
 SCF   energy in the small basis set = -154.86035598
 Total energy in the small basis set = -154.86035598
 ----------------------------------------------------
  Cycle       Energy    
 ----------------------------------------------------
    1     -18.6660221153     -1.87E+01
 Long-range K will be added via erf
 Coulomb attenuation parameter = 0.2 bohr**(-1)
 A restricted hybrid HF-DFT SCF calculation will be
 performed using Relaxed Constraint Minimization + Pulay DIIS
 Exchange:     0.2220 Hartree-Fock + 1.0000 wB97X-D + LR-HF
 Correlation:  1.0000 wB97X-D
 Using Euler-Maclaurin-Lebedev (75,302) quadrature formula
 Dispersion:   Grimme D
 SCF converges when DIIS error is below 1.0E-05
 Basis2 calculation detected. Using small basis as guess for larger.
 SCFMinFind is unable to tell whether the solution found is close.
 Resetting ReadMinima to 0 and attempting to follow guess.
 SCFMinFind following SCF Guess.
 using 6 threads for integral computing
 -------------------------------------------------------
 OpenMP Integral computing Module                
 Release: version 1.0, May 2013, Q-Chem Inc. Pittsburgh 
 -------------------------------------------------------
 using 6 threads for integral computing
 -------------------------------------------------------
 OpenMP Integral computing Module                
 Release: version 1.0, May 2013, Q-Chem Inc. Pittsburgh 
 -------------------------------------------------------
 ---------------------------------------
  Cycle       Energy         DIIS Error
 ---------------------------------------
    1    -154.8757433344      6.20E-03
    2    -154.8555124428      5.36E-03
    3    -154.8856751227      1.42E-03
    4    -154.9284747333      1.24E-03
    5    -154.9317338869      1.72E-04 Done RCA. Switching to DIIS
    6    -154.9363943740      2.15E-04
    7    -154.9365501061      1.48E-05
    8    -154.9365521397      7.02E-06 Convergence criterion met
 ---------------------------------------
 SCF time:  CPU 53.06 s  wall 8.87 s
 SCF   energy in the final basis set = -154.93655214
 Total energy in the final basis set = -154.93655214
 
 --------------------------------------------------------------
 
                    Orbital Energies (a.u.)
 --------------------------------------------------------------
 
 Alpha MOs
 -- Occupied --
-19.2209 -10.3599 -10.2655  -1.0594  -0.8849  -0.7042  -0.5951  -0.5735
 -0.5096  -0.4600  -0.4380  -0.4004  -0.3131
 -- Virtual --
  0.0360   0.0696   0.0870   0.0954   0.1113   0.1265   0.1362   0.1467
  0.1780   0.1883   0.2160   0.2427   0.2538   0.2792   0.2868   0.2982
  0.3297   0.3317   0.3539   0.3974   0.4560   0.4583   0.4878   0.5496
  0.5644   0.5777   0.5864   0.6014   0.6160   0.6359   0.6466   0.6827
  0.7033   0.7448   0.8101   0.8314   0.8363   0.8881   0.9078   0.9277
  0.9729   1.0041   1.0675   1.1001   1.1315   1.1522   1.1888   1.1936
  1.2268   1.2546   1.2676   1.2961   1.3153   1.3415   1.4137   1.4233
  1.4435   1.4535   1.4812   1.4894   1.5246   1.5695   1.5905   1.6676
  1.7227   1.7777   1.9142   1.9961   2.0414   2.2770   2.3010   2.4362
  2.4664   2.5423   2.6553   2.6719   2.6878   2.7503   2.7623   2.7951
  2.8440   2.9156   2.9364   2.9747   2.9937   3.0401   3.0587   3.0831
  3.0931   3.1312   3.1521   3.2168   3.2475   3.2667   3.3215   3.3335
  3.3560   3.3982   3.4001   3.4185   3.4594   3.4952   3.5268   3.5536
  3.5642   3.5957   3.6321   3.6510   3.7041   3.7505   3.7709   3.8259
  3.8368   3.8661   3.8973   3.9110   3.9391   3.9445   4.0508   4.0714
  4.0854   4.1210   4.1839   4.1916   4.2292   4.2326   4.2848   4.3131
  4.3252   4.3527   4.4204   4.4951   4.5048   4.6049   4.6384   4.7079
  4.7590   4.8101   4.8559   4.9743   4.9878   5.0125   5.0731   5.1037
  5.1624   5.2017   5.2194   5.2855   5.3466   5.4077   5.4240   5.4448
  5.5918   5.6308   5.7104   5.7610   6.0261   6.2241   6.2656   6.2764
  6.4638   6.6472   6.6705   6.7654   7.1372   7.1977   7.3719   7.5853
  7.7658   8.1793  24.9792  25.3404  50.4426
 --------------------------------------------------------------
 
 -----------------------------------------------------------------
                    Cartesian Multipole Moments
 -----------------------------------------------------------------
    Charge (ESU x 10^10)
                 0.0000
    Dipole Moment (Debye)
         X      -0.2549      Y       1.2736      Z      -1.6544
       Tot       2.1033
    Quadrupole Moments (Debye-Ang)
        XX     -18.2812     XY      -5.1446     YY     -18.5135
        XZ       3.9387     YZ       0.9764     ZZ     -20.8140
    Octopole Moments (Debye-Ang^2)
       XXX     261.5698    XXY       5.2414    XYY      85.1863
       YYY     -33.1587    XXZ      -9.8088    XYZ      -4.8419
       YYZ      -2.2989    XZZ      89.3267    YZZ     -10.1507
       ZZZ     -12.1787
    Hexadecapole Moments (Debye-Ang^3)
      XXXX   -2532.4054   XXXY     133.8483   XXYY    -439.8236
      XYYY     164.5221   YYYY    -116.2574   XXXZ      19.3316
      XXYZ      24.7781   XYYZ       4.0642   YYYZ       2.4871
      XXZZ    -417.0909   XYZZ      50.3001   YYZZ     -25.1914
      XZZZ      37.4688   YZZZ       0.9904   ZZZZ     -48.0106
 -----------------------------------------------------------------
Archival summary:
1\1\centos77-c1\SP\ProcedureUnspecified\BasisUnspecified\126\shihchen\WedJul2900:23:552020WedJul2900:23:552020\0\\#,ProcedureUnspecified,BasisUnspecified,\\0,1\C\H,1,1.08003\H,1,1.0818,2,115.196\C,1,1.40626,2,121.462,3,-162.256,0\H,4,1.08159,1,118.681,2,5.50219,0\H,4,1.0823,1,118.465,2,156.568,0\H,4,1.34664,1,75.3431,2,-99.0425,0\O,7,1.31343,4,134.051,1,5.3426,0\H,8,0.962626,7,116.001,4,-109.293,0\\\@

 Total job time:  13.32s(wall), 70.69s(cpu) 
 Wed Jul 29 00:23:55 2020

        *************************************************************
        *                                                           *
        *  Thank you very much for using Q-Chem.  Have a nice day.  *
        *                                                           *
        *************************************************************


