                  Welcome to Q-Chem
     A Quantum Leap Into The Future Of Chemistry


 Q-Chem 5.3 (devel), Q-Chem, Inc., Pleasanton, CA (2020)

 Yihan Shao,  Zhengting Gan,  E. Epifanovsky,  A. T. B. Gilbert,  M. Wormit,  
 J. Kussmann,  A. W. Lange,  A. Behn,  Jia Deng,  Xintian Feng,  D. Ghosh,  
 M. Goldey,  P. R. Horn,  L. D. Jacobson,  I. Kaliman,  T. Kus,  A. Landau,  
 Jie Liu,  E. I. Proynov,  R. M. Richard,  R. P. Steele,  E. J. Sundstrom,  
 H. L. Woodcock III,  P. M. Zimmerman,  D. Zuev,  B. Alam,  B. Albrecht,  
 E. Alguire,  S. A. Baeppler,  D. Barton,  Z. Benda,  Y. A. Bernard,  
 E. J. Berquist,  K. B. Bravaya,  H. Burton,  K. Carter-Fenk,  D. Casanova,  
 Chun-Min Chang,  Yunqing Chen,  A. Chien,  K. D. Closser,  M. P. Coons,  
 S. Coriani,  S. Dasgupta,  A. L. Dempwolff,  M. Diedenhofen,  Hainam Do,  
 R. G. Edgar,  Po-Tung Fang,  S. Faraji,  S. Fatehi,  Qingguo Feng,  
 J. Fosso-Tande,  J. Gayvert,  Qinghui Ge,  A. Ghysels,  G. Gidofalvi,  
 J. Gomes,  J. Gonthier,  A. Gunina,  D. Hait,  M. W. D. Hanson-Heine,  
 P. H. P. Harbach,  A. W. Hauser,  M. F. Herbst,  J. E. Herr,  
 E. G. Hohenstein,  Z. C. Holden,  Kerwin Hui,  B. C. Huynh,  T.-C. Jagau,  
 Hyunjun Ji,  B. Kaduk,  K. Khistyaev,  Jaehoon Kim,  P. Klunzinger,  K. Koh,  
 D. Kosenkov,  L. Koulias,  T. Kowalczyk,  C. M. Krauter,  A. Kunitsa,  
 Ka Un Lao,  A. Laurent,  K. V. Lawler,  Joonho Lee,  D. Lefrancois,  
 S. Lehtola,  D. S. Levine,  Yi-Pei Li,  You-Sheng Lin,  Fenglai Liu,  
 Kuan-Yu Liu,  E. Livshits,  M. Loipersberger,  A. Luenser,  P. Manohar,  
 E. Mansoor,  S. F. Manzer,  Shan-Ping Mao,  Yuezhi Mao,  N. Mardirossian,  
 A. V. Marenich,  T. Markovich,  L. A. Martinez-Martinez,  S. A. Maurer,  
 N. J. Mayhall,  S. C. McKenzie,  J.-M. Mewes,  P. Morgante,  A. F. Morrison,  
 J. W. Mullinax,  K. Nanda,  T. S. Nguyen-Beck,  R. Olivares-Amaya,  
 K. J. Oosterbaan,  J. A. Parkhill,  S. K. Paul,  F. Pavosevic,  Zheng Pei,  
 T. M. Perrine,  F. Plasser,  P. Pokhilko,  S. Prager,  A. Prociuk,  
 E. Ramos,  B. Rana,  D. R. Rehn,  F. Rob,  M. Scheurer,  M. Schneider,  
 N. Sergueev,  S. M. Sharada,  S. Sharma,  D. W. Small,  T. Stauch,  
 C. J. Stein,  T. Stein,  Yu-Chuan Su,  S. P. Veccham,  Zhen Tao,  
 A. J. W. Thom,  A. Tkatchenko,  T. Tsuchimochi,  N. M. Tubman,  L. Vogt,  
 M. L. Vidal,  O. Vydrov,  M. A. Watson,  J. Wenzel,  M. de Wergifosse,  
 T. A. Wesolowski,  A. White,  J. Witte,  A. Yamada,  Jun Yang,  K. Yao,  
 S. Yeganeh,  S. R. Yost,  Zhi-Qiang You,  A. Zech,  Igor Ying Zhang,  
 Xing Zhang,  Yan Zhao,  Ying Zhu,  B. R. Brooks,  G. K. L. Chan,  
 C. J. Cramer,  M. S. Gordon,  W. J. Hehre,  A. Klamt,  M. W. Schmidt,  
 C. D. Sherrill,  D. G. Truhlar,  A. Aspuru-Guzik,  R. Baer,  A. T. Bell,  
 N. A. Besley,  Jeng-Da Chai,  A. E. DePrince, III,  R. A. DiStasio Jr.,  
 A. Dreuw,  B. D. Dunietz,  T. R. Furlani,  Chao-Ping Hsu,  Yousung Jung,  
 Jing Kong,  D. S. Lambrecht,  WanZhen Liang,  C. Ochsenfeld,  
 V. A. Rassolov,  L. V. Slipchenko,  J. E. Subotnik,  T. Van Voorhis,  
 J. M. Herbert,  A. I. Krylov,  P. M. W. Gill,  M. Head-Gordon

 Contributors to earlier versions of Q-Chem not listed above: 
 R. D. Adamson,  B. Austin,  J. Baker,  G. J. O. Beran,  K. Brandhorst,  
 S. T. Brown,  E. F. C. Byrd,  A. K. Chakraborty,  C.-L. Cheng,  
 Siu Hung Chien,  D. M. Chipman,  D. L. Crittenden,  H. Dachsel,  
 R. J. Doerksen,  A. D. Dutoi,  L. Fusti-Molnar,  W. A. Goddard III,  
 A. Golubeva-Zadorozhnaya,  S. R. Gwaltney,  G. Hawkins,  A. Heyden,  
 S. Hirata,  G. Kedziora,  F. J. Keil,  C. Kelley,  Jihan Kim,  R. A. King,  
 R. Z. Khaliullin,  P. P. Korambath,  W. Kurlancheek,  A. M. Lee,  M. S. Lee,  
 S. V. Levchenko,  Ching Yeh Lin,  D. Liotard,  R. C. Lochan,  I. Lotan,  
 P. E. Maslen,  N. Nair,  D. P. O'Neill,  D. Neuhauser,  E. Neuscamman,  
 C. M. Oana,  R. Olson,  B. Peters,  R. Peverati,  P. A. Pieniazek,  
 Y. M. Rhee,  J. Ritchie,  M. A. Rohrdanz,  E. Rosta,  N. J. Russ,  
 H. F. Schaefer III,  N. E. Schultz,  N. Shenvi,  A. C. Simmonett,  A. Sodt,  
 D. Stuck,  K. S. Thanthiriwatte,  V. Vanovschi,  Tao Wang,  A. Warshel,  
 C. F. Williams,  Q. Wu,  X. Xu,  W. Zhang

 Please cite Q-Chem as follows:
 Y. Shao et al., Mol. Phys. 113, 184-215 (2015)
 DOI: 10.1080/00268976.2014.952696

 Q-Chem 5.3.0 for Intel X86 EM64T Linux

 Parts of Q-Chem use Armadillo 9.800.1 (Horizon Scraper).
 http://arma.sourceforge.net/

 Q-Chem begins on Wed Jul 29 00:43:23 2020  

Host: centos77-c1
0

     Scratch files written to /tmp/30084.centos77-h1/qchem30682//
Processing $rem in /opt/qchem-5.3.0-intel2020u1//config/preferences:
Processing $rem in /home/shihchengli/.qchemrc:

Checking the input file for inconsistencies... 	...done.

--------------------------------------------------------------
User input:
--------------------------------------------------------------
$rem
   JOBTYPE  sp
   EXCHANGE   omegaB97X-D
   BASIS   6-311+G(2df,2pd)
   UNRESTRICTED   False
   max_scf_cycles   250
   geom_opt_max_cycles   1500
   basis2 6-31G*
   scf_algorithm rca_diis
   SYM_IGNORE  TRUE
   print_input   true
   geom_opt_dmax   80
   pop_mulliken false
   XC_GRID 000075000302
$end

$molecule
0 1
C       -5.5160307680     0.5517070247     -0.0634009454
C       -4.4354726856     1.3360375605     0.0685786848
H       -5.9714107840     0.2792705768     -1.0061436932
H       -6.3522941448     0.5385687070     0.6213591068
H       -4.4830728110     -0.3700205561     0.2845532769
O       -3.2900091576     -0.0092302302     0.5911351875
H       -4.1700378759     2.0080904019     0.8723851428
H       -3.8147147987     1.7699808256     -0.7061101233
H       -2.6476893717     -0.2412670532     -0.0894664736
$end
--------------------------------------------------------------
 ----------------------------------------------------------------
             Standard Nuclear Orientation (Angstroms)
    I     Atom           X                Y                Z
 ----------------------------------------------------------------
    1      C      -5.5160307680     0.5517070247    -0.0634009454
    2      C      -4.4354726856     1.3360375605     0.0685786848
    3      H      -5.9714107840     0.2792705768    -1.0061436932
    4      H      -6.3522941448     0.5385687070     0.6213591068
    5      H      -4.4830728110    -0.3700205561     0.2845532769
    6      O      -3.2900091576    -0.0092302302     0.5911351875
    7      H      -4.1700378759     2.0080904019     0.8723851428
    8      H      -3.8147147987     1.7699808256    -0.7061101233
    9      H      -2.6476893717    -0.2412670532    -0.0894664736
 ----------------------------------------------------------------
 Nuclear Repulsion Energy =          80.14622310 hartrees
 There are       13 alpha and       13 beta electrons
 Requested basis set is 6-311+G(2df,2pd)
 There are 60 shells and 186 basis functions

 Total QAlloc Memory Limit   2000 MB
 Mega-Array Size       188 MB
 MEM_STATIC part       192 MB

                       Distance Matrix (Angstroms)
             C (  1)   C (  2)   H (  3)   H (  4)   H (  5)   O (  6)
   C (  2)  1.341715
   H (  3)  1.081830  2.151950
   H (  4)  1.080928  2.148424  1.691471
   H (  5)  1.427465  1.720333  2.074278  2.105460
   O (  6)  2.387099  1.842525  3.134397  3.111043  1.283574
   H (  7)  2.192817  1.080840  3.124521  2.642868  2.469605  2.218814
   H (  8)  2.189005  1.083416  2.638859  3.117348  2.451066  2.263571
   H (  9)  2.976049  2.389359  3.486887  3.851949  1.877525  0.964176
             H (  7)   H (  8)
   H (  8)  1.635420
   H (  9)  2.881373  2.405684
 
 A cutoff of  1.0D-09 yielded   1775 shell pairs
 There are     17242 function pairs (     21418 Cartesian)
 Smallest overlap matrix eigenvalue = 7.67E-05

 Scale SEOQF with 1.000000e-02/1.000000e-01/1.000000e-01

 Standard Electronic Orientation quadrupole field applied
 Nucleus-field energy     =     0.0000000027 hartrees
 Requested basis set is 6-31G(d)
 There are 24 shells and 54 basis functions
 A cutoff of  1.0D-09 yielded    296 shell pairs
 There are      1547 function pairs (      1730 Cartesian)
 Smallest overlap matrix eigenvalue = 6.26E-03
 Guess from superposition of atomic densities
 Warning:  Energy on first SCF cycle will be non-variational
 SAD guess density has 26.000000 electrons
 Long-range K will be added via erf
 Coulomb attenuation parameter = 0.2 bohr**(-1)
 A restricted hybrid HF-DFT SCF calculation will be
 performed using Relaxed Constraint Minimization + Pulay DIIS
 Exchange:     0.2220 Hartree-Fock + 1.0000 wB97X-D + LR-HF
 Correlation:  1.0000 wB97X-D
 Using Euler-Maclaurin-Lebedev (75,302) quadrature formula
 Dispersion:   Grimme D
 SCF converges when DIIS error is below 1.0E-04
 using 6 threads for integral computing
 -------------------------------------------------------
 OpenMP Integral computing Module                
 Release: version 1.0, May 2013, Q-Chem Inc. Pittsburgh 
 -------------------------------------------------------
 using 6 threads for integral computing
 -------------------------------------------------------
 OpenMP Integral computing Module                
 Release: version 1.0, May 2013, Q-Chem Inc. Pittsburgh 
 -------------------------------------------------------
 ---------------------------------------
  Cycle       Energy         DIIS Error
 ---------------------------------------
    1    -155.3433291219      1.03E-01
    2    -154.7699840334      1.57E-02
    3    -154.8041795347      3.30E-03
    4    -154.8441767612      2.57E-03
    5    -154.8451813915      5.19E-04 Done RCA. Switching to DIIS
    6    -154.8464690761      3.24E-04
    7    -154.8465103229      2.61E-05 Convergence criterion met
 ---------------------------------------
 SCF time:  CPU 19.76 s  wall 3.31 s
 SCF   energy in the small basis set = -154.84651032
 Total energy in the small basis set = -154.84651032
 ----------------------------------------------------
  Cycle       Energy    
 ----------------------------------------------------
    1     -18.6982248475     -1.87E+01
 Long-range K will be added via erf
 Coulomb attenuation parameter = 0.2 bohr**(-1)
 A restricted hybrid HF-DFT SCF calculation will be
 performed using Relaxed Constraint Minimization + Pulay DIIS
 Exchange:     0.2220 Hartree-Fock + 1.0000 wB97X-D + LR-HF
 Correlation:  1.0000 wB97X-D
 Using Euler-Maclaurin-Lebedev (75,302) quadrature formula
 Dispersion:   Grimme D
 SCF converges when DIIS error is below 1.0E-05
 Basis2 calculation detected. Using small basis as guess for larger.
 SCFMinFind is unable to tell whether the solution found is close.
 Resetting ReadMinima to 0 and attempting to follow guess.
 SCFMinFind following SCF Guess.
 using 6 threads for integral computing
 -------------------------------------------------------
 OpenMP Integral computing Module                
 Release: version 1.0, May 2013, Q-Chem Inc. Pittsburgh 
 -------------------------------------------------------
 using 6 threads for integral computing
 -------------------------------------------------------
 OpenMP Integral computing Module                
 Release: version 1.0, May 2013, Q-Chem Inc. Pittsburgh 
 -------------------------------------------------------
 ---------------------------------------
  Cycle       Energy         DIIS Error
 ---------------------------------------
    1    -154.8728381918      5.98E-03
    2    -154.8674777509      4.46E-03
    3    -154.8890478672      1.03E-03
    4    -154.9186563733      1.15E-03
    5    -154.9202909251      1.92E-04 Done RCA. Switching to DIIS
    6    -154.9223663387      2.39E-04
    7    -154.9225312992      7.49E-06 Convergence criterion met
 ---------------------------------------
 SCF time:  CPU 71.52 s  wall 11.98 s
 SCF   energy in the final basis set = -154.92253130
 Total energy in the final basis set = -154.92253130
 
 --------------------------------------------------------------
 
                    Orbital Energies (a.u.)
 --------------------------------------------------------------
 
 Alpha MOs
 -- Occupied --
-19.2412 -10.3469 -10.2525  -1.0855  -0.8838  -0.7103  -0.6094  -0.5559
 -0.5310  -0.4573  -0.4283  -0.4183  -0.3102
 -- Virtual --
  0.0542   0.0684   0.0853   0.0996   0.1127   0.1299   0.1385   0.1512
  0.1809   0.1932   0.2006   0.2406   0.2463   0.2786   0.2883   0.2958
  0.3158   0.3345   0.3821   0.3990   0.4597   0.4805   0.4942   0.5443
  0.5552   0.5802   0.5908   0.6047   0.6179   0.6387   0.6564   0.6744
  0.7180   0.7540   0.8012   0.8238   0.8281   0.8800   0.9153   0.9367
  1.0029   1.0563   1.0816   1.0838   1.1317   1.1522   1.1946   1.2117
  1.2291   1.2500   1.2857   1.2992   1.3172   1.3465   1.4138   1.4275
  1.4481   1.4528   1.4817   1.4969   1.5596   1.5800   1.6529   1.6861
  1.7343   1.8054   1.9011   1.9889   2.0619   2.2645   2.3017   2.4301
  2.4518   2.5292   2.6060   2.6353   2.6601   2.7237   2.7656   2.8064
  2.8495   2.8954   2.8984   2.9999   3.0098   3.0380   3.1074   3.1505
  3.1585   3.1675   3.2125   3.2339   3.2509   3.2649   3.3019   3.3279
  3.3703   3.3957   3.4369   3.4505   3.4553   3.5000   3.5240   3.5538
  3.5725   3.6030   3.6128   3.6399   3.6916   3.7318   3.7515   3.8268
  3.8684   3.8805   3.9068   3.9276   3.9779   3.9857   4.0494   4.0847
  4.1194   4.1294   4.1498   4.1924   4.2309   4.2494   4.2918   4.3020
  4.3198   4.3852   4.4213   4.4765   4.5114   4.5700   4.6776   4.7211
  4.7603   4.8594   4.8757   4.9062   4.9650   5.0400   5.0926   5.1027
  5.1755   5.2152   5.3724   5.4037   5.4082   5.4437   5.4837   5.5074
  5.5694   5.6833   5.7468   5.8132   5.9386   6.1895   6.3367   6.4042
  6.6269   6.7006   6.7488   6.8262   7.1694   7.2317   7.4064   7.6078
  7.7701   8.1871  24.9558  25.4442  50.4379
 --------------------------------------------------------------
 
 -----------------------------------------------------------------
                    Cartesian Multipole Moments
 -----------------------------------------------------------------
    Charge (ESU x 10^10)
                 0.0000
    Dipole Moment (Debye)
         X       0.2928      Y       0.8988      Z      -1.5044
       Tot       1.7767
    Quadrupole Moments (Debye-Ang)
        XX     -22.3663     XY      -3.1592     YY     -18.6584
        XZ       3.7544     YZ       0.7974     ZZ     -21.6093
    Octopole Moments (Debye-Ang^2)
       XXX     283.4798    XXY      -4.1869    XYY      86.6955
       YYY     -33.1778    XXZ     -11.3469    XYZ      -3.8424
       YYZ      -2.3286    XZZ      93.8923    YZZ     -11.4833
       ZZZ     -11.9279
    Hexadecapole Moments (Debye-Ang^3)
      XXXX   -2625.0179   XXXY     173.4151   XXYY    -448.7209
      XYYY     163.9913   YYYY    -110.7325   XXXZ      39.3343
      XXYZ      18.9416   XYYZ       5.0268   YYYZ       1.2333
      XXZZ    -441.5841   XYZZ      55.5064   YYZZ     -25.9912
      XZZZ      37.5167   YZZZ      -0.2503   ZZZZ     -47.7157
 -----------------------------------------------------------------
Archival summary:
1\1\centos77-c1\SP\ProcedureUnspecified\BasisUnspecified\126\shihchen\WedJul2900:43:412020WedJul2900:43:412020\0\\#,ProcedureUnspecified,BasisUnspecified,\\0,1\C\H,1,1.08084\H,1,1.08342,2,98.1643\C,1,1.34171,2,129.377,3,-159.21,0\H,4,1.08093,1,124.601,2,5.0266,0\H,4,1.08183,1,124.885,2,149.294,0\H,4,1.42746,1,76.7445,2,-104.467,0\O,7,1.28357,4,123.321,1,4.86189,0\H,8,0.964176,7,112.517,4,-109.293,0\\\@

 Total job time:  18.50s(wall), 96.64s(cpu) 
 Wed Jul 29 00:43:41 2020

        *************************************************************
        *                                                           *
        *  Thank you very much for using Q-Chem.  Have a nice day.  *
        *                                                           *
        *************************************************************


