                  Welcome to Q-Chem
     A Quantum Leap Into The Future Of Chemistry


 Q-Chem 5.3 (devel), Q-Chem, Inc., Pleasanton, CA (2020)

 Yihan Shao,  Zhengting Gan,  E. Epifanovsky,  A. T. B. Gilbert,  M. Wormit,  
 J. Kussmann,  A. W. Lange,  A. Behn,  Jia Deng,  Xintian Feng,  D. Ghosh,  
 M. Goldey,  P. R. Horn,  L. D. Jacobson,  I. Kaliman,  T. Kus,  A. Landau,  
 Jie Liu,  E. I. Proynov,  R. M. Richard,  R. P. Steele,  E. J. Sundstrom,  
 H. L. Woodcock III,  P. M. Zimmerman,  D. Zuev,  B. Alam,  B. Albrecht,  
 E. Alguire,  S. A. Baeppler,  D. Barton,  Z. Benda,  Y. A. Bernard,  
 E. J. Berquist,  K. B. Bravaya,  H. Burton,  K. Carter-Fenk,  D. Casanova,  
 Chun-Min Chang,  Yunqing Chen,  A. Chien,  K. D. Closser,  M. P. Coons,  
 S. Coriani,  S. Dasgupta,  A. L. Dempwolff,  M. Diedenhofen,  Hainam Do,  
 R. G. Edgar,  Po-Tung Fang,  S. Faraji,  S. Fatehi,  Qingguo Feng,  
 J. Fosso-Tande,  J. Gayvert,  Qinghui Ge,  A. Ghysels,  G. Gidofalvi,  
 J. Gomes,  J. Gonthier,  A. Gunina,  D. Hait,  M. W. D. Hanson-Heine,  
 P. H. P. Harbach,  A. W. Hauser,  M. F. Herbst,  J. E. Herr,  
 E. G. Hohenstein,  Z. C. Holden,  Kerwin Hui,  B. C. Huynh,  T.-C. Jagau,  
 Hyunjun Ji,  B. Kaduk,  K. Khistyaev,  Jaehoon Kim,  P. Klunzinger,  K. Koh,  
 D. Kosenkov,  L. Koulias,  T. Kowalczyk,  C. M. Krauter,  A. Kunitsa,  
 Ka Un Lao,  A. Laurent,  K. V. Lawler,  Joonho Lee,  D. Lefrancois,  
 S. Lehtola,  D. S. Levine,  Yi-Pei Li,  You-Sheng Lin,  Fenglai Liu,  
 Kuan-Yu Liu,  E. Livshits,  M. Loipersberger,  A. Luenser,  P. Manohar,  
 E. Mansoor,  S. F. Manzer,  Shan-Ping Mao,  Yuezhi Mao,  N. Mardirossian,  
 A. V. Marenich,  T. Markovich,  L. A. Martinez-Martinez,  S. A. Maurer,  
 N. J. Mayhall,  S. C. McKenzie,  J.-M. Mewes,  P. Morgante,  A. F. Morrison,  
 J. W. Mullinax,  K. Nanda,  T. S. Nguyen-Beck,  R. Olivares-Amaya,  
 K. J. Oosterbaan,  J. A. Parkhill,  S. K. Paul,  F. Pavosevic,  Zheng Pei,  
 T. M. Perrine,  F. Plasser,  P. Pokhilko,  S. Prager,  A. Prociuk,  
 E. Ramos,  B. Rana,  D. R. Rehn,  F. Rob,  M. Scheurer,  M. Schneider,  
 N. Sergueev,  S. M. Sharada,  S. Sharma,  D. W. Small,  T. Stauch,  
 C. J. Stein,  T. Stein,  Yu-Chuan Su,  S. P. Veccham,  Zhen Tao,  
 A. J. W. Thom,  A. Tkatchenko,  T. Tsuchimochi,  N. M. Tubman,  L. Vogt,  
 M. L. Vidal,  O. Vydrov,  M. A. Watson,  J. Wenzel,  M. de Wergifosse,  
 T. A. Wesolowski,  A. White,  J. Witte,  A. Yamada,  Jun Yang,  K. Yao,  
 S. Yeganeh,  S. R. Yost,  Zhi-Qiang You,  A. Zech,  Igor Ying Zhang,  
 Xing Zhang,  Yan Zhao,  Ying Zhu,  B. R. Brooks,  G. K. L. Chan,  
 C. J. Cramer,  M. S. Gordon,  W. J. Hehre,  A. Klamt,  M. W. Schmidt,  
 C. D. Sherrill,  D. G. Truhlar,  A. Aspuru-Guzik,  R. Baer,  A. T. Bell,  
 N. A. Besley,  Jeng-Da Chai,  A. E. DePrince, III,  R. A. DiStasio Jr.,  
 A. Dreuw,  B. D. Dunietz,  T. R. Furlani,  Chao-Ping Hsu,  Yousung Jung,  
 Jing Kong,  D. S. Lambrecht,  WanZhen Liang,  C. Ochsenfeld,  
 V. A. Rassolov,  L. V. Slipchenko,  J. E. Subotnik,  T. Van Voorhis,  
 J. M. Herbert,  A. I. Krylov,  P. M. W. Gill,  M. Head-Gordon

 Contributors to earlier versions of Q-Chem not listed above: 
 R. D. Adamson,  B. Austin,  J. Baker,  G. J. O. Beran,  K. Brandhorst,  
 S. T. Brown,  E. F. C. Byrd,  A. K. Chakraborty,  C.-L. Cheng,  
 Siu Hung Chien,  D. M. Chipman,  D. L. Crittenden,  H. Dachsel,  
 R. J. Doerksen,  A. D. Dutoi,  L. Fusti-Molnar,  W. A. Goddard III,  
 A. Golubeva-Zadorozhnaya,  S. R. Gwaltney,  G. Hawkins,  A. Heyden,  
 S. Hirata,  G. Kedziora,  F. J. Keil,  C. Kelley,  Jihan Kim,  R. A. King,  
 R. Z. Khaliullin,  P. P. Korambath,  W. Kurlancheek,  A. M. Lee,  M. S. Lee,  
 S. V. Levchenko,  Ching Yeh Lin,  D. Liotard,  R. C. Lochan,  I. Lotan,  
 P. E. Maslen,  N. Nair,  D. P. O'Neill,  D. Neuhauser,  E. Neuscamman,  
 C. M. Oana,  R. Olson,  B. Peters,  R. Peverati,  P. A. Pieniazek,  
 Y. M. Rhee,  J. Ritchie,  M. A. Rohrdanz,  E. Rosta,  N. J. Russ,  
 H. F. Schaefer III,  N. E. Schultz,  N. Shenvi,  A. C. Simmonett,  A. Sodt,  
 D. Stuck,  K. S. Thanthiriwatte,  V. Vanovschi,  Tao Wang,  A. Warshel,  
 C. F. Williams,  Q. Wu,  X. Xu,  W. Zhang

 Please cite Q-Chem as follows:
 Y. Shao et al., Mol. Phys. 113, 184-215 (2015)
 DOI: 10.1080/00268976.2014.952696

 Q-Chem 5.3.0 for Intel X86 EM64T Linux

 Parts of Q-Chem use Armadillo 9.800.1 (Horizon Scraper).
 http://arma.sourceforge.net/

 Q-Chem begins on Wed Jul 29 00:31:04 2020  

Host: centos77-c1
0

     Scratch files written to /tmp/30084.centos77-h1/qchem28847//
Processing $rem in /opt/qchem-5.3.0-intel2020u1//config/preferences:
Processing $rem in /home/shihchengli/.qchemrc:

Checking the input file for inconsistencies... 	...done.

--------------------------------------------------------------
User input:
--------------------------------------------------------------
$rem
   JOBTYPE  sp
   EXCHANGE   omegaB97X-D
   BASIS   6-311+G(2df,2pd)
   UNRESTRICTED   False
   max_scf_cycles   250
   geom_opt_max_cycles   1500
   basis2 6-31G*
   scf_algorithm rca_diis
   SYM_IGNORE  TRUE
   print_input   true
   geom_opt_dmax   80
   pop_mulliken false
   XC_GRID 000075000302
$end

$molecule
0 1
C       -5.4995674531     0.3583229865     -0.0370086906
C       -4.4594482179     1.3410020654     0.0546523615
H       -5.9629844840     0.5168383658     -1.0088662329
H       -6.3066308829     0.7446080481     0.5822163945
H       -4.3433117229     -0.4642071411     0.3429818914
O       -3.2270742799     -0.0550860630     0.6065390244
H       -4.3470896400     1.9682888793     0.9296284662
H       -3.9606050546     1.7245056609     -0.8286065807
H       -2.5740206618     -0.2711355448     -0.0686464705
$end
--------------------------------------------------------------
 ----------------------------------------------------------------
             Standard Nuclear Orientation (Angstroms)
    I     Atom           X                Y                Z
 ----------------------------------------------------------------
    1      C      -5.4995674531     0.3583229865    -0.0370086906
    2      C      -4.4594482179     1.3410020654     0.0546523615
    3      H      -5.9629844840     0.5168383658    -1.0088662329
    4      H      -6.3066308829     0.7446080481     0.5822163945
    5      H      -4.3433117229    -0.4642071411     0.3429818914
    6      O      -3.2270742799    -0.0550860630     0.6065390244
    7      H      -4.3470896400     1.9682888793     0.9296284662
    8      H      -3.9606050546     1.7245056609    -0.8286065807
    9      H      -2.5740206618    -0.2711355448    -0.0686464705
 ----------------------------------------------------------------
 Nuclear Repulsion Energy =          78.26617605 hartrees
 There are       13 alpha and       13 beta electrons
 Requested basis set is 6-311+G(2df,2pd)
 There are 60 shells and 186 basis functions

 Total QAlloc Memory Limit   2000 MB
 Mega-Array Size       188 MB
 MEM_STATIC part       192 MB

                       Distance Matrix (Angstroms)
             C (  1)   C (  2)   H (  3)   H (  4)   H (  5)   O (  6)
   C (  2)  1.433844
   H (  3)  1.088297  2.017657
   H (  4)  1.088121  2.011490  1.643629
   H (  5)  1.468971  1.831776  2.326646  2.317993
   O (  6)  2.397767  1.942263  3.228287  3.181787  1.217714
   H (  7)  2.203312  1.082449  2.911286  2.336213  2.502240  2.335138
   H (  8)  2.204878  1.084466  2.345310  2.907655  2.511881  2.400970
   H (  9)  2.992665  2.483753  3.604163  3.922721  1.826775  0.963863
             H (  7)   H (  8)
   H (  8)  1.816643
   H (  9)  3.025781  2.546122
 
 A cutoff of  1.0D-09 yielded   1776 shell pairs
 There are     17213 function pairs (     21378 Cartesian)
 Smallest overlap matrix eigenvalue = 8.81E-05

 Scale SEOQF with 1.000000e-02/1.000000e-01/1.000000e-01

 Standard Electronic Orientation quadrupole field applied
 Nucleus-field energy     =     0.0000000026 hartrees
 Requested basis set is 6-31G(d)
 There are 24 shells and 54 basis functions
 A cutoff of  1.0D-09 yielded    296 shell pairs
 There are      1547 function pairs (      1730 Cartesian)
 Smallest overlap matrix eigenvalue = 6.83E-03
 Guess from superposition of atomic densities
 Warning:  Energy on first SCF cycle will be non-variational
 SAD guess density has 26.000000 electrons
 Long-range K will be added via erf
 Coulomb attenuation parameter = 0.2 bohr**(-1)
 A restricted hybrid HF-DFT SCF calculation will be
 performed using Relaxed Constraint Minimization + Pulay DIIS
 Exchange:     0.2220 Hartree-Fock + 1.0000 wB97X-D + LR-HF
 Correlation:  1.0000 wB97X-D
 Using Euler-Maclaurin-Lebedev (75,302) quadrature formula
 Dispersion:   Grimme D
 SCF converges when DIIS error is below 1.0E-04
 using 6 threads for integral computing
 -------------------------------------------------------
 OpenMP Integral computing Module                
 Release: version 1.0, May 2013, Q-Chem Inc. Pittsburgh 
 -------------------------------------------------------
 using 6 threads for integral computing
 -------------------------------------------------------
 OpenMP Integral computing Module                
 Release: version 1.0, May 2013, Q-Chem Inc. Pittsburgh 
 -------------------------------------------------------
 ---------------------------------------
  Cycle       Energy         DIIS Error
 ---------------------------------------
    1    -155.1789644667      9.68E-02
    2    -154.7626949974      1.56E-02
    3    -154.7968784864      3.29E-03
    4    -154.8382702089      2.36E-03
    5    -154.8391698895      5.10E-04 Done RCA. Switching to DIIS
    6    -154.8402856246      3.27E-04
    7    -154.8403228943      4.29E-05 Convergence criterion met
 ---------------------------------------
 SCF time:  CPU 17.95 s  wall 3.01 s
 SCF   energy in the small basis set = -154.84032289
 Total energy in the small basis set = -154.84032289
 ----------------------------------------------------
  Cycle       Energy    
 ----------------------------------------------------
    1     -18.6425597575     -1.86E+01
 Long-range K will be added via erf
 Coulomb attenuation parameter = 0.2 bohr**(-1)
 A restricted hybrid HF-DFT SCF calculation will be
 performed using Relaxed Constraint Minimization + Pulay DIIS
 Exchange:     0.2220 Hartree-Fock + 1.0000 wB97X-D + LR-HF
 Correlation:  1.0000 wB97X-D
 Using Euler-Maclaurin-Lebedev (75,302) quadrature formula
 Dispersion:   Grimme D
 SCF converges when DIIS error is below 1.0E-05
 Basis2 calculation detected. Using small basis as guess for larger.
 SCFMinFind is unable to tell whether the solution found is close.
 Resetting ReadMinima to 0 and attempting to follow guess.
 SCFMinFind following SCF Guess.
 using 6 threads for integral computing
 -------------------------------------------------------
 OpenMP Integral computing Module                
 Release: version 1.0, May 2013, Q-Chem Inc. Pittsburgh 
 -------------------------------------------------------
 using 6 threads for integral computing
 -------------------------------------------------------
 OpenMP Integral computing Module                
 Release: version 1.0, May 2013, Q-Chem Inc. Pittsburgh 
 -------------------------------------------------------
 ---------------------------------------
  Cycle       Energy         DIIS Error
 ---------------------------------------
    1    -154.8641052765      5.99E-03
    2    -154.8595232108      4.46E-03
    3    -154.8813289186      1.04E-03
    4    -154.9117117792      1.14E-03
    5    -154.9133696980      1.82E-04 Done RCA. Switching to DIIS
    6    -154.9154810217      2.19E-04
    7    -154.9156282357      1.20E-05
    8    -154.9156294011      1.31E-05
    9    -154.9156299692      4.34E-06 Convergence criterion met
 ---------------------------------------
 SCF time:  CPU 74.64 s  wall 12.48 s
 SCF   energy in the final basis set = -154.91562997
 Total energy in the final basis set = -154.91562997
 
 --------------------------------------------------------------
 
                    Orbital Energies (a.u.)
 --------------------------------------------------------------
 
 Alpha MOs
 -- Occupied --
-19.2536 -10.3611 -10.2514  -1.0918  -0.8753  -0.6976  -0.6191  -0.5657
 -0.4962  -0.4520  -0.4295  -0.4191  -0.3217
 -- Virtual --
  0.0264   0.0652   0.0911   0.0945   0.1075   0.1354   0.1372   0.1478
  0.1787   0.1883   0.1976   0.2410   0.2487   0.2760   0.2829   0.2908
  0.3215   0.3315   0.3540   0.3951   0.4653   0.4732   0.5152   0.5211
  0.5553   0.5725   0.5800   0.5867   0.6166   0.6356   0.6394   0.6585
  0.6922   0.7232   0.7774   0.8335   0.8676   0.8860   0.9155   0.9396
  0.9843   1.0209   1.0466   1.0830   1.0878   1.1162   1.1519   1.1692
  1.2104   1.2416   1.2919   1.3040   1.3185   1.3622   1.4020   1.4159
  1.4291   1.4532   1.4630   1.4723   1.5025   1.5446   1.5705   1.6209
  1.6431   1.7975   1.9041   1.9695   2.0358   2.2642   2.3242   2.4366
  2.4882   2.5630   2.6074   2.6343   2.6797   2.7180   2.7417   2.7938
  2.8959   2.9171   2.9416   2.9765   2.9960   3.0223   3.0680   3.0777
  3.0835   3.1197   3.2096   3.2232   3.2534   3.2574   3.2932   3.3554
  3.3795   3.3844   3.4021   3.4212   3.4349   3.4682   3.5063   3.5269
  3.5459   3.5766   3.5868   3.6156   3.6378   3.6459   3.6878   3.7281
  3.7579   3.7970   3.8736   3.9029   3.9470   3.9904   4.0352   4.0532
  4.0879   4.0927   4.1062   4.1563   4.1953   4.2272   4.2792   4.2905
  4.3295   4.3527   4.3803   4.4058   4.5001   4.5860   4.6270   4.6555
  4.7024   4.7592   4.8670   4.8967   4.8991   4.9526   5.0003   5.0295
  5.1191   5.2106   5.2916   5.2947   5.3337   5.3809   5.4023   5.4937
  5.5576   5.6078   5.7369   5.7663   5.8205   6.0523   6.1486   6.3557
  6.4589   6.6183   6.7326   6.9417   7.1399   7.2139   7.3839   7.5845
  7.7520   8.1497  24.9312  25.2751  50.4200
 --------------------------------------------------------------
 
 -----------------------------------------------------------------
                    Cartesian Multipole Moments
 -----------------------------------------------------------------
    Charge (ESU x 10^10)
                 0.0000
    Dipole Moment (Debye)
         X       0.7087      Y       1.6878      Z      -1.5152
       Tot       2.3763
    Quadrupole Moments (Debye-Ang)
        XX     -26.6761     XY      -8.5831     YY     -18.0217
        XZ       3.8812     YZ       0.4407     ZZ     -21.4265
    Octopole Moments (Debye-Ang^2)
       XXX     318.5455    XXY      31.1093    XYY      81.3911
       YYY     -29.0625    XXZ     -13.0225    XYZ      -2.1284
       YYZ      -2.6489    XZZ      93.3362    YZZ      -8.9855
       ZZZ     -12.3692
    Hexadecapole Moments (Debye-Ang^3)
      XXXX   -2887.2667   XXXY     -48.7231   XXYY    -412.8137
      XYYY     141.4531   YYYY    -106.9433   XXXZ      55.3972
      XXYZ      10.7068   XYYZ       5.8552   YYYZ       1.9231
      XXZZ    -442.2872   XYZZ      43.6928   YYZZ     -23.6498
      XZZZ      38.8507   YZZZ       0.2187   ZZZZ     -48.6901
 -----------------------------------------------------------------
Archival summary:
1\1\centos77-c1\SP\ProcedureUnspecified\BasisUnspecified\126\shihchen\WedJul2900:31:232020WedJul2900:31:232020\0\\#,ProcedureUnspecified,BasisUnspecified,\\0,1\C\H,1,1.08245\H,1,1.08447,2,113.933\C,1,1.43384,2,121.61,3,-161.137,0\H,4,1.08812,1,104.973,2,28.3344,0\H,4,1.0883,1,105.436,2,131.331,0\H,4,1.46897,1,78.2426,2,-99.7005,0\O,7,1.21771,4,126.114,1,4.02285,0\H,8,0.963863,7,113.213,4,-109.293,0\\\@

 Total job time:  18.17s(wall), 97.47s(cpu) 
 Wed Jul 29 00:31:23 2020

        *************************************************************
        *                                                           *
        *  Thank you very much for using Q-Chem.  Have a nice day.  *
        *                                                           *
        *************************************************************


