                  Welcome to Q-Chem
     A Quantum Leap Into The Future Of Chemistry


 Q-Chem 5.3 (devel), Q-Chem, Inc., Pleasanton, CA (2020)

 Yihan Shao,  Zhengting Gan,  E. Epifanovsky,  A. T. B. Gilbert,  M. Wormit,  
 J. Kussmann,  A. W. Lange,  A. Behn,  Jia Deng,  Xintian Feng,  D. Ghosh,  
 M. Goldey,  P. R. Horn,  L. D. Jacobson,  I. Kaliman,  T. Kus,  A. Landau,  
 Jie Liu,  E. I. Proynov,  R. M. Richard,  R. P. Steele,  E. J. Sundstrom,  
 H. L. Woodcock III,  P. M. Zimmerman,  D. Zuev,  B. Alam,  B. Albrecht,  
 E. Alguire,  S. A. Baeppler,  D. Barton,  Z. Benda,  Y. A. Bernard,  
 E. J. Berquist,  K. B. Bravaya,  H. Burton,  K. Carter-Fenk,  D. Casanova,  
 Chun-Min Chang,  Yunqing Chen,  A. Chien,  K. D. Closser,  M. P. Coons,  
 S. Coriani,  S. Dasgupta,  A. L. Dempwolff,  M. Diedenhofen,  Hainam Do,  
 R. G. Edgar,  Po-Tung Fang,  S. Faraji,  S. Fatehi,  Qingguo Feng,  
 J. Fosso-Tande,  J. Gayvert,  Qinghui Ge,  A. Ghysels,  G. Gidofalvi,  
 J. Gomes,  J. Gonthier,  A. Gunina,  D. Hait,  M. W. D. Hanson-Heine,  
 P. H. P. Harbach,  A. W. Hauser,  M. F. Herbst,  J. E. Herr,  
 E. G. Hohenstein,  Z. C. Holden,  Kerwin Hui,  B. C. Huynh,  T.-C. Jagau,  
 Hyunjun Ji,  B. Kaduk,  K. Khistyaev,  Jaehoon Kim,  P. Klunzinger,  K. Koh,  
 D. Kosenkov,  L. Koulias,  T. Kowalczyk,  C. M. Krauter,  A. Kunitsa,  
 Ka Un Lao,  A. Laurent,  K. V. Lawler,  Joonho Lee,  D. Lefrancois,  
 S. Lehtola,  D. S. Levine,  Yi-Pei Li,  You-Sheng Lin,  Fenglai Liu,  
 Kuan-Yu Liu,  E. Livshits,  M. Loipersberger,  A. Luenser,  P. Manohar,  
 E. Mansoor,  S. F. Manzer,  Shan-Ping Mao,  Yuezhi Mao,  N. Mardirossian,  
 A. V. Marenich,  T. Markovich,  L. A. Martinez-Martinez,  S. A. Maurer,  
 N. J. Mayhall,  S. C. McKenzie,  J.-M. Mewes,  P. Morgante,  A. F. Morrison,  
 J. W. Mullinax,  K. Nanda,  T. S. Nguyen-Beck,  R. Olivares-Amaya,  
 K. J. Oosterbaan,  J. A. Parkhill,  S. K. Paul,  F. Pavosevic,  Zheng Pei,  
 T. M. Perrine,  F. Plasser,  P. Pokhilko,  S. Prager,  A. Prociuk,  
 E. Ramos,  B. Rana,  D. R. Rehn,  F. Rob,  M. Scheurer,  M. Schneider,  
 N. Sergueev,  S. M. Sharada,  S. Sharma,  D. W. Small,  T. Stauch,  
 C. J. Stein,  T. Stein,  Yu-Chuan Su,  S. P. Veccham,  Zhen Tao,  
 A. J. W. Thom,  A. Tkatchenko,  T. Tsuchimochi,  N. M. Tubman,  L. Vogt,  
 M. L. Vidal,  O. Vydrov,  M. A. Watson,  J. Wenzel,  M. de Wergifosse,  
 T. A. Wesolowski,  A. White,  J. Witte,  A. Yamada,  Jun Yang,  K. Yao,  
 S. Yeganeh,  S. R. Yost,  Zhi-Qiang You,  A. Zech,  Igor Ying Zhang,  
 Xing Zhang,  Yan Zhao,  Ying Zhu,  B. R. Brooks,  G. K. L. Chan,  
 C. J. Cramer,  M. S. Gordon,  W. J. Hehre,  A. Klamt,  M. W. Schmidt,  
 C. D. Sherrill,  D. G. Truhlar,  A. Aspuru-Guzik,  R. Baer,  A. T. Bell,  
 N. A. Besley,  Jeng-Da Chai,  A. E. DePrince, III,  R. A. DiStasio Jr.,  
 A. Dreuw,  B. D. Dunietz,  T. R. Furlani,  Chao-Ping Hsu,  Yousung Jung,  
 Jing Kong,  D. S. Lambrecht,  WanZhen Liang,  C. Ochsenfeld,  
 V. A. Rassolov,  L. V. Slipchenko,  J. E. Subotnik,  T. Van Voorhis,  
 J. M. Herbert,  A. I. Krylov,  P. M. W. Gill,  M. Head-Gordon

 Contributors to earlier versions of Q-Chem not listed above: 
 R. D. Adamson,  B. Austin,  J. Baker,  G. J. O. Beran,  K. Brandhorst,  
 S. T. Brown,  E. F. C. Byrd,  A. K. Chakraborty,  C.-L. Cheng,  
 Siu Hung Chien,  D. M. Chipman,  D. L. Crittenden,  H. Dachsel,  
 R. J. Doerksen,  A. D. Dutoi,  L. Fusti-Molnar,  W. A. Goddard III,  
 A. Golubeva-Zadorozhnaya,  S. R. Gwaltney,  G. Hawkins,  A. Heyden,  
 S. Hirata,  G. Kedziora,  F. J. Keil,  C. Kelley,  Jihan Kim,  R. A. King,  
 R. Z. Khaliullin,  P. P. Korambath,  W. Kurlancheek,  A. M. Lee,  M. S. Lee,  
 S. V. Levchenko,  Ching Yeh Lin,  D. Liotard,  R. C. Lochan,  I. Lotan,  
 P. E. Maslen,  N. Nair,  D. P. O'Neill,  D. Neuhauser,  E. Neuscamman,  
 C. M. Oana,  R. Olson,  B. Peters,  R. Peverati,  P. A. Pieniazek,  
 Y. M. Rhee,  J. Ritchie,  M. A. Rohrdanz,  E. Rosta,  N. J. Russ,  
 H. F. Schaefer III,  N. E. Schultz,  N. Shenvi,  A. C. Simmonett,  A. Sodt,  
 D. Stuck,  K. S. Thanthiriwatte,  V. Vanovschi,  Tao Wang,  A. Warshel,  
 C. F. Williams,  Q. Wu,  X. Xu,  W. Zhang

 Please cite Q-Chem as follows:
 Y. Shao et al., Mol. Phys. 113, 184-215 (2015)
 DOI: 10.1080/00268976.2014.952696

 Q-Chem 5.3.0 for Intel X86 EM64T Linux

 Parts of Q-Chem use Armadillo 9.800.1 (Horizon Scraper).
 http://arma.sourceforge.net/

 Q-Chem begins on Wed Jul 29 00:38:58 2020  

Host: centos77-c1
0

     Scratch files written to /tmp/30084.centos77-h1/qchem30030//
Processing $rem in /opt/qchem-5.3.0-intel2020u1//config/preferences:
Processing $rem in /home/shihchengli/.qchemrc:

Checking the input file for inconsistencies... 	...done.

--------------------------------------------------------------
User input:
--------------------------------------------------------------
$rem
   JOBTYPE  sp
   EXCHANGE   omegaB97X-D
   BASIS   6-311+G(2df,2pd)
   UNRESTRICTED   False
   max_scf_cycles   250
   geom_opt_max_cycles   1500
   basis2 6-31G*
   scf_algorithm rca_diis
   SYM_IGNORE  TRUE
   print_input   true
   geom_opt_dmax   80
   pop_mulliken false
   XC_GRID 000075000302
$end

$molecule
0 1
C       -5.5081396676     0.5543369192     -0.0686218850
C       -4.4680876943     1.3514703976     0.0395652226
H       -5.8238414631     0.3709292959     -1.0829472027
H       -6.2191702225     0.5942868756     0.7398046924
H       -4.5051102251     -0.2672808542     0.2887866078
O       -3.2958754456     0.0168814737     0.5901555442
H       -4.2995786733     1.8617543864     0.9714126578
H       -3.9160561776     1.6357553243     -0.8405607040
H       -2.6448728281     -0.2549965614     -0.0647047698
$end
--------------------------------------------------------------
 ----------------------------------------------------------------
             Standard Nuclear Orientation (Angstroms)
    I     Atom           X                Y                Z
 ----------------------------------------------------------------
    1      C      -5.5081396676     0.5543369192    -0.0686218850
    2      C      -4.4680876943     1.3514703976     0.0395652226
    3      H      -5.8238414631     0.3709292959    -1.0829472027
    4      H      -6.2191702225     0.5942868756     0.7398046924
    5      H      -4.5051102251    -0.2672808542     0.2887866078
    6      O      -3.2958754456     0.0168814737     0.5901555442
    7      H      -4.2995786733     1.8617543864     0.9714126578
    8      H      -3.9160561776     1.6357553243    -0.8405607040
    9      H      -2.6448728281    -0.2549965614    -0.0647047698
 ----------------------------------------------------------------
 Nuclear Repulsion Energy =          81.27587964 hartrees
 There are       13 alpha and       13 beta electrons
 Requested basis set is 6-311+G(2df,2pd)
 There are 60 shells and 186 basis functions

 Total QAlloc Memory Limit   2000 MB
 Mega-Array Size       188 MB
 MEM_STATIC part       192 MB

                       Distance Matrix (Angstroms)
             C (  1)   C (  2)   H (  3)   H (  4)   H (  5)   O (  6)
   C (  2)  1.314851
   H (  3)  1.078036  2.014836
   H (  4)  1.077364  2.032228  1.878456
   H (  5)  1.344940  1.638242  2.006992  1.970715
   O (  6)  2.370012  1.859666  3.052087  2.983529  1.278210
   H (  7)  2.061949  1.075697  2.960799  2.311914  2.245220  2.134557
   H (  8)  2.073665  1.077116  2.301778  2.981031  2.289969  2.247738
   H (  9)  2.975455  2.432225  3.396239  3.760867  1.893565  0.962582
             H (  7)   H (  8)
   H (  8)  1.865854
   H (  9)  2.879622  2.406824
 
 A cutoff of  1.0D-09 yielded   1785 shell pairs
 There are     17300 function pairs (     21494 Cartesian)
 Smallest overlap matrix eigenvalue = 5.89E-05

 Scale SEOQF with 1.000000e-02/1.000000e-01/1.000000e-01

 Standard Electronic Orientation quadrupole field applied
 Nucleus-field energy     =     0.0000000026 hartrees
 Requested basis set is 6-31G(d)
 There are 24 shells and 54 basis functions
 A cutoff of  1.0D-09 yielded    298 shell pairs
 There are      1549 function pairs (      1732 Cartesian)
 Smallest overlap matrix eigenvalue = 4.67E-03
 Guess from superposition of atomic densities
 Warning:  Energy on first SCF cycle will be non-variational
 SAD guess density has 26.000000 electrons
 Long-range K will be added via erf
 Coulomb attenuation parameter = 0.2 bohr**(-1)
 A restricted hybrid HF-DFT SCF calculation will be
 performed using Relaxed Constraint Minimization + Pulay DIIS
 Exchange:     0.2220 Hartree-Fock + 1.0000 wB97X-D + LR-HF
 Correlation:  1.0000 wB97X-D
 Using Euler-Maclaurin-Lebedev (75,302) quadrature formula
 Dispersion:   Grimme D
 SCF converges when DIIS error is below 1.0E-04
 using 6 threads for integral computing
 -------------------------------------------------------
 OpenMP Integral computing Module                
 Release: version 1.0, May 2013, Q-Chem Inc. Pittsburgh 
 -------------------------------------------------------
 using 6 threads for integral computing
 -------------------------------------------------------
 OpenMP Integral computing Module                
 Release: version 1.0, May 2013, Q-Chem Inc. Pittsburgh 
 -------------------------------------------------------
 ---------------------------------------
  Cycle       Energy         DIIS Error
 ---------------------------------------
    1    -155.4627431246      1.08E-01
    2    -154.7612132146      1.67E-02
    3    -154.7991379342      3.52E-03
    4    -154.8450404081      2.52E-03
    5    -154.8460838252      5.44E-04 Done RCA. Switching to DIIS
    6    -154.8473237925      3.98E-04
    7    -154.8473742478      3.17E-05 Convergence criterion met
 ---------------------------------------
 SCF time:  CPU 17.51 s  wall 2.93 s
 SCF   energy in the small basis set = -154.84737425
 Total energy in the small basis set = -154.84737425
 ----------------------------------------------------
  Cycle       Energy    
 ----------------------------------------------------
    1     -18.7499326922     -1.87E+01
 Long-range K will be added via erf
 Coulomb attenuation parameter = 0.2 bohr**(-1)
 A restricted hybrid HF-DFT SCF calculation will be
 performed using Relaxed Constraint Minimization + Pulay DIIS
 Exchange:     0.2220 Hartree-Fock + 1.0000 wB97X-D + LR-HF
 Correlation:  1.0000 wB97X-D
 Using Euler-Maclaurin-Lebedev (75,302) quadrature formula
 Dispersion:   Grimme D
 SCF converges when DIIS error is below 1.0E-05
 Basis2 calculation detected. Using small basis as guess for larger.
 SCFMinFind is unable to tell whether the solution found is close.
 Resetting ReadMinima to 0 and attempting to follow guess.
 SCFMinFind following SCF Guess.
 using 6 threads for integral computing
 -------------------------------------------------------
 OpenMP Integral computing Module                
 Release: version 1.0, May 2013, Q-Chem Inc. Pittsburgh 
 -------------------------------------------------------
 using 6 threads for integral computing
 -------------------------------------------------------
 OpenMP Integral computing Module                
 Release: version 1.0, May 2013, Q-Chem Inc. Pittsburgh 
 -------------------------------------------------------
 ---------------------------------------
  Cycle       Energy         DIIS Error
 ---------------------------------------
    1    -154.8705205859      6.08E-03
    2    -154.8608248861      4.80E-03
    3    -154.8855860771      1.14E-03
    4    -154.9199091956      1.24E-03
    5    -154.9219189221      1.73E-04 Done RCA. Switching to DIIS
    6    -154.9246033561      2.11E-04
    7    -154.9247325170      7.34E-06 Convergence criterion met
 ---------------------------------------
 SCF time:  CPU 62.71 s  wall 10.49 s
 SCF   energy in the final basis set = -154.92473252
 Total energy in the final basis set = -154.92473252
 
 --------------------------------------------------------------
 
                    Orbital Energies (a.u.)
 --------------------------------------------------------------
 
 Alpha MOs
 -- Occupied --
-19.2241 -10.3391 -10.2480  -1.0758  -0.9037  -0.6903  -0.6118  -0.5854
 -0.5108  -0.4625  -0.4354  -0.4082  -0.3133
 -- Virtual --
  0.0565   0.0703   0.0900   0.0938   0.1105   0.1278   0.1357   0.1480
  0.1773   0.1901   0.2211   0.2446   0.2563   0.2789   0.2852   0.3033
  0.3301   0.3373   0.3734   0.4016   0.4476   0.4733   0.4848   0.5475
  0.5633   0.5720   0.5813   0.6089   0.6380   0.6429   0.6650   0.7002
  0.7254   0.7718   0.8149   0.8389   0.8721   0.8876   0.9103   0.9360
  0.9715   0.9892   1.0703   1.0984   1.1467   1.1677   1.1895   1.2047
  1.2490   1.2725   1.2992   1.3152   1.3350   1.3445   1.4112   1.4376
  1.4628   1.4663   1.4770   1.4978   1.5500   1.5631   1.5996   1.6808
  1.7235   1.7827   1.9071   2.0127   2.0596   2.2755   2.3073   2.4595
  2.5188   2.5532   2.6467   2.6819   2.6975   2.7616   2.8012   2.8273
  2.8926   2.9322   2.9672   2.9873   3.0096   3.0363   3.0505   3.0659
  3.0811   3.1384   3.1829   3.2349   3.2418   3.2809   3.3398   3.3726
  3.3871   3.4049   3.4342   3.4558   3.4659   3.5255   3.5704   3.5780
  3.5954   3.6252   3.6482   3.6925   3.7428   3.7805   3.8157   3.8259
  3.8341   3.8816   3.9186   3.9327   3.9532   3.9814   4.0308   4.0856
  4.1108   4.1813   4.2199   4.2408   4.2753   4.2876   4.2900   4.3428
  4.3995   4.4485   4.4960   4.5155   4.5597   4.7314   4.7347   4.7565
  4.7756   4.8718   4.9348   4.9944   5.0097   5.0592   5.0904   5.1477
  5.1652   5.1920   5.3102   5.3371   5.4288   5.4616   5.5054   5.6427
  5.6809   5.7744   5.8354   5.8457   6.0869   6.1922   6.2609   6.4845
  6.5389   6.6495   6.7265   6.8125   7.1693   7.2276   7.4115   7.6328
  7.7845   8.1961  24.9777  25.6083  50.4536
 --------------------------------------------------------------
 
 -----------------------------------------------------------------
                    Cartesian Multipole Moments
 -----------------------------------------------------------------
    Charge (ESU x 10^10)
                 0.0000
    Dipole Moment (Debye)
         X      -0.0905      Y       0.9699      Z      -1.5830
       Tot       1.8587
    Quadrupole Moments (Debye-Ang)
        XX     -19.8502     XY      -4.2690     YY     -19.1950
        XZ       3.6408     YZ       0.7153     ZZ     -20.4236
    Octopole Moments (Debye-Ang^2)
       XXX     273.9971    XXY       3.7718    XYY      87.4960
       YYY     -35.7919    XXZ      -8.1820    XYZ      -3.8273
       YYZ      -2.3481    XZZ      87.8212    YZZ     -10.2804
       ZZZ     -11.7575
    Hexadecapole Moments (Debye-Ang^3)
      XXXX   -2619.6681   XXXY     127.4346   XXYY    -444.0973
      XYYY     173.8175   YYYY    -113.9178   XXXZ      10.2243
      XXYZ      20.4670   XYYZ       4.6793   YYYZ       1.3378
      XXZZ    -409.9987   XYZZ      49.9275   YYZZ     -24.3197
      XZZZ      36.4709   YZZZ       0.3486   ZZZZ     -47.4704
 -----------------------------------------------------------------
Archival summary:
1\1\centos77-c1\SP\ProcedureUnspecified\BasisUnspecified\126\shihchen\WedJul2900:39:142020WedJul2900:39:142020\0\\#,ProcedureUnspecified,BasisUnspecified,\\0,1\C\H,1,1.0757\H,1,1.07712,2,120.156\C,1,1.31485,2,118.867,3,-168.01,0\H,4,1.07736,1,115.965,2,9.90787,0\H,4,1.07804,1,114.343,2,158.557,0\H,4,1.34494,1,76.0295,2,-94.0022,0\O,7,1.27821,4,129.226,1,4.09288,0\H,8,0.962582,7,114.621,4,-109.293,0\\\@

 Total job time:  16.13s(wall), 84.73s(cpu) 
 Wed Jul 29 00:39:14 2020

        *************************************************************
        *                                                           *
        *  Thank you very much for using Q-Chem.  Have a nice day.  *
        *                                                           *
        *************************************************************


