                  Welcome to Q-Chem
     A Quantum Leap Into The Future Of Chemistry


 Q-Chem 5.3 (devel), Q-Chem, Inc., Pleasanton, CA (2020)

 Yihan Shao,  Zhengting Gan,  E. Epifanovsky,  A. T. B. Gilbert,  M. Wormit,  
 J. Kussmann,  A. W. Lange,  A. Behn,  Jia Deng,  Xintian Feng,  D. Ghosh,  
 M. Goldey,  P. R. Horn,  L. D. Jacobson,  I. Kaliman,  T. Kus,  A. Landau,  
 Jie Liu,  E. I. Proynov,  R. M. Richard,  R. P. Steele,  E. J. Sundstrom,  
 H. L. Woodcock III,  P. M. Zimmerman,  D. Zuev,  B. Alam,  B. Albrecht,  
 E. Alguire,  S. A. Baeppler,  D. Barton,  Z. Benda,  Y. A. Bernard,  
 E. J. Berquist,  K. B. Bravaya,  H. Burton,  K. Carter-Fenk,  D. Casanova,  
 Chun-Min Chang,  Yunqing Chen,  A. Chien,  K. D. Closser,  M. P. Coons,  
 S. Coriani,  S. Dasgupta,  A. L. Dempwolff,  M. Diedenhofen,  Hainam Do,  
 R. G. Edgar,  Po-Tung Fang,  S. Faraji,  S. Fatehi,  Qingguo Feng,  
 J. Fosso-Tande,  J. Gayvert,  Qinghui Ge,  A. Ghysels,  G. Gidofalvi,  
 J. Gomes,  J. Gonthier,  A. Gunina,  D. Hait,  M. W. D. Hanson-Heine,  
 P. H. P. Harbach,  A. W. Hauser,  M. F. Herbst,  J. E. Herr,  
 E. G. Hohenstein,  Z. C. Holden,  Kerwin Hui,  B. C. Huynh,  T.-C. Jagau,  
 Hyunjun Ji,  B. Kaduk,  K. Khistyaev,  Jaehoon Kim,  P. Klunzinger,  K. Koh,  
 D. Kosenkov,  L. Koulias,  T. Kowalczyk,  C. M. Krauter,  A. Kunitsa,  
 Ka Un Lao,  A. Laurent,  K. V. Lawler,  Joonho Lee,  D. Lefrancois,  
 S. Lehtola,  D. S. Levine,  Yi-Pei Li,  You-Sheng Lin,  Fenglai Liu,  
 Kuan-Yu Liu,  E. Livshits,  M. Loipersberger,  A. Luenser,  P. Manohar,  
 E. Mansoor,  S. F. Manzer,  Shan-Ping Mao,  Yuezhi Mao,  N. Mardirossian,  
 A. V. Marenich,  T. Markovich,  L. A. Martinez-Martinez,  S. A. Maurer,  
 N. J. Mayhall,  S. C. McKenzie,  J.-M. Mewes,  P. Morgante,  A. F. Morrison,  
 J. W. Mullinax,  K. Nanda,  T. S. Nguyen-Beck,  R. Olivares-Amaya,  
 K. J. Oosterbaan,  J. A. Parkhill,  S. K. Paul,  F. Pavosevic,  Zheng Pei,  
 T. M. Perrine,  F. Plasser,  P. Pokhilko,  S. Prager,  A. Prociuk,  
 E. Ramos,  B. Rana,  D. R. Rehn,  F. Rob,  M. Scheurer,  M. Schneider,  
 N. Sergueev,  S. M. Sharada,  S. Sharma,  D. W. Small,  T. Stauch,  
 C. J. Stein,  T. Stein,  Yu-Chuan Su,  S. P. Veccham,  Zhen Tao,  
 A. J. W. Thom,  A. Tkatchenko,  T. Tsuchimochi,  N. M. Tubman,  L. Vogt,  
 M. L. Vidal,  O. Vydrov,  M. A. Watson,  J. Wenzel,  M. de Wergifosse,  
 T. A. Wesolowski,  A. White,  J. Witte,  A. Yamada,  Jun Yang,  K. Yao,  
 S. Yeganeh,  S. R. Yost,  Zhi-Qiang You,  A. Zech,  Igor Ying Zhang,  
 Xing Zhang,  Yan Zhao,  Ying Zhu,  B. R. Brooks,  G. K. L. Chan,  
 C. J. Cramer,  M. S. Gordon,  W. J. Hehre,  A. Klamt,  M. W. Schmidt,  
 C. D. Sherrill,  D. G. Truhlar,  A. Aspuru-Guzik,  R. Baer,  A. T. Bell,  
 N. A. Besley,  Jeng-Da Chai,  A. E. DePrince, III,  R. A. DiStasio Jr.,  
 A. Dreuw,  B. D. Dunietz,  T. R. Furlani,  Chao-Ping Hsu,  Yousung Jung,  
 Jing Kong,  D. S. Lambrecht,  WanZhen Liang,  C. Ochsenfeld,  
 V. A. Rassolov,  L. V. Slipchenko,  J. E. Subotnik,  T. Van Voorhis,  
 J. M. Herbert,  A. I. Krylov,  P. M. W. Gill,  M. Head-Gordon

 Contributors to earlier versions of Q-Chem not listed above: 
 R. D. Adamson,  B. Austin,  J. Baker,  G. J. O. Beran,  K. Brandhorst,  
 S. T. Brown,  E. F. C. Byrd,  A. K. Chakraborty,  C.-L. Cheng,  
 Siu Hung Chien,  D. M. Chipman,  D. L. Crittenden,  H. Dachsel,  
 R. J. Doerksen,  A. D. Dutoi,  L. Fusti-Molnar,  W. A. Goddard III,  
 A. Golubeva-Zadorozhnaya,  S. R. Gwaltney,  G. Hawkins,  A. Heyden,  
 S. Hirata,  G. Kedziora,  F. J. Keil,  C. Kelley,  Jihan Kim,  R. A. King,  
 R. Z. Khaliullin,  P. P. Korambath,  W. Kurlancheek,  A. M. Lee,  M. S. Lee,  
 S. V. Levchenko,  Ching Yeh Lin,  D. Liotard,  R. C. Lochan,  I. Lotan,  
 P. E. Maslen,  N. Nair,  D. P. O'Neill,  D. Neuhauser,  E. Neuscamman,  
 C. M. Oana,  R. Olson,  B. Peters,  R. Peverati,  P. A. Pieniazek,  
 Y. M. Rhee,  J. Ritchie,  M. A. Rohrdanz,  E. Rosta,  N. J. Russ,  
 H. F. Schaefer III,  N. E. Schultz,  N. Shenvi,  A. C. Simmonett,  A. Sodt,  
 D. Stuck,  K. S. Thanthiriwatte,  V. Vanovschi,  Tao Wang,  A. Warshel,  
 C. F. Williams,  Q. Wu,  X. Xu,  W. Zhang

 Please cite Q-Chem as follows:
 Y. Shao et al., Mol. Phys. 113, 184-215 (2015)
 DOI: 10.1080/00268976.2014.952696

 Q-Chem 5.3.0 for Intel X86 EM64T Linux

 Parts of Q-Chem use Armadillo 9.800.1 (Horizon Scraper).
 http://arma.sourceforge.net/

 Q-Chem begins on Wed Jul 29 00:42:04 2020  

Host: centos77-c1
0

     Scratch files written to /tmp/30084.centos77-h1/qchem30466//
Processing $rem in /opt/qchem-5.3.0-intel2020u1//config/preferences:
Processing $rem in /home/shihchengli/.qchemrc:

Checking the input file for inconsistencies... 	...done.

--------------------------------------------------------------
User input:
--------------------------------------------------------------
$rem
   JOBTYPE  sp
   EXCHANGE   omegaB97X-D
   BASIS   6-311+G(2df,2pd)
   UNRESTRICTED   False
   max_scf_cycles   250
   geom_opt_max_cycles   1500
   basis2 6-31G*
   scf_algorithm rca_diis
   SYM_IGNORE  TRUE
   print_input   true
   geom_opt_dmax   80
   pop_mulliken false
   XC_GRID 000075000302
$end

$molecule
0 1
C       -5.6077964487     0.4955306474     -0.0803843717
C       -4.4693380446     1.3274526079     0.0629016508
H       -5.7939672033     0.3058983031     -1.1270189553
H       -6.2353528948     0.5832682987     0.7937363279
H       -4.4982580379     -0.3179976669     0.2830804845
O       -3.3254938253     -0.0252713344     0.5744564174
H       -4.2251418220     2.0047976127     0.8726493834
H       -3.8562736966     1.7626313151     -0.7209837710
H       -2.6691104241     -0.2731725265     -0.0855470028
$end
--------------------------------------------------------------
 ----------------------------------------------------------------
             Standard Nuclear Orientation (Angstroms)
    I     Atom           X                Y                Z
 ----------------------------------------------------------------
    1      C      -5.6077964487     0.4955306474    -0.0803843717
    2      C      -4.4693380446     1.3274526079     0.0629016508
    3      H      -5.7939672033     0.3058983031    -1.1270189553
    4      H      -6.2353528948     0.5832682987     0.7937363279
    5      H      -4.4982580379    -0.3179976669     0.2830804845
    6      O      -3.3254938253    -0.0252713344     0.5744564174
    7      H      -4.2251418220     2.0047976127     0.8726493834
    8      H      -3.8562736966     1.7626313151    -0.7209837710
    9      H      -2.6691104241    -0.2731725265    -0.0855470028
 ----------------------------------------------------------------
 Nuclear Repulsion Energy =          79.49551915 hartrees
 There are       13 alpha and       13 beta electrons
 Requested basis set is 6-311+G(2df,2pd)
 There are 60 shells and 186 basis functions

 Total QAlloc Memory Limit   2000 MB
 Mega-Array Size       188 MB
 MEM_STATIC part       192 MB

                       Distance Matrix (Angstroms)
             C (  1)   C (  2)   H (  3)   H (  4)   H (  5)   O (  6)
   C (  2)  1.417291
   H (  3)  1.079844  2.052834
   H (  4)  1.079635  2.051033  1.990240
   H (  5)  1.423029  1.660368  2.014073  2.022510
   O (  6)  2.430835  1.843890  3.016298  2.980886  1.243368
   H (  7)  2.257852  1.083568  3.057147  2.463315  2.411962  2.240416
   H (  8)  2.254716  1.086142  2.457965  3.057007  2.397771  2.270790
   H (  9)  3.037566  2.413474  3.344356  3.771567  1.866461  0.963275
             H (  7)   H (  8)
   H (  8)  1.653595
   H (  9)  2.920363  2.440826
 
 A cutoff of  1.0D-09 yielded   1777 shell pairs
 There are     17255 function pairs (     21445 Cartesian)
 Smallest overlap matrix eigenvalue = 1.01E-04

 Scale SEOQF with 1.000000e-02/1.000000e-01/1.000000e-01

 Standard Electronic Orientation quadrupole field applied
 Nucleus-field energy     =     0.0000000027 hartrees
 Requested basis set is 6-31G(d)
 There are 24 shells and 54 basis functions
 A cutoff of  1.0D-09 yielded    298 shell pairs
 There are      1549 function pairs (      1732 Cartesian)
 Smallest overlap matrix eigenvalue = 6.84E-03
 Guess from superposition of atomic densities
 Warning:  Energy on first SCF cycle will be non-variational
 SAD guess density has 26.000000 electrons
 Long-range K will be added via erf
 Coulomb attenuation parameter = 0.2 bohr**(-1)
 A restricted hybrid HF-DFT SCF calculation will be
 performed using Relaxed Constraint Minimization + Pulay DIIS
 Exchange:     0.2220 Hartree-Fock + 1.0000 wB97X-D + LR-HF
 Correlation:  1.0000 wB97X-D
 Using Euler-Maclaurin-Lebedev (75,302) quadrature formula
 Dispersion:   Grimme D
 SCF converges when DIIS error is below 1.0E-04
 using 6 threads for integral computing
 -------------------------------------------------------
 OpenMP Integral computing Module                
 Release: version 1.0, May 2013, Q-Chem Inc. Pittsburgh 
 -------------------------------------------------------
 using 6 threads for integral computing
 -------------------------------------------------------
 OpenMP Integral computing Module                
 Release: version 1.0, May 2013, Q-Chem Inc. Pittsburgh 
 -------------------------------------------------------
 ---------------------------------------
  Cycle       Energy         DIIS Error
 ---------------------------------------
    1    -155.2716825708      9.96E-02
    2    -154.7741474900      1.55E-02
    3    -154.8070045611      3.24E-03
    4    -154.8459890382      2.36E-03
    5    -154.8468745289      4.91E-04 Done RCA. Switching to DIIS
    6    -154.8479812786      3.04E-04
    7    -154.8480148736      4.09E-05 Convergence criterion met
 ---------------------------------------
 SCF time:  CPU 19.42 s  wall 3.26 s
 SCF   energy in the small basis set = -154.84801487
 Total energy in the small basis set = -154.84801487
 ----------------------------------------------------
  Cycle       Energy    
 ----------------------------------------------------
    1     -18.6720454308     -1.87E+01
 Long-range K will be added via erf
 Coulomb attenuation parameter = 0.2 bohr**(-1)
 A restricted hybrid HF-DFT SCF calculation will be
 performed using Relaxed Constraint Minimization + Pulay DIIS
 Exchange:     0.2220 Hartree-Fock + 1.0000 wB97X-D + LR-HF
 Correlation:  1.0000 wB97X-D
 Using Euler-Maclaurin-Lebedev (75,302) quadrature formula
 Dispersion:   Grimme D
 SCF converges when DIIS error is below 1.0E-05
 Basis2 calculation detected. Using small basis as guess for larger.
 SCFMinFind is unable to tell whether the solution found is close.
 Resetting ReadMinima to 0 and attempting to follow guess.
 SCFMinFind following SCF Guess.
 using 6 threads for integral computing
 -------------------------------------------------------
 OpenMP Integral computing Module                
 Release: version 1.0, May 2013, Q-Chem Inc. Pittsburgh 
 -------------------------------------------------------
 using 6 threads for integral computing
 -------------------------------------------------------
 OpenMP Integral computing Module                
 Release: version 1.0, May 2013, Q-Chem Inc. Pittsburgh 
 -------------------------------------------------------
 ---------------------------------------
  Cycle       Energy         DIIS Error
 ---------------------------------------
    1    -154.8749864603      5.97E-03
    2    -154.8716667921      4.35E-03
    3    -154.8923229812      9.84E-04 Done RCA. Switching to DIIS
    4    -154.9207039010      1.08E-03
    5    -154.9240599828      7.10E-05
    6    -154.9240863717      1.61E-05
    7    -154.9240884342      4.08E-06 Convergence criterion met
 ---------------------------------------
 SCF time:  CPU 54.40 s  wall 9.10 s
 SCF   energy in the final basis set = -154.92408843
 Total energy in the final basis set = -154.92408843
 
 --------------------------------------------------------------
 
                    Orbital Energies (a.u.)
 --------------------------------------------------------------
 
 Alpha MOs
 -- Occupied --
-19.2425 -10.3512 -10.2593  -1.0896  -0.8758  -0.7066  -0.6111  -0.5665
 -0.4981  -0.4614  -0.4358  -0.4275  -0.3064
 -- Virtual --
  0.0561   0.0662   0.0902   0.0963   0.1142   0.1288   0.1373   0.1487
  0.1780   0.1879   0.2179   0.2377   0.2461   0.2697   0.2864   0.2950
  0.3207   0.3254   0.3563   0.3920   0.4631   0.4708   0.5049   0.5458
  0.5582   0.5743   0.5847   0.5986   0.6234   0.6428   0.6498   0.6881
  0.6968   0.7487   0.8052   0.8209   0.8479   0.8823   0.8876   0.9110
  0.9694   0.9975   1.0760   1.0914   1.1025   1.1510   1.1828   1.2001
  1.2501   1.2796   1.2831   1.3044   1.3220   1.3633   1.3916   1.4282
  1.4425   1.4562   1.4846   1.4959   1.5374   1.5801   1.6099   1.6610
  1.6997   1.7756   1.8997   2.0156   2.0517   2.2627   2.3082   2.4723
  2.4856   2.5627   2.6293   2.6582   2.6609   2.7324   2.7569   2.8069
  2.8553   2.8921   2.9140   2.9582   3.0030   3.0409   3.0589   3.0835
  3.1104   3.1626   3.1777   3.2335   3.2442   3.2851   3.3180   3.3708
  3.3816   3.4013   3.4210   3.4497   3.4677   3.5012   3.5262   3.5517
  3.5686   3.6010   3.6082   3.6341   3.6826   3.7088   3.7404   3.7609
  3.8040   3.8617   3.8930   3.9064   3.9343   3.9418   4.0090   4.0769
  4.0954   4.1191   4.1811   4.1981   4.2068   4.2539   4.2976   4.3060
  4.3661   4.3931   4.4395   4.4781   4.4782   4.5704   4.5913   4.6532
  4.7481   4.8195   4.8683   4.9087   4.9903   5.0035   5.0517   5.0676
  5.1019   5.1428   5.3121   5.3826   5.3967   5.4474   5.4758   5.5652
  5.6404   5.7391   5.7862   5.8231   5.9562   6.0526   6.3315   6.4916
  6.5430   6.6287   6.7386   6.8879   7.1560   7.2241   7.4130   7.6243
  7.7850   8.1745  24.9617  25.2909  50.4374
 --------------------------------------------------------------
 
 -----------------------------------------------------------------
                    Cartesian Multipole Moments
 -----------------------------------------------------------------
    Charge (ESU x 10^10)
                -0.0000
    Dipole Moment (Debye)
         X       0.6106      Y       0.9820      Z      -1.4121
       Tot       1.8252
    Quadrupole Moments (Debye-Ang)
        XX     -26.2403     XY      -3.7542     YY     -18.9643
        XZ       3.0751     YZ       0.9566     ZZ     -20.8046
    Octopole Moments (Debye-Ang^2)
       XXX     322.4781    XXY      -0.7537    XYY      88.8942
       YYY     -32.6526    XXZ      -5.6653    XYZ      -4.8810
       YYZ      -2.0176    XZZ      90.3283    YZZ     -10.7528
       ZZZ     -11.5124
    Hexadecapole Moments (Debye-Ang^3)
      XXXX   -2978.2291   XXXY     157.5979   XXYY    -462.5414
      XYYY     162.7994   YYYY    -109.9621   XXXZ      -4.5841
      XXYZ      25.7240   XYYZ       3.4896   YYYZ       1.7002
      XXZZ    -424.8281   XYZZ      52.0608   YYZZ     -25.7399
      XZZZ      36.3058   YZZZ       0.1257   ZZZZ     -46.9170
 -----------------------------------------------------------------
Archival summary:
1\1\centos77-c1\SP\ProcedureUnspecified\BasisUnspecified\126\shihchen\WedJul2900:42:192020WedJul2900:42:192020\0\\#,ProcedureUnspecified,BasisUnspecified,\\0,1\C\H,1,1.08357\H,1,1.08614,2,99.3041\C,1,1.41729,2,128.572,3,-158.211,0\H,4,1.07964,1,109.716,2,-2.66898,0\H,4,1.07984,1,109.85,2,154.05,0\H,4,1.42303,1,71.545,2,-104.697,0\O,7,1.24337,4,131.353,1,3.92053,0\H,8,0.963275,7,114.933,4,-109.293,0\\\@

 Total job time:  15.31s(wall), 78.93s(cpu) 
 Wed Jul 29 00:42:19 2020

        *************************************************************
        *                                                           *
        *  Thank you very much for using Q-Chem.  Have a nice day.  *
        *                                                           *
        *************************************************************


