                  Welcome to Q-Chem
     A Quantum Leap Into The Future Of Chemistry


 Q-Chem 5.3 (devel), Q-Chem, Inc., Pleasanton, CA (2020)

 Yihan Shao,  Zhengting Gan,  E. Epifanovsky,  A. T. B. Gilbert,  M. Wormit,  
 J. Kussmann,  A. W. Lange,  A. Behn,  Jia Deng,  Xintian Feng,  D. Ghosh,  
 M. Goldey,  P. R. Horn,  L. D. Jacobson,  I. Kaliman,  T. Kus,  A. Landau,  
 Jie Liu,  E. I. Proynov,  R. M. Richard,  R. P. Steele,  E. J. Sundstrom,  
 H. L. Woodcock III,  P. M. Zimmerman,  D. Zuev,  B. Alam,  B. Albrecht,  
 E. Alguire,  S. A. Baeppler,  D. Barton,  Z. Benda,  Y. A. Bernard,  
 E. J. Berquist,  K. B. Bravaya,  H. Burton,  K. Carter-Fenk,  D. Casanova,  
 Chun-Min Chang,  Yunqing Chen,  A. Chien,  K. D. Closser,  M. P. Coons,  
 S. Coriani,  S. Dasgupta,  A. L. Dempwolff,  M. Diedenhofen,  Hainam Do,  
 R. G. Edgar,  Po-Tung Fang,  S. Faraji,  S. Fatehi,  Qingguo Feng,  
 J. Fosso-Tande,  J. Gayvert,  Qinghui Ge,  A. Ghysels,  G. Gidofalvi,  
 J. Gomes,  J. Gonthier,  A. Gunina,  D. Hait,  M. W. D. Hanson-Heine,  
 P. H. P. Harbach,  A. W. Hauser,  M. F. Herbst,  J. E. Herr,  
 E. G. Hohenstein,  Z. C. Holden,  Kerwin Hui,  B. C. Huynh,  T.-C. Jagau,  
 Hyunjun Ji,  B. Kaduk,  K. Khistyaev,  Jaehoon Kim,  P. Klunzinger,  K. Koh,  
 D. Kosenkov,  L. Koulias,  T. Kowalczyk,  C. M. Krauter,  A. Kunitsa,  
 Ka Un Lao,  A. Laurent,  K. V. Lawler,  Joonho Lee,  D. Lefrancois,  
 S. Lehtola,  D. S. Levine,  Yi-Pei Li,  You-Sheng Lin,  Fenglai Liu,  
 Kuan-Yu Liu,  E. Livshits,  M. Loipersberger,  A. Luenser,  P. Manohar,  
 E. Mansoor,  S. F. Manzer,  Shan-Ping Mao,  Yuezhi Mao,  N. Mardirossian,  
 A. V. Marenich,  T. Markovich,  L. A. Martinez-Martinez,  S. A. Maurer,  
 N. J. Mayhall,  S. C. McKenzie,  J.-M. Mewes,  P. Morgante,  A. F. Morrison,  
 J. W. Mullinax,  K. Nanda,  T. S. Nguyen-Beck,  R. Olivares-Amaya,  
 K. J. Oosterbaan,  J. A. Parkhill,  S. K. Paul,  F. Pavosevic,  Zheng Pei,  
 T. M. Perrine,  F. Plasser,  P. Pokhilko,  S. Prager,  A. Prociuk,  
 E. Ramos,  B. Rana,  D. R. Rehn,  F. Rob,  M. Scheurer,  M. Schneider,  
 N. Sergueev,  S. M. Sharada,  S. Sharma,  D. W. Small,  T. Stauch,  
 C. J. Stein,  T. Stein,  Yu-Chuan Su,  S. P. Veccham,  Zhen Tao,  
 A. J. W. Thom,  A. Tkatchenko,  T. Tsuchimochi,  N. M. Tubman,  L. Vogt,  
 M. L. Vidal,  O. Vydrov,  M. A. Watson,  J. Wenzel,  M. de Wergifosse,  
 T. A. Wesolowski,  A. White,  J. Witte,  A. Yamada,  Jun Yang,  K. Yao,  
 S. Yeganeh,  S. R. Yost,  Zhi-Qiang You,  A. Zech,  Igor Ying Zhang,  
 Xing Zhang,  Yan Zhao,  Ying Zhu,  B. R. Brooks,  G. K. L. Chan,  
 C. J. Cramer,  M. S. Gordon,  W. J. Hehre,  A. Klamt,  M. W. Schmidt,  
 C. D. Sherrill,  D. G. Truhlar,  A. Aspuru-Guzik,  R. Baer,  A. T. Bell,  
 N. A. Besley,  Jeng-Da Chai,  A. E. DePrince, III,  R. A. DiStasio Jr.,  
 A. Dreuw,  B. D. Dunietz,  T. R. Furlani,  Chao-Ping Hsu,  Yousung Jung,  
 Jing Kong,  D. S. Lambrecht,  WanZhen Liang,  C. Ochsenfeld,  
 V. A. Rassolov,  L. V. Slipchenko,  J. E. Subotnik,  T. Van Voorhis,  
 J. M. Herbert,  A. I. Krylov,  P. M. W. Gill,  M. Head-Gordon

 Contributors to earlier versions of Q-Chem not listed above: 
 R. D. Adamson,  B. Austin,  J. Baker,  G. J. O. Beran,  K. Brandhorst,  
 S. T. Brown,  E. F. C. Byrd,  A. K. Chakraborty,  C.-L. Cheng,  
 Siu Hung Chien,  D. M. Chipman,  D. L. Crittenden,  H. Dachsel,  
 R. J. Doerksen,  A. D. Dutoi,  L. Fusti-Molnar,  W. A. Goddard III,  
 A. Golubeva-Zadorozhnaya,  S. R. Gwaltney,  G. Hawkins,  A. Heyden,  
 S. Hirata,  G. Kedziora,  F. J. Keil,  C. Kelley,  Jihan Kim,  R. A. King,  
 R. Z. Khaliullin,  P. P. Korambath,  W. Kurlancheek,  A. M. Lee,  M. S. Lee,  
 S. V. Levchenko,  Ching Yeh Lin,  D. Liotard,  R. C. Lochan,  I. Lotan,  
 P. E. Maslen,  N. Nair,  D. P. O'Neill,  D. Neuhauser,  E. Neuscamman,  
 C. M. Oana,  R. Olson,  B. Peters,  R. Peverati,  P. A. Pieniazek,  
 Y. M. Rhee,  J. Ritchie,  M. A. Rohrdanz,  E. Rosta,  N. J. Russ,  
 H. F. Schaefer III,  N. E. Schultz,  N. Shenvi,  A. C. Simmonett,  A. Sodt,  
 D. Stuck,  K. S. Thanthiriwatte,  V. Vanovschi,  Tao Wang,  A. Warshel,  
 C. F. Williams,  Q. Wu,  X. Xu,  W. Zhang

 Please cite Q-Chem as follows:
 Y. Shao et al., Mol. Phys. 113, 184-215 (2015)
 DOI: 10.1080/00268976.2014.952696

 Q-Chem 5.3.0 for Intel X86 EM64T Linux

 Parts of Q-Chem use Armadillo 9.800.1 (Horizon Scraper).
 http://arma.sourceforge.net/

 Q-Chem begins on Wed Jul 29 00:39:48 2020  

Host: centos77-c1
0

     Scratch files written to /tmp/30084.centos77-h1/qchem30156//
Processing $rem in /opt/qchem-5.3.0-intel2020u1//config/preferences:
Processing $rem in /home/shihchengli/.qchemrc:

Checking the input file for inconsistencies... 	...done.

--------------------------------------------------------------
User input:
--------------------------------------------------------------
$rem
   JOBTYPE  sp
   EXCHANGE   omegaB97X-D
   BASIS   6-311+G(2df,2pd)
   UNRESTRICTED   False
   max_scf_cycles   250
   geom_opt_max_cycles   1500
   basis2 6-31G*
   scf_algorithm rca_diis
   SYM_IGNORE  TRUE
   print_input   true
   geom_opt_dmax   80
   pop_mulliken false
   XC_GRID 000075000302
$end

$molecule
0 1
C       -5.5324782214     0.5259944629     -0.0507539387
C       -4.3908078047     1.3408992626     0.1034128738
H       -5.8269909048     0.1713715036     -1.0305783126
H       -6.3195759098     0.7157376213     0.6648717179
H       -4.4350838662     -0.2979895869     0.1597757222
O       -3.3127758888     -0.0911196776     0.6580279976
H       -4.2002729606     1.9309096735     0.9877470735
H       -3.9172890774     1.7080049907     -0.7994506970
H       -2.7454577635     -0.1406709930     -0.1201622735
$end
--------------------------------------------------------------
 ----------------------------------------------------------------
             Standard Nuclear Orientation (Angstroms)
    I     Atom           X                Y                Z
 ----------------------------------------------------------------
    1      C      -5.5324782214     0.5259944629    -0.0507539387
    2      C      -4.3908078047     1.3408992626     0.1034128738
    3      H      -5.8269909048     0.1713715036    -1.0305783126
    4      H      -6.3195759098     0.7157376213     0.6648717179
    5      H      -4.4350838662    -0.2979895869     0.1597757222
    6      O      -3.3127758888    -0.0911196776     0.6580279976
    7      H      -4.2002729606     1.9309096735     0.9877470735
    8      H      -3.9172890774     1.7080049907    -0.7994506970
    9      H      -2.7454577635    -0.1406709930    -0.1201622735
 ----------------------------------------------------------------
 Nuclear Repulsion Energy =          79.54094527 hartrees
 There are       13 alpha and       13 beta electrons
 Requested basis set is 6-311+G(2df,2pd)
 There are 60 shells and 186 basis functions

 Total QAlloc Memory Limit   2000 MB
 Mega-Array Size       188 MB
 MEM_STATIC part       192 MB

                       Distance Matrix (Angstroms)
             C (  1)   C (  2)   H (  3)   H (  4)   H (  5)   O (  6)
   C (  2)  1.411116
   H (  3)  1.082844  2.171717
   H (  4)  1.080576  2.103856  1.847573
   H (  5)  1.388361  1.640455  1.890674  2.198653
   O (  6)  2.410452  1.876281  3.039995  3.113184  1.245241
   H (  7)  2.197053  1.080029  3.133021  2.464211  2.389281  2.232704
   H (  8)  2.136944  1.083582  2.462036  2.983256  2.283033  2.393017
   H (  9)  2.866486  2.225357  3.228324  3.758196  1.719869  0.964306
             H (  7)   H (  8)
   H (  8)  1.823141
   H (  9)  2.763222  2.291773
 
 A cutoff of  1.0D-09 yielded   1782 shell pairs
 There are     17280 function pairs (     21462 Cartesian)
 Smallest overlap matrix eigenvalue = 9.89E-05

 Scale SEOQF with 1.000000e-02/1.000000e-01/1.000000e-01

 Standard Electronic Orientation quadrupole field applied
 Nucleus-field energy     =     0.0000000026 hartrees
 Requested basis set is 6-31G(d)
 There are 24 shells and 54 basis functions
 A cutoff of  1.0D-09 yielded    297 shell pairs
 There are      1548 function pairs (      1731 Cartesian)
 Smallest overlap matrix eigenvalue = 6.87E-03
 Guess from superposition of atomic densities
 Warning:  Energy on first SCF cycle will be non-variational
 SAD guess density has 26.000000 electrons
 Long-range K will be added via erf
 Coulomb attenuation parameter = 0.2 bohr**(-1)
 A restricted hybrid HF-DFT SCF calculation will be
 performed using Relaxed Constraint Minimization + Pulay DIIS
 Exchange:     0.2220 Hartree-Fock + 1.0000 wB97X-D + LR-HF
 Correlation:  1.0000 wB97X-D
 Using Euler-Maclaurin-Lebedev (75,302) quadrature formula
 Dispersion:   Grimme D
 SCF converges when DIIS error is below 1.0E-04
 using 6 threads for integral computing
 -------------------------------------------------------
 OpenMP Integral computing Module                
 Release: version 1.0, May 2013, Q-Chem Inc. Pittsburgh 
 -------------------------------------------------------
 using 6 threads for integral computing
 -------------------------------------------------------
 OpenMP Integral computing Module                
 Release: version 1.0, May 2013, Q-Chem Inc. Pittsburgh 
 -------------------------------------------------------
 ---------------------------------------
  Cycle       Energy         DIIS Error
 ---------------------------------------
    1    -155.2912483727      1.01E-01
    2    -154.7660181263      1.62E-02
    3    -154.8017134829      3.57E-03
    4    -154.8463882467      2.53E-03
    5    -154.8474397052      5.79E-04 Done RCA. Switching to DIIS
    6    -154.8486954364      4.36E-04
    7    -154.8487542152      4.46E-05 Convergence criterion met
 ---------------------------------------
 SCF time:  CPU 19.26 s  wall 3.23 s
 SCF   energy in the small basis set = -154.84875422
 Total energy in the small basis set = -154.84875422
 ----------------------------------------------------
  Cycle       Energy    
 ----------------------------------------------------
    1     -18.6768491782     -1.87E+01
 Long-range K will be added via erf
 Coulomb attenuation parameter = 0.2 bohr**(-1)
 A restricted hybrid HF-DFT SCF calculation will be
 performed using Relaxed Constraint Minimization + Pulay DIIS
 Exchange:     0.2220 Hartree-Fock + 1.0000 wB97X-D + LR-HF
 Correlation:  1.0000 wB97X-D
 Using Euler-Maclaurin-Lebedev (75,302) quadrature formula
 Dispersion:   Grimme D
 SCF converges when DIIS error is below 1.0E-05
 Basis2 calculation detected. Using small basis as guess for larger.
 SCFMinFind is unable to tell whether the solution found is close.
 Resetting ReadMinima to 0 and attempting to follow guess.
 SCFMinFind following SCF Guess.
 using 6 threads for integral computing
 -------------------------------------------------------
 OpenMP Integral computing Module                
 Release: version 1.0, May 2013, Q-Chem Inc. Pittsburgh 
 -------------------------------------------------------
 using 6 threads for integral computing
 -------------------------------------------------------
 OpenMP Integral computing Module                
 Release: version 1.0, May 2013, Q-Chem Inc. Pittsburgh 
 -------------------------------------------------------
 ---------------------------------------
  Cycle       Energy         DIIS Error
 ---------------------------------------
    1    -154.8735363289      6.01E-03
    2    -154.8659755587      4.59E-03
    3    -154.8886043902      1.11E-03
    4    -154.9200492586      1.16E-03
    5    -154.9219752938      1.41E-04 Done RCA. Switching to DIIS
    6    -154.9246856981      1.50E-04
    7    -154.9247568648      1.02E-05
    8    -154.9247582858      6.75E-06 Convergence criterion met
 ---------------------------------------
 SCF time:  CPU 76.54 s  wall 12.80 s
 SCF   energy in the final basis set = -154.92475829
 Total energy in the final basis set = -154.92475829
 
 --------------------------------------------------------------
 
                    Orbital Energies (a.u.)
 --------------------------------------------------------------
 
 Alpha MOs
 -- Occupied --
-19.2450 -10.3572 -10.2557  -1.0943  -0.8789  -0.7003  -0.5988  -0.5797
 -0.5084  -0.4698  -0.4483  -0.4254  -0.3007
 -- Virtual --
  0.0480   0.0643   0.0878   0.0943   0.1126   0.1247   0.1357   0.1508
  0.1792   0.1924   0.2090   0.2344   0.2571   0.2684   0.2949   0.2951
  0.3237   0.3309   0.3542   0.4125   0.4515   0.4609   0.4890   0.5414
  0.5578   0.5757   0.5868   0.6016   0.6036   0.6261   0.6468   0.6802
  0.6947   0.7308   0.7639   0.8142   0.8586   0.8749   0.9186   0.9544
  1.0062   1.0248   1.0564   1.0735   1.1213   1.1470   1.1560   1.1795
  1.2156   1.2426   1.2715   1.2991   1.3360   1.3451   1.3932   1.4269
  1.4367   1.4499   1.4822   1.5154   1.5275   1.5822   1.5921   1.6520
  1.7106   1.7799   1.9441   2.0076   2.0541   2.2585   2.2739   2.4357
  2.4993   2.5462   2.6249   2.6742   2.6999   2.7576   2.7740   2.8056
  2.8528   2.8900   2.9534   2.9882   3.0118   3.0283   3.0544   3.1004
  3.1044   3.1255   3.1583   3.1929   3.2169   3.2866   3.3111   3.3517
  3.3863   3.4030   3.4093   3.4501   3.4568   3.4780   3.5366   3.5627
  3.5709   3.5974   3.6479   3.6804   3.7206   3.7353   3.7607   3.7922
  3.8260   3.8456   3.8659   3.9203   3.9371   3.9582   3.9788   4.0761
  4.1124   4.1266   4.1733   4.2001   4.2289   4.2555   4.2825   4.3042
  4.3389   4.3645   4.4142   4.5022   4.5346   4.5741   4.6376   4.7215
  4.7622   4.7887   4.8952   4.9702   5.0040   5.0442   5.0700   5.1160
  5.1580   5.1999   5.2339   5.3097   5.3817   5.4234   5.4945   5.5580
  5.6082   5.6258   5.7436   5.9174   6.0747   6.1727   6.2595   6.3123
  6.4567   6.6193   6.6342   6.9153   7.1703   7.3321   7.4317   7.5173
  7.7507   8.1533  24.9633  25.3077  50.4554
 --------------------------------------------------------------
 
 -----------------------------------------------------------------
                    Cartesian Multipole Moments
 -----------------------------------------------------------------
    Charge (ESU x 10^10)
                 0.0000
    Dipole Moment (Debye)
         X       0.3341      Y       1.3463      Z      -1.6986
       Tot       2.1930
    Quadrupole Moments (Debye-Ang)
        XX     -24.0386     XY      -4.9496     YY     -19.1301
        XZ       4.2976     YZ       1.5116     ZZ     -20.9412
    Octopole Moments (Debye-Ang^2)
       XXX     303.1622    XXY       4.3272    XYY      87.5518
       YYY     -32.5087    XXZ     -12.1175    XYZ      -7.6041
       YYZ      -2.4026    XZZ      91.1249    YZZ      -9.8650
       ZZZ     -13.2446
    Hexadecapole Moments (Debye-Ang^3)
      XXXX   -2794.4496   XXXY     128.6233   XXYY    -446.9830
      XYYY     160.3171   YYYY    -112.3159   XXXZ      32.7256
      XXYZ      39.8342   XYYZ       4.4560   YYYZ       1.4740
      XXZZ    -430.3195   XYZZ      48.9594   YYZZ     -24.6194
      XZZZ      42.6188   YZZZ       0.2766   ZZZZ     -50.1065
 -----------------------------------------------------------------
Archival summary:
1\1\centos77-c1\SP\ProcedureUnspecified\BasisUnspecified\126\shihchen\WedJul2900:40:072020WedJul2900:40:072020\0\\#,ProcedureUnspecified,BasisUnspecified,\\0,1\C\H,1,1.08003\H,1,1.08358,2,114.839\C,1,1.41112,2,123.207,3,-155.013,0\H,4,1.08058,1,114.555,2,14.3531,0\H,4,1.08284,1,120.533,2,163.102,0\H,4,1.38836,1,71.7402,2,-106.993,0\O,7,1.24524,4,132.413,1,20.317,0\H,8,0.964306,7,101.467,4,-109.293,0\\\@

 Total job time:  18.82s(wall), 100.76s(cpu) 
 Wed Jul 29 00:40:07 2020

        *************************************************************
        *                                                           *
        *  Thank you very much for using Q-Chem.  Have a nice day.  *
        *                                                           *
        *************************************************************


