                  Welcome to Q-Chem
     A Quantum Leap Into The Future Of Chemistry


 Q-Chem 5.3 (devel), Q-Chem, Inc., Pleasanton, CA (2020)

 Yihan Shao,  Zhengting Gan,  E. Epifanovsky,  A. T. B. Gilbert,  M. Wormit,  
 J. Kussmann,  A. W. Lange,  A. Behn,  Jia Deng,  Xintian Feng,  D. Ghosh,  
 M. Goldey,  P. R. Horn,  L. D. Jacobson,  I. Kaliman,  T. Kus,  A. Landau,  
 Jie Liu,  E. I. Proynov,  R. M. Richard,  R. P. Steele,  E. J. Sundstrom,  
 H. L. Woodcock III,  P. M. Zimmerman,  D. Zuev,  B. Alam,  B. Albrecht,  
 E. Alguire,  S. A. Baeppler,  D. Barton,  Z. Benda,  Y. A. Bernard,  
 E. J. Berquist,  K. B. Bravaya,  H. Burton,  K. Carter-Fenk,  D. Casanova,  
 Chun-Min Chang,  Yunqing Chen,  A. Chien,  K. D. Closser,  M. P. Coons,  
 S. Coriani,  S. Dasgupta,  A. L. Dempwolff,  M. Diedenhofen,  Hainam Do,  
 R. G. Edgar,  Po-Tung Fang,  S. Faraji,  S. Fatehi,  Qingguo Feng,  
 J. Fosso-Tande,  J. Gayvert,  Qinghui Ge,  A. Ghysels,  G. Gidofalvi,  
 J. Gomes,  J. Gonthier,  A. Gunina,  D. Hait,  M. W. D. Hanson-Heine,  
 P. H. P. Harbach,  A. W. Hauser,  M. F. Herbst,  J. E. Herr,  
 E. G. Hohenstein,  Z. C. Holden,  Kerwin Hui,  B. C. Huynh,  T.-C. Jagau,  
 Hyunjun Ji,  B. Kaduk,  K. Khistyaev,  Jaehoon Kim,  P. Klunzinger,  K. Koh,  
 D. Kosenkov,  L. Koulias,  T. Kowalczyk,  C. M. Krauter,  A. Kunitsa,  
 Ka Un Lao,  A. Laurent,  K. V. Lawler,  Joonho Lee,  D. Lefrancois,  
 S. Lehtola,  D. S. Levine,  Yi-Pei Li,  You-Sheng Lin,  Fenglai Liu,  
 Kuan-Yu Liu,  E. Livshits,  M. Loipersberger,  A. Luenser,  P. Manohar,  
 E. Mansoor,  S. F. Manzer,  Shan-Ping Mao,  Yuezhi Mao,  N. Mardirossian,  
 A. V. Marenich,  T. Markovich,  L. A. Martinez-Martinez,  S. A. Maurer,  
 N. J. Mayhall,  S. C. McKenzie,  J.-M. Mewes,  P. Morgante,  A. F. Morrison,  
 J. W. Mullinax,  K. Nanda,  T. S. Nguyen-Beck,  R. Olivares-Amaya,  
 K. J. Oosterbaan,  J. A. Parkhill,  S. K. Paul,  F. Pavosevic,  Zheng Pei,  
 T. M. Perrine,  F. Plasser,  P. Pokhilko,  S. Prager,  A. Prociuk,  
 E. Ramos,  B. Rana,  D. R. Rehn,  F. Rob,  M. Scheurer,  M. Schneider,  
 N. Sergueev,  S. M. Sharada,  S. Sharma,  D. W. Small,  T. Stauch,  
 C. J. Stein,  T. Stein,  Yu-Chuan Su,  S. P. Veccham,  Zhen Tao,  
 A. J. W. Thom,  A. Tkatchenko,  T. Tsuchimochi,  N. M. Tubman,  L. Vogt,  
 M. L. Vidal,  O. Vydrov,  M. A. Watson,  J. Wenzel,  M. de Wergifosse,  
 T. A. Wesolowski,  A. White,  J. Witte,  A. Yamada,  Jun Yang,  K. Yao,  
 S. Yeganeh,  S. R. Yost,  Zhi-Qiang You,  A. Zech,  Igor Ying Zhang,  
 Xing Zhang,  Yan Zhao,  Ying Zhu,  B. R. Brooks,  G. K. L. Chan,  
 C. J. Cramer,  M. S. Gordon,  W. J. Hehre,  A. Klamt,  M. W. Schmidt,  
 C. D. Sherrill,  D. G. Truhlar,  A. Aspuru-Guzik,  R. Baer,  A. T. Bell,  
 N. A. Besley,  Jeng-Da Chai,  A. E. DePrince, III,  R. A. DiStasio Jr.,  
 A. Dreuw,  B. D. Dunietz,  T. R. Furlani,  Chao-Ping Hsu,  Yousung Jung,  
 Jing Kong,  D. S. Lambrecht,  WanZhen Liang,  C. Ochsenfeld,  
 V. A. Rassolov,  L. V. Slipchenko,  J. E. Subotnik,  T. Van Voorhis,  
 J. M. Herbert,  A. I. Krylov,  P. M. W. Gill,  M. Head-Gordon

 Contributors to earlier versions of Q-Chem not listed above: 
 R. D. Adamson,  B. Austin,  J. Baker,  G. J. O. Beran,  K. Brandhorst,  
 S. T. Brown,  E. F. C. Byrd,  A. K. Chakraborty,  C.-L. Cheng,  
 Siu Hung Chien,  D. M. Chipman,  D. L. Crittenden,  H. Dachsel,  
 R. J. Doerksen,  A. D. Dutoi,  L. Fusti-Molnar,  W. A. Goddard III,  
 A. Golubeva-Zadorozhnaya,  S. R. Gwaltney,  G. Hawkins,  A. Heyden,  
 S. Hirata,  G. Kedziora,  F. J. Keil,  C. Kelley,  Jihan Kim,  R. A. King,  
 R. Z. Khaliullin,  P. P. Korambath,  W. Kurlancheek,  A. M. Lee,  M. S. Lee,  
 S. V. Levchenko,  Ching Yeh Lin,  D. Liotard,  R. C. Lochan,  I. Lotan,  
 P. E. Maslen,  N. Nair,  D. P. O'Neill,  D. Neuhauser,  E. Neuscamman,  
 C. M. Oana,  R. Olson,  B. Peters,  R. Peverati,  P. A. Pieniazek,  
 Y. M. Rhee,  J. Ritchie,  M. A. Rohrdanz,  E. Rosta,  N. J. Russ,  
 H. F. Schaefer III,  N. E. Schultz,  N. Shenvi,  A. C. Simmonett,  A. Sodt,  
 D. Stuck,  K. S. Thanthiriwatte,  V. Vanovschi,  Tao Wang,  A. Warshel,  
 C. F. Williams,  Q. Wu,  X. Xu,  W. Zhang

 Please cite Q-Chem as follows:
 Y. Shao et al., Mol. Phys. 113, 184-215 (2015)
 DOI: 10.1080/00268976.2014.952696

 Q-Chem 5.3.0 for Intel X86 EM64T Linux

 Parts of Q-Chem use Armadillo 9.800.1 (Horizon Scraper).
 http://arma.sourceforge.net/

 Q-Chem begins on Wed Jul 29 00:36:20 2020  

Host: centos77-c1
0

     Scratch files written to /tmp/30084.centos77-h1/qchem29649//
Processing $rem in /opt/qchem-5.3.0-intel2020u1//config/preferences:
Processing $rem in /home/shihchengli/.qchemrc:

Checking the input file for inconsistencies... 	...done.

--------------------------------------------------------------
User input:
--------------------------------------------------------------
$rem
   JOBTYPE  sp
   EXCHANGE   omegaB97X-D
   BASIS   6-311+G(2df,2pd)
   UNRESTRICTED   False
   max_scf_cycles   250
   geom_opt_max_cycles   1500
   basis2 6-31G*
   scf_algorithm rca_diis
   SYM_IGNORE  TRUE
   print_input   true
   geom_opt_dmax   80
   pop_mulliken false
   XC_GRID 000075000302
$end

$molecule
0 1
C       -5.5532726921     0.5431691457     -0.0293254544
C       -4.3976165044     1.3553164493     0.0373428893
H       -5.8497943305     0.3203941672     -1.0470819574
H       -6.3453299693     0.5628736297     0.7063091712
H       -4.4637547897     -0.3074086678     0.2882584246
O       -3.2912997881     -0.0230586286     0.5947937034
H       -4.2811350590     1.9426251224     0.9370380508
H       -3.8299709491     1.7206430841     -0.8098840366
H       -2.6685583150     -0.2514170450     -0.1045606276
$end
--------------------------------------------------------------
 ----------------------------------------------------------------
             Standard Nuclear Orientation (Angstroms)
    I     Atom           X                Y                Z
 ----------------------------------------------------------------
    1      C      -5.5532726921     0.5431691457    -0.0293254544
    2      C      -4.3976165044     1.3553164493     0.0373428893
    3      H      -5.8497943305     0.3203941672    -1.0470819574
    4      H      -6.3453299693     0.5628736297     0.7063091712
    5      H      -4.4637547897    -0.3074086678     0.2882584246
    6      O      -3.2912997881    -0.0230586286     0.5947937034
    7      H      -4.2811350590     1.9426251224     0.9370380508
    8      H      -3.8299709491     1.7206430841    -0.8098840366
    9      H      -2.6685583150    -0.2514170450    -0.1045606276
 ----------------------------------------------------------------
 Nuclear Repulsion Energy =          79.41235001 hartrees
 There are       13 alpha and       13 beta electrons
 Requested basis set is 6-311+G(2df,2pd)
 There are 60 shells and 186 basis functions

 Total QAlloc Memory Limit   2000 MB
 Mega-Array Size       188 MB
 MEM_STATIC part       192 MB

                       Distance Matrix (Angstroms)
             C (  1)   C (  2)   H (  3)   H (  4)   H (  5)   O (  6)
   C (  2)  1.414061
   H (  3)  1.083228  2.087070
   H (  4)  1.081157  2.206597  1.838133
   H (  5)  1.418235  1.682851  2.024445  2.114825
   O (  6)  2.413848  1.853269  3.059348  3.111728  1.244777
   H (  7)  2.123834  1.080718  3.004839  2.493562  2.348812  2.227289
   H (  8)  2.228337  1.083272  2.469139  3.156945  2.391776  2.302994
   H (  9)  2.993093  2.364608  3.366835  3.852172  1.838524  0.963873
             H (  7)   H (  8)
   H (  8)  1.817845
   H (  9)  2.915331  2.394866
 
 A cutoff of  1.0D-09 yielded   1778 shell pairs
 There are     17247 function pairs (     21426 Cartesian)
 Smallest overlap matrix eigenvalue = 9.30E-05

 Scale SEOQF with 1.000000e-02/1.000000e-01/1.000000e-01

 Standard Electronic Orientation quadrupole field applied
 Nucleus-field energy     =     0.0000000027 hartrees
 Requested basis set is 6-31G(d)
 There are 24 shells and 54 basis functions
 A cutoff of  1.0D-09 yielded    297 shell pairs
 There are      1548 function pairs (      1731 Cartesian)
 Smallest overlap matrix eigenvalue = 6.64E-03
 Guess from superposition of atomic densities
 Warning:  Energy on first SCF cycle will be non-variational
 SAD guess density has 26.000000 electrons
 Long-range K will be added via erf
 Coulomb attenuation parameter = 0.2 bohr**(-1)
 A restricted hybrid HF-DFT SCF calculation will be
 performed using Relaxed Constraint Minimization + Pulay DIIS
 Exchange:     0.2220 Hartree-Fock + 1.0000 wB97X-D + LR-HF
 Correlation:  1.0000 wB97X-D
 Using Euler-Maclaurin-Lebedev (75,302) quadrature formula
 Dispersion:   Grimme D
 SCF converges when DIIS error is below 1.0E-04
 using 6 threads for integral computing
 -------------------------------------------------------
 OpenMP Integral computing Module                
 Release: version 1.0, May 2013, Q-Chem Inc. Pittsburgh 
 -------------------------------------------------------
 using 6 threads for integral computing
 -------------------------------------------------------
 OpenMP Integral computing Module                
 Release: version 1.0, May 2013, Q-Chem Inc. Pittsburgh 
 -------------------------------------------------------
 ---------------------------------------
  Cycle       Energy         DIIS Error
 ---------------------------------------
    1    -155.2621920445      9.94E-02
    2    -154.7826006015      1.57E-02
    3    -154.8165751248      3.30E-03
    4    -154.8570886539      2.45E-03
    5    -154.8580307859      5.14E-04 Done RCA. Switching to DIIS
    6    -154.8592120773      3.23E-04
    7    -154.8592498014      4.21E-05 Convergence criterion met
 ---------------------------------------
 SCF time:  CPU 18.20 s  wall 3.05 s
 SCF   energy in the small basis set = -154.85924980
 Total energy in the small basis set = -154.85924980
 ----------------------------------------------------
  Cycle       Energy    
 ----------------------------------------------------
    1     -18.6718147078     -1.87E+01
 Long-range K will be added via erf
 Coulomb attenuation parameter = 0.2 bohr**(-1)
 A restricted hybrid HF-DFT SCF calculation will be
 performed using Relaxed Constraint Minimization + Pulay DIIS
 Exchange:     0.2220 Hartree-Fock + 1.0000 wB97X-D + LR-HF
 Correlation:  1.0000 wB97X-D
 Using Euler-Maclaurin-Lebedev (75,302) quadrature formula
 Dispersion:   Grimme D
 SCF converges when DIIS error is below 1.0E-05
 Basis2 calculation detected. Using small basis as guess for larger.
 SCFMinFind is unable to tell whether the solution found is close.
 Resetting ReadMinima to 0 and attempting to follow guess.
 SCFMinFind following SCF Guess.
 using 6 threads for integral computing
 -------------------------------------------------------
 OpenMP Integral computing Module                
 Release: version 1.0, May 2013, Q-Chem Inc. Pittsburgh 
 -------------------------------------------------------
 using 6 threads for integral computing
 -------------------------------------------------------
 OpenMP Integral computing Module                
 Release: version 1.0, May 2013, Q-Chem Inc. Pittsburgh 
 -------------------------------------------------------
 ---------------------------------------
  Cycle       Energy         DIIS Error
 ---------------------------------------
    1    -154.8850609563      5.97E-03
    2    -154.8810803771      4.39E-03
    3    -154.9020437639      1.01E-03
    4    -154.9309135832      1.11E-03
    5    -154.9324431285      1.83E-04 Done RCA. Switching to DIIS
    6    -154.9343919711      2.20E-04
    7    -154.9345340370      8.07E-06 Convergence criterion met
 ---------------------------------------
 SCF time:  CPU 69.96 s  wall 11.70 s
 SCF   energy in the final basis set = -154.93453404
 Total energy in the final basis set = -154.93453404
 
 --------------------------------------------------------------
 
                    Orbital Energies (a.u.)
 --------------------------------------------------------------
 
 Alpha MOs
 -- Occupied --
-19.2444 -10.3549 -10.2545  -1.0909  -0.8743  -0.6981  -0.6099  -0.5697
 -0.5069  -0.4649  -0.4350  -0.4287  -0.3045
 -- Virtual --
  0.0529   0.0668   0.0889   0.0966   0.1133   0.1277   0.1379   0.1491
  0.1783   0.1896   0.2147   0.2396   0.2484   0.2760   0.2887   0.2974
  0.3232   0.3282   0.3571   0.3984   0.4614   0.4677   0.4940   0.5492
  0.5591   0.5755   0.5867   0.6071   0.6123   0.6268   0.6501   0.6840
  0.6999   0.7515   0.7956   0.8174   0.8480   0.8797   0.9092   0.9350
  0.9925   1.0170   1.0665   1.0957   1.1261   1.1499   1.1654   1.1894
  1.2279   1.2483   1.2783   1.3009   1.3264   1.3412   1.3926   1.4282
  1.4394   1.4570   1.4778   1.4901   1.5326   1.5740   1.5898   1.6560
  1.7184   1.7832   1.9256   2.0158   2.0652   2.2597   2.3034   2.4442
  2.4765   2.5501   2.6341   2.6601   2.7176   2.7386   2.7694   2.8110
  2.8742   2.8857   2.9365   2.9732   3.0190   3.0303   3.0853   3.0921
  3.1027   3.1320   3.1692   3.2179   3.2486   3.2702   3.3252   3.3366
  3.3659   3.4059   3.4107   3.4401   3.4618   3.4964   3.5239   3.5575
  3.5719   3.6059   3.6130   3.6642   3.6868   3.7418   3.7525   3.8236
  3.8438   3.8509   3.8728   3.9038   3.9402   3.9618   4.0541   4.0681
  4.1027   4.1140   4.1664   4.2077   4.2177   4.2550   4.2731   4.3006
  4.3246   4.3625   4.4202   4.4647   4.5184   4.5646   4.6133   4.7257
  4.7401   4.7905   4.8455   4.9497   4.9990   5.0125   5.0583   5.1069
  5.1251   5.2118   5.2247   5.3011   5.3587   5.3963   5.4554   5.4858
  5.5890   5.6885   5.7857   5.8264   6.0358   6.1633   6.2475   6.2941
  6.4731   6.6266   6.7224   6.8758   7.1693   7.2464   7.4222   7.6025
  7.7656   8.1798  24.9676  25.3035  50.4406
 --------------------------------------------------------------
 
 -----------------------------------------------------------------
                    Cartesian Multipole Moments
 -----------------------------------------------------------------
    Charge (ESU x 10^10)
                 0.0000
    Dipole Moment (Debye)
         X       0.4788      Y       0.9878      Z      -1.5186
       Tot       1.8738
    Quadrupole Moments (Debye-Ang)
        XX     -24.7713     XY      -3.8027     YY     -19.1836
        XZ       3.2501     YZ       0.7415     ZZ     -20.8719
    Octopole Moments (Debye-Ang^2)
       XXX     305.8518    XXY      -0.6355    XYY      88.6172
       YYY     -34.5903    XXZ      -5.8214    XYZ      -4.1493
       YYZ      -2.6080    XZZ      90.5812    YZZ     -10.5435
       ZZZ     -11.9619
    Hexadecapole Moments (Debye-Ang^3)
      XXXX   -2807.4258   XXXY     157.2031   XXYY    -456.6751
      XYYY     169.3985   YYYY    -114.8938   XXXZ      -4.1097
      XXYZ      23.0892   XYYZ       5.6440   YYYZ       1.1809
      XXZZ    -426.6800   XYZZ      51.2722   YYZZ     -24.9462
      XZZZ      38.3625   YZZZ       0.4136   ZZZZ     -47.6136
 -----------------------------------------------------------------
Archival summary:
1\1\centos77-c1\SP\ProcedureUnspecified\BasisUnspecified\126\shihchen\WedJul2900:36:372020WedJul2900:36:372020\0\\#,ProcedureUnspecified,BasisUnspecified,\\0,1\C\H,1,1.08072\H,1,1.08327,2,114.289\C,1,1.41406,2,116.069,3,-159.289,0\H,4,1.08116,1,123.792,2,6.44091,0\H,4,1.08323,1,112.714,2,155.461,0\H,4,1.41824,1,72.9061,2,-102.503,0\O,7,1.24478,4,129.921,1,9.03489,0\H,8,0.963873,7,112.071,4,-109.293,0\\\@

 Total job time:  17.76s(wall), 93.17s(cpu) 
 Wed Jul 29 00:36:37 2020

        *************************************************************
        *                                                           *
        *  Thank you very much for using Q-Chem.  Have a nice day.  *
        *                                                           *
        *************************************************************


