                  Welcome to Q-Chem
     A Quantum Leap Into The Future Of Chemistry


 Q-Chem 5.3 (devel), Q-Chem, Inc., Pleasanton, CA (2020)

 Yihan Shao,  Zhengting Gan,  E. Epifanovsky,  A. T. B. Gilbert,  M. Wormit,  
 J. Kussmann,  A. W. Lange,  A. Behn,  Jia Deng,  Xintian Feng,  D. Ghosh,  
 M. Goldey,  P. R. Horn,  L. D. Jacobson,  I. Kaliman,  T. Kus,  A. Landau,  
 Jie Liu,  E. I. Proynov,  R. M. Richard,  R. P. Steele,  E. J. Sundstrom,  
 H. L. Woodcock III,  P. M. Zimmerman,  D. Zuev,  B. Alam,  B. Albrecht,  
 E. Alguire,  S. A. Baeppler,  D. Barton,  Z. Benda,  Y. A. Bernard,  
 E. J. Berquist,  K. B. Bravaya,  H. Burton,  K. Carter-Fenk,  D. Casanova,  
 Chun-Min Chang,  Yunqing Chen,  A. Chien,  K. D. Closser,  M. P. Coons,  
 S. Coriani,  S. Dasgupta,  A. L. Dempwolff,  M. Diedenhofen,  Hainam Do,  
 R. G. Edgar,  Po-Tung Fang,  S. Faraji,  S. Fatehi,  Qingguo Feng,  
 J. Fosso-Tande,  J. Gayvert,  Qinghui Ge,  A. Ghysels,  G. Gidofalvi,  
 J. Gomes,  J. Gonthier,  A. Gunina,  D. Hait,  M. W. D. Hanson-Heine,  
 P. H. P. Harbach,  A. W. Hauser,  M. F. Herbst,  J. E. Herr,  
 E. G. Hohenstein,  Z. C. Holden,  Kerwin Hui,  B. C. Huynh,  T.-C. Jagau,  
 Hyunjun Ji,  B. Kaduk,  K. Khistyaev,  Jaehoon Kim,  P. Klunzinger,  K. Koh,  
 D. Kosenkov,  L. Koulias,  T. Kowalczyk,  C. M. Krauter,  A. Kunitsa,  
 Ka Un Lao,  A. Laurent,  K. V. Lawler,  Joonho Lee,  D. Lefrancois,  
 S. Lehtola,  D. S. Levine,  Yi-Pei Li,  You-Sheng Lin,  Fenglai Liu,  
 Kuan-Yu Liu,  E. Livshits,  M. Loipersberger,  A. Luenser,  P. Manohar,  
 E. Mansoor,  S. F. Manzer,  Shan-Ping Mao,  Yuezhi Mao,  N. Mardirossian,  
 A. V. Marenich,  T. Markovich,  L. A. Martinez-Martinez,  S. A. Maurer,  
 N. J. Mayhall,  S. C. McKenzie,  J.-M. Mewes,  P. Morgante,  A. F. Morrison,  
 J. W. Mullinax,  K. Nanda,  T. S. Nguyen-Beck,  R. Olivares-Amaya,  
 K. J. Oosterbaan,  J. A. Parkhill,  S. K. Paul,  F. Pavosevic,  Zheng Pei,  
 T. M. Perrine,  F. Plasser,  P. Pokhilko,  S. Prager,  A. Prociuk,  
 E. Ramos,  B. Rana,  D. R. Rehn,  F. Rob,  M. Scheurer,  M. Schneider,  
 N. Sergueev,  S. M. Sharada,  S. Sharma,  D. W. Small,  T. Stauch,  
 C. J. Stein,  T. Stein,  Yu-Chuan Su,  S. P. Veccham,  Zhen Tao,  
 A. J. W. Thom,  A. Tkatchenko,  T. Tsuchimochi,  N. M. Tubman,  L. Vogt,  
 M. L. Vidal,  O. Vydrov,  M. A. Watson,  J. Wenzel,  M. de Wergifosse,  
 T. A. Wesolowski,  A. White,  J. Witte,  A. Yamada,  Jun Yang,  K. Yao,  
 S. Yeganeh,  S. R. Yost,  Zhi-Qiang You,  A. Zech,  Igor Ying Zhang,  
 Xing Zhang,  Yan Zhao,  Ying Zhu,  B. R. Brooks,  G. K. L. Chan,  
 C. J. Cramer,  M. S. Gordon,  W. J. Hehre,  A. Klamt,  M. W. Schmidt,  
 C. D. Sherrill,  D. G. Truhlar,  A. Aspuru-Guzik,  R. Baer,  A. T. Bell,  
 N. A. Besley,  Jeng-Da Chai,  A. E. DePrince, III,  R. A. DiStasio Jr.,  
 A. Dreuw,  B. D. Dunietz,  T. R. Furlani,  Chao-Ping Hsu,  Yousung Jung,  
 Jing Kong,  D. S. Lambrecht,  WanZhen Liang,  C. Ochsenfeld,  
 V. A. Rassolov,  L. V. Slipchenko,  J. E. Subotnik,  T. Van Voorhis,  
 J. M. Herbert,  A. I. Krylov,  P. M. W. Gill,  M. Head-Gordon

 Contributors to earlier versions of Q-Chem not listed above: 
 R. D. Adamson,  B. Austin,  J. Baker,  G. J. O. Beran,  K. Brandhorst,  
 S. T. Brown,  E. F. C. Byrd,  A. K. Chakraborty,  C.-L. Cheng,  
 Siu Hung Chien,  D. M. Chipman,  D. L. Crittenden,  H. Dachsel,  
 R. J. Doerksen,  A. D. Dutoi,  L. Fusti-Molnar,  W. A. Goddard III,  
 A. Golubeva-Zadorozhnaya,  S. R. Gwaltney,  G. Hawkins,  A. Heyden,  
 S. Hirata,  G. Kedziora,  F. J. Keil,  C. Kelley,  Jihan Kim,  R. A. King,  
 R. Z. Khaliullin,  P. P. Korambath,  W. Kurlancheek,  A. M. Lee,  M. S. Lee,  
 S. V. Levchenko,  Ching Yeh Lin,  D. Liotard,  R. C. Lochan,  I. Lotan,  
 P. E. Maslen,  N. Nair,  D. P. O'Neill,  D. Neuhauser,  E. Neuscamman,  
 C. M. Oana,  R. Olson,  B. Peters,  R. Peverati,  P. A. Pieniazek,  
 Y. M. Rhee,  J. Ritchie,  M. A. Rohrdanz,  E. Rosta,  N. J. Russ,  
 H. F. Schaefer III,  N. E. Schultz,  N. Shenvi,  A. C. Simmonett,  A. Sodt,  
 D. Stuck,  K. S. Thanthiriwatte,  V. Vanovschi,  Tao Wang,  A. Warshel,  
 C. F. Williams,  Q. Wu,  X. Xu,  W. Zhang

 Please cite Q-Chem as follows:
 Y. Shao et al., Mol. Phys. 113, 184-215 (2015)
 DOI: 10.1080/00268976.2014.952696

 Q-Chem 5.3.0 for Intel X86 EM64T Linux

 Parts of Q-Chem use Armadillo 9.800.1 (Horizon Scraper).
 http://arma.sourceforge.net/

 Q-Chem begins on Wed Jul 29 00:25:06 2020  

Host: centos77-c1
0

     Scratch files written to /tmp/30084.centos77-h1/qchem27777//
Processing $rem in /opt/qchem-5.3.0-intel2020u1//config/preferences:
Processing $rem in /home/shihchengli/.qchemrc:

Checking the input file for inconsistencies... 	...done.

--------------------------------------------------------------
User input:
--------------------------------------------------------------
$rem
   JOBTYPE  sp
   EXCHANGE   omegaB97X-D
   BASIS   6-311+G(2df,2pd)
   UNRESTRICTED   False
   max_scf_cycles   250
   geom_opt_max_cycles   1500
   basis2 6-31G*
   scf_algorithm rca_diis
   SYM_IGNORE  TRUE
   print_input   true
   geom_opt_dmax   80
   pop_mulliken false
   XC_GRID 000075000302
$end

$molecule
0 1
C       -5.5484965827     0.5450552340     -0.0567072507
C       -4.4058763902     1.3636898521     0.0619730035
H       -5.9062833707     0.3199725604     -1.0536335060
H       -6.2995242218     0.5914897201     0.7201485282
H       -4.4850270374     -0.3552613893     0.2386123938
O       -3.3463144717     -0.0720372135     0.5496467938
H       -4.2367400792     1.9647381604     0.9445711077
H       -3.8814549141     1.7046186811     -0.8223731132
H       -2.5710153295     -0.1991283482     -0.0093477938
$end
--------------------------------------------------------------
 ----------------------------------------------------------------
             Standard Nuclear Orientation (Angstroms)
    I     Atom           X                Y                Z
 ----------------------------------------------------------------
    1      C      -5.5484965827     0.5450552340    -0.0567072507
    2      C      -4.4058763902     1.3636898521     0.0619730035
    3      H      -5.9062833707     0.3199725604    -1.0536335060
    4      H      -6.2995242218     0.5914897201     0.7201485282
    5      H      -4.4850270374    -0.3552613893     0.2386123938
    6      O      -3.3463144717    -0.0720372135     0.5496467938
    7      H      -4.2367400792     1.9647381604     0.9445711077
    8      H      -3.8814549141     1.7046186811    -0.8223731132
    9      H      -2.5710153295    -0.1991283482    -0.0093477938
 ----------------------------------------------------------------
 Nuclear Repulsion Energy =          79.63496894 hartrees
 There are       13 alpha and       13 beta electrons
 Requested basis set is 6-311+G(2df,2pd)
 There are 60 shells and 186 basis functions

 Total QAlloc Memory Limit   2000 MB
 Mega-Array Size       188 MB
 MEM_STATIC part       192 MB

                       Distance Matrix (Angstroms)
             C (  1)   C (  2)   H (  3)   H (  4)   H (  5)   O (  6)
   C (  2)  1.410613
   H (  3)  1.082837  2.141295
   H (  4)  1.081528  2.148346  1.837025
   H (  5)  1.424342  1.729815  2.036126  2.102526
   O (  6)  2.366025  1.849813  3.045919  3.031631  1.213929
   H (  7)  2.176870  1.081132  3.079846  2.488223  2.437708  2.257715
   H (  8)  2.170221  1.083198  2.463870  3.076603  2.394388  2.307666
   H (  9)  3.069438  2.411266  3.533272  3.880595  1.936312  0.964218
             H (  7)   H (  8)
   H (  8)  1.820984
   H (  9)  2.892563  2.450003
 
 A cutoff of  1.0D-09 yielded   1777 shell pairs
 There are     17219 function pairs (     21388 Cartesian)
 Smallest overlap matrix eigenvalue = 8.86E-05

 Scale SEOQF with 1.000000e-02/1.000000e-01/1.000000e-01

 Standard Electronic Orientation quadrupole field applied
 Nucleus-field energy     =     0.0000000027 hartrees
 Requested basis set is 6-31G(d)
 There are 24 shells and 54 basis functions
 A cutoff of  1.0D-09 yielded    298 shell pairs
 There are      1549 function pairs (      1732 Cartesian)
 Smallest overlap matrix eigenvalue = 6.76E-03
 Guess from superposition of atomic densities
 Warning:  Energy on first SCF cycle will be non-variational
 SAD guess density has 26.000000 electrons
 Long-range K will be added via erf
 Coulomb attenuation parameter = 0.2 bohr**(-1)
 A restricted hybrid HF-DFT SCF calculation will be
 performed using Relaxed Constraint Minimization + Pulay DIIS
 Exchange:     0.2220 Hartree-Fock + 1.0000 wB97X-D + LR-HF
 Correlation:  1.0000 wB97X-D
 Using Euler-Maclaurin-Lebedev (75,302) quadrature formula
 Dispersion:   Grimme D
 SCF converges when DIIS error is below 1.0E-04
 using 6 threads for integral computing
 -------------------------------------------------------
 OpenMP Integral computing Module                
 Release: version 1.0, May 2013, Q-Chem Inc. Pittsburgh 
 -------------------------------------------------------
 using 6 threads for integral computing
 -------------------------------------------------------
 OpenMP Integral computing Module                
 Release: version 1.0, May 2013, Q-Chem Inc. Pittsburgh 
 -------------------------------------------------------
 ---------------------------------------
  Cycle       Energy         DIIS Error
 ---------------------------------------
    1    -155.2674342327      9.94E-02
    2    -154.7854379350      1.55E-02
    3    -154.8192007334      3.14E-03
    4    -154.8578767377      2.43E-03
    5    -154.8587774900      4.64E-04 Done RCA. Switching to DIIS
    6    -154.8599260658      2.85E-04
    7    -154.8599583039      4.06E-05 Convergence criterion met
 ---------------------------------------
 SCF time:  CPU 15.50 s  wall 2.60 s
 SCF   energy in the small basis set = -154.85995830
 Total energy in the small basis set = -154.85995830
 ----------------------------------------------------
  Cycle       Energy    
 ----------------------------------------------------
    1     -18.6772453578     -1.87E+01
 Long-range K will be added via erf
 Coulomb attenuation parameter = 0.2 bohr**(-1)
 A restricted hybrid HF-DFT SCF calculation will be
 performed using Relaxed Constraint Minimization + Pulay DIIS
 Exchange:     0.2220 Hartree-Fock + 1.0000 wB97X-D + LR-HF
 Correlation:  1.0000 wB97X-D
 Using Euler-Maclaurin-Lebedev (75,302) quadrature formula
 Dispersion:   Grimme D
 SCF converges when DIIS error is below 1.0E-05
 Basis2 calculation detected. Using small basis as guess for larger.
 SCFMinFind is unable to tell whether the solution found is close.
 Resetting ReadMinima to 0 and attempting to follow guess.
 SCFMinFind following SCF Guess.
 using 6 threads for integral computing
 -------------------------------------------------------
 OpenMP Integral computing Module                
 Release: version 1.0, May 2013, Q-Chem Inc. Pittsburgh 
 -------------------------------------------------------
 using 6 threads for integral computing
 -------------------------------------------------------
 OpenMP Integral computing Module                
 Release: version 1.0, May 2013, Q-Chem Inc. Pittsburgh 
 -------------------------------------------------------
 ---------------------------------------
  Cycle       Energy         DIIS Error
 ---------------------------------------
    1    -154.8867418338      5.96E-03
    2    -154.8850750252      4.28E-03
    3    -154.9052081796      9.40E-04 Done RCA. Switching to DIIS
    4    -154.9327711759      1.00E-03
    5    -154.9357135093      7.24E-05
    6    -154.9357401909      1.45E-05
    7    -154.9357420688      4.74E-06 Convergence criterion met
 ---------------------------------------
 SCF time:  CPU 57.15 s  wall 9.56 s
 SCF   energy in the final basis set = -154.93574207
 Total energy in the final basis set = -154.93574207
 
 --------------------------------------------------------------
 
                    Orbital Energies (a.u.)
 --------------------------------------------------------------
 
 Alpha MOs
 -- Occupied --
-19.2456 -10.3518 -10.2498  -1.0924  -0.8715  -0.6961  -0.6226  -0.5693
 -0.4991  -0.4516  -0.4375  -0.4335  -0.3040
 -- Virtual --
  0.0531   0.0674   0.0898   0.0974   0.1147   0.1280   0.1392   0.1467
  0.1783   0.1888   0.2168   0.2392   0.2536   0.2759   0.2851   0.2950
  0.3275   0.3354   0.3584   0.3926   0.4635   0.4661   0.4908   0.5497
  0.5661   0.5812   0.5911   0.6101   0.6171   0.6315   0.6485   0.6896
  0.6979   0.7485   0.8252   0.8333   0.8469   0.8788   0.8938   0.9420
  0.9938   1.0183   1.0776   1.0975   1.1296   1.1549   1.1752   1.1923
  1.2326   1.2514   1.2775   1.3034   1.3253   1.3528   1.4132   1.4376
  1.4489   1.4673   1.4789   1.4934   1.5221   1.5830   1.5909   1.6564
  1.7206   1.7894   1.9133   1.9554   2.0585   2.2582   2.3296   2.4121
  2.4769   2.5580   2.6302   2.6707   2.6976   2.7423   2.7643   2.8076
  2.8710   2.9038   2.9467   2.9707   3.0052   3.0391   3.0814   3.0874
  3.1125   3.1304   3.1510   3.2268   3.2577   3.3211   3.3348   3.3491
  3.3647   3.4115   3.4157   3.4497   3.4631   3.5009   3.5438   3.5611
  3.5803   3.5985   3.6138   3.6598   3.7026   3.7512   3.7620   3.8289
  3.8554   3.8608   3.8739   3.9257   3.9571   3.9719   4.0585   4.0626
  4.1028   4.1371   4.1843   4.1993   4.2294   4.2583   4.2866   4.3085
  4.3363   4.3774   4.4184   4.4895   4.5008   4.6030   4.6420   4.7017
  4.7624   4.7833   4.8448   4.9665   4.9860   5.0195   5.0468   5.1015
  5.1288   5.2070   5.2460   5.2941   5.3715   5.3819   5.4130   5.4530
  5.5828   5.6250   5.6856   5.8397   6.1055   6.1914   6.2506   6.2883
  6.4699   6.6334   6.6967   7.0536   7.1527   7.1804   7.4082   7.6008
  7.8308   8.1497  24.9538  25.3170  50.4384
 --------------------------------------------------------------
 
 -----------------------------------------------------------------
                    Cartesian Multipole Moments
 -----------------------------------------------------------------
    Charge (ESU x 10^10)
                 0.0000
    Dipole Moment (Debye)
         X       0.8607      Y       1.0973      Z      -1.3063
       Tot       1.9108
    Quadrupole Moments (Debye-Ang)
        XX     -27.2504     XY      -3.9575     YY     -19.2315
        XZ       3.1024     YZ       0.8903     ZZ     -20.8831
    Octopole Moments (Debye-Ang^2)
       XXX     320.8330    XXY      -1.0023    XYY      89.0684
       YYY     -34.0101    XXZ      -7.7276    XYZ      -4.6135
       YYZ      -1.9573    XZZ      90.9766    YZZ     -10.2312
       ZZZ     -11.2991
    Hexadecapole Moments (Debye-Ang^3)
      XXXX   -2904.9452   XXXY     163.6040   XXYY    -459.8320
      XYYY     168.0300   YYYY    -116.2426   XXXZ      14.9424
      XXYZ      24.5314   XYYZ       3.3959   YYYZ       2.1864
      XXZZ    -428.7737   XYZZ      50.4304   YYZZ     -24.8518
      XZZZ      36.2436   YZZZ       0.6409   ZZZZ     -46.3604
 -----------------------------------------------------------------
Archival summary:
1\1\centos77-c1\SP\ProcedureUnspecified\BasisUnspecified\126\shihchen\WedJul2900:25:202020WedJul2900:25:202020\0\\#,ProcedureUnspecified,BasisUnspecified,\\0,1\C\H,1,1.08113\H,1,1.0832,2,114.568\C,1,1.41061,2,121.201,3,-158.049,0\H,4,1.08153,1,118.499,2,5.04366,0\H,4,1.08284,1,117.758,2,153.531,0\H,4,1.42434,1,75.2024,2,-103.827,0\O,7,1.21393,4,127.303,1,7.77042,0\H,8,0.964218,7,125.097,4,-109.293,0\\\@

 Total job time:  14.61s(wall), 76.83s(cpu) 
 Wed Jul 29 00:25:20 2020

        *************************************************************
        *                                                           *
        *  Thank you very much for using Q-Chem.  Have a nice day.  *
        *                                                           *
        *************************************************************


