                  Welcome to Q-Chem
     A Quantum Leap Into The Future Of Chemistry


 Q-Chem 5.3 (devel), Q-Chem, Inc., Pleasanton, CA (2020)

 Yihan Shao,  Zhengting Gan,  E. Epifanovsky,  A. T. B. Gilbert,  M. Wormit,  
 J. Kussmann,  A. W. Lange,  A. Behn,  Jia Deng,  Xintian Feng,  D. Ghosh,  
 M. Goldey,  P. R. Horn,  L. D. Jacobson,  I. Kaliman,  T. Kus,  A. Landau,  
 Jie Liu,  E. I. Proynov,  R. M. Richard,  R. P. Steele,  E. J. Sundstrom,  
 H. L. Woodcock III,  P. M. Zimmerman,  D. Zuev,  B. Alam,  B. Albrecht,  
 E. Alguire,  S. A. Baeppler,  D. Barton,  Z. Benda,  Y. A. Bernard,  
 E. J. Berquist,  K. B. Bravaya,  H. Burton,  K. Carter-Fenk,  D. Casanova,  
 Chun-Min Chang,  Yunqing Chen,  A. Chien,  K. D. Closser,  M. P. Coons,  
 S. Coriani,  S. Dasgupta,  A. L. Dempwolff,  M. Diedenhofen,  Hainam Do,  
 R. G. Edgar,  Po-Tung Fang,  S. Faraji,  S. Fatehi,  Qingguo Feng,  
 J. Fosso-Tande,  J. Gayvert,  Qinghui Ge,  A. Ghysels,  G. Gidofalvi,  
 J. Gomes,  J. Gonthier,  A. Gunina,  D. Hait,  M. W. D. Hanson-Heine,  
 P. H. P. Harbach,  A. W. Hauser,  M. F. Herbst,  J. E. Herr,  
 E. G. Hohenstein,  Z. C. Holden,  Kerwin Hui,  B. C. Huynh,  T.-C. Jagau,  
 Hyunjun Ji,  B. Kaduk,  K. Khistyaev,  Jaehoon Kim,  P. Klunzinger,  K. Koh,  
 D. Kosenkov,  L. Koulias,  T. Kowalczyk,  C. M. Krauter,  A. Kunitsa,  
 Ka Un Lao,  A. Laurent,  K. V. Lawler,  Joonho Lee,  D. Lefrancois,  
 S. Lehtola,  D. S. Levine,  Yi-Pei Li,  You-Sheng Lin,  Fenglai Liu,  
 Kuan-Yu Liu,  E. Livshits,  M. Loipersberger,  A. Luenser,  P. Manohar,  
 E. Mansoor,  S. F. Manzer,  Shan-Ping Mao,  Yuezhi Mao,  N. Mardirossian,  
 A. V. Marenich,  T. Markovich,  L. A. Martinez-Martinez,  S. A. Maurer,  
 N. J. Mayhall,  S. C. McKenzie,  J.-M. Mewes,  P. Morgante,  A. F. Morrison,  
 J. W. Mullinax,  K. Nanda,  T. S. Nguyen-Beck,  R. Olivares-Amaya,  
 K. J. Oosterbaan,  J. A. Parkhill,  S. K. Paul,  F. Pavosevic,  Zheng Pei,  
 T. M. Perrine,  F. Plasser,  P. Pokhilko,  S. Prager,  A. Prociuk,  
 E. Ramos,  B. Rana,  D. R. Rehn,  F. Rob,  M. Scheurer,  M. Schneider,  
 N. Sergueev,  S. M. Sharada,  S. Sharma,  D. W. Small,  T. Stauch,  
 C. J. Stein,  T. Stein,  Yu-Chuan Su,  S. P. Veccham,  Zhen Tao,  
 A. J. W. Thom,  A. Tkatchenko,  T. Tsuchimochi,  N. M. Tubman,  L. Vogt,  
 M. L. Vidal,  O. Vydrov,  M. A. Watson,  J. Wenzel,  M. de Wergifosse,  
 T. A. Wesolowski,  A. White,  J. Witte,  A. Yamada,  Jun Yang,  K. Yao,  
 S. Yeganeh,  S. R. Yost,  Zhi-Qiang You,  A. Zech,  Igor Ying Zhang,  
 Xing Zhang,  Yan Zhao,  Ying Zhu,  B. R. Brooks,  G. K. L. Chan,  
 C. J. Cramer,  M. S. Gordon,  W. J. Hehre,  A. Klamt,  M. W. Schmidt,  
 C. D. Sherrill,  D. G. Truhlar,  A. Aspuru-Guzik,  R. Baer,  A. T. Bell,  
 N. A. Besley,  Jeng-Da Chai,  A. E. DePrince, III,  R. A. DiStasio Jr.,  
 A. Dreuw,  B. D. Dunietz,  T. R. Furlani,  Chao-Ping Hsu,  Yousung Jung,  
 Jing Kong,  D. S. Lambrecht,  WanZhen Liang,  C. Ochsenfeld,  
 V. A. Rassolov,  L. V. Slipchenko,  J. E. Subotnik,  T. Van Voorhis,  
 J. M. Herbert,  A. I. Krylov,  P. M. W. Gill,  M. Head-Gordon

 Contributors to earlier versions of Q-Chem not listed above: 
 R. D. Adamson,  B. Austin,  J. Baker,  G. J. O. Beran,  K. Brandhorst,  
 S. T. Brown,  E. F. C. Byrd,  A. K. Chakraborty,  C.-L. Cheng,  
 Siu Hung Chien,  D. M. Chipman,  D. L. Crittenden,  H. Dachsel,  
 R. J. Doerksen,  A. D. Dutoi,  L. Fusti-Molnar,  W. A. Goddard III,  
 A. Golubeva-Zadorozhnaya,  S. R. Gwaltney,  G. Hawkins,  A. Heyden,  
 S. Hirata,  G. Kedziora,  F. J. Keil,  C. Kelley,  Jihan Kim,  R. A. King,  
 R. Z. Khaliullin,  P. P. Korambath,  W. Kurlancheek,  A. M. Lee,  M. S. Lee,  
 S. V. Levchenko,  Ching Yeh Lin,  D. Liotard,  R. C. Lochan,  I. Lotan,  
 P. E. Maslen,  N. Nair,  D. P. O'Neill,  D. Neuhauser,  E. Neuscamman,  
 C. M. Oana,  R. Olson,  B. Peters,  R. Peverati,  P. A. Pieniazek,  
 Y. M. Rhee,  J. Ritchie,  M. A. Rohrdanz,  E. Rosta,  N. J. Russ,  
 H. F. Schaefer III,  N. E. Schultz,  N. Shenvi,  A. C. Simmonett,  A. Sodt,  
 D. Stuck,  K. S. Thanthiriwatte,  V. Vanovschi,  Tao Wang,  A. Warshel,  
 C. F. Williams,  Q. Wu,  X. Xu,  W. Zhang

 Please cite Q-Chem as follows:
 Y. Shao et al., Mol. Phys. 113, 184-215 (2015)
 DOI: 10.1080/00268976.2014.952696

 Q-Chem 5.3.0 for Intel X86 EM64T Linux

 Parts of Q-Chem use Armadillo 9.800.1 (Horizon Scraper).
 http://arma.sourceforge.net/

 Q-Chem begins on Wed Jul 29 00:34:53 2020  

Host: centos77-c1
0

     Scratch files written to /tmp/30084.centos77-h1/qchem29438//
Processing $rem in /opt/qchem-5.3.0-intel2020u1//config/preferences:
Processing $rem in /home/shihchengli/.qchemrc:

Checking the input file for inconsistencies... 	...done.

--------------------------------------------------------------
User input:
--------------------------------------------------------------
$rem
   JOBTYPE  sp
   EXCHANGE   omegaB97X-D
   BASIS   6-311+G(2df,2pd)
   UNRESTRICTED   False
   max_scf_cycles   250
   geom_opt_max_cycles   1500
   basis2 6-31G*
   scf_algorithm rca_diis
   SYM_IGNORE  TRUE
   print_input   true
   geom_opt_dmax   80
   pop_mulliken false
   XC_GRID 000075000302
$end

$molecule
0 1
C       -5.4852111433     0.5985087225     -0.0471918835
C       -4.3383372828     1.3065733268     0.1407436467
H       -5.7751141347     0.3586206491     -1.0592306983
H       -6.2425715143     0.6515412049     0.7199657505
H       -4.4476782907     -0.3867496148     0.2828177425
O       -3.2632433639     -0.1083684576     0.5639533641
H       -4.4903794983     2.0700697744     0.8891371954
H       -4.0112529635     1.7313702249     -0.7996768468
H       -2.6269442058     -0.3584285731     -0.1176281073
$end
--------------------------------------------------------------
 ----------------------------------------------------------------
             Standard Nuclear Orientation (Angstroms)
    I     Atom           X                Y                Z
 ----------------------------------------------------------------
    1      C      -5.4852111433     0.5985087225    -0.0471918835
    2      C      -4.3383372828     1.3065733268     0.1407436467
    3      H      -5.7751141347     0.3586206491    -1.0592306983
    4      H      -6.2425715143     0.6515412049     0.7199657505
    5      H      -4.4476782907    -0.3867496148     0.2828177425
    6      O      -3.2632433639    -0.1083684576     0.5639533641
    7      H      -4.4903794983     2.0700697744     0.8891371954
    8      H      -4.0112529635     1.7313702249    -0.7996768468
    9      H      -2.6269442058    -0.3584285731    -0.1176281073
 ----------------------------------------------------------------
 Nuclear Repulsion Energy =          80.07329277 hartrees
 There are       13 alpha and       13 beta electrons
 Requested basis set is 6-311+G(2df,2pd)
 There are 60 shells and 186 basis functions

 Total QAlloc Memory Limit   2000 MB
 Mega-Array Size       188 MB
 MEM_STATIC part       192 MB

                       Distance Matrix (Angstroms)
             C (  1)   C (  2)   H (  3)   H (  4)   H (  5)   O (  6)
   C (  2)  1.360880
   H (  3)  1.079728  2.098304
   H (  4)  1.079323  2.095393  1.862756
   H (  5)  1.468371  1.702787  2.029472  2.119148
   O (  6)  2.410459  1.826744  3.026929  3.078668  1.248767
   H (  7)  2.007958  1.079878  2.894087  2.260756  2.530891  2.521349
   H (  8)  2.005533  1.082510  2.250115  2.907598  2.418407  2.409075
   H (  9)  3.015026  2.401636  3.363294  3.846344  1.864465  0.965381
             H (  7)   H (  8)
   H (  8)  1.787840
   H (  9)  3.222355  2.597838
 
 A cutoff of  1.0D-09 yielded   1774 shell pairs
 There are     17222 function pairs (     21398 Cartesian)
 Smallest overlap matrix eigenvalue = 6.70E-05

 Scale SEOQF with 1.000000e-02/1.000000e-01/1.000000e-01

 Standard Electronic Orientation quadrupole field applied
 Nucleus-field energy     =     0.0000000027 hartrees
 Requested basis set is 6-31G(d)
 There are 24 shells and 54 basis functions
 A cutoff of  1.0D-09 yielded    298 shell pairs
 There are      1549 function pairs (      1732 Cartesian)
 Smallest overlap matrix eigenvalue = 5.53E-03
 Guess from superposition of atomic densities
 Warning:  Energy on first SCF cycle will be non-variational
 SAD guess density has 26.000000 electrons
 Long-range K will be added via erf
 Coulomb attenuation parameter = 0.2 bohr**(-1)
 A restricted hybrid HF-DFT SCF calculation will be
 performed using Relaxed Constraint Minimization + Pulay DIIS
 Exchange:     0.2220 Hartree-Fock + 1.0000 wB97X-D + LR-HF
 Correlation:  1.0000 wB97X-D
 Using Euler-Maclaurin-Lebedev (75,302) quadrature formula
 Dispersion:   Grimme D
 SCF converges when DIIS error is below 1.0E-04
 using 6 threads for integral computing
 -------------------------------------------------------
 OpenMP Integral computing Module                
 Release: version 1.0, May 2013, Q-Chem Inc. Pittsburgh 
 -------------------------------------------------------
 using 6 threads for integral computing
 -------------------------------------------------------
 OpenMP Integral computing Module                
 Release: version 1.0, May 2013, Q-Chem Inc. Pittsburgh 
 -------------------------------------------------------
 ---------------------------------------
  Cycle       Energy         DIIS Error
 ---------------------------------------
    1    -155.3440872661      1.03E-01
    2    -154.7672429347      1.49E-02
    3    -154.8011877571      3.25E-03
    4    -154.8351815102      3.25E-03
    5    -154.8365413246      5.40E-04 Done RCA. Switching to DIIS
    6    -154.8383389193      6.19E-04
    7    -154.8384578814      4.42E-05 Convergence criterion met
 ---------------------------------------
 SCF time:  CPU 17.75 s  wall 2.98 s
 SCF   energy in the small basis set = -154.83845788
 Total energy in the small basis set = -154.83845788
 ----------------------------------------------------
  Cycle       Energy    
 ----------------------------------------------------
    1     -18.6898540593     -1.87E+01
 Long-range K will be added via erf
 Coulomb attenuation parameter = 0.2 bohr**(-1)
 A restricted hybrid HF-DFT SCF calculation will be
 performed using Relaxed Constraint Minimization + Pulay DIIS
 Exchange:     0.2220 Hartree-Fock + 1.0000 wB97X-D + LR-HF
 Correlation:  1.0000 wB97X-D
 Using Euler-Maclaurin-Lebedev (75,302) quadrature formula
 Dispersion:   Grimme D
 SCF converges when DIIS error is below 1.0E-05
 Basis2 calculation detected. Using small basis as guess for larger.
 SCFMinFind is unable to tell whether the solution found is close.
 Resetting ReadMinima to 0 and attempting to follow guess.
 SCFMinFind following SCF Guess.
 using 6 threads for integral computing
 -------------------------------------------------------
 OpenMP Integral computing Module                
 Release: version 1.0, May 2013, Q-Chem Inc. Pittsburgh 
 -------------------------------------------------------
 using 6 threads for integral computing
 -------------------------------------------------------
 OpenMP Integral computing Module                
 Release: version 1.0, May 2013, Q-Chem Inc. Pittsburgh 
 -------------------------------------------------------
 ---------------------------------------
  Cycle       Energy         DIIS Error
 ---------------------------------------
    1    -154.8704119920      5.86E-03
    2    -154.8730676018      3.87E-03
    3    -154.8896119643      8.43E-04 Done RCA. Switching to DIIS
    4    -154.9121120458      8.75E-04
    5    -154.9143347893      6.31E-05
    6    -154.9143559394      1.32E-05
    7    -154.9143575715      5.07E-06 Convergence criterion met
 ---------------------------------------
 SCF time:  CPU 64.37 s  wall 12.26 s
 SCF   energy in the final basis set = -154.91435757
 Total energy in the final basis set = -154.91435757
 
 --------------------------------------------------------------
 
                    Orbital Energies (a.u.)
 --------------------------------------------------------------
 
 Alpha MOs
 -- Occupied --
-19.2596 -10.3399 -10.2443  -1.1002  -0.8874  -0.6805  -0.6219  -0.5763
 -0.5020  -0.4545  -0.4510  -0.4303  -0.3016
 -- Virtual --
  0.0537   0.0683   0.0914   0.0940   0.1114   0.1302   0.1369   0.1487
  0.1764   0.1840   0.2078   0.2395   0.2588   0.2711   0.2901   0.3070
  0.3138   0.3231   0.3723   0.3946   0.4599   0.4726   0.4905   0.5274
  0.5522   0.5814   0.5923   0.6049   0.6117   0.6161   0.6742   0.6800
  0.7110   0.7405   0.8048   0.8279   0.8523   0.8948   0.9321   0.9565
  1.0031   1.0225   1.0804   1.0888   1.1030   1.1438   1.1560   1.1962
  1.2295   1.2597   1.2743   1.3090   1.3395   1.3728   1.4029   1.4300
  1.4479   1.4649   1.4766   1.4979   1.5002   1.5394   1.5972   1.6127
  1.6478   1.7713   1.9404   1.9944   2.0287   2.2579   2.3006   2.4233
  2.4544   2.5227   2.6042   2.6763   2.7066   2.7664   2.7758   2.8425
  2.8609   2.9088   2.9589   3.0038   3.0157   3.0334   3.0701   3.0893
  3.1149   3.1511   3.1783   3.2215   3.2247   3.2777   3.2886   3.3265
  3.3695   3.4146   3.4439   3.4747   3.5012   3.5154   3.5264   3.5560
  3.5780   3.6061   3.6199   3.6477   3.6945   3.7206   3.7655   3.8275
  3.8429   3.8773   3.9178   3.9339   3.9445   3.9878   4.0576   4.0682
  4.0928   4.1355   4.1785   4.2197   4.2483   4.2744   4.2946   4.3324
  4.3751   4.3769   4.4175   4.4618   4.5604   4.6145   4.6732   4.7182
  4.7640   4.8114   4.8948   4.9433   5.0058   5.0149   5.0392   5.0834
  5.0908   5.1894   5.2435   5.3152   5.3770   5.3902   5.4311   5.4567
  5.5908   5.6561   5.7483   5.8148   5.9869   6.0181   6.2887   6.3041
  6.4458   6.6150   6.7027   6.8413   7.1548   7.2149   7.3982   7.6063
  7.7492   8.1541  24.9109  25.4708  50.4161
 --------------------------------------------------------------
 
 -----------------------------------------------------------------
                    Cartesian Multipole Moments
 -----------------------------------------------------------------
    Charge (ESU x 10^10)
                 0.0000
    Dipole Moment (Debye)
         X       0.4813      Y       0.7361      Z      -1.4250
       Tot       1.6746
    Quadrupole Moments (Debye-Ang)
        XX     -24.9825     XY      -3.6334     YY     -19.1271
        XZ       3.1403     YZ       1.0214     ZZ     -20.8028
    Octopole Moments (Debye-Ang^2)
       XXX     308.0073    XXY       2.4852    XYY      85.9962
       YYY     -33.1968    XXZ      -7.0693    XYZ      -5.2143
       YYZ      -2.4759    XZZ      89.2665    YZZ     -10.2032
       ZZZ     -12.9777
    Hexadecapole Moments (Debye-Ang^3)
      XXXX   -2816.6221   XXXY     128.8258   XXYY    -434.3851
      XYYY     162.0619   YYYY    -114.6949   XXXZ      12.3740
      XXYZ      27.6207   XYYZ       4.5516   YYYZ       1.3682
      XXZZ    -415.5620   XYZZ      49.7680   YYZZ     -25.3148
      XZZZ      43.2842   YZZZ      -1.2700   ZZZZ     -46.9982
 -----------------------------------------------------------------
Archival summary:
1\1\centos77-c1\SP\ProcedureUnspecified\BasisUnspecified\126\shihchen\WedJul2900:35:112020WedJul2900:35:112020\0\\#,ProcedureUnspecified,BasisUnspecified,\\0,1\C\H,1,1.07988\H,1,1.08251,2,111.541\C,1,1.36088,2,110.177,3,-122.219,0\H,4,1.07932,1,117.881,2,-18.3655,0\H,4,1.07973,1,118.119,2,137.087,0\H,4,1.46837,1,73.8952,2,-124.733,0\O,7,1.24877,4,124.834,1,2.30681,0\H,8,0.965381,7,114.109,4,-109.293,0\\\@

 Total job time:  18.13s(wall), 87.05s(cpu) 
 Wed Jul 29 00:35:11 2020

        *************************************************************
        *                                                           *
        *  Thank you very much for using Q-Chem.  Have a nice day.  *
        *                                                           *
        *************************************************************


