                  Welcome to Q-Chem
     A Quantum Leap Into The Future Of Chemistry


 Q-Chem 5.3 (devel), Q-Chem, Inc., Pleasanton, CA (2020)

 Yihan Shao,  Zhengting Gan,  E. Epifanovsky,  A. T. B. Gilbert,  M. Wormit,  
 J. Kussmann,  A. W. Lange,  A. Behn,  Jia Deng,  Xintian Feng,  D. Ghosh,  
 M. Goldey,  P. R. Horn,  L. D. Jacobson,  I. Kaliman,  T. Kus,  A. Landau,  
 Jie Liu,  E. I. Proynov,  R. M. Richard,  R. P. Steele,  E. J. Sundstrom,  
 H. L. Woodcock III,  P. M. Zimmerman,  D. Zuev,  B. Alam,  B. Albrecht,  
 E. Alguire,  S. A. Baeppler,  D. Barton,  Z. Benda,  Y. A. Bernard,  
 E. J. Berquist,  K. B. Bravaya,  H. Burton,  K. Carter-Fenk,  D. Casanova,  
 Chun-Min Chang,  Yunqing Chen,  A. Chien,  K. D. Closser,  M. P. Coons,  
 S. Coriani,  S. Dasgupta,  A. L. Dempwolff,  M. Diedenhofen,  Hainam Do,  
 R. G. Edgar,  Po-Tung Fang,  S. Faraji,  S. Fatehi,  Qingguo Feng,  
 J. Fosso-Tande,  J. Gayvert,  Qinghui Ge,  A. Ghysels,  G. Gidofalvi,  
 J. Gomes,  J. Gonthier,  A. Gunina,  D. Hait,  M. W. D. Hanson-Heine,  
 P. H. P. Harbach,  A. W. Hauser,  M. F. Herbst,  J. E. Herr,  
 E. G. Hohenstein,  Z. C. Holden,  Kerwin Hui,  B. C. Huynh,  T.-C. Jagau,  
 Hyunjun Ji,  B. Kaduk,  K. Khistyaev,  Jaehoon Kim,  P. Klunzinger,  K. Koh,  
 D. Kosenkov,  L. Koulias,  T. Kowalczyk,  C. M. Krauter,  A. Kunitsa,  
 Ka Un Lao,  A. Laurent,  K. V. Lawler,  Joonho Lee,  D. Lefrancois,  
 S. Lehtola,  D. S. Levine,  Yi-Pei Li,  You-Sheng Lin,  Fenglai Liu,  
 Kuan-Yu Liu,  E. Livshits,  M. Loipersberger,  A. Luenser,  P. Manohar,  
 E. Mansoor,  S. F. Manzer,  Shan-Ping Mao,  Yuezhi Mao,  N. Mardirossian,  
 A. V. Marenich,  T. Markovich,  L. A. Martinez-Martinez,  S. A. Maurer,  
 N. J. Mayhall,  S. C. McKenzie,  J.-M. Mewes,  P. Morgante,  A. F. Morrison,  
 J. W. Mullinax,  K. Nanda,  T. S. Nguyen-Beck,  R. Olivares-Amaya,  
 K. J. Oosterbaan,  J. A. Parkhill,  S. K. Paul,  F. Pavosevic,  Zheng Pei,  
 T. M. Perrine,  F. Plasser,  P. Pokhilko,  S. Prager,  A. Prociuk,  
 E. Ramos,  B. Rana,  D. R. Rehn,  F. Rob,  M. Scheurer,  M. Schneider,  
 N. Sergueev,  S. M. Sharada,  S. Sharma,  D. W. Small,  T. Stauch,  
 C. J. Stein,  T. Stein,  Yu-Chuan Su,  S. P. Veccham,  Zhen Tao,  
 A. J. W. Thom,  A. Tkatchenko,  T. Tsuchimochi,  N. M. Tubman,  L. Vogt,  
 M. L. Vidal,  O. Vydrov,  M. A. Watson,  J. Wenzel,  M. de Wergifosse,  
 T. A. Wesolowski,  A. White,  J. Witte,  A. Yamada,  Jun Yang,  K. Yao,  
 S. Yeganeh,  S. R. Yost,  Zhi-Qiang You,  A. Zech,  Igor Ying Zhang,  
 Xing Zhang,  Yan Zhao,  Ying Zhu,  B. R. Brooks,  G. K. L. Chan,  
 C. J. Cramer,  M. S. Gordon,  W. J. Hehre,  A. Klamt,  M. W. Schmidt,  
 C. D. Sherrill,  D. G. Truhlar,  A. Aspuru-Guzik,  R. Baer,  A. T. Bell,  
 N. A. Besley,  Jeng-Da Chai,  A. E. DePrince, III,  R. A. DiStasio Jr.,  
 A. Dreuw,  B. D. Dunietz,  T. R. Furlani,  Chao-Ping Hsu,  Yousung Jung,  
 Jing Kong,  D. S. Lambrecht,  WanZhen Liang,  C. Ochsenfeld,  
 V. A. Rassolov,  L. V. Slipchenko,  J. E. Subotnik,  T. Van Voorhis,  
 J. M. Herbert,  A. I. Krylov,  P. M. W. Gill,  M. Head-Gordon

 Contributors to earlier versions of Q-Chem not listed above: 
 R. D. Adamson,  B. Austin,  J. Baker,  G. J. O. Beran,  K. Brandhorst,  
 S. T. Brown,  E. F. C. Byrd,  A. K. Chakraborty,  C.-L. Cheng,  
 Siu Hung Chien,  D. M. Chipman,  D. L. Crittenden,  H. Dachsel,  
 R. J. Doerksen,  A. D. Dutoi,  L. Fusti-Molnar,  W. A. Goddard III,  
 A. Golubeva-Zadorozhnaya,  S. R. Gwaltney,  G. Hawkins,  A. Heyden,  
 S. Hirata,  G. Kedziora,  F. J. Keil,  C. Kelley,  Jihan Kim,  R. A. King,  
 R. Z. Khaliullin,  P. P. Korambath,  W. Kurlancheek,  A. M. Lee,  M. S. Lee,  
 S. V. Levchenko,  Ching Yeh Lin,  D. Liotard,  R. C. Lochan,  I. Lotan,  
 P. E. Maslen,  N. Nair,  D. P. O'Neill,  D. Neuhauser,  E. Neuscamman,  
 C. M. Oana,  R. Olson,  B. Peters,  R. Peverati,  P. A. Pieniazek,  
 Y. M. Rhee,  J. Ritchie,  M. A. Rohrdanz,  E. Rosta,  N. J. Russ,  
 H. F. Schaefer III,  N. E. Schultz,  N. Shenvi,  A. C. Simmonett,  A. Sodt,  
 D. Stuck,  K. S. Thanthiriwatte,  V. Vanovschi,  Tao Wang,  A. Warshel,  
 C. F. Williams,  Q. Wu,  X. Xu,  W. Zhang

 Please cite Q-Chem as follows:
 Y. Shao et al., Mol. Phys. 113, 184-215 (2015)
 DOI: 10.1080/00268976.2014.952696

 Q-Chem 5.3.0 for Intel X86 EM64T Linux

 Parts of Q-Chem use Armadillo 9.800.1 (Horizon Scraper).
 http://arma.sourceforge.net/

 Q-Chem begins on Wed Jul 29 00:38:07 2020  

Host: centos77-c1
0

     Scratch files written to /tmp/30084.centos77-h1/qchem29904//
Processing $rem in /opt/qchem-5.3.0-intel2020u1//config/preferences:
Processing $rem in /home/shihchengli/.qchemrc:

Checking the input file for inconsistencies... 	...done.

--------------------------------------------------------------
User input:
--------------------------------------------------------------
$rem
   JOBTYPE  sp
   EXCHANGE   omegaB97X-D
   BASIS   6-311+G(2df,2pd)
   UNRESTRICTED   False
   max_scf_cycles   250
   geom_opt_max_cycles   1500
   basis2 6-31G*
   scf_algorithm rca_diis
   SYM_IGNORE  TRUE
   print_input   true
   geom_opt_dmax   80
   pop_mulliken false
   XC_GRID 000075000302
$end

$molecule
0 1
C       -5.5847741477     0.5262274324     -0.0773912532
C       -4.3535087466     1.3797068365     0.0928297186
H       -5.9725778546     0.2613607198     -1.0573878539
H       -6.3760991905     0.5419642053     0.6665255225
H       -4.4279370817     -0.3469456920     0.2894277676
O       -3.2894367518     -0.0510405962     0.5835033391
H       -4.2151348809     2.0540474681     0.9329510897
H       -3.8227458099     1.7819256966     -0.7682971239
H       -2.6385179336     -0.2841088134     -0.0892710431
$end
--------------------------------------------------------------
 ----------------------------------------------------------------
             Standard Nuclear Orientation (Angstroms)
    I     Atom           X                Y                Z
 ----------------------------------------------------------------
    1      C      -5.5847741477     0.5262274324    -0.0773912532
    2      C      -4.3535087466     1.3797068365     0.0928297186
    3      H      -5.9725778546     0.2613607198    -1.0573878539
    4      H      -6.3760991905     0.5419642053     0.6665255225
    5      H      -4.4279370817    -0.3469456920     0.2894277676
    6      O      -3.2894367518    -0.0510405962     0.5835033391
    7      H      -4.2151348809     2.0540474681     0.9329510897
    8      H      -3.8227458099     1.7819256966    -0.7682971239
    9      H      -2.6385179336    -0.2841088134    -0.0892710431
 ----------------------------------------------------------------
 Nuclear Repulsion Energy =          77.68867624 hartrees
 There are       13 alpha and       13 beta electrons
 Requested basis set is 6-311+G(2df,2pd)
 There are 60 shells and 186 basis functions

 Total QAlloc Memory Limit   2000 MB
 Mega-Array Size       188 MB
 MEM_STATIC part       192 MB

                       Distance Matrix (Angstroms)
             C (  1)   C (  2)   H (  3)   H (  4)   H (  5)   O (  6)
   C (  2)  1.507785
   H (  3)  1.086710  2.279273
   H (  4)  1.086211  2.263142  1.792608
   H (  5)  1.495078  1.739402  2.137724  2.174327
   O (  6)  2.457355  1.849337  3.160596  3.144206  1.212528
   H (  7)  2.287124  1.086134  3.203714  2.650876  2.494830  2.326032
   H (  8)  2.271315  1.088590  2.649051  3.180540  2.452984  2.339134
   H (  9)  3.055685  2.396380  3.514362  3.901684  1.830132  0.964698
             H (  7)   H (  8)
   H (  8)  1.766993
   H (  9)  2.999606  2.476282
 
 A cutoff of  1.0D-09 yielded   1771 shell pairs
 There are     17189 function pairs (     21351 Cartesian)
 Smallest overlap matrix eigenvalue = 1.32E-04

 Scale SEOQF with 1.000000e-02/1.000000e-01/1.000000e-01

 Standard Electronic Orientation quadrupole field applied
 Nucleus-field energy     =     0.0000000027 hartrees
 Requested basis set is 6-31G(d)
 There are 24 shells and 54 basis functions
 A cutoff of  1.0D-09 yielded    296 shell pairs
 There are      1547 function pairs (      1730 Cartesian)
 Smallest overlap matrix eigenvalue = 9.24E-03
 Guess from superposition of atomic densities
 Warning:  Energy on first SCF cycle will be non-variational
 SAD guess density has 26.000000 electrons
 Long-range K will be added via erf
 Coulomb attenuation parameter = 0.2 bohr**(-1)
 A restricted hybrid HF-DFT SCF calculation will be
 performed using Relaxed Constraint Minimization + Pulay DIIS
 Exchange:     0.2220 Hartree-Fock + 1.0000 wB97X-D + LR-HF
 Correlation:  1.0000 wB97X-D
 Using Euler-Maclaurin-Lebedev (75,302) quadrature formula
 Dispersion:   Grimme D
 SCF converges when DIIS error is below 1.0E-04
 using 6 threads for integral computing
 -------------------------------------------------------
 OpenMP Integral computing Module                
 Release: version 1.0, May 2013, Q-Chem Inc. Pittsburgh 
 -------------------------------------------------------
 using 6 threads for integral computing
 -------------------------------------------------------
 OpenMP Integral computing Module                
 Release: version 1.0, May 2013, Q-Chem Inc. Pittsburgh 
 -------------------------------------------------------
 ---------------------------------------
  Cycle       Energy         DIIS Error
 ---------------------------------------
    1    -155.0924466025      9.29E-02
    2    -154.7828781405      1.48E-02
    3    -154.8147676680      3.06E-03
    4    -154.8511933348      2.39E-03
    5    -154.8520373824      4.65E-04 Done RCA. Switching to DIIS
    6    -154.8531445321      2.93E-04
    7    -154.8531787558      4.53E-05 Convergence criterion met
 ---------------------------------------
 SCF time:  CPU 20.23 s  wall 3.39 s
 SCF   energy in the small basis set = -154.85317876
 Total energy in the small basis set = -154.85317876
 ----------------------------------------------------
  Cycle       Energy    
 ----------------------------------------------------
    1     -18.6079407159     -1.86E+01
 Long-range K will be added via erf
 Coulomb attenuation parameter = 0.2 bohr**(-1)
 A restricted hybrid HF-DFT SCF calculation will be
 performed using Relaxed Constraint Minimization + Pulay DIIS
 Exchange:     0.2220 Hartree-Fock + 1.0000 wB97X-D + LR-HF
 Correlation:  1.0000 wB97X-D
 Using Euler-Maclaurin-Lebedev (75,302) quadrature formula
 Dispersion:   Grimme D
 SCF converges when DIIS error is below 1.0E-05
 Basis2 calculation detected. Using small basis as guess for larger.
 SCFMinFind is unable to tell whether the solution found is close.
 Resetting ReadMinima to 0 and attempting to follow guess.
 SCFMinFind following SCF Guess.
 using 6 threads for integral computing
 -------------------------------------------------------
 OpenMP Integral computing Module                
 Release: version 1.0, May 2013, Q-Chem Inc. Pittsburgh 
 -------------------------------------------------------
 using 6 threads for integral computing
 -------------------------------------------------------
 OpenMP Integral computing Module                
 Release: version 1.0, May 2013, Q-Chem Inc. Pittsburgh 
 -------------------------------------------------------
 ---------------------------------------
  Cycle       Energy         DIIS Error
 ---------------------------------------
    1    -154.8813925481      5.89E-03
    2    -154.8832104351      4.00E-03
    3    -154.9010266497      8.69E-04 Done RCA. Switching to DIIS
    4    -154.9253993820      8.99E-04
    5    -154.9278023844      7.51E-05
    6    -154.9278334717      1.87E-05
    7    -154.9278366185      9.93E-06 Convergence criterion met
 ---------------------------------------
 SCF time:  CPU 62.69 s  wall 10.49 s
 SCF   energy in the final basis set = -154.92783662
 Total energy in the final basis set = -154.92783662
 
 --------------------------------------------------------------
 
                    Orbital Energies (a.u.)
 --------------------------------------------------------------
 
 Alpha MOs
 -- Occupied --
-19.2612 -10.3674 -10.2603  -1.1034  -0.8502  -0.7030  -0.6193  -0.5532
 -0.5021  -0.4542  -0.4480  -0.4401  -0.2950
 -- Virtual --
  0.0466   0.0647   0.0880   0.0995   0.1157   0.1284   0.1407   0.1500
  0.1775   0.1874   0.2095   0.2335   0.2418   0.2753   0.2863   0.2919
  0.3170   0.3255   0.3386   0.3901   0.4538   0.4793   0.4992   0.5451
  0.5572   0.5808   0.5820   0.5908   0.6131   0.6281   0.6461   0.6676
  0.6966   0.7334   0.7933   0.8153   0.8210   0.8722   0.9020   0.9262
  1.0021   1.0274   1.0707   1.0753   1.1114   1.1447   1.1569   1.1805
  1.2111   1.2407   1.2481   1.2760   1.2946   1.3452   1.3948   1.4076
  1.4440   1.4510   1.4774   1.4825   1.5423   1.5800   1.6004   1.6470
  1.6949   1.7854   1.9108   1.9931   2.0474   2.2542   2.3140   2.4210
  2.4310   2.5626   2.6352   2.6559   2.6807   2.7176   2.7388   2.7944
  2.8475   2.8545   2.9087   2.9758   3.0075   3.0472   3.0668   3.1040
  3.1270   3.1475   3.1590   3.2162   3.2298   3.2501   3.2952   3.3225
  3.3261   3.3784   3.4113   3.4401   3.4586   3.4797   3.5369   3.5464
  3.5591   3.5909   3.5929   3.6073   3.6549   3.7023   3.7037   3.7921
  3.8104   3.8244   3.8477   3.8963   3.9120   3.9359   4.0292   4.0319
  4.0598   4.1110   4.1343   4.1482   4.1746   4.2016   4.2554   4.2808
  4.3103   4.3438   4.3701   4.3953   4.4523   4.4789   4.5069   4.7032
  4.7332   4.7554   4.8042   4.9016   4.9367   4.9740   4.9944   5.0364
  5.0696   5.1453   5.2137   5.2369   5.2819   5.3426   5.4214   5.4535
  5.4844   5.5219   5.7756   5.8222   5.9493   5.9717   6.1009   6.3125
  6.5263   6.6086   6.7322   6.9643   7.1537   7.2216   7.4119   7.6035
  7.7640   8.1557  24.9308  25.1085  50.4255
 --------------------------------------------------------------
 
 -----------------------------------------------------------------
                    Cartesian Multipole Moments
 -----------------------------------------------------------------
    Charge (ESU x 10^10)
                -0.0000
    Dipole Moment (Debye)
         X       1.0380      Y       0.9313      Z      -1.3233
       Tot       1.9225
    Quadrupole Moments (Debye-Ang)
        XX     -29.4593     XY      -3.2020     YY     -18.9843
        XZ       2.9414     YZ       1.0711     ZZ     -21.2417
    Octopole Moments (Debye-Ang^2)
       XXX     336.9681    XXY      -5.6163    XYY      88.9923
       YYY     -33.3109    XXZ      -7.1230    XYZ      -5.4206
       YYZ      -1.8348    XZZ      92.6422    YZZ     -10.8135
       ZZZ     -11.6927
    Hexadecapole Moments (Debye-Ang^3)
      XXXX   -3005.0407   XXXY     192.8419   XXYY    -466.7008
      XYYY     164.7793   YYYY    -116.2873   XXXZ      14.8771
      XXYZ      28.0282   XYYZ       2.1258   YYYZ       2.1989
      XXZZ    -438.5710   XYZZ      52.7425   YYZZ     -25.8493
      XZZZ      36.4558   YZZZ      -0.0479   ZZZZ     -48.1325
 -----------------------------------------------------------------
Archival summary:
1\1\centos77-c1\SP\ProcedureUnspecified\BasisUnspecified\126\shihchen\WedJul2900:38:242020WedJul2900:38:242020\0\\#,ProcedureUnspecified,BasisUnspecified,\\0,1\O\H,1,0.964698\H,1,1.21253,2,113.919\C,3,1.49508,1,130.053,2,-109.293,0\H,4,1.08621,3,113.836,1,-111.301,0\H,4,1.08671,3,110.796,1,122.531,0\C,4,1.50779,3,70.7939,1,4.53557,0\H,7,1.08613,4,122.874,3,-108.588,0\H,7,1.08859,4,121.198,3,104.556,0\\\@

 Total job time:  16.94s(wall), 88.17s(cpu) 
 Wed Jul 29 00:38:24 2020

        *************************************************************
        *                                                           *
        *  Thank you very much for using Q-Chem.  Have a nice day.  *
        *                                                           *
        *************************************************************


