                  Welcome to Q-Chem
     A Quantum Leap Into The Future Of Chemistry


 Q-Chem 5.3 (devel), Q-Chem, Inc., Pleasanton, CA (2020)

 Yihan Shao,  Zhengting Gan,  E. Epifanovsky,  A. T. B. Gilbert,  M. Wormit,  
 J. Kussmann,  A. W. Lange,  A. Behn,  Jia Deng,  Xintian Feng,  D. Ghosh,  
 M. Goldey,  P. R. Horn,  L. D. Jacobson,  I. Kaliman,  T. Kus,  A. Landau,  
 Jie Liu,  E. I. Proynov,  R. M. Richard,  R. P. Steele,  E. J. Sundstrom,  
 H. L. Woodcock III,  P. M. Zimmerman,  D. Zuev,  B. Alam,  B. Albrecht,  
 E. Alguire,  S. A. Baeppler,  D. Barton,  Z. Benda,  Y. A. Bernard,  
 E. J. Berquist,  K. B. Bravaya,  H. Burton,  K. Carter-Fenk,  D. Casanova,  
 Chun-Min Chang,  Yunqing Chen,  A. Chien,  K. D. Closser,  M. P. Coons,  
 S. Coriani,  S. Dasgupta,  A. L. Dempwolff,  M. Diedenhofen,  Hainam Do,  
 R. G. Edgar,  Po-Tung Fang,  S. Faraji,  S. Fatehi,  Qingguo Feng,  
 J. Fosso-Tande,  J. Gayvert,  Qinghui Ge,  A. Ghysels,  G. Gidofalvi,  
 J. Gomes,  J. Gonthier,  A. Gunina,  D. Hait,  M. W. D. Hanson-Heine,  
 P. H. P. Harbach,  A. W. Hauser,  M. F. Herbst,  J. E. Herr,  
 E. G. Hohenstein,  Z. C. Holden,  Kerwin Hui,  B. C. Huynh,  T.-C. Jagau,  
 Hyunjun Ji,  B. Kaduk,  K. Khistyaev,  Jaehoon Kim,  P. Klunzinger,  K. Koh,  
 D. Kosenkov,  L. Koulias,  T. Kowalczyk,  C. M. Krauter,  A. Kunitsa,  
 Ka Un Lao,  A. Laurent,  K. V. Lawler,  Joonho Lee,  D. Lefrancois,  
 S. Lehtola,  D. S. Levine,  Yi-Pei Li,  You-Sheng Lin,  Fenglai Liu,  
 Kuan-Yu Liu,  E. Livshits,  M. Loipersberger,  A. Luenser,  P. Manohar,  
 E. Mansoor,  S. F. Manzer,  Shan-Ping Mao,  Yuezhi Mao,  N. Mardirossian,  
 A. V. Marenich,  T. Markovich,  L. A. Martinez-Martinez,  S. A. Maurer,  
 N. J. Mayhall,  S. C. McKenzie,  J.-M. Mewes,  P. Morgante,  A. F. Morrison,  
 J. W. Mullinax,  K. Nanda,  T. S. Nguyen-Beck,  R. Olivares-Amaya,  
 K. J. Oosterbaan,  J. A. Parkhill,  S. K. Paul,  F. Pavosevic,  Zheng Pei,  
 T. M. Perrine,  F. Plasser,  P. Pokhilko,  S. Prager,  A. Prociuk,  
 E. Ramos,  B. Rana,  D. R. Rehn,  F. Rob,  M. Scheurer,  M. Schneider,  
 N. Sergueev,  S. M. Sharada,  S. Sharma,  D. W. Small,  T. Stauch,  
 C. J. Stein,  T. Stein,  Yu-Chuan Su,  S. P. Veccham,  Zhen Tao,  
 A. J. W. Thom,  A. Tkatchenko,  T. Tsuchimochi,  N. M. Tubman,  L. Vogt,  
 M. L. Vidal,  O. Vydrov,  M. A. Watson,  J. Wenzel,  M. de Wergifosse,  
 T. A. Wesolowski,  A. White,  J. Witte,  A. Yamada,  Jun Yang,  K. Yao,  
 S. Yeganeh,  S. R. Yost,  Zhi-Qiang You,  A. Zech,  Igor Ying Zhang,  
 Xing Zhang,  Yan Zhao,  Ying Zhu,  B. R. Brooks,  G. K. L. Chan,  
 C. J. Cramer,  M. S. Gordon,  W. J. Hehre,  A. Klamt,  M. W. Schmidt,  
 C. D. Sherrill,  D. G. Truhlar,  A. Aspuru-Guzik,  R. Baer,  A. T. Bell,  
 N. A. Besley,  Jeng-Da Chai,  A. E. DePrince, III,  R. A. DiStasio Jr.,  
 A. Dreuw,  B. D. Dunietz,  T. R. Furlani,  Chao-Ping Hsu,  Yousung Jung,  
 Jing Kong,  D. S. Lambrecht,  WanZhen Liang,  C. Ochsenfeld,  
 V. A. Rassolov,  L. V. Slipchenko,  J. E. Subotnik,  T. Van Voorhis,  
 J. M. Herbert,  A. I. Krylov,  P. M. W. Gill,  M. Head-Gordon

 Contributors to earlier versions of Q-Chem not listed above: 
 R. D. Adamson,  B. Austin,  J. Baker,  G. J. O. Beran,  K. Brandhorst,  
 S. T. Brown,  E. F. C. Byrd,  A. K. Chakraborty,  C.-L. Cheng,  
 Siu Hung Chien,  D. M. Chipman,  D. L. Crittenden,  H. Dachsel,  
 R. J. Doerksen,  A. D. Dutoi,  L. Fusti-Molnar,  W. A. Goddard III,  
 A. Golubeva-Zadorozhnaya,  S. R. Gwaltney,  G. Hawkins,  A. Heyden,  
 S. Hirata,  G. Kedziora,  F. J. Keil,  C. Kelley,  Jihan Kim,  R. A. King,  
 R. Z. Khaliullin,  P. P. Korambath,  W. Kurlancheek,  A. M. Lee,  M. S. Lee,  
 S. V. Levchenko,  Ching Yeh Lin,  D. Liotard,  R. C. Lochan,  I. Lotan,  
 P. E. Maslen,  N. Nair,  D. P. O'Neill,  D. Neuhauser,  E. Neuscamman,  
 C. M. Oana,  R. Olson,  B. Peters,  R. Peverati,  P. A. Pieniazek,  
 Y. M. Rhee,  J. Ritchie,  M. A. Rohrdanz,  E. Rosta,  N. J. Russ,  
 H. F. Schaefer III,  N. E. Schultz,  N. Shenvi,  A. C. Simmonett,  A. Sodt,  
 D. Stuck,  K. S. Thanthiriwatte,  V. Vanovschi,  Tao Wang,  A. Warshel,  
 C. F. Williams,  Q. Wu,  X. Xu,  W. Zhang

 Please cite Q-Chem as follows:
 Y. Shao et al., Mol. Phys. 113, 184-215 (2015)
 DOI: 10.1080/00268976.2014.952696

 Q-Chem 5.3.0 for Intel X86 EM64T Linux

 Parts of Q-Chem use Armadillo 9.800.1 (Horizon Scraper).
 http://arma.sourceforge.net/

 Q-Chem begins on Wed Jul 29 00:32:39 2020  

Host: centos77-c1
0

     Scratch files written to /tmp/30084.centos77-h1/qchem29103//
Processing $rem in /opt/qchem-5.3.0-intel2020u1//config/preferences:
Processing $rem in /home/shihchengli/.qchemrc:

Checking the input file for inconsistencies... 	...done.

--------------------------------------------------------------
User input:
--------------------------------------------------------------
$rem
   JOBTYPE  sp
   EXCHANGE   omegaB97X-D
   BASIS   6-311+G(2df,2pd)
   UNRESTRICTED   False
   max_scf_cycles   250
   geom_opt_max_cycles   1500
   basis2 6-31G*
   scf_algorithm rca_diis
   SYM_IGNORE  TRUE
   print_input   true
   geom_opt_dmax   80
   pop_mulliken false
   XC_GRID 000075000302
$end

$molecule
0 1
C       -5.5575667329     0.5456671824     -0.0708834459
C       -4.4267520376     1.3784914920     0.0443333836
H       -5.8643946393     0.3071698225     -1.0812618615
H       -6.3422085886     0.5711003953     0.6731781025
H       -4.4812150049     -0.2994830780     0.3292473709
O       -3.3072870811     -0.0019555102     0.5913067170
H       -4.1094573442     1.8426968355     0.9642575581
H       -3.9827184303     1.7843917234     -0.8597417403
H       -2.6091325384     -0.2649416059     -0.0175459213
$end
--------------------------------------------------------------
 ----------------------------------------------------------------
             Standard Nuclear Orientation (Angstroms)
    I     Atom           X                Y                Z
 ----------------------------------------------------------------
    1      C      -5.5575667329     0.5456671824    -0.0708834459
    2      C      -4.4267520376     1.3784914920     0.0443333836
    3      H      -5.8643946393     0.3071698225    -1.0812618615
    4      H      -6.3422085886     0.5711003953     0.6731781025
    5      H      -4.4812150049    -0.2994830780     0.3292473709
    6      O      -3.3072870811    -0.0019555102     0.5913067170
    7      H      -4.1094573442     1.8426968355     0.9642575581
    8      H      -3.9827184303     1.7843917234    -0.8597417403
    9      H      -2.6091325384    -0.2649416059    -0.0175459213
 ----------------------------------------------------------------
 Nuclear Repulsion Energy =          79.42268884 hartrees
 There are       13 alpha and       13 beta electrons
 Requested basis set is 6-311+G(2df,2pd)
 There are 60 shells and 186 basis functions

 Total QAlloc Memory Limit   2000 MB
 Mega-Array Size       188 MB
 MEM_STATIC part       192 MB

                       Distance Matrix (Angstroms)
             C (  1)   C (  2)   H (  3)   H (  4)   H (  5)   O (  6)
   C (  2)  1.409118
   H (  3)  1.082538  2.116958
   H (  4)  1.081636  2.171704  1.837396
   H (  5)  1.425804  1.702863  2.066579  2.083147
   O (  6)  2.408764  1.859574  3.071131  3.089635  1.239074
   H (  7)  2.202459  1.078157  3.101902  2.585897  2.265033  2.045803
   H (  8)  2.153342  1.085943  2.402491  3.064166  2.450455  2.398497
   H (  9)  3.058299  2.451212  3.472108  3.887406  1.904246  0.962955
             H (  7)   H (  8)
   H (  8)  1.829327
   H (  9)  2.767138  2.606875
 
 A cutoff of  1.0D-09 yielded   1775 shell pairs
 There are     17229 function pairs (     21405 Cartesian)
 Smallest overlap matrix eigenvalue = 9.51E-05

 Scale SEOQF with 1.000000e-02/1.000000e-01/1.000000e-01

 Standard Electronic Orientation quadrupole field applied
 Nucleus-field energy     =     0.0000000027 hartrees
 Requested basis set is 6-31G(d)
 There are 24 shells and 54 basis functions
 A cutoff of  1.0D-09 yielded    298 shell pairs
 There are      1549 function pairs (      1732 Cartesian)
 Smallest overlap matrix eigenvalue = 6.73E-03
 Guess from superposition of atomic densities
 Warning:  Energy on first SCF cycle will be non-variational
 SAD guess density has 26.000000 electrons
 Long-range K will be added via erf
 Coulomb attenuation parameter = 0.2 bohr**(-1)
 A restricted hybrid HF-DFT SCF calculation will be
 performed using Relaxed Constraint Minimization + Pulay DIIS
 Exchange:     0.2220 Hartree-Fock + 1.0000 wB97X-D + LR-HF
 Correlation:  1.0000 wB97X-D
 Using Euler-Maclaurin-Lebedev (75,302) quadrature formula
 Dispersion:   Grimme D
 SCF converges when DIIS error is below 1.0E-04
 using 6 threads for integral computing
 -------------------------------------------------------
 OpenMP Integral computing Module                
 Release: version 1.0, May 2013, Q-Chem Inc. Pittsburgh 
 -------------------------------------------------------
 using 6 threads for integral computing
 -------------------------------------------------------
 OpenMP Integral computing Module                
 Release: version 1.0, May 2013, Q-Chem Inc. Pittsburgh 
 -------------------------------------------------------
 ---------------------------------------
  Cycle       Energy         DIIS Error
 ---------------------------------------
    1    -155.2618483735      9.93E-02
    2    -154.7801831547      1.57E-02
    3    -154.8139225239      3.27E-03
    4    -154.8546390710      2.33E-03
    5    -154.8555285918      4.99E-04 Done RCA. Switching to DIIS
    6    -154.8566058347      3.42E-04
    7    -154.8566444699      4.13E-05 Convergence criterion met
 ---------------------------------------
 SCF time:  CPU 15.16 s  wall 2.54 s
 SCF   energy in the small basis set = -154.85664447
 Total energy in the small basis set = -154.85664447
 ----------------------------------------------------
  Cycle       Energy    
 ----------------------------------------------------
    1     -18.6759846802     -1.87E+01
 Long-range K will be added via erf
 Coulomb attenuation parameter = 0.2 bohr**(-1)
 A restricted hybrid HF-DFT SCF calculation will be
 performed using Relaxed Constraint Minimization + Pulay DIIS
 Exchange:     0.2220 Hartree-Fock + 1.0000 wB97X-D + LR-HF
 Correlation:  1.0000 wB97X-D
 Using Euler-Maclaurin-Lebedev (75,302) quadrature formula
 Dispersion:   Grimme D
 SCF converges when DIIS error is below 1.0E-05
 Basis2 calculation detected. Using small basis as guess for larger.
 SCFMinFind is unable to tell whether the solution found is close.
 Resetting ReadMinima to 0 and attempting to follow guess.
 SCFMinFind following SCF Guess.
 using 6 threads for integral computing
 -------------------------------------------------------
 OpenMP Integral computing Module                
 Release: version 1.0, May 2013, Q-Chem Inc. Pittsburgh 
 -------------------------------------------------------
 using 6 threads for integral computing
 -------------------------------------------------------
 OpenMP Integral computing Module                
 Release: version 1.0, May 2013, Q-Chem Inc. Pittsburgh 
 -------------------------------------------------------
 ---------------------------------------
  Cycle       Energy         DIIS Error
 ---------------------------------------
    1    -154.8813775578      6.01E-03
    2    -154.8761308373      4.50E-03
    3    -154.8981720975      1.04E-03
    4    -154.9286055809      1.15E-03
    5    -154.9302342963      1.87E-04 Done RCA. Switching to DIIS
    6    -154.9323040739      2.27E-04
    7    -154.9324548885      7.61E-06 Convergence criterion met
 ---------------------------------------
 SCF time:  CPU 59.08 s  wall 9.88 s
 SCF   energy in the final basis set = -154.93245489
 Total energy in the final basis set = -154.93245489
 
 --------------------------------------------------------------
 
                    Orbital Energies (a.u.)
 --------------------------------------------------------------
 
 Alpha MOs
 -- Occupied --
-19.2394 -10.3513 -10.2551  -1.0864  -0.8741  -0.6971  -0.6178  -0.5646
 -0.5044  -0.4549  -0.4429  -0.4189  -0.3060
 -- Virtual --
  0.0500   0.0687   0.0893   0.0985   0.1130   0.1285   0.1391   0.1476
  0.1773   0.1890   0.2189   0.2383   0.2557   0.2711   0.2837   0.2924
  0.3224   0.3340   0.3614   0.3908   0.4615   0.4664   0.4910   0.5488
  0.5705   0.5817   0.5870   0.6069   0.6109   0.6355   0.6538   0.6899
  0.7005   0.7500   0.8034   0.8218   0.8572   0.8848   0.9059   0.9383
  0.9711   1.0188   1.0630   1.0880   1.1248   1.1514   1.1710   1.2161
  1.2230   1.2420   1.2631   1.3103   1.3351   1.3584   1.4087   1.4301
  1.4531   1.4570   1.4788   1.4897   1.5420   1.5786   1.5997   1.6647
  1.7004   1.7785   1.8894   1.9690   2.0415   2.2636   2.3183   2.4337
  2.5075   2.5570   2.6355   2.6526   2.6903   2.7507   2.7890   2.8130
  2.8789   2.9035   2.9391   2.9931   3.0058   3.0233   3.0711   3.0863
  3.1023   3.1273   3.1672   3.2093   3.2276   3.2893   3.3134   3.3484
  3.3620   3.3953   3.4086   3.4402   3.4768   3.5114   3.5294   3.5670
  3.5799   3.5955   3.6210   3.6581   3.7060   3.7525   3.7807   3.8109
  3.8447   3.8615   3.8881   3.9307   3.9425   3.9477   4.0160   4.0629
  4.1210   4.1561   4.1821   4.2013   4.2313   4.2579   4.2862   4.3172
  4.3270   4.3661   4.4104   4.4839   4.4980   4.5682   4.6208   4.7088
  4.7461   4.8197   4.8628   4.9526   4.9709   5.0142   5.0699   5.1039
  5.1259   5.2080   5.2166   5.3001   5.3631   5.4087   5.4398   5.4654
  5.5909   5.6502   5.7391   5.8174   6.0572   6.1998   6.2558   6.3014
  6.4702   6.6359   6.7261   6.9483   7.1619   7.1858   7.3956   7.6274
  7.8024   8.1623  24.9698  25.3147  50.4364
 --------------------------------------------------------------
 
 -----------------------------------------------------------------
                    Cartesian Multipole Moments
 -----------------------------------------------------------------
    Charge (ESU x 10^10)
                 0.0000
    Dipole Moment (Debye)
         X       0.5508      Y       0.8810      Z      -1.4004
       Tot       1.7437
    Quadrupole Moments (Debye-Ang)
        XX     -25.0051     XY      -3.3607     YY     -19.2693
        XZ       3.3976     YZ       0.6051     ZZ     -20.8281
    Octopole Moments (Debye-Ang^2)
       XXX     306.8114    XXY      -3.0822    XYY      89.4470
       YYY     -35.7987    XXZ      -8.7023    XYZ      -3.1204
       YYZ      -2.7543    XZZ      90.5753    YZZ     -10.6329
       ZZZ     -11.6810
    Hexadecapole Moments (Debye-Ang^3)
      XXXX   -2818.5055   XXXY     172.4790   XXYY    -462.4866
      XYYY     175.4529   YYYY    -117.8666   XXXZ      15.3625
      XXYZ      17.2581   XYYZ       6.8768   YYYZ       0.5110
      XXZZ    -427.7623   XYZZ      52.1353   YYZZ     -25.1284
      XZZZ      36.0666   YZZZ       0.7414   ZZZZ     -48.3200
 -----------------------------------------------------------------
Archival summary:
1\1\centos77-c1\SP\ProcedureUnspecified\BasisUnspecified\126\shihchen\WedJul2900:32:542020WedJul2900:32:542020\0\\#,ProcedureUnspecified,BasisUnspecified,\\0,1\C\H,1,1.07816\H,1,1.08594,2,115.409\C,1,1.40912,2,124.084,3,-164.654,0\H,4,1.08164,1,120.798,2,19.5259,0\H,4,1.08254,1,115.72,2,168.595,0\H,4,1.4258,1,73.8337,2,-86.3696,0\O,7,1.23907,4,129.216,1,2.40021,0\H,8,0.962955,7,119.182,4,-109.293,0\\\@

 Total job time:  14.64s(wall), 78.08s(cpu) 
 Wed Jul 29 00:32:54 2020

        *************************************************************
        *                                                           *
        *  Thank you very much for using Q-Chem.  Have a nice day.  *
        *                                                           *
        *************************************************************


