                  Welcome to Q-Chem
     A Quantum Leap Into The Future Of Chemistry


 Q-Chem 5.3 (devel), Q-Chem, Inc., Pleasanton, CA (2020)

 Yihan Shao,  Zhengting Gan,  E. Epifanovsky,  A. T. B. Gilbert,  M. Wormit,  
 J. Kussmann,  A. W. Lange,  A. Behn,  Jia Deng,  Xintian Feng,  D. Ghosh,  
 M. Goldey,  P. R. Horn,  L. D. Jacobson,  I. Kaliman,  T. Kus,  A. Landau,  
 Jie Liu,  E. I. Proynov,  R. M. Richard,  R. P. Steele,  E. J. Sundstrom,  
 H. L. Woodcock III,  P. M. Zimmerman,  D. Zuev,  B. Alam,  B. Albrecht,  
 E. Alguire,  S. A. Baeppler,  D. Barton,  Z. Benda,  Y. A. Bernard,  
 E. J. Berquist,  K. B. Bravaya,  H. Burton,  K. Carter-Fenk,  D. Casanova,  
 Chun-Min Chang,  Yunqing Chen,  A. Chien,  K. D. Closser,  M. P. Coons,  
 S. Coriani,  S. Dasgupta,  A. L. Dempwolff,  M. Diedenhofen,  Hainam Do,  
 R. G. Edgar,  Po-Tung Fang,  S. Faraji,  S. Fatehi,  Qingguo Feng,  
 J. Fosso-Tande,  J. Gayvert,  Qinghui Ge,  A. Ghysels,  G. Gidofalvi,  
 J. Gomes,  J. Gonthier,  A. Gunina,  D. Hait,  M. W. D. Hanson-Heine,  
 P. H. P. Harbach,  A. W. Hauser,  M. F. Herbst,  J. E. Herr,  
 E. G. Hohenstein,  Z. C. Holden,  Kerwin Hui,  B. C. Huynh,  T.-C. Jagau,  
 Hyunjun Ji,  B. Kaduk,  K. Khistyaev,  Jaehoon Kim,  P. Klunzinger,  K. Koh,  
 D. Kosenkov,  L. Koulias,  T. Kowalczyk,  C. M. Krauter,  A. Kunitsa,  
 Ka Un Lao,  A. Laurent,  K. V. Lawler,  Joonho Lee,  D. Lefrancois,  
 S. Lehtola,  D. S. Levine,  Yi-Pei Li,  You-Sheng Lin,  Fenglai Liu,  
 Kuan-Yu Liu,  E. Livshits,  M. Loipersberger,  A. Luenser,  P. Manohar,  
 E. Mansoor,  S. F. Manzer,  Shan-Ping Mao,  Yuezhi Mao,  N. Mardirossian,  
 A. V. Marenich,  T. Markovich,  L. A. Martinez-Martinez,  S. A. Maurer,  
 N. J. Mayhall,  S. C. McKenzie,  J.-M. Mewes,  P. Morgante,  A. F. Morrison,  
 J. W. Mullinax,  K. Nanda,  T. S. Nguyen-Beck,  R. Olivares-Amaya,  
 K. J. Oosterbaan,  J. A. Parkhill,  S. K. Paul,  F. Pavosevic,  Zheng Pei,  
 T. M. Perrine,  F. Plasser,  P. Pokhilko,  S. Prager,  A. Prociuk,  
 E. Ramos,  B. Rana,  D. R. Rehn,  F. Rob,  M. Scheurer,  M. Schneider,  
 N. Sergueev,  S. M. Sharada,  S. Sharma,  D. W. Small,  T. Stauch,  
 C. J. Stein,  T. Stein,  Yu-Chuan Su,  S. P. Veccham,  Zhen Tao,  
 A. J. W. Thom,  A. Tkatchenko,  T. Tsuchimochi,  N. M. Tubman,  L. Vogt,  
 M. L. Vidal,  O. Vydrov,  M. A. Watson,  J. Wenzel,  M. de Wergifosse,  
 T. A. Wesolowski,  A. White,  J. Witte,  A. Yamada,  Jun Yang,  K. Yao,  
 S. Yeganeh,  S. R. Yost,  Zhi-Qiang You,  A. Zech,  Igor Ying Zhang,  
 Xing Zhang,  Yan Zhao,  Ying Zhu,  B. R. Brooks,  G. K. L. Chan,  
 C. J. Cramer,  M. S. Gordon,  W. J. Hehre,  A. Klamt,  M. W. Schmidt,  
 C. D. Sherrill,  D. G. Truhlar,  A. Aspuru-Guzik,  R. Baer,  A. T. Bell,  
 N. A. Besley,  Jeng-Da Chai,  A. E. DePrince, III,  R. A. DiStasio Jr.,  
 A. Dreuw,  B. D. Dunietz,  T. R. Furlani,  Chao-Ping Hsu,  Yousung Jung,  
 Jing Kong,  D. S. Lambrecht,  WanZhen Liang,  C. Ochsenfeld,  
 V. A. Rassolov,  L. V. Slipchenko,  J. E. Subotnik,  T. Van Voorhis,  
 J. M. Herbert,  A. I. Krylov,  P. M. W. Gill,  M. Head-Gordon

 Contributors to earlier versions of Q-Chem not listed above: 
 R. D. Adamson,  B. Austin,  J. Baker,  G. J. O. Beran,  K. Brandhorst,  
 S. T. Brown,  E. F. C. Byrd,  A. K. Chakraborty,  C.-L. Cheng,  
 Siu Hung Chien,  D. M. Chipman,  D. L. Crittenden,  H. Dachsel,  
 R. J. Doerksen,  A. D. Dutoi,  L. Fusti-Molnar,  W. A. Goddard III,  
 A. Golubeva-Zadorozhnaya,  S. R. Gwaltney,  G. Hawkins,  A. Heyden,  
 S. Hirata,  G. Kedziora,  F. J. Keil,  C. Kelley,  Jihan Kim,  R. A. King,  
 R. Z. Khaliullin,  P. P. Korambath,  W. Kurlancheek,  A. M. Lee,  M. S. Lee,  
 S. V. Levchenko,  Ching Yeh Lin,  D. Liotard,  R. C. Lochan,  I. Lotan,  
 P. E. Maslen,  N. Nair,  D. P. O'Neill,  D. Neuhauser,  E. Neuscamman,  
 C. M. Oana,  R. Olson,  B. Peters,  R. Peverati,  P. A. Pieniazek,  
 Y. M. Rhee,  J. Ritchie,  M. A. Rohrdanz,  E. Rosta,  N. J. Russ,  
 H. F. Schaefer III,  N. E. Schultz,  N. Shenvi,  A. C. Simmonett,  A. Sodt,  
 D. Stuck,  K. S. Thanthiriwatte,  V. Vanovschi,  Tao Wang,  A. Warshel,  
 C. F. Williams,  Q. Wu,  X. Xu,  W. Zhang

 Please cite Q-Chem as follows:
 Y. Shao et al., Mol. Phys. 113, 184-215 (2015)
 DOI: 10.1080/00268976.2014.952696

 Q-Chem 5.3.0 for Intel X86 EM64T Linux

 Parts of Q-Chem use Armadillo 9.800.1 (Horizon Scraper).
 http://arma.sourceforge.net/

 Q-Chem begins on Wed Jul 29 00:41:46 2020  

Host: centos77-c1
0

     Scratch files written to /tmp/30084.centos77-h1/qchem30425//
Processing $rem in /opt/qchem-5.3.0-intel2020u1//config/preferences:
Processing $rem in /home/shihchengli/.qchemrc:

Checking the input file for inconsistencies... 	...done.

--------------------------------------------------------------
User input:
--------------------------------------------------------------
$rem
   JOBTYPE  sp
   EXCHANGE   omegaB97X-D
   BASIS   6-311+G(2df,2pd)
   UNRESTRICTED   False
   max_scf_cycles   250
   geom_opt_max_cycles   1500
   basis2 6-31G*
   scf_algorithm rca_diis
   SYM_IGNORE  TRUE
   print_input   true
   geom_opt_dmax   80
   pop_mulliken false
   XC_GRID 000075000302
$end

$molecule
0 1
C       -5.5761480471     0.5176548587     -0.0762625471
C       -4.4397704597     1.3478382923     0.0640893363
H       -5.8462247312     0.3097286469     -1.1022360113
H       -6.2679900770     0.5746752369     0.7520131392
H       -4.4822375273     -0.3145942614     0.2862805683
O       -3.3086892886     -0.0239968819     0.5808829558
H       -4.2426973127     1.9865911519     0.9152086637
H       -3.8618032064     1.7395397689     -0.7657653495
H       -2.6551717474     -0.2742995551     -0.0813205921
$end
--------------------------------------------------------------
 ----------------------------------------------------------------
             Standard Nuclear Orientation (Angstroms)
    I     Atom           X                Y                Z
 ----------------------------------------------------------------
    1      C      -5.5761480471     0.5176548587    -0.0762625471
    2      C      -4.4397704597     1.3478382923     0.0640893363
    3      H      -5.8462247312     0.3097286469    -1.1022360113
    4      H      -6.2679900770     0.5746752369     0.7520131392
    5      H      -4.4822375273    -0.3145942614     0.2862805683
    6      O      -3.3086892886    -0.0239968819     0.5808829558
    7      H      -4.2426973127     1.9865911519     0.9152086637
    8      H      -3.8618032064     1.7395397689    -0.7657653495
    9      H      -2.6551717474    -0.2742995551    -0.0813205921
 ----------------------------------------------------------------
 Nuclear Repulsion Energy =          79.38898382 hartrees
 There are       13 alpha and       13 beta electrons
 Requested basis set is 6-311+G(2df,2pd)
 There are 60 shells and 186 basis functions

 Total QAlloc Memory Limit   2000 MB
 Mega-Array Size       188 MB
 MEM_STATIC part       192 MB

                       Distance Matrix (Angstroms)
             C (  1)   C (  2)   H (  3)   H (  4)   H (  5)   O (  6)
   C (  2)  1.414304
   H (  3)  1.081109  2.101452
   H (  4)  1.080711  2.100811  1.919980
   H (  5)  1.421519  1.677753  2.044069  2.048565
   O (  6)  2.422106  1.851581  3.063225  3.024096  1.244368
   H (  7)  2.217855  1.082242  3.074614  2.474257  2.397579  2.242010
   H (  8)  2.215264  1.084498  2.468907  3.074133  2.389813  2.286801
   H (  9)  3.026437  2.416044  3.400908  3.803638  1.864115  0.963457
             H (  7)   H (  8)
   H (  8)  1.741203
   H (  9)  2.936824  2.445398
 
 A cutoff of  1.0D-09 yielded   1777 shell pairs
 There are     17245 function pairs (     21427 Cartesian)
 Smallest overlap matrix eigenvalue = 9.37E-05

 Scale SEOQF with 1.000000e-02/1.000000e-01/1.000000e-01

 Standard Electronic Orientation quadrupole field applied
 Nucleus-field energy     =     0.0000000027 hartrees
 Requested basis set is 6-31G(d)
 There are 24 shells and 54 basis functions
 A cutoff of  1.0D-09 yielded    298 shell pairs
 There are      1549 function pairs (      1732 Cartesian)
 Smallest overlap matrix eigenvalue = 6.80E-03
 Guess from superposition of atomic densities
 Warning:  Energy on first SCF cycle will be non-variational
 SAD guess density has 26.000000 electrons
 Long-range K will be added via erf
 Coulomb attenuation parameter = 0.2 bohr**(-1)
 A restricted hybrid HF-DFT SCF calculation will be
 performed using Relaxed Constraint Minimization + Pulay DIIS
 Exchange:     0.2220 Hartree-Fock + 1.0000 wB97X-D + LR-HF
 Correlation:  1.0000 wB97X-D
 Using Euler-Maclaurin-Lebedev (75,302) quadrature formula
 Dispersion:   Grimme D
 SCF converges when DIIS error is below 1.0E-04
 using 6 threads for integral computing
 -------------------------------------------------------
 OpenMP Integral computing Module                
 Release: version 1.0, May 2013, Q-Chem Inc. Pittsburgh 
 -------------------------------------------------------
 using 6 threads for integral computing
 -------------------------------------------------------
 OpenMP Integral computing Module                
 Release: version 1.0, May 2013, Q-Chem Inc. Pittsburgh 
 -------------------------------------------------------
 ---------------------------------------
  Cycle       Energy         DIIS Error
 ---------------------------------------
    1    -155.2609465614      9.93E-02
    2    -154.7835232292      1.56E-02
    3    -154.8168402244      3.26E-03
    4    -154.8564924514      2.37E-03
    5    -154.8573900220      4.97E-04 Done RCA. Switching to DIIS
    6    -154.8585053056      3.14E-04
    7    -154.8585402911      4.07E-05 Convergence criterion met
 ---------------------------------------
 SCF time:  CPU 20.34 s  wall 3.41 s
 SCF   energy in the small basis set = -154.85854029
 Total energy in the small basis set = -154.85854029
 ----------------------------------------------------
  Cycle       Energy    
 ----------------------------------------------------
    1     -18.6722682681     -1.87E+01
 Long-range K will be added via erf
 Coulomb attenuation parameter = 0.2 bohr**(-1)
 A restricted hybrid HF-DFT SCF calculation will be
 performed using Relaxed Constraint Minimization + Pulay DIIS
 Exchange:     0.2220 Hartree-Fock + 1.0000 wB97X-D + LR-HF
 Correlation:  1.0000 wB97X-D
 Using Euler-Maclaurin-Lebedev (75,302) quadrature formula
 Dispersion:   Grimme D
 SCF converges when DIIS error is below 1.0E-05
 Basis2 calculation detected. Using small basis as guess for larger.
 SCFMinFind is unable to tell whether the solution found is close.
 Resetting ReadMinima to 0 and attempting to follow guess.
 SCFMinFind following SCF Guess.
 using 6 threads for integral computing
 -------------------------------------------------------
 OpenMP Integral computing Module                
 Release: version 1.0, May 2013, Q-Chem Inc. Pittsburgh 
 -------------------------------------------------------
 using 6 threads for integral computing
 -------------------------------------------------------
 OpenMP Integral computing Module                
 Release: version 1.0, May 2013, Q-Chem Inc. Pittsburgh 
 -------------------------------------------------------
 ---------------------------------------
  Cycle       Energy         DIIS Error
 ---------------------------------------
    1    -154.8846407367      5.97E-03
    2    -154.8809889978      4.38E-03
    3    -154.9018874527      9.95E-04 Done RCA. Switching to DIIS
    4    -154.9306328661      1.09E-03
    5    -154.9340844145      7.22E-05
    6    -154.9341112494      1.61E-05
    7    -154.9341133352      4.10E-06 Convergence criterion met
 ---------------------------------------
 SCF time:  CPU 66.24 s  wall 11.09 s
 SCF   energy in the final basis set = -154.93411334
 Total energy in the final basis set = -154.93411334
 
 --------------------------------------------------------------
 
                    Orbital Energies (a.u.)
 --------------------------------------------------------------
 
 Alpha MOs
 -- Occupied --
-19.2423 -10.3526 -10.2567  -1.0886  -0.8746  -0.7013  -0.6107  -0.5667
 -0.5021  -0.4609  -0.4389  -0.4278  -0.3057
 -- Virtual --
  0.0542   0.0673   0.0899   0.0967   0.1138   0.1279   0.1384   0.1490
  0.1779   0.1883   0.2168   0.2391   0.2488   0.2740   0.2870   0.2961
  0.3238   0.3296   0.3580   0.3937   0.4626   0.4660   0.4958   0.5487
  0.5636   0.5725   0.5857   0.6022   0.6193   0.6377   0.6487   0.6865
  0.6992   0.7511   0.8045   0.8265   0.8446   0.8837   0.9030   0.9268
  0.9808   1.0003   1.0695   1.0913   1.1212   1.1515   1.1752   1.1988
  1.2407   1.2638   1.2758   1.2953   1.3225   1.3560   1.4050   1.4278
  1.4435   1.4554   1.4815   1.4905   1.5484   1.5642   1.6029   1.6514
  1.7126   1.7762   1.9054   2.0096   2.0541   2.2627   2.3084   2.4510
  2.4815   2.5587   2.6529   2.6649   2.6742   2.7507   2.7648   2.7978
  2.8662   2.8956   2.9509   2.9628   3.0036   3.0154   3.0645   3.0816
  3.1142   3.1629   3.1682   3.2231   3.2357   3.2795   3.3192   3.3534
  3.3647   3.4022   3.4236   3.4442   3.4586   3.4958   3.5421   3.5550
  3.5680   3.6070   3.6178   3.6608   3.6913   3.7386   3.7519   3.8010
  3.8131   3.8717   3.8855   3.9040   3.9184   3.9431   4.0485   4.0782
  4.0980   4.1131   4.1773   4.2126   4.2207   4.2640   4.2933   4.3100
  4.3353   4.3504   4.4431   4.4645   4.4761   4.5817   4.6003   4.7132
  4.7294   4.8008   4.8501   4.9447   4.9949   5.0385   5.0501   5.0684
  5.0731   5.2166   5.2287   5.3276   5.3773   5.4341   5.4537   5.5155
  5.5975   5.6675   5.7812   5.8165   6.0392   6.1012   6.2756   6.3495
  6.4941   6.6279   6.7356   6.8811   7.1585   7.2251   7.4100   7.6232
  7.7817   8.1753  24.9584  25.3046  50.4390
 --------------------------------------------------------------
 
 -----------------------------------------------------------------
                    Cartesian Multipole Moments
 -----------------------------------------------------------------
    Charge (ESU x 10^10)
                 0.0000
    Dipole Moment (Debye)
         X       0.5343      Y       0.9765      Z      -1.4340
       Tot       1.8153
    Quadrupole Moments (Debye-Ang)
        XX     -25.3768     XY      -3.7814     YY     -19.0006
        XZ       3.1785     YZ       0.9359     ZZ     -20.7903
    Octopole Moments (Debye-Ang^2)
       XXX     313.4677    XXY      -0.6990    XYY      88.4408
       YYY     -33.5401    XXZ      -6.5835    XYZ      -4.8049
       YYZ      -2.0356    XZZ      90.1047    YZZ     -10.5909
       ZZZ     -11.6365
    Hexadecapole Moments (Debye-Ang^3)
      XXXX   -2891.5710   XXXY     158.3585   XXYY    -458.3079
      XYYY     165.8356   YYYY    -112.6080   XXXZ       3.3104
      XXYZ      25.2551   XYYZ       3.3440   YYYZ       1.8311
      XXZZ    -423.4022   XYZZ      51.4991   YYZZ     -25.3010
      XZZZ      36.5388   YZZZ       0.2002   ZZZZ     -47.3397
 -----------------------------------------------------------------
Archival summary:
1\1\centos77-c1\SP\ProcedureUnspecified\BasisUnspecified\126\shihchen\WedJul2900:42:032020WedJul2900:42:032020\0\\#,ProcedureUnspecified,BasisUnspecified,\\0,1\C\H,1,1.08224\H,1,1.0845,2,106.952\C,1,1.4143,2,124.806,3,-158.49,0\H,4,1.08071,1,114.038,2,0.678552,0\H,4,1.08111,1,114.066,2,153.78,0\H,4,1.42152,1,72.5447,2,-102.99,0\O,7,1.24437,4,130.496,1,4.13861,0\H,8,0.963457,7,114.602,4,-109.293,0\\\@

 Total job time:  17.55s(wall), 91.82s(cpu) 
 Wed Jul 29 00:42:03 2020

        *************************************************************
        *                                                           *
        *  Thank you very much for using Q-Chem.  Have a nice day.  *
        *                                                           *
        *************************************************************


