                  Welcome to Q-Chem
     A Quantum Leap Into The Future Of Chemistry


 Q-Chem 5.3 (devel), Q-Chem, Inc., Pleasanton, CA (2020)

 Yihan Shao,  Zhengting Gan,  E. Epifanovsky,  A. T. B. Gilbert,  M. Wormit,  
 J. Kussmann,  A. W. Lange,  A. Behn,  Jia Deng,  Xintian Feng,  D. Ghosh,  
 M. Goldey,  P. R. Horn,  L. D. Jacobson,  I. Kaliman,  T. Kus,  A. Landau,  
 Jie Liu,  E. I. Proynov,  R. M. Richard,  R. P. Steele,  E. J. Sundstrom,  
 H. L. Woodcock III,  P. M. Zimmerman,  D. Zuev,  B. Alam,  B. Albrecht,  
 E. Alguire,  S. A. Baeppler,  D. Barton,  Z. Benda,  Y. A. Bernard,  
 E. J. Berquist,  K. B. Bravaya,  H. Burton,  K. Carter-Fenk,  D. Casanova,  
 Chun-Min Chang,  Yunqing Chen,  A. Chien,  K. D. Closser,  M. P. Coons,  
 S. Coriani,  S. Dasgupta,  A. L. Dempwolff,  M. Diedenhofen,  Hainam Do,  
 R. G. Edgar,  Po-Tung Fang,  S. Faraji,  S. Fatehi,  Qingguo Feng,  
 J. Fosso-Tande,  J. Gayvert,  Qinghui Ge,  A. Ghysels,  G. Gidofalvi,  
 J. Gomes,  J. Gonthier,  A. Gunina,  D. Hait,  M. W. D. Hanson-Heine,  
 P. H. P. Harbach,  A. W. Hauser,  M. F. Herbst,  J. E. Herr,  
 E. G. Hohenstein,  Z. C. Holden,  Kerwin Hui,  B. C. Huynh,  T.-C. Jagau,  
 Hyunjun Ji,  B. Kaduk,  K. Khistyaev,  Jaehoon Kim,  P. Klunzinger,  K. Koh,  
 D. Kosenkov,  L. Koulias,  T. Kowalczyk,  C. M. Krauter,  A. Kunitsa,  
 Ka Un Lao,  A. Laurent,  K. V. Lawler,  Joonho Lee,  D. Lefrancois,  
 S. Lehtola,  D. S. Levine,  Yi-Pei Li,  You-Sheng Lin,  Fenglai Liu,  
 Kuan-Yu Liu,  E. Livshits,  M. Loipersberger,  A. Luenser,  P. Manohar,  
 E. Mansoor,  S. F. Manzer,  Shan-Ping Mao,  Yuezhi Mao,  N. Mardirossian,  
 A. V. Marenich,  T. Markovich,  L. A. Martinez-Martinez,  S. A. Maurer,  
 N. J. Mayhall,  S. C. McKenzie,  J.-M. Mewes,  P. Morgante,  A. F. Morrison,  
 J. W. Mullinax,  K. Nanda,  T. S. Nguyen-Beck,  R. Olivares-Amaya,  
 K. J. Oosterbaan,  J. A. Parkhill,  S. K. Paul,  F. Pavosevic,  Zheng Pei,  
 T. M. Perrine,  F. Plasser,  P. Pokhilko,  S. Prager,  A. Prociuk,  
 E. Ramos,  B. Rana,  D. R. Rehn,  F. Rob,  M. Scheurer,  M. Schneider,  
 N. Sergueev,  S. M. Sharada,  S. Sharma,  D. W. Small,  T. Stauch,  
 C. J. Stein,  T. Stein,  Yu-Chuan Su,  S. P. Veccham,  Zhen Tao,  
 A. J. W. Thom,  A. Tkatchenko,  T. Tsuchimochi,  N. M. Tubman,  L. Vogt,  
 M. L. Vidal,  O. Vydrov,  M. A. Watson,  J. Wenzel,  M. de Wergifosse,  
 T. A. Wesolowski,  A. White,  J. Witte,  A. Yamada,  Jun Yang,  K. Yao,  
 S. Yeganeh,  S. R. Yost,  Zhi-Qiang You,  A. Zech,  Igor Ying Zhang,  
 Xing Zhang,  Yan Zhao,  Ying Zhu,  B. R. Brooks,  G. K. L. Chan,  
 C. J. Cramer,  M. S. Gordon,  W. J. Hehre,  A. Klamt,  M. W. Schmidt,  
 C. D. Sherrill,  D. G. Truhlar,  A. Aspuru-Guzik,  R. Baer,  A. T. Bell,  
 N. A. Besley,  Jeng-Da Chai,  A. E. DePrince, III,  R. A. DiStasio Jr.,  
 A. Dreuw,  B. D. Dunietz,  T. R. Furlani,  Chao-Ping Hsu,  Yousung Jung,  
 Jing Kong,  D. S. Lambrecht,  WanZhen Liang,  C. Ochsenfeld,  
 V. A. Rassolov,  L. V. Slipchenko,  J. E. Subotnik,  T. Van Voorhis,  
 J. M. Herbert,  A. I. Krylov,  P. M. W. Gill,  M. Head-Gordon

 Contributors to earlier versions of Q-Chem not listed above: 
 R. D. Adamson,  B. Austin,  J. Baker,  G. J. O. Beran,  K. Brandhorst,  
 S. T. Brown,  E. F. C. Byrd,  A. K. Chakraborty,  C.-L. Cheng,  
 Siu Hung Chien,  D. M. Chipman,  D. L. Crittenden,  H. Dachsel,  
 R. J. Doerksen,  A. D. Dutoi,  L. Fusti-Molnar,  W. A. Goddard III,  
 A. Golubeva-Zadorozhnaya,  S. R. Gwaltney,  G. Hawkins,  A. Heyden,  
 S. Hirata,  G. Kedziora,  F. J. Keil,  C. Kelley,  Jihan Kim,  R. A. King,  
 R. Z. Khaliullin,  P. P. Korambath,  W. Kurlancheek,  A. M. Lee,  M. S. Lee,  
 S. V. Levchenko,  Ching Yeh Lin,  D. Liotard,  R. C. Lochan,  I. Lotan,  
 P. E. Maslen,  N. Nair,  D. P. O'Neill,  D. Neuhauser,  E. Neuscamman,  
 C. M. Oana,  R. Olson,  B. Peters,  R. Peverati,  P. A. Pieniazek,  
 Y. M. Rhee,  J. Ritchie,  M. A. Rohrdanz,  E. Rosta,  N. J. Russ,  
 H. F. Schaefer III,  N. E. Schultz,  N. Shenvi,  A. C. Simmonett,  A. Sodt,  
 D. Stuck,  K. S. Thanthiriwatte,  V. Vanovschi,  Tao Wang,  A. Warshel,  
 C. F. Williams,  Q. Wu,  X. Xu,  W. Zhang

 Please cite Q-Chem as follows:
 Y. Shao et al., Mol. Phys. 113, 184-215 (2015)
 DOI: 10.1080/00268976.2014.952696

 Q-Chem 5.3.0 for Intel X86 EM64T Linux

 Parts of Q-Chem use Armadillo 9.800.1 (Horizon Scraper).
 http://arma.sourceforge.net/

 Q-Chem begins on Wed Jul 29 00:47:11 2020  

Host: centos77-c1
0

     Scratch files written to /tmp/30084.centos77-h1/qchem31225//
Processing $rem in /opt/qchem-5.3.0-intel2020u1//config/preferences:
Processing $rem in /home/shihchengli/.qchemrc:

Checking the input file for inconsistencies... 	...done.

--------------------------------------------------------------
User input:
--------------------------------------------------------------
$rem
   JOBTYPE  sp
   EXCHANGE   omegaB97X-D
   BASIS   6-311+G(2df,2pd)
   UNRESTRICTED   False
   max_scf_cycles   250
   geom_opt_max_cycles   1500
   basis2 6-31G*
   scf_algorithm rca_diis
   SYM_IGNORE  TRUE
   print_input   true
   geom_opt_dmax   80
   pop_mulliken false
   XC_GRID 000075000302
$end

$molecule
0 1
C       -5.5395482477     0.5311405300     -0.0668771655
C       -4.4207333289     1.3492243189     0.0732150513
H       -5.9215373482     0.2901598986     -1.1356290607
H       -6.3477361381     0.5541478450     0.7617280688
H       -4.4667338428     -0.3158145563     0.2912170162
O       -3.2919204039     -0.0254797223     0.5893961060
H       -4.2492081147     2.0069420237     1.0457615710
H       -3.8026355526     1.7486675086     -0.9110514750
H       -2.6406794205     -0.2758505890     -0.0748699488
$end
--------------------------------------------------------------
 ----------------------------------------------------------------
             Standard Nuclear Orientation (Angstroms)
    I     Atom           X                Y                Z
 ----------------------------------------------------------------
    1      C      -5.5395482477     0.5311405300    -0.0668771655
    2      C      -4.4207333289     1.3492243189     0.0732150513
    3      H      -5.9215373482     0.2901598986    -1.1356290607
    4      H      -6.3477361381     0.5541478450     0.7617280688
    5      H      -4.4667338428    -0.3158145563     0.2912170162
    6      O      -3.2919204039    -0.0254797223     0.5893961060
    7      H      -4.2492081147     2.0069420237     1.0457615710
    8      H      -3.8026355526     1.7486675086    -0.9110514750
    9      H      -2.6406794205    -0.2758505890    -0.0748699488
 ----------------------------------------------------------------
 Nuclear Repulsion Energy =          78.14634627 hartrees
 There are       13 alpha and       13 beta electrons
 Requested basis set is 6-311+G(2df,2pd)
 There are 60 shells and 186 basis functions

 Total QAlloc Memory Limit   2000 MB
 Mega-Array Size       188 MB
 MEM_STATIC part       192 MB

                       Distance Matrix (Angstroms)
             C (  1)   C (  2)   H (  3)   H (  4)   H (  5)   O (  6)
   C (  2)  1.393066
   H (  3)  1.160266  2.198939
   H (  4)  1.157706  2.195344  1.962473
   H (  5)  1.412974  1.679880  2.125923  2.125179
   O (  6)  2.406730  1.852154  3.160732  3.115072  1.246351
   H (  7)  2.254092  1.186533  3.240755  2.568094  2.451908  2.292468
   H (  8)  2.282952  1.228975  2.582136  3.271484  2.479629  2.379027
   H (  9)  3.009109  2.414827  3.494225  3.889867  1.862818  0.963353
             H (  7)   H (  8)
   H (  8)  2.023672
   H (  9)  3.009040  2.479519
 
 A cutoff of  1.0D-09 yielded   1768 shell pairs
 There are     17145 function pairs (     21298 Cartesian)
 Smallest overlap matrix eigenvalue = 8.24E-05

 Scale SEOQF with 1.000000e-02/1.000000e-01/1.000000e-01

 Standard Electronic Orientation quadrupole field applied
 Nucleus-field energy     =     0.0000000026 hartrees
 Requested basis set is 6-31G(d)
 There are 24 shells and 54 basis functions
 A cutoff of  1.0D-09 yielded    296 shell pairs
 There are      1547 function pairs (      1730 Cartesian)
 Smallest overlap matrix eigenvalue = 6.69E-03
 Guess from superposition of atomic densities
 Warning:  Energy on first SCF cycle will be non-variational
 SAD guess density has 26.000000 electrons
 Long-range K will be added via erf
 Coulomb attenuation parameter = 0.2 bohr**(-1)
 A restricted hybrid HF-DFT SCF calculation will be
 performed using Relaxed Constraint Minimization + Pulay DIIS
 Exchange:     0.2220 Hartree-Fock + 1.0000 wB97X-D + LR-HF
 Correlation:  1.0000 wB97X-D
 Using Euler-Maclaurin-Lebedev (75,302) quadrature formula
 Dispersion:   Grimme D
 SCF converges when DIIS error is below 1.0E-04
 using 6 threads for integral computing
 -------------------------------------------------------
 OpenMP Integral computing Module                
 Release: version 1.0, May 2013, Q-Chem Inc. Pittsburgh 
 -------------------------------------------------------
 using 6 threads for integral computing
 -------------------------------------------------------
 OpenMP Integral computing Module                
 Release: version 1.0, May 2013, Q-Chem Inc. Pittsburgh 
 -------------------------------------------------------
 ---------------------------------------
  Cycle       Energy         DIIS Error
 ---------------------------------------
    1    -155.0720812544      9.32E-02
    2    -154.7610249814      1.60E-02
    3    -154.7951888989      3.27E-03
    4    -154.8385034732      2.11E-03
    5    -154.8393311645      4.65E-04 Done RCA. Switching to DIIS
    6    -154.8402031516      4.34E-04
    7    -154.8402573541      4.04E-05 Convergence criterion met
 ---------------------------------------
 SCF time:  CPU 19.72 s  wall 3.31 s
 SCF   energy in the small basis set = -154.84025735
 Total energy in the small basis set = -154.84025735
 ----------------------------------------------------
  Cycle       Energy    
 ----------------------------------------------------
    1     -18.5552845949     -1.86E+01
 Long-range K will be added via erf
 Coulomb attenuation parameter = 0.2 bohr**(-1)
 A restricted hybrid HF-DFT SCF calculation will be
 performed using Relaxed Constraint Minimization + Pulay DIIS
 Exchange:     0.2220 Hartree-Fock + 1.0000 wB97X-D + LR-HF
 Correlation:  1.0000 wB97X-D
 Using Euler-Maclaurin-Lebedev (75,302) quadrature formula
 Dispersion:   Grimme D
 SCF converges when DIIS error is below 1.0E-05
 Basis2 calculation detected. Using small basis as guess for larger.
 SCFMinFind is unable to tell whether the solution found is close.
 Resetting ReadMinima to 0 and attempting to follow guess.
 SCFMinFind following SCF Guess.
 using 6 threads for integral computing
 -------------------------------------------------------
 OpenMP Integral computing Module                
 Release: version 1.0, May 2013, Q-Chem Inc. Pittsburgh 
 -------------------------------------------------------
 using 6 threads for integral computing
 -------------------------------------------------------
 OpenMP Integral computing Module                
 Release: version 1.0, May 2013, Q-Chem Inc. Pittsburgh 
 -------------------------------------------------------
 ---------------------------------------
  Cycle       Energy         DIIS Error
 ---------------------------------------
    1    -154.8648998072      5.96E-03
    2    -154.8603923919      4.40E-03
    3    -154.8815280798      1.00E-03
    4    -154.9106033884      1.11E-03
    5    -154.9121302100      1.79E-04 Done RCA. Switching to DIIS
    6    -154.9140705752      2.16E-04
    7    -154.9142091519      8.93E-06 Convergence criterion met
 ---------------------------------------
 SCF time:  CPU 65.59 s  wall 10.98 s
 SCF   energy in the final basis set = -154.91420915
 Total energy in the final basis set = -154.91420915
 
 --------------------------------------------------------------
 
                    Orbital Energies (a.u.)
 --------------------------------------------------------------
 
 Alpha MOs
 -- Occupied --
-19.2422 -10.3767 -10.2708  -1.0884  -0.8706  -0.6695  -0.6070  -0.5504
 -0.5024  -0.4532  -0.4256  -0.4227  -0.3076
 -- Virtual --
  0.0539   0.0662   0.0881   0.0930   0.1118   0.1276   0.1349   0.1470
  0.1655   0.1858   0.1899   0.2315   0.2383   0.2706   0.2803   0.2912
  0.3176   0.3204   0.3613   0.3951   0.4622   0.4665   0.4901   0.5386
  0.5443   0.5643   0.5760   0.5949   0.6082   0.6161   0.6343   0.6477
  0.7008   0.7528   0.7960   0.8233   0.8273   0.8703   0.8940   0.9394
  0.9712   0.9859   1.0432   1.0767   1.1164   1.1342   1.1584   1.1770
  1.2093   1.2417   1.2492   1.2873   1.3080   1.3504   1.3848   1.3899
  1.4224   1.4285   1.4423   1.4717   1.4896   1.5141   1.5534   1.6213
  1.6967   1.7878   1.9158   1.9966   2.0639   2.2610   2.3079   2.4586
  2.5153   2.5926   2.6272   2.6763   2.6998   2.7436   2.7587   2.7735
  2.8721   2.8827   2.9257   2.9397   2.9484   2.9904   3.0045   3.0523
  3.0743   3.1393   3.1522   3.1955   3.2140   3.2313   3.2759   3.2872
  3.2996   3.3495   3.3639   3.4288   3.4336   3.4581   3.4750   3.5152
  3.5757   3.5958   3.6075   3.6204   3.6573   3.7082   3.7299   3.7648
  3.7892   3.7997   3.8221   3.8736   3.8880   3.9139   4.0063   4.0466
  4.0636   4.0819   4.1146   4.1428   4.1868   4.2052   4.2251   4.2711
  4.2894   4.3130   4.3449   4.3812   4.4049   4.4681   4.5006   4.5527
  4.6037   4.6491   4.6789   4.7423   4.7987   4.8249   4.8787   4.9144
  4.9347   5.0042   5.0422   5.0570   5.1101   5.3021   5.3999   5.4148
  5.4421   5.5133   5.7669   5.8083   5.8155   5.9930   6.0240   6.1416
  6.2551   6.6283   6.7327   6.8739   7.1583   7.2209   7.4076   7.6262
  7.7734   8.1805  24.6083  25.0860  50.4411
 --------------------------------------------------------------
 
 -----------------------------------------------------------------
                    Cartesian Multipole Moments
 -----------------------------------------------------------------
    Charge (ESU x 10^10)
                -0.0000
    Dipole Moment (Debye)
         X       0.4125      Y       0.8763      Z      -1.4094
       Tot       1.7101
    Quadrupole Moments (Debye-Ang)
        XX     -24.2815     XY      -3.4115     YY     -19.5960
        XZ       3.0569     YZ       1.0218     ZZ     -20.8479
    Octopole Moments (Debye-Ang^2)
       XXX     304.3123    XXY      -2.5462    XYY      90.6366
       YYY     -35.8334    XXZ      -6.4105    XYZ      -5.2715
       YYZ      -1.8398    XZZ      90.2614    YZZ     -10.3043
       ZZZ     -11.8332
    Hexadecapole Moments (Debye-Ang^3)
      XXXX   -2817.0567   XXXY     168.5467   XXYY    -467.8961
      XYYY     174.5937   YYYY    -120.5354   XXXZ       6.0186
      XXYZ      27.3712   XYYZ       2.3045   YYYZ       2.3376
      XXZZ    -424.7752   XYZZ      50.4707   YYZZ     -25.3988
      XZZZ      37.5132   YZZZ       0.3411   ZZZZ     -51.5009
 -----------------------------------------------------------------
Archival summary:
1\1\centos77-c1\SP\ProcedureUnspecified\BasisUnspecified\126\shihchen\WedJul2900:47:282020WedJul2900:47:282020\0\\#,ProcedureUnspecified,BasisUnspecified,\\0,1\C\H,1,1.18653\H,1,1.22898,2,113.802\C,1,1.39307,2,121.605,3,-158.647,0\H,4,1.15771,1,118.491,2,3.98553,0\H,4,1.16027,1,118.621,2,153.096,0\H,4,1.41297,1,73.5449,2,-101.527,0\O,7,1.24635,4,129.545,1,4.21582,0\H,8,0.963353,7,114.312,4,-109.293,0\\\@

 Total job time:  17.39s(wall), 90.51s(cpu) 
 Wed Jul 29 00:47:28 2020

        *************************************************************
        *                                                           *
        *  Thank you very much for using Q-Chem.  Have a nice day.  *
        *                                                           *
        *************************************************************


