                  Welcome to Q-Chem
     A Quantum Leap Into The Future Of Chemistry


 Q-Chem 5.3 (devel), Q-Chem, Inc., Pleasanton, CA (2020)

 Yihan Shao,  Zhengting Gan,  E. Epifanovsky,  A. T. B. Gilbert,  M. Wormit,  
 J. Kussmann,  A. W. Lange,  A. Behn,  Jia Deng,  Xintian Feng,  D. Ghosh,  
 M. Goldey,  P. R. Horn,  L. D. Jacobson,  I. Kaliman,  T. Kus,  A. Landau,  
 Jie Liu,  E. I. Proynov,  R. M. Richard,  R. P. Steele,  E. J. Sundstrom,  
 H. L. Woodcock III,  P. M. Zimmerman,  D. Zuev,  B. Alam,  B. Albrecht,  
 E. Alguire,  S. A. Baeppler,  D. Barton,  Z. Benda,  Y. A. Bernard,  
 E. J. Berquist,  K. B. Bravaya,  H. Burton,  K. Carter-Fenk,  D. Casanova,  
 Chun-Min Chang,  Yunqing Chen,  A. Chien,  K. D. Closser,  M. P. Coons,  
 S. Coriani,  S. Dasgupta,  A. L. Dempwolff,  M. Diedenhofen,  Hainam Do,  
 R. G. Edgar,  Po-Tung Fang,  S. Faraji,  S. Fatehi,  Qingguo Feng,  
 J. Fosso-Tande,  J. Gayvert,  Qinghui Ge,  A. Ghysels,  G. Gidofalvi,  
 J. Gomes,  J. Gonthier,  A. Gunina,  D. Hait,  M. W. D. Hanson-Heine,  
 P. H. P. Harbach,  A. W. Hauser,  M. F. Herbst,  J. E. Herr,  
 E. G. Hohenstein,  Z. C. Holden,  Kerwin Hui,  B. C. Huynh,  T.-C. Jagau,  
 Hyunjun Ji,  B. Kaduk,  K. Khistyaev,  Jaehoon Kim,  P. Klunzinger,  K. Koh,  
 D. Kosenkov,  L. Koulias,  T. Kowalczyk,  C. M. Krauter,  A. Kunitsa,  
 Ka Un Lao,  A. Laurent,  K. V. Lawler,  Joonho Lee,  D. Lefrancois,  
 S. Lehtola,  D. S. Levine,  Yi-Pei Li,  You-Sheng Lin,  Fenglai Liu,  
 Kuan-Yu Liu,  E. Livshits,  M. Loipersberger,  A. Luenser,  P. Manohar,  
 E. Mansoor,  S. F. Manzer,  Shan-Ping Mao,  Yuezhi Mao,  N. Mardirossian,  
 A. V. Marenich,  T. Markovich,  L. A. Martinez-Martinez,  S. A. Maurer,  
 N. J. Mayhall,  S. C. McKenzie,  J.-M. Mewes,  P. Morgante,  A. F. Morrison,  
 J. W. Mullinax,  K. Nanda,  T. S. Nguyen-Beck,  R. Olivares-Amaya,  
 K. J. Oosterbaan,  J. A. Parkhill,  S. K. Paul,  F. Pavosevic,  Zheng Pei,  
 T. M. Perrine,  F. Plasser,  P. Pokhilko,  S. Prager,  A. Prociuk,  
 E. Ramos,  B. Rana,  D. R. Rehn,  F. Rob,  M. Scheurer,  M. Schneider,  
 N. Sergueev,  S. M. Sharada,  S. Sharma,  D. W. Small,  T. Stauch,  
 C. J. Stein,  T. Stein,  Yu-Chuan Su,  S. P. Veccham,  Zhen Tao,  
 A. J. W. Thom,  A. Tkatchenko,  T. Tsuchimochi,  N. M. Tubman,  L. Vogt,  
 M. L. Vidal,  O. Vydrov,  M. A. Watson,  J. Wenzel,  M. de Wergifosse,  
 T. A. Wesolowski,  A. White,  J. Witte,  A. Yamada,  Jun Yang,  K. Yao,  
 S. Yeganeh,  S. R. Yost,  Zhi-Qiang You,  A. Zech,  Igor Ying Zhang,  
 Xing Zhang,  Yan Zhao,  Ying Zhu,  B. R. Brooks,  G. K. L. Chan,  
 C. J. Cramer,  M. S. Gordon,  W. J. Hehre,  A. Klamt,  M. W. Schmidt,  
 C. D. Sherrill,  D. G. Truhlar,  A. Aspuru-Guzik,  R. Baer,  A. T. Bell,  
 N. A. Besley,  Jeng-Da Chai,  A. E. DePrince, III,  R. A. DiStasio Jr.,  
 A. Dreuw,  B. D. Dunietz,  T. R. Furlani,  Chao-Ping Hsu,  Yousung Jung,  
 Jing Kong,  D. S. Lambrecht,  WanZhen Liang,  C. Ochsenfeld,  
 V. A. Rassolov,  L. V. Slipchenko,  J. E. Subotnik,  T. Van Voorhis,  
 J. M. Herbert,  A. I. Krylov,  P. M. W. Gill,  M. Head-Gordon

 Contributors to earlier versions of Q-Chem not listed above: 
 R. D. Adamson,  B. Austin,  J. Baker,  G. J. O. Beran,  K. Brandhorst,  
 S. T. Brown,  E. F. C. Byrd,  A. K. Chakraborty,  C.-L. Cheng,  
 Siu Hung Chien,  D. M. Chipman,  D. L. Crittenden,  H. Dachsel,  
 R. J. Doerksen,  A. D. Dutoi,  L. Fusti-Molnar,  W. A. Goddard III,  
 A. Golubeva-Zadorozhnaya,  S. R. Gwaltney,  G. Hawkins,  A. Heyden,  
 S. Hirata,  G. Kedziora,  F. J. Keil,  C. Kelley,  Jihan Kim,  R. A. King,  
 R. Z. Khaliullin,  P. P. Korambath,  W. Kurlancheek,  A. M. Lee,  M. S. Lee,  
 S. V. Levchenko,  Ching Yeh Lin,  D. Liotard,  R. C. Lochan,  I. Lotan,  
 P. E. Maslen,  N. Nair,  D. P. O'Neill,  D. Neuhauser,  E. Neuscamman,  
 C. M. Oana,  R. Olson,  B. Peters,  R. Peverati,  P. A. Pieniazek,  
 Y. M. Rhee,  J. Ritchie,  M. A. Rohrdanz,  E. Rosta,  N. J. Russ,  
 H. F. Schaefer III,  N. E. Schultz,  N. Shenvi,  A. C. Simmonett,  A. Sodt,  
 D. Stuck,  K. S. Thanthiriwatte,  V. Vanovschi,  Tao Wang,  A. Warshel,  
 C. F. Williams,  Q. Wu,  X. Xu,  W. Zhang

 Please cite Q-Chem as follows:
 Y. Shao et al., Mol. Phys. 113, 184-215 (2015)
 DOI: 10.1080/00268976.2014.952696

 Q-Chem 5.3.0 for Intel X86 EM64T Linux

 Parts of Q-Chem use Armadillo 9.800.1 (Horizon Scraper).
 http://arma.sourceforge.net/

 Q-Chem begins on Wed Jul 29 00:49:19 2020  

Host: centos77-c1
0

     Scratch files written to /tmp/30084.centos77-h1/qchem31519//
Processing $rem in /opt/qchem-5.3.0-intel2020u1//config/preferences:
Processing $rem in /home/shihchengli/.qchemrc:

Checking the input file for inconsistencies... 	...done.

--------------------------------------------------------------
User input:
--------------------------------------------------------------
$rem
   JOBTYPE  sp
   EXCHANGE   omegaB97X-D
   BASIS   6-311+G(2df,2pd)
   UNRESTRICTED   False
   max_scf_cycles   250
   geom_opt_max_cycles   1500
   basis2 6-31G*
   scf_algorithm rca_diis
   SYM_IGNORE  TRUE
   print_input   true
   geom_opt_dmax   80
   pop_mulliken false
   XC_GRID 000075000302
$end

$molecule
0 1
C       -5.5366446778     0.5377901957     -0.1091472597
C       -4.4119017924     1.3709512047     0.0782596647
H       -5.8443639652     0.3473811408     -1.0001168036
H       -6.3858317593     0.5559802950     0.7595697067
H       -4.4628697760     -0.3097346198     0.2706996589
O       -3.2938129881     -0.0187369182     0.5864902839
H       -4.2835634049     1.9063577525     0.8933010606
H       -3.8285444948     1.7445691984     -0.8392733593
H       -2.6331995388     -0.2714209919     -0.0668927890
$end
--------------------------------------------------------------
 ----------------------------------------------------------------
             Standard Nuclear Orientation (Angstroms)
    I     Atom           X                Y                Z
 ----------------------------------------------------------------
    1      C      -5.5366446778     0.5377901957    -0.1091472597
    2      C      -4.4119017924     1.3709512047     0.0782596647
    3      H      -5.8443639652     0.3473811408    -1.0001168036
    4      H      -6.3858317593     0.5559802950     0.7595697067
    5      H      -4.4628697760    -0.3097346198     0.2706996589
    6      O      -3.2938129881    -0.0187369182     0.5864902839
    7      H      -4.2835634049     1.9063577525     0.8933010606
    8      H      -3.8285444948     1.7445691984    -0.8392733593
    9      H      -2.6331995388    -0.2714209919    -0.0668927890
 ----------------------------------------------------------------
 Nuclear Repulsion Energy =          79.55514979 hartrees
 There are       13 alpha and       13 beta electrons
 Requested basis set is 6-311+G(2df,2pd)
 There are 60 shells and 186 basis functions

 Total QAlloc Memory Limit   2000 MB
 Mega-Array Size       188 MB
 MEM_STATIC part       192 MB

                       Distance Matrix (Angstroms)
             C (  1)   C (  2)   H (  3)   H (  4)   H (  5)   O (  6)
   C (  2)  1.412206
   H (  3)  0.961651  2.064592
   H (  4)  1.214956  2.241598  1.852889
   H (  5)  1.419709  1.692435  1.988794  2.164772
   O (  6)  2.413282  1.854630  3.026000  3.149736  1.245431
   H (  7)  2.109050  0.983577  2.907153  2.502186  2.308863  2.186259
   H (  8)  2.215176  1.149680  2.457953  3.241722  2.419622  2.329804
   H (  9)  3.014399  2.425332  3.400794  3.930634  1.860949  0.962896
             H (  7)   H (  8)
   H (  8)  1.798619
   H (  9)  2.896272  2.467719
 
 A cutoff of  1.0D-09 yielded   1775 shell pairs
 There are     17213 function pairs (     21386 Cartesian)
 Smallest overlap matrix eigenvalue = 8.90E-05

 Scale SEOQF with 1.000000e-02/1.000000e-01/1.000000e-01

 Standard Electronic Orientation quadrupole field applied
 Nucleus-field energy     =     0.0000000027 hartrees
 Requested basis set is 6-31G(d)
 There are 24 shells and 54 basis functions
 A cutoff of  1.0D-09 yielded    297 shell pairs
 There are      1548 function pairs (      1731 Cartesian)
 Smallest overlap matrix eigenvalue = 6.69E-03
 Guess from superposition of atomic densities
 Warning:  Energy on first SCF cycle will be non-variational
 SAD guess density has 26.000000 electrons
 Long-range K will be added via erf
 Coulomb attenuation parameter = 0.2 bohr**(-1)
 A restricted hybrid HF-DFT SCF calculation will be
 performed using Relaxed Constraint Minimization + Pulay DIIS
 Exchange:     0.2220 Hartree-Fock + 1.0000 wB97X-D + LR-HF
 Correlation:  1.0000 wB97X-D
 Using Euler-Maclaurin-Lebedev (75,302) quadrature formula
 Dispersion:   Grimme D
 SCF converges when DIIS error is below 1.0E-04
 using 6 threads for integral computing
 -------------------------------------------------------
 OpenMP Integral computing Module                
 Release: version 1.0, May 2013, Q-Chem Inc. Pittsburgh 
 -------------------------------------------------------
 using 6 threads for integral computing
 -------------------------------------------------------
 OpenMP Integral computing Module                
 Release: version 1.0, May 2013, Q-Chem Inc. Pittsburgh 
 -------------------------------------------------------
 ---------------------------------------
  Cycle       Energy         DIIS Error
 ---------------------------------------
    1    -155.2618255601      1.01E-01
    2    -154.7535409450      1.57E-02
    3    -154.7879349689      3.27E-03
    4    -154.8279633392      2.53E-03
    5    -154.8289411212      5.05E-04 Done RCA. Switching to DIIS
    6    -154.8301972541      3.08E-04
    7    -154.8302345012      4.22E-05 Convergence criterion met
 ---------------------------------------
 SCF time:  CPU 17.68 s  wall 2.96 s
 SCF   energy in the small basis set = -154.83023450
 Total energy in the small basis set = -154.83023450
 ----------------------------------------------------
  Cycle       Energy    
 ----------------------------------------------------
    1     -18.6902841529     -1.87E+01
 Long-range K will be added via erf
 Coulomb attenuation parameter = 0.2 bohr**(-1)
 A restricted hybrid HF-DFT SCF calculation will be
 performed using Relaxed Constraint Minimization + Pulay DIIS
 Exchange:     0.2220 Hartree-Fock + 1.0000 wB97X-D + LR-HF
 Correlation:  1.0000 wB97X-D
 Using Euler-Maclaurin-Lebedev (75,302) quadrature formula
 Dispersion:   Grimme D
 SCF converges when DIIS error is below 1.0E-05
 Basis2 calculation detected. Using small basis as guess for larger.
 SCFMinFind is unable to tell whether the solution found is close.
 Resetting ReadMinima to 0 and attempting to follow guess.
 SCFMinFind following SCF Guess.
 using 6 threads for integral computing
 -------------------------------------------------------
 OpenMP Integral computing Module                
 Release: version 1.0, May 2013, Q-Chem Inc. Pittsburgh 
 -------------------------------------------------------
 using 6 threads for integral computing
 -------------------------------------------------------
 OpenMP Integral computing Module                
 Release: version 1.0, May 2013, Q-Chem Inc. Pittsburgh 
 -------------------------------------------------------
 ---------------------------------------
  Cycle       Energy         DIIS Error
 ---------------------------------------
    1    -154.8574242121      5.98E-03
    2    -154.8536932328      4.38E-03
    3    -154.8746504754      9.97E-04 Done RCA. Switching to DIIS
    4    -154.9034956497      1.09E-03
    5    -154.9069681251      7.40E-05
    6    -154.9069960344      1.63E-05
    7    -154.9069982046      4.56E-06 Convergence criterion met
 ---------------------------------------
 SCF time:  CPU 53.69 s  wall 8.97 s
 SCF   energy in the final basis set = -154.90699820
 Total energy in the final basis set = -154.90699820
 
 --------------------------------------------------------------
 
                    Orbital Energies (a.u.)
 --------------------------------------------------------------
 
 Alpha MOs
 -- Occupied --
-19.2426 -10.3517 -10.2546  -1.0889  -0.8777  -0.7084  -0.6132  -0.5660
 -0.5172  -0.4505  -0.4404  -0.4275  -0.3057
 -- Virtual --
  0.0515   0.0680   0.0883   0.0959   0.1132   0.1283   0.1383   0.1487
  0.1759   0.1868   0.2060   0.2415   0.2544   0.2735   0.2867   0.2996
  0.3269   0.3344   0.3592   0.3943   0.4609   0.4656   0.4910   0.5491
  0.5584   0.5743   0.5824   0.5973   0.6124   0.6458   0.6639   0.6945
  0.7176   0.7493   0.8005   0.8306   0.8442   0.8799   0.9071   0.9344
  0.9811   1.0230   1.0661   1.0986   1.1268   1.1565   1.1625   1.1935
  1.2284   1.2542   1.2832   1.2971   1.3205   1.3495   1.4012   1.4246
  1.4386   1.4459   1.4604   1.4829   1.5441   1.5881   1.6317   1.6641
  1.7340   1.7853   1.9103   2.0062   2.0523   2.2610   2.3108   2.4218
  2.4567   2.5452   2.6374   2.6736   2.7115   2.7417   2.7829   2.8028
  2.8692   2.8884   2.9597   2.9766   3.0025   3.0377   3.0622   3.0821
  3.0970   3.1219   3.1586   3.2099   3.2512   3.2788   3.3082   3.3337
  3.3579   3.3766   3.4365   3.4504   3.4788   3.4960   3.5142   3.5538
  3.5550   3.5987   3.6462   3.6697   3.6818   3.7295   3.7625   3.8084
  3.8311   3.8538   3.9045   3.9089   3.9553   3.9711   4.0573   4.0780
  4.1032   4.1149   4.1657   4.1910   4.2149   4.2604   4.2803   4.2912
  4.3220   4.3639   4.3940   4.4678   4.4925   4.5541   4.6180   4.7149
  4.7344   4.7888   4.8063   4.8198   4.9246   5.0303   5.0533   5.1229
  5.2220   5.2743   5.3466   5.3777   5.4360   5.4724   5.5435   5.5975
  5.6492   5.7438   5.7871   5.8236   6.0217   6.0661   6.3023   6.4876
  6.5041   6.6324   6.7348   6.8803   7.1638   7.2261   7.4053   7.6284
  7.7770   8.1765  24.9238  25.2683  50.4411
 --------------------------------------------------------------
 
 -----------------------------------------------------------------
                    Cartesian Multipole Moments
 -----------------------------------------------------------------
    Charge (ESU x 10^10)
                 0.0000
    Dipole Moment (Debye)
         X       0.5220      Y       0.9602      Z      -1.4664
       Tot       1.8289
    Quadrupole Moments (Debye-Ang)
        XX     -25.0616     XY      -3.7751     YY     -19.0432
        XZ       3.3968     YZ       0.9089     ZZ     -20.8433
    Octopole Moments (Debye-Ang^2)
       XXX     308.4690    XXY      -0.7870    XYY      88.0438
       YYY     -34.5285    XXZ      -8.1746    XYZ      -4.7040
       YYZ      -2.0836    XZZ      90.2468    YZZ     -10.5402
       ZZZ     -11.6369
    Hexadecapole Moments (Debye-Ang^3)
      XXXX   -2835.1553   XXXY     160.0132   XXYY    -454.6951
      XYYY     169.2174   YYYY    -114.6012   XXXZ      15.5221
      XXYZ      24.8495   XYYZ       3.7398   YYYZ       2.6143
      XXZZ    -424.0738   XYZZ      51.3155   YYZZ     -24.9886
      XZZZ      37.0897   YZZZ       0.8230   ZZZZ     -47.2182
 -----------------------------------------------------------------
Archival summary:
1\1\centos77-c1\SP\ProcedureUnspecified\BasisUnspecified\126\shihchen\WedJul2900:49:332020WedJul2900:49:332020\0\\#,ProcedureUnspecified,BasisUnspecified,\\0,1\C\H,1,0.983577\H,1,1.14968,2,114.722\C,1,1.41221,2,122.346,3,-158.44,0\H,4,0.961651,1,119.645,2,152.729,0\H,4,1.21496,1,116.933,2,3.49255,0\H,4,1.41971,1,73.4,2,-101.212,0\O,7,1.24543,4,129.666,1,2.91413,0\H,8,0.962896,7,114.244,4,-109.293,0\\\@

 Total job time:  14.70s(wall), 76.20s(cpu) 
 Wed Jul 29 00:49:33 2020

        *************************************************************
        *                                                           *
        *  Thank you very much for using Q-Chem.  Have a nice day.  *
        *                                                           *
        *************************************************************


