                  Welcome to Q-Chem
     A Quantum Leap Into The Future Of Chemistry


 Q-Chem 5.3 (devel), Q-Chem, Inc., Pleasanton, CA (2020)

 Yihan Shao,  Zhengting Gan,  E. Epifanovsky,  A. T. B. Gilbert,  M. Wormit,  
 J. Kussmann,  A. W. Lange,  A. Behn,  Jia Deng,  Xintian Feng,  D. Ghosh,  
 M. Goldey,  P. R. Horn,  L. D. Jacobson,  I. Kaliman,  T. Kus,  A. Landau,  
 Jie Liu,  E. I. Proynov,  R. M. Richard,  R. P. Steele,  E. J. Sundstrom,  
 H. L. Woodcock III,  P. M. Zimmerman,  D. Zuev,  B. Alam,  B. Albrecht,  
 E. Alguire,  S. A. Baeppler,  D. Barton,  Z. Benda,  Y. A. Bernard,  
 E. J. Berquist,  K. B. Bravaya,  H. Burton,  K. Carter-Fenk,  D. Casanova,  
 Chun-Min Chang,  Yunqing Chen,  A. Chien,  K. D. Closser,  M. P. Coons,  
 S. Coriani,  S. Dasgupta,  A. L. Dempwolff,  M. Diedenhofen,  Hainam Do,  
 R. G. Edgar,  Po-Tung Fang,  S. Faraji,  S. Fatehi,  Qingguo Feng,  
 J. Fosso-Tande,  J. Gayvert,  Qinghui Ge,  A. Ghysels,  G. Gidofalvi,  
 J. Gomes,  J. Gonthier,  A. Gunina,  D. Hait,  M. W. D. Hanson-Heine,  
 P. H. P. Harbach,  A. W. Hauser,  M. F. Herbst,  J. E. Herr,  
 E. G. Hohenstein,  Z. C. Holden,  Kerwin Hui,  B. C. Huynh,  T.-C. Jagau,  
 Hyunjun Ji,  B. Kaduk,  K. Khistyaev,  Jaehoon Kim,  P. Klunzinger,  K. Koh,  
 D. Kosenkov,  L. Koulias,  T. Kowalczyk,  C. M. Krauter,  A. Kunitsa,  
 Ka Un Lao,  A. Laurent,  K. V. Lawler,  Joonho Lee,  D. Lefrancois,  
 S. Lehtola,  D. S. Levine,  Yi-Pei Li,  You-Sheng Lin,  Fenglai Liu,  
 Kuan-Yu Liu,  E. Livshits,  M. Loipersberger,  A. Luenser,  P. Manohar,  
 E. Mansoor,  S. F. Manzer,  Shan-Ping Mao,  Yuezhi Mao,  N. Mardirossian,  
 A. V. Marenich,  T. Markovich,  L. A. Martinez-Martinez,  S. A. Maurer,  
 N. J. Mayhall,  S. C. McKenzie,  J.-M. Mewes,  P. Morgante,  A. F. Morrison,  
 J. W. Mullinax,  K. Nanda,  T. S. Nguyen-Beck,  R. Olivares-Amaya,  
 K. J. Oosterbaan,  J. A. Parkhill,  S. K. Paul,  F. Pavosevic,  Zheng Pei,  
 T. M. Perrine,  F. Plasser,  P. Pokhilko,  S. Prager,  A. Prociuk,  
 E. Ramos,  B. Rana,  D. R. Rehn,  F. Rob,  M. Scheurer,  M. Schneider,  
 N. Sergueev,  S. M. Sharada,  S. Sharma,  D. W. Small,  T. Stauch,  
 C. J. Stein,  T. Stein,  Yu-Chuan Su,  S. P. Veccham,  Zhen Tao,  
 A. J. W. Thom,  A. Tkatchenko,  T. Tsuchimochi,  N. M. Tubman,  L. Vogt,  
 M. L. Vidal,  O. Vydrov,  M. A. Watson,  J. Wenzel,  M. de Wergifosse,  
 T. A. Wesolowski,  A. White,  J. Witte,  A. Yamada,  Jun Yang,  K. Yao,  
 S. Yeganeh,  S. R. Yost,  Zhi-Qiang You,  A. Zech,  Igor Ying Zhang,  
 Xing Zhang,  Yan Zhao,  Ying Zhu,  B. R. Brooks,  G. K. L. Chan,  
 C. J. Cramer,  M. S. Gordon,  W. J. Hehre,  A. Klamt,  M. W. Schmidt,  
 C. D. Sherrill,  D. G. Truhlar,  A. Aspuru-Guzik,  R. Baer,  A. T. Bell,  
 N. A. Besley,  Jeng-Da Chai,  A. E. DePrince, III,  R. A. DiStasio Jr.,  
 A. Dreuw,  B. D. Dunietz,  T. R. Furlani,  Chao-Ping Hsu,  Yousung Jung,  
 Jing Kong,  D. S. Lambrecht,  WanZhen Liang,  C. Ochsenfeld,  
 V. A. Rassolov,  L. V. Slipchenko,  J. E. Subotnik,  T. Van Voorhis,  
 J. M. Herbert,  A. I. Krylov,  P. M. W. Gill,  M. Head-Gordon

 Contributors to earlier versions of Q-Chem not listed above: 
 R. D. Adamson,  B. Austin,  J. Baker,  G. J. O. Beran,  K. Brandhorst,  
 S. T. Brown,  E. F. C. Byrd,  A. K. Chakraborty,  C.-L. Cheng,  
 Siu Hung Chien,  D. M. Chipman,  D. L. Crittenden,  H. Dachsel,  
 R. J. Doerksen,  A. D. Dutoi,  L. Fusti-Molnar,  W. A. Goddard III,  
 A. Golubeva-Zadorozhnaya,  S. R. Gwaltney,  G. Hawkins,  A. Heyden,  
 S. Hirata,  G. Kedziora,  F. J. Keil,  C. Kelley,  Jihan Kim,  R. A. King,  
 R. Z. Khaliullin,  P. P. Korambath,  W. Kurlancheek,  A. M. Lee,  M. S. Lee,  
 S. V. Levchenko,  Ching Yeh Lin,  D. Liotard,  R. C. Lochan,  I. Lotan,  
 P. E. Maslen,  N. Nair,  D. P. O'Neill,  D. Neuhauser,  E. Neuscamman,  
 C. M. Oana,  R. Olson,  B. Peters,  R. Peverati,  P. A. Pieniazek,  
 Y. M. Rhee,  J. Ritchie,  M. A. Rohrdanz,  E. Rosta,  N. J. Russ,  
 H. F. Schaefer III,  N. E. Schultz,  N. Shenvi,  A. C. Simmonett,  A. Sodt,  
 D. Stuck,  K. S. Thanthiriwatte,  V. Vanovschi,  Tao Wang,  A. Warshel,  
 C. F. Williams,  Q. Wu,  X. Xu,  W. Zhang

 Please cite Q-Chem as follows:
 Y. Shao et al., Mol. Phys. 113, 184-215 (2015)
 DOI: 10.1080/00268976.2014.952696

 Q-Chem 5.3.0 for Intel X86 EM64T Linux

 Parts of Q-Chem use Armadillo 9.800.1 (Horizon Scraper).
 http://arma.sourceforge.net/

 Q-Chem begins on Wed Jul 29 00:38:24 2020  

Host: centos77-c1
0

     Scratch files written to /tmp/30084.centos77-h1/qchem29951//
Processing $rem in /opt/qchem-5.3.0-intel2020u1//config/preferences:
Processing $rem in /home/shihchengli/.qchemrc:

Checking the input file for inconsistencies... 	...done.

--------------------------------------------------------------
User input:
--------------------------------------------------------------
$rem
   JOBTYPE  sp
   EXCHANGE   omegaB97X-D
   BASIS   6-311+G(2df,2pd)
   UNRESTRICTED   False
   max_scf_cycles   250
   geom_opt_max_cycles   1500
   basis2 6-31G*
   scf_algorithm rca_diis
   SYM_IGNORE  TRUE
   print_input   true
   geom_opt_dmax   80
   pop_mulliken false
   XC_GRID 000075000302
$end

$molecule
0 1
C       -5.6045323874     0.5195188935     -0.0799600794
C       -4.3255013823     1.3856378147     0.1074229828
H       -6.0101367044     0.2347294781     -1.0495153732
H       -6.4152536327     0.5300719225     0.6461835587
H       -4.4082214429     -0.3644724229     0.2892307641
O       -3.2875438107     -0.0658533435     0.5817721996
H       -4.1920860269     2.0972811927     0.9205189660
H       -3.8008873839     1.8154180125     -0.7477680021
H       -2.6365696261     -0.2891942904     -0.0949948532
$end
--------------------------------------------------------------
 ----------------------------------------------------------------
             Standard Nuclear Orientation (Angstroms)
    I     Atom           X                Y                Z
 ----------------------------------------------------------------
    1      C      -5.6045323874     0.5195188935    -0.0799600794
    2      C      -4.3255013823     1.3856378147     0.1074229828
    3      H      -6.0101367044     0.2347294781    -1.0495153732
    4      H      -6.4152536327     0.5300719225     0.6461835587
    5      H      -4.4082214429    -0.3644724229     0.2892307641
    6      O      -3.2875438107    -0.0658533435     0.5817721996
    7      H      -4.1920860269     2.0972811927     0.9205189660
    8      H      -3.8008873839     1.8154180125    -0.7477680021
    9      H      -2.6365696261    -0.2891942904    -0.0949948532
 ----------------------------------------------------------------
 Nuclear Repulsion Energy =          76.92571749 hartrees
 There are       13 alpha and       13 beta electrons
 Requested basis set is 6-311+G(2df,2pd)
 There are 60 shells and 186 basis functions

 Total QAlloc Memory Limit   2000 MB
 Mega-Array Size       188 MB
 MEM_STATIC part       192 MB

                       Distance Matrix (Angstroms)
             C (  1)   C (  2)   H (  3)   H (  4)   H (  5)   O (  6)
   C (  2)  1.556019
   H (  3)  1.088879  2.345441
   H (  4)  1.088423  2.321491  1.768260
   H (  5)  1.532613  1.761472  2.171961  2.226163
   O (  6)  2.479715  1.846399  3.188097  3.184626  1.196107
   H (  7)  2.342071  1.088743  3.264268  2.733840  2.550582  2.368986
   H (  8)  2.319150  1.091459  2.733205  3.229571  2.489205  2.360165
   H (  9)  3.076206  2.387159  3.544934  3.936876  1.814400  0.965227
             H (  7)   H (  8)
   H (  8)  1.736567
   H (  9)  3.024263  2.492216
 
 A cutoff of  1.0D-09 yielded   1763 shell pairs
 There are     17117 function pairs (     21267 Cartesian)
 Smallest overlap matrix eigenvalue = 1.59E-04

 Scale SEOQF with 1.000000e-02/1.000000e-01/1.000000e-01

 Standard Electronic Orientation quadrupole field applied
 Nucleus-field energy     =     0.0000000028 hartrees
 Requested basis set is 6-31G(d)
 There are 24 shells and 54 basis functions
 A cutoff of  1.0D-09 yielded    296 shell pairs
 There are      1547 function pairs (      1730 Cartesian)
 Smallest overlap matrix eigenvalue = 1.07E-02
 Guess from superposition of atomic densities
 Warning:  Energy on first SCF cycle will be non-variational
 SAD guess density has 26.000000 electrons
 Long-range K will be added via erf
 Coulomb attenuation parameter = 0.2 bohr**(-1)
 A restricted hybrid HF-DFT SCF calculation will be
 performed using Relaxed Constraint Minimization + Pulay DIIS
 Exchange:     0.2220 Hartree-Fock + 1.0000 wB97X-D + LR-HF
 Correlation:  1.0000 wB97X-D
 Using Euler-Maclaurin-Lebedev (75,302) quadrature formula
 Dispersion:   Grimme D
 SCF converges when DIIS error is below 1.0E-04
 using 6 threads for integral computing
 -------------------------------------------------------
 OpenMP Integral computing Module                
 Release: version 1.0, May 2013, Q-Chem Inc. Pittsburgh 
 -------------------------------------------------------
 using 6 threads for integral computing
 -------------------------------------------------------
 OpenMP Integral computing Module                
 Release: version 1.0, May 2013, Q-Chem Inc. Pittsburgh 
 -------------------------------------------------------
 ---------------------------------------
  Cycle       Energy         DIIS Error
 ---------------------------------------
    1    -155.0227270568      9.05E-02
    2    -154.7735913479      1.45E-02
    3    -154.8051782159      2.98E-03
    4    -154.8405425443      2.34E-03
    5    -154.8413291200      4.47E-04 Done RCA. Switching to DIIS
    6    -154.8423752869      3.03E-04
    7    -154.8424106241      4.71E-05 Convergence criterion met
 ---------------------------------------
 SCF time:  CPU 19.59 s  wall 3.28 s
 SCF   energy in the small basis set = -154.84241062
 Total energy in the small basis set = -154.84241062
 ----------------------------------------------------
  Cycle       Energy    
 ----------------------------------------------------
    1     -18.5793000823     -1.86E+01
 Long-range K will be added via erf
 Coulomb attenuation parameter = 0.2 bohr**(-1)
 A restricted hybrid HF-DFT SCF calculation will be
 performed using Relaxed Constraint Minimization + Pulay DIIS
 Exchange:     0.2220 Hartree-Fock + 1.0000 wB97X-D + LR-HF
 Correlation:  1.0000 wB97X-D
 Using Euler-Maclaurin-Lebedev (75,302) quadrature formula
 Dispersion:   Grimme D
 SCF converges when DIIS error is below 1.0E-05
 Basis2 calculation detected. Using small basis as guess for larger.
 SCFMinFind is unable to tell whether the solution found is close.
 Resetting ReadMinima to 0 and attempting to follow guess.
 SCFMinFind following SCF Guess.
 using 6 threads for integral computing
 -------------------------------------------------------
 OpenMP Integral computing Module                
 Release: version 1.0, May 2013, Q-Chem Inc. Pittsburgh 
 -------------------------------------------------------
 using 6 threads for integral computing
 -------------------------------------------------------
 OpenMP Integral computing Module                
 Release: version 1.0, May 2013, Q-Chem Inc. Pittsburgh 
 -------------------------------------------------------
 ---------------------------------------
  Cycle       Energy         DIIS Error
 ---------------------------------------
    1    -154.8717305565      5.86E-03
    2    -154.8761707723      3.82E-03
    3    -154.8926662250      8.03E-04 Done RCA. Switching to DIIS
    4    -154.9151294245      7.96E-04
    5    -154.9170704251      7.89E-05
    6    -154.9171061663      2.22E-05
    7    -154.9171109301      1.18E-05
    8    -154.9171120016      2.51E-06 Convergence criterion met
 ---------------------------------------
 SCF time:  CPU 64.84 s  wall 10.85 s
 SCF   energy in the final basis set = -154.91711200
 Total energy in the final basis set = -154.91711200
 
 --------------------------------------------------------------
 
                    Orbital Energies (a.u.)
 --------------------------------------------------------------
 
 Alpha MOs
 -- Occupied --
-19.2706 -10.3734 -10.2630  -1.1114  -0.8402  -0.7052  -0.6249  -0.5466
 -0.5000  -0.4611  -0.4497  -0.4391  -0.2896
 -- Virtual --
  0.0428   0.0628   0.0872   0.1005   0.1166   0.1289   0.1417   0.1502
  0.1774   0.1868   0.2061   0.2284   0.2375   0.2743   0.2837   0.2911
  0.3108   0.3225   0.3291   0.3878   0.4506   0.4861   0.5031   0.5380
  0.5517   0.5777   0.5825   0.5908   0.6146   0.6280   0.6472   0.6591
  0.6957   0.7248   0.7885   0.8062   0.8137   0.8684   0.8967   0.9197
  1.0068   1.0312   1.0594   1.0717   1.1025   1.1440   1.1502   1.1735
  1.1992   1.2344   1.2361   1.2706   1.2792   1.3409   1.3814   1.3947
  1.4427   1.4539   1.4781   1.4816   1.5486   1.5745   1.6141   1.6410
  1.6804   1.7824   1.9083   1.9863   2.0390   2.2517   2.3137   2.4117
  2.4226   2.5590   2.6252   2.6453   2.6748   2.7022   2.7317   2.7956
  2.8329   2.8429   2.8896   2.9781   3.0054   3.0302   3.0682   3.0996
  3.1354   3.1576   3.1751   3.2144   3.2162   3.2417   3.2798   3.3119
  3.3173   3.3670   3.4120   3.4494   3.4517   3.4629   3.5278   3.5362
  3.5557   3.5713   3.5760   3.5979   3.6371   3.6832   3.6865   3.7632
  3.7777   3.8015   3.8293   3.8871   3.9038   3.9187   3.9876   4.0156
  4.0459   4.1081   4.1142   4.1359   4.1532   4.1793   4.2572   4.2663
  4.3034   4.3324   4.3498   4.3729   4.4130   4.4514   4.4769   4.6856
  4.7271   4.7640   4.7838   4.8647   4.9063   4.9531   4.9693   5.0106
  5.0387   5.0639   5.2066   5.2199   5.2659   5.3361   5.4237   5.4311
  5.4634   5.4978   5.7690   5.8318   5.8523   5.8679   6.0911   6.3235
  6.5390   6.5991   6.7313   7.0085   7.1489   7.2187   7.4161   7.5908
  7.7533   8.1460  24.9117  25.0397  50.4188
 --------------------------------------------------------------
 
 -----------------------------------------------------------------
                    Cartesian Multipole Moments
 -----------------------------------------------------------------
    Charge (ESU x 10^10)
                 0.0000
    Dipole Moment (Debye)
         X       1.3162      Y       0.9096      Z      -1.2632
       Tot       2.0385
    Quadrupole Moments (Debye-Ang)
        XX     -31.8211     XY      -2.8997     YY     -18.9467
        XZ       2.7967     YZ       1.1458     ZZ     -21.4735
    Octopole Moments (Debye-Ang^2)
       XXX     352.3819    XXY      -8.0490    XYY      89.4382
       YYY     -32.6722    XXZ      -7.0476    XYZ      -5.7549
       YYZ      -1.7478    XZZ      93.9901    YZZ     -11.0063
       ZZZ     -11.7028
    Hexadecapole Moments (Debye-Ang^3)
      XXXX   -3099.3061   XXXY     209.2172   XXYY    -472.7676
      XYYY     162.4161   YYYY    -116.6530   XXXZ      17.1774
      XXYZ      29.6285   XYYZ       1.6775   YYYZ       2.2945
      XXZZ    -446.6204   XYZZ      53.6397   YYZZ     -26.3949
      XZZZ      36.4638   YZZZ      -0.2504   ZZZZ     -48.4109
 -----------------------------------------------------------------
Archival summary:
1\1\centos77-c1\SP\ProcedureUnspecified\BasisUnspecified\126\shihchen\WedJul2900:38:422020WedJul2900:38:422020\0\\#,ProcedureUnspecified,BasisUnspecified,\\0,1\O\H,1,0.965227\H,1,1.19611,2,113.743\C,3,1.53261,1,130.26,2,-109.293,0\H,4,1.08842,3,115.233,1,-111.839,0\H,4,1.08888,3,110.756,1,124.39,0\C,4,1.55602,3,69.5387,1,4.61135,0\H,7,1.08874,4,123.676,3,-112.255,0\H,7,1.09146,4,121.327,3,106.136,0\\\@

 Total job time:  17.09s(wall), 89.45s(cpu) 
 Wed Jul 29 00:38:42 2020

        *************************************************************
        *                                                           *
        *  Thank you very much for using Q-Chem.  Have a nice day.  *
        *                                                           *
        *************************************************************


