                  Welcome to Q-Chem
     A Quantum Leap Into The Future Of Chemistry


 Q-Chem 5.3 (devel), Q-Chem, Inc., Pleasanton, CA (2020)

 Yihan Shao,  Zhengting Gan,  E. Epifanovsky,  A. T. B. Gilbert,  M. Wormit,  
 J. Kussmann,  A. W. Lange,  A. Behn,  Jia Deng,  Xintian Feng,  D. Ghosh,  
 M. Goldey,  P. R. Horn,  L. D. Jacobson,  I. Kaliman,  T. Kus,  A. Landau,  
 Jie Liu,  E. I. Proynov,  R. M. Richard,  R. P. Steele,  E. J. Sundstrom,  
 H. L. Woodcock III,  P. M. Zimmerman,  D. Zuev,  B. Alam,  B. Albrecht,  
 E. Alguire,  S. A. Baeppler,  D. Barton,  Z. Benda,  Y. A. Bernard,  
 E. J. Berquist,  K. B. Bravaya,  H. Burton,  K. Carter-Fenk,  D. Casanova,  
 Chun-Min Chang,  Yunqing Chen,  A. Chien,  K. D. Closser,  M. P. Coons,  
 S. Coriani,  S. Dasgupta,  A. L. Dempwolff,  M. Diedenhofen,  Hainam Do,  
 R. G. Edgar,  Po-Tung Fang,  S. Faraji,  S. Fatehi,  Qingguo Feng,  
 J. Fosso-Tande,  J. Gayvert,  Qinghui Ge,  A. Ghysels,  G. Gidofalvi,  
 J. Gomes,  J. Gonthier,  A. Gunina,  D. Hait,  M. W. D. Hanson-Heine,  
 P. H. P. Harbach,  A. W. Hauser,  M. F. Herbst,  J. E. Herr,  
 E. G. Hohenstein,  Z. C. Holden,  Kerwin Hui,  B. C. Huynh,  T.-C. Jagau,  
 Hyunjun Ji,  B. Kaduk,  K. Khistyaev,  Jaehoon Kim,  P. Klunzinger,  K. Koh,  
 D. Kosenkov,  L. Koulias,  T. Kowalczyk,  C. M. Krauter,  A. Kunitsa,  
 Ka Un Lao,  A. Laurent,  K. V. Lawler,  Joonho Lee,  D. Lefrancois,  
 S. Lehtola,  D. S. Levine,  Yi-Pei Li,  You-Sheng Lin,  Fenglai Liu,  
 Kuan-Yu Liu,  E. Livshits,  M. Loipersberger,  A. Luenser,  P. Manohar,  
 E. Mansoor,  S. F. Manzer,  Shan-Ping Mao,  Yuezhi Mao,  N. Mardirossian,  
 A. V. Marenich,  T. Markovich,  L. A. Martinez-Martinez,  S. A. Maurer,  
 N. J. Mayhall,  S. C. McKenzie,  J.-M. Mewes,  P. Morgante,  A. F. Morrison,  
 J. W. Mullinax,  K. Nanda,  T. S. Nguyen-Beck,  R. Olivares-Amaya,  
 K. J. Oosterbaan,  J. A. Parkhill,  S. K. Paul,  F. Pavosevic,  Zheng Pei,  
 T. M. Perrine,  F. Plasser,  P. Pokhilko,  S. Prager,  A. Prociuk,  
 E. Ramos,  B. Rana,  D. R. Rehn,  F. Rob,  M. Scheurer,  M. Schneider,  
 N. Sergueev,  S. M. Sharada,  S. Sharma,  D. W. Small,  T. Stauch,  
 C. J. Stein,  T. Stein,  Yu-Chuan Su,  S. P. Veccham,  Zhen Tao,  
 A. J. W. Thom,  A. Tkatchenko,  T. Tsuchimochi,  N. M. Tubman,  L. Vogt,  
 M. L. Vidal,  O. Vydrov,  M. A. Watson,  J. Wenzel,  M. de Wergifosse,  
 T. A. Wesolowski,  A. White,  J. Witte,  A. Yamada,  Jun Yang,  K. Yao,  
 S. Yeganeh,  S. R. Yost,  Zhi-Qiang You,  A. Zech,  Igor Ying Zhang,  
 Xing Zhang,  Yan Zhao,  Ying Zhu,  B. R. Brooks,  G. K. L. Chan,  
 C. J. Cramer,  M. S. Gordon,  W. J. Hehre,  A. Klamt,  M. W. Schmidt,  
 C. D. Sherrill,  D. G. Truhlar,  A. Aspuru-Guzik,  R. Baer,  A. T. Bell,  
 N. A. Besley,  Jeng-Da Chai,  A. E. DePrince, III,  R. A. DiStasio Jr.,  
 A. Dreuw,  B. D. Dunietz,  T. R. Furlani,  Chao-Ping Hsu,  Yousung Jung,  
 Jing Kong,  D. S. Lambrecht,  WanZhen Liang,  C. Ochsenfeld,  
 V. A. Rassolov,  L. V. Slipchenko,  J. E. Subotnik,  T. Van Voorhis,  
 J. M. Herbert,  A. I. Krylov,  P. M. W. Gill,  M. Head-Gordon

 Contributors to earlier versions of Q-Chem not listed above: 
 R. D. Adamson,  B. Austin,  J. Baker,  G. J. O. Beran,  K. Brandhorst,  
 S. T. Brown,  E. F. C. Byrd,  A. K. Chakraborty,  C.-L. Cheng,  
 Siu Hung Chien,  D. M. Chipman,  D. L. Crittenden,  H. Dachsel,  
 R. J. Doerksen,  A. D. Dutoi,  L. Fusti-Molnar,  W. A. Goddard III,  
 A. Golubeva-Zadorozhnaya,  S. R. Gwaltney,  G. Hawkins,  A. Heyden,  
 S. Hirata,  G. Kedziora,  F. J. Keil,  C. Kelley,  Jihan Kim,  R. A. King,  
 R. Z. Khaliullin,  P. P. Korambath,  W. Kurlancheek,  A. M. Lee,  M. S. Lee,  
 S. V. Levchenko,  Ching Yeh Lin,  D. Liotard,  R. C. Lochan,  I. Lotan,  
 P. E. Maslen,  N. Nair,  D. P. O'Neill,  D. Neuhauser,  E. Neuscamman,  
 C. M. Oana,  R. Olson,  B. Peters,  R. Peverati,  P. A. Pieniazek,  
 Y. M. Rhee,  J. Ritchie,  M. A. Rohrdanz,  E. Rosta,  N. J. Russ,  
 H. F. Schaefer III,  N. E. Schultz,  N. Shenvi,  A. C. Simmonett,  A. Sodt,  
 D. Stuck,  K. S. Thanthiriwatte,  V. Vanovschi,  Tao Wang,  A. Warshel,  
 C. F. Williams,  Q. Wu,  X. Xu,  W. Zhang

 Please cite Q-Chem as follows:
 Y. Shao et al., Mol. Phys. 113, 184-215 (2015)
 DOI: 10.1080/00268976.2014.952696

 Q-Chem 5.3.0 for Intel X86 EM64T Linux

 Parts of Q-Chem use Armadillo 9.800.1 (Horizon Scraper).
 http://arma.sourceforge.net/

 Q-Chem begins on Wed Jul 29 00:35:11 2020  

Host: centos77-c1
0

     Scratch files written to /tmp/30084.centos77-h1/qchem29478//
Processing $rem in /opt/qchem-5.3.0-intel2020u1//config/preferences:
Processing $rem in /home/shihchengli/.qchemrc:

Checking the input file for inconsistencies... 	...done.

--------------------------------------------------------------
User input:
--------------------------------------------------------------
$rem
   JOBTYPE  sp
   EXCHANGE   omegaB97X-D
   BASIS   6-311+G(2df,2pd)
   UNRESTRICTED   False
   max_scf_cycles   250
   geom_opt_max_cycles   1500
   basis2 6-31G*
   scf_algorithm rca_diis
   SYM_IGNORE  TRUE
   print_input   true
   geom_opt_dmax   80
   pop_mulliken false
   XC_GRID 000075000302
$end

$molecule
0 1
C       -5.5605247514     0.5248697486     -0.0797127723
C       -4.4296380829     1.3878830759     0.0462314457
H       -5.9327714140     0.3087516631     -1.0737785304
H       -6.3111903204     0.5419257096     0.7001934082
H       -4.4728745913     -0.2821781656     0.2898739405
O       -3.3025210989     0.0085571734     0.5962537819
H       -4.1898360359     1.9150249848     0.9593264640
H       -3.8353027234     1.7007444409     -0.8032988532
H       -2.6460733790     -0.2424413735     -0.0621987211
$end
--------------------------------------------------------------
 ----------------------------------------------------------------
             Standard Nuclear Orientation (Angstroms)
    I     Atom           X                Y                Z
 ----------------------------------------------------------------
    1      C      -5.5605247514     0.5248697486    -0.0797127723
    2      C      -4.4296380829     1.3878830759     0.0462314457
    3      H      -5.9327714140     0.3087516631    -1.0737785304
    4      H      -6.3111903204     0.5419257096     0.7001934082
    5      H      -4.4728745913    -0.2821781656     0.2898739405
    6      O      -3.3025210989     0.0085571734     0.5962537819
    7      H      -4.1898360359     1.9150249848     0.9593264640
    8      H      -3.8353027234     1.7007444409    -0.8032988532
    9      H      -2.6460733790    -0.2424413735    -0.0621987211
 ----------------------------------------------------------------
 Nuclear Repulsion Energy =          79.21427201 hartrees
 There are       13 alpha and       13 beta electrons
 Requested basis set is 6-311+G(2df,2pd)
 There are 60 shells and 186 basis functions

 Total QAlloc Memory Limit   2000 MB
 Mega-Array Size       188 MB
 MEM_STATIC part       192 MB

                       Distance Matrix (Angstroms)
             C (  1)   C (  2)   H (  3)   H (  4)   H (  5)   O (  6)
   C (  2)  1.428131
   H (  3)  1.083255  2.162951
   H (  4)  1.082610  2.164151  1.828810
   H (  5)  1.403889  1.688294  2.083277  2.055946
   O (  6)  2.412901  1.864258  3.130071  3.057348  1.244236
   H (  7)  2.211543  1.081261  3.122732  2.540216  2.314299  2.133956
   H (  8)  2.209672  1.082967  2.531833  3.119835  2.352341  2.259668
   H (  9)  3.013818  2.418846  3.482742  3.824860  1.860843  0.963059
             H (  7)   H (  8)
   H (  8)  1.810651
   H (  9)  2.842776  2.395718
 
 A cutoff of  1.0D-09 yielded   1776 shell pairs
 There are     17249 function pairs (     21428 Cartesian)
 Smallest overlap matrix eigenvalue = 9.93E-05

 Scale SEOQF with 1.000000e-02/1.000000e-01/1.000000e-01

 Standard Electronic Orientation quadrupole field applied
 Nucleus-field energy     =     0.0000000027 hartrees
 Requested basis set is 6-31G(d)
 There are 24 shells and 54 basis functions
 A cutoff of  1.0D-09 yielded    297 shell pairs
 There are      1548 function pairs (      1731 Cartesian)
 Smallest overlap matrix eigenvalue = 7.03E-03
 Guess from superposition of atomic densities
 Warning:  Energy on first SCF cycle will be non-variational
 SAD guess density has 26.000000 electrons
 Long-range K will be added via erf
 Coulomb attenuation parameter = 0.2 bohr**(-1)
 A restricted hybrid HF-DFT SCF calculation will be
 performed using Relaxed Constraint Minimization + Pulay DIIS
 Exchange:     0.2220 Hartree-Fock + 1.0000 wB97X-D + LR-HF
 Correlation:  1.0000 wB97X-D
 Using Euler-Maclaurin-Lebedev (75,302) quadrature formula
 Dispersion:   Grimme D
 SCF converges when DIIS error is below 1.0E-04
 using 6 threads for integral computing
 -------------------------------------------------------
 OpenMP Integral computing Module                
 Release: version 1.0, May 2013, Q-Chem Inc. Pittsburgh 
 -------------------------------------------------------
 using 6 threads for integral computing
 -------------------------------------------------------
 OpenMP Integral computing Module                
 Release: version 1.0, May 2013, Q-Chem Inc. Pittsburgh 
 -------------------------------------------------------
 ---------------------------------------
  Cycle       Energy         DIIS Error
 ---------------------------------------
    1    -155.2402033047      9.84E-02
    2    -154.7818278549      1.59E-02
    3    -154.8158372690      3.35E-03
    4    -154.8582103515      2.22E-03
    5    -154.8590739991      5.03E-04 Done RCA. Switching to DIIS
    6    -154.8600405832      4.22E-04
    7    -154.8600922242      4.13E-05 Convergence criterion met
 ---------------------------------------
 SCF time:  CPU 20.13 s  wall 3.37 s
 SCF   energy in the small basis set = -154.86009222
 Total energy in the small basis set = -154.86009222
 ----------------------------------------------------
  Cycle       Energy    
 ----------------------------------------------------
    1     -18.6685227034     -1.87E+01
 Long-range K will be added via erf
 Coulomb attenuation parameter = 0.2 bohr**(-1)
 A restricted hybrid HF-DFT SCF calculation will be
 performed using Relaxed Constraint Minimization + Pulay DIIS
 Exchange:     0.2220 Hartree-Fock + 1.0000 wB97X-D + LR-HF
 Correlation:  1.0000 wB97X-D
 Using Euler-Maclaurin-Lebedev (75,302) quadrature formula
 Dispersion:   Grimme D
 SCF converges when DIIS error is below 1.0E-05
 Basis2 calculation detected. Using small basis as guess for larger.
 SCFMinFind is unable to tell whether the solution found is close.
 Resetting ReadMinima to 0 and attempting to follow guess.
 SCFMinFind following SCF Guess.
 using 6 threads for integral computing
 -------------------------------------------------------
 OpenMP Integral computing Module                
 Release: version 1.0, May 2013, Q-Chem Inc. Pittsburgh 
 -------------------------------------------------------
 using 6 threads for integral computing
 -------------------------------------------------------
 OpenMP Integral computing Module                
 Release: version 1.0, May 2013, Q-Chem Inc. Pittsburgh 
 -------------------------------------------------------
 ---------------------------------------
  Cycle       Energy         DIIS Error
 ---------------------------------------
    1    -154.8833805397      6.03E-03
    2    -154.8766615348      4.59E-03
    3    -154.8995382958      1.08E-03
    4    -154.9312353770      1.20E-03
    5    -154.9330251862      1.97E-04 Done RCA. Switching to DIIS
    6    -154.9352977066      2.45E-04
    7    -154.9354732843      8.97E-06 Convergence criterion met
 ---------------------------------------
 SCF time:  CPU 61.19 s  wall 10.25 s
 SCF   energy in the final basis set = -154.93547328
 Total energy in the final basis set = -154.93547328
 
 --------------------------------------------------------------
 
                    Orbital Energies (a.u.)
 --------------------------------------------------------------
 
 Alpha MOs
 -- Occupied --
-19.2376 -10.3569 -10.2586  -1.0857  -0.8717  -0.7021  -0.6092  -0.5660
 -0.5074  -0.4593  -0.4391  -0.4209  -0.3065
 -- Virtual --
  0.0485   0.0676   0.0885   0.0980   0.1134   0.1279   0.1387   0.1486
  0.1784   0.1902   0.2164   0.2397   0.2464   0.2762   0.2836   0.2977
  0.3270   0.3331   0.3544   0.3961   0.4586   0.4647   0.4957   0.5457
  0.5616   0.5806   0.5874   0.6021   0.6141   0.6388   0.6527   0.6824
  0.7008   0.7511   0.8021   0.8225   0.8239   0.8813   0.9147   0.9348
  0.9862   1.0135   1.0606   1.0902   1.1340   1.1411   1.1656   1.1991
  1.2218   1.2528   1.2609   1.3018   1.3141   1.3503   1.4195   1.4204
  1.4444   1.4474   1.4828   1.4872   1.5478   1.5785   1.6057   1.6717
  1.7070   1.7819   1.8947   2.0040   2.0595   2.2667   2.3163   2.4397
  2.4988   2.5562   2.6275   2.6511   2.6920   2.7440   2.7937   2.8155
  2.8798   2.8926   2.9319   2.9679   2.9903   3.0317   3.0804   3.0845
  3.1099   3.1271   3.1708   3.2179   3.2300   3.2526   3.3158   3.3301
  3.3554   3.3966   3.4144   3.4508   3.4660   3.5007   3.5365   3.5576
  3.5762   3.5981   3.6071   3.6678   3.7059   3.7445   3.7832   3.8035
  3.8352   3.8606   3.8850   3.9118   3.9249   3.9431   4.0118   4.0699
  4.0944   4.1290   4.1654   4.1989   4.2112   4.2516   4.2780   4.3025
  4.3136   4.3711   4.4252   4.4605   4.5093   4.5478   4.6081   4.7076
  4.7470   4.8230   4.8538   4.9452   4.9674   5.0177   5.0657   5.1139
  5.1278   5.1918   5.2464   5.2594   5.3816   5.4013   5.4557   5.4846
  5.5895   5.6224   5.7853   5.8215   6.0491   6.1728   6.2271   6.2976
  6.4738   6.6343   6.7428   6.9001   7.1625   7.2305   7.4112   7.6182
  7.7856   8.1819  24.9852  25.2715  50.4415
 --------------------------------------------------------------
 
 -----------------------------------------------------------------
                    Cartesian Multipole Moments
 -----------------------------------------------------------------
    Charge (ESU x 10^10)
                 0.0000
    Dipole Moment (Debye)
         X       0.4516      Y       0.9867      Z      -1.4697
       Tot       1.8269
    Quadrupole Moments (Debye-Ang)
        XX     -24.3194     XY      -3.6903     YY     -19.1862
        XZ       3.4064     YZ       0.8062     ZZ     -20.8784
    Octopole Moments (Debye-Ang^2)
       XXX     302.7066    XXY      -2.0164    XYY      89.1346
       YYY     -35.4131    XXZ      -8.2706    XYZ      -4.1776
       YYZ      -2.1439    XZZ      90.6275    YZZ     -10.7724
       ZZZ     -11.4712
    Hexadecapole Moments (Debye-Ang^3)
      XXXX   -2795.6059   XXXY     168.6315   XXYY    -461.3614
      XYYY     173.0119   YYYY    -116.6959   XXXZ      15.1309
      XXYZ      21.8530   XYYZ       3.7809   YYYZ       1.5572
      XXZZ    -426.8993   XYZZ      52.3685   YYZZ     -25.3217
      XZZZ      35.0176   YZZZ       0.4913   ZZZZ     -48.1515
 -----------------------------------------------------------------
Archival summary:
1\1\centos77-c1\SP\ProcedureUnspecified\BasisUnspecified\126\shihchen\WedJul2900:35:272020WedJul2900:35:272020\0\\#,ProcedureUnspecified,BasisUnspecified,\\0,1\C\H,1,1.08126\H,1,1.08297,2,113.571\C,1,1.42813,2,123.004,3,-170.356,0\H,4,1.08261,1,118.426,2,11.9488,0\H,4,1.08325,1,118.268,2,159.194,0\H,4,1.40389,1,73.1829,2,-93.1217,0\O,7,1.24424,4,131.242,1,5.00499,0\H,8,0.963059,7,114.324,4,-109.293,0\\\@

 Total job time:  16.26s(wall), 86.06s(cpu) 
 Wed Jul 29 00:35:27 2020

        *************************************************************
        *                                                           *
        *  Thank you very much for using Q-Chem.  Have a nice day.  *
        *                                                           *
        *************************************************************


