                  Welcome to Q-Chem
     A Quantum Leap Into The Future Of Chemistry


 Q-Chem 5.3 (devel), Q-Chem, Inc., Pleasanton, CA (2020)

 Yihan Shao,  Zhengting Gan,  E. Epifanovsky,  A. T. B. Gilbert,  M. Wormit,  
 J. Kussmann,  A. W. Lange,  A. Behn,  Jia Deng,  Xintian Feng,  D. Ghosh,  
 M. Goldey,  P. R. Horn,  L. D. Jacobson,  I. Kaliman,  T. Kus,  A. Landau,  
 Jie Liu,  E. I. Proynov,  R. M. Richard,  R. P. Steele,  E. J. Sundstrom,  
 H. L. Woodcock III,  P. M. Zimmerman,  D. Zuev,  B. Alam,  B. Albrecht,  
 E. Alguire,  S. A. Baeppler,  D. Barton,  Z. Benda,  Y. A. Bernard,  
 E. J. Berquist,  K. B. Bravaya,  H. Burton,  K. Carter-Fenk,  D. Casanova,  
 Chun-Min Chang,  Yunqing Chen,  A. Chien,  K. D. Closser,  M. P. Coons,  
 S. Coriani,  S. Dasgupta,  A. L. Dempwolff,  M. Diedenhofen,  Hainam Do,  
 R. G. Edgar,  Po-Tung Fang,  S. Faraji,  S. Fatehi,  Qingguo Feng,  
 J. Fosso-Tande,  J. Gayvert,  Qinghui Ge,  A. Ghysels,  G. Gidofalvi,  
 J. Gomes,  J. Gonthier,  A. Gunina,  D. Hait,  M. W. D. Hanson-Heine,  
 P. H. P. Harbach,  A. W. Hauser,  M. F. Herbst,  J. E. Herr,  
 E. G. Hohenstein,  Z. C. Holden,  Kerwin Hui,  B. C. Huynh,  T.-C. Jagau,  
 Hyunjun Ji,  B. Kaduk,  K. Khistyaev,  Jaehoon Kim,  P. Klunzinger,  K. Koh,  
 D. Kosenkov,  L. Koulias,  T. Kowalczyk,  C. M. Krauter,  A. Kunitsa,  
 Ka Un Lao,  A. Laurent,  K. V. Lawler,  Joonho Lee,  D. Lefrancois,  
 S. Lehtola,  D. S. Levine,  Yi-Pei Li,  You-Sheng Lin,  Fenglai Liu,  
 Kuan-Yu Liu,  E. Livshits,  M. Loipersberger,  A. Luenser,  P. Manohar,  
 E. Mansoor,  S. F. Manzer,  Shan-Ping Mao,  Yuezhi Mao,  N. Mardirossian,  
 A. V. Marenich,  T. Markovich,  L. A. Martinez-Martinez,  S. A. Maurer,  
 N. J. Mayhall,  S. C. McKenzie,  J.-M. Mewes,  P. Morgante,  A. F. Morrison,  
 J. W. Mullinax,  K. Nanda,  T. S. Nguyen-Beck,  R. Olivares-Amaya,  
 K. J. Oosterbaan,  J. A. Parkhill,  S. K. Paul,  F. Pavosevic,  Zheng Pei,  
 T. M. Perrine,  F. Plasser,  P. Pokhilko,  S. Prager,  A. Prociuk,  
 E. Ramos,  B. Rana,  D. R. Rehn,  F. Rob,  M. Scheurer,  M. Schneider,  
 N. Sergueev,  S. M. Sharada,  S. Sharma,  D. W. Small,  T. Stauch,  
 C. J. Stein,  T. Stein,  Yu-Chuan Su,  S. P. Veccham,  Zhen Tao,  
 A. J. W. Thom,  A. Tkatchenko,  T. Tsuchimochi,  N. M. Tubman,  L. Vogt,  
 M. L. Vidal,  O. Vydrov,  M. A. Watson,  J. Wenzel,  M. de Wergifosse,  
 T. A. Wesolowski,  A. White,  J. Witte,  A. Yamada,  Jun Yang,  K. Yao,  
 S. Yeganeh,  S. R. Yost,  Zhi-Qiang You,  A. Zech,  Igor Ying Zhang,  
 Xing Zhang,  Yan Zhao,  Ying Zhu,  B. R. Brooks,  G. K. L. Chan,  
 C. J. Cramer,  M. S. Gordon,  W. J. Hehre,  A. Klamt,  M. W. Schmidt,  
 C. D. Sherrill,  D. G. Truhlar,  A. Aspuru-Guzik,  R. Baer,  A. T. Bell,  
 N. A. Besley,  Jeng-Da Chai,  A. E. DePrince, III,  R. A. DiStasio Jr.,  
 A. Dreuw,  B. D. Dunietz,  T. R. Furlani,  Chao-Ping Hsu,  Yousung Jung,  
 Jing Kong,  D. S. Lambrecht,  WanZhen Liang,  C. Ochsenfeld,  
 V. A. Rassolov,  L. V. Slipchenko,  J. E. Subotnik,  T. Van Voorhis,  
 J. M. Herbert,  A. I. Krylov,  P. M. W. Gill,  M. Head-Gordon

 Contributors to earlier versions of Q-Chem not listed above: 
 R. D. Adamson,  B. Austin,  J. Baker,  G. J. O. Beran,  K. Brandhorst,  
 S. T. Brown,  E. F. C. Byrd,  A. K. Chakraborty,  C.-L. Cheng,  
 Siu Hung Chien,  D. M. Chipman,  D. L. Crittenden,  H. Dachsel,  
 R. J. Doerksen,  A. D. Dutoi,  L. Fusti-Molnar,  W. A. Goddard III,  
 A. Golubeva-Zadorozhnaya,  S. R. Gwaltney,  G. Hawkins,  A. Heyden,  
 S. Hirata,  G. Kedziora,  F. J. Keil,  C. Kelley,  Jihan Kim,  R. A. King,  
 R. Z. Khaliullin,  P. P. Korambath,  W. Kurlancheek,  A. M. Lee,  M. S. Lee,  
 S. V. Levchenko,  Ching Yeh Lin,  D. Liotard,  R. C. Lochan,  I. Lotan,  
 P. E. Maslen,  N. Nair,  D. P. O'Neill,  D. Neuhauser,  E. Neuscamman,  
 C. M. Oana,  R. Olson,  B. Peters,  R. Peverati,  P. A. Pieniazek,  
 Y. M. Rhee,  J. Ritchie,  M. A. Rohrdanz,  E. Rosta,  N. J. Russ,  
 H. F. Schaefer III,  N. E. Schultz,  N. Shenvi,  A. C. Simmonett,  A. Sodt,  
 D. Stuck,  K. S. Thanthiriwatte,  V. Vanovschi,  Tao Wang,  A. Warshel,  
 C. F. Williams,  Q. Wu,  X. Xu,  W. Zhang

 Please cite Q-Chem as follows:
 Y. Shao et al., Mol. Phys. 113, 184-215 (2015)
 DOI: 10.1080/00268976.2014.952696

 Q-Chem 5.3.0 for Intel X86 EM64T Linux

 Parts of Q-Chem use Armadillo 9.800.1 (Horizon Scraper).
 http://arma.sourceforge.net/

 Q-Chem begins on Wed Jul 29 00:29:19 2020  

Host: centos77-c1
0

     Scratch files written to /tmp/30084.centos77-h1/qchem28539//
Processing $rem in /opt/qchem-5.3.0-intel2020u1//config/preferences:
Processing $rem in /home/shihchengli/.qchemrc:

Checking the input file for inconsistencies... 	...done.

--------------------------------------------------------------
User input:
--------------------------------------------------------------
$rem
   JOBTYPE  sp
   EXCHANGE   omegaB97X-D
   BASIS   6-311+G(2df,2pd)
   UNRESTRICTED   False
   max_scf_cycles   250
   geom_opt_max_cycles   1500
   basis2 6-31G*
   scf_algorithm rca_diis
   SYM_IGNORE  TRUE
   print_input   true
   geom_opt_dmax   80
   pop_mulliken false
   XC_GRID 000075000302
$end

$molecule
0 1
C       -5.5429198866     0.5365118351     -0.1478287119
C       -4.4019513690     1.3560198692     -0.0387368150
H       -6.0812470731     0.1349684124     -0.9927404596
H       -6.1304168785     0.7839891105     0.7298919783
H       -4.4693657808     -0.2997722035     0.2673787636
O       -3.2976999377     0.0015053961     0.5490847714
H       -4.4626013025     1.7669036997     0.9589029840
H       -3.6934896998     1.8494591440     -0.6925908535
H       -2.6010404691     -0.2664480065     -0.0604714939
$end
--------------------------------------------------------------
 ----------------------------------------------------------------
             Standard Nuclear Orientation (Angstroms)
    I     Atom           X                Y                Z
 ----------------------------------------------------------------
    1      C      -5.5429198866     0.5365118351    -0.1478287119
    2      C      -4.4019513690     1.3560198692    -0.0387368150
    3      H      -6.0812470731     0.1349684124    -0.9927404596
    4      H      -6.1304168785     0.7839891105     0.7298919783
    5      H      -4.4693657808    -0.2997722035     0.2673787636
    6      O      -3.2976999377     0.0015053961     0.5490847714
    7      H      -4.4626013025     1.7669036997     0.9589029840
    8      H      -3.6934896998     1.8494591440    -0.6925908535
    9      H      -2.6010404691    -0.2664480065    -0.0604714939
 ----------------------------------------------------------------
 Nuclear Repulsion Energy =          79.71156572 hartrees
 There are       13 alpha and       13 beta electrons
 Requested basis set is 6-311+G(2df,2pd)
 There are 60 shells and 186 basis functions

 Total QAlloc Memory Limit   2000 MB
 Mega-Array Size       188 MB
 MEM_STATIC part       192 MB

                       Distance Matrix (Angstroms)
             C (  1)   C (  2)   H (  3)   H (  4)   H (  5)   O (  6)
   C (  2)  1.409008
   H (  3)  1.079310  2.284978
   H (  4)  1.084800  1.976260  1.841496
   H (  5)  1.422774  1.685200  2.091665  2.036553
   O (  6)  2.411002  1.843804  3.184835  2.944360  1.242146
   H (  7)  1.976312  1.080643  3.015317  1.949404  2.179312  2.154432
   H (  8)  2.332593  1.083017  2.954819  3.016173  2.478451  2.261270
   H (  9)  3.050743  2.424078  3.625203  3.766244  1.897165  0.963687
             H (  7)   H (  8)
   H (  8)  1.823672
   H (  9)  2.939226  2.463754
 
 A cutoff of  1.0D-09 yielded   1775 shell pairs
 There are     17235 function pairs (     21420 Cartesian)
 Smallest overlap matrix eigenvalue = 9.85E-05

 Scale SEOQF with 1.000000e-02/1.000000e-01/1.000000e-01

 Standard Electronic Orientation quadrupole field applied
 Nucleus-field energy     =     0.0000000027 hartrees
 Requested basis set is 6-31G(d)
 There are 24 shells and 54 basis functions
 A cutoff of  1.0D-09 yielded    297 shell pairs
 There are      1548 function pairs (      1731 Cartesian)
 Smallest overlap matrix eigenvalue = 4.63E-03
 Guess from superposition of atomic densities
 Warning:  Energy on first SCF cycle will be non-variational
 SAD guess density has 26.000000 electrons
 Long-range K will be added via erf
 Coulomb attenuation parameter = 0.2 bohr**(-1)
 A restricted hybrid HF-DFT SCF calculation will be
 performed using Relaxed Constraint Minimization + Pulay DIIS
 Exchange:     0.2220 Hartree-Fock + 1.0000 wB97X-D + LR-HF
 Correlation:  1.0000 wB97X-D
 Using Euler-Maclaurin-Lebedev (75,302) quadrature formula
 Dispersion:   Grimme D
 SCF converges when DIIS error is below 1.0E-04
 using 6 threads for integral computing
 -------------------------------------------------------
 OpenMP Integral computing Module                
 Release: version 1.0, May 2013, Q-Chem Inc. Pittsburgh 
 -------------------------------------------------------
 using 6 threads for integral computing
 -------------------------------------------------------
 OpenMP Integral computing Module                
 Release: version 1.0, May 2013, Q-Chem Inc. Pittsburgh 
 -------------------------------------------------------
 ---------------------------------------
  Cycle       Energy         DIIS Error
 ---------------------------------------
    1    -155.2932844739      1.00E-01
    2    -154.7680487066      1.56E-02
    3    -154.8016905764      3.25E-03
    4    -154.8417932489      2.35E-03
    5    -154.8426771435      4.90E-04 Done RCA. Switching to DIIS
    6    -154.8437742848      3.09E-04
    7    -154.8438082523      4.22E-05 Convergence criterion met
 ---------------------------------------
 SCF time:  CPU 16.00 s  wall 2.68 s
 SCF   energy in the small basis set = -154.84380825
 Total energy in the small basis set = -154.84380825
 ----------------------------------------------------
  Cycle       Energy    
 ----------------------------------------------------
    1     -18.6795374399     -1.87E+01
 Long-range K will be added via erf
 Coulomb attenuation parameter = 0.2 bohr**(-1)
 A restricted hybrid HF-DFT SCF calculation will be
 performed using Relaxed Constraint Minimization + Pulay DIIS
 Exchange:     0.2220 Hartree-Fock + 1.0000 wB97X-D + LR-HF
 Correlation:  1.0000 wB97X-D
 Using Euler-Maclaurin-Lebedev (75,302) quadrature formula
 Dispersion:   Grimme D
 SCF converges when DIIS error is below 1.0E-05
 Basis2 calculation detected. Using small basis as guess for larger.
 SCFMinFind is unable to tell whether the solution found is close.
 Resetting ReadMinima to 0 and attempting to follow guess.
 SCFMinFind following SCF Guess.
 using 6 threads for integral computing
 -------------------------------------------------------
 OpenMP Integral computing Module                
 Release: version 1.0, May 2013, Q-Chem Inc. Pittsburgh 
 -------------------------------------------------------
 using 6 threads for integral computing
 -------------------------------------------------------
 OpenMP Integral computing Module                
 Release: version 1.0, May 2013, Q-Chem Inc. Pittsburgh 
 -------------------------------------------------------
 ---------------------------------------
  Cycle       Energy         DIIS Error
 ---------------------------------------
    1    -154.8701006387      5.98E-03
    2    -154.8660848686      4.41E-03
    3    -154.8873121310      1.00E-03 Done RCA. Switching to DIIS
    4    -154.9165081350      1.10E-03
    5    -154.9199944802      7.32E-05
    6    -154.9200213559      1.57E-05
    7    -154.9200233254      4.20E-06 Convergence criterion met
 ---------------------------------------
 SCF time:  CPU 49.33 s  wall 8.25 s
 SCF   energy in the final basis set = -154.92002333
 Total energy in the final basis set = -154.92002333
 
 --------------------------------------------------------------
 
                    Orbital Energies (a.u.)
 --------------------------------------------------------------
 
 Alpha MOs
 -- Occupied --
-19.2414 -10.3537 -10.2569  -1.0890  -0.8805  -0.6961  -0.6138  -0.5726
 -0.5145  -0.4454  -0.4328  -0.4242  -0.3077
 -- Virtual --
  0.0549   0.0697   0.0862   0.0970   0.1122   0.1302   0.1352   0.1472
  0.1782   0.1887   0.2225   0.2380   0.2456   0.2722   0.2804   0.2974
  0.3173   0.3321   0.3677   0.3932   0.4585   0.4746   0.4928   0.5450
  0.5577   0.5768   0.5900   0.5989   0.6222   0.6461   0.6551   0.6876
  0.7192   0.7451   0.7921   0.8234   0.8419   0.8857   0.8964   0.9450
  0.9757   1.0388   1.0580   1.0866   1.1015   1.1413   1.1446   1.2120
  1.2379   1.2671   1.2795   1.3034   1.3339   1.3629   1.4093   1.4173
  1.4460   1.4700   1.4952   1.5034   1.5544   1.5806   1.5920   1.6179
  1.7442   1.7946   1.8979   1.9622   2.0514   2.2696   2.3216   2.3952
  2.4917   2.5550   2.6606   2.6836   2.7047   2.7415   2.7876   2.8013
  2.8770   2.8926   2.9061   2.9559   3.0485   3.0506   3.0766   3.0945
  3.1113   3.1218   3.1780   3.1905   3.2562   3.2869   3.3227   3.3353
  3.3503   3.3797   3.4212   3.4629   3.4881   3.5110   3.5250   3.5405
  3.5742   3.5871   3.6330   3.6527   3.6928   3.7249   3.7630   3.8118
  3.8379   3.8767   3.9207   3.9386   3.9555   3.9814   4.0371   4.0452
  4.0813   4.1241   4.1419   4.1852   4.2153   4.2446   4.2752   4.2896
  4.3488   4.4271   4.4453   4.4921   4.5055   4.5203   4.6927   4.7185
  4.7891   4.8579   4.8695   4.9544   5.0036   5.0376   5.0682   5.1232
  5.1618   5.1918   5.2387   5.3055   5.3573   5.3743   5.4459   5.4823
  5.6852   5.7269   5.7538   5.8512   5.9796   6.1156   6.3363   6.4488
  6.6337   6.7244   6.7796   6.9342   7.1571   7.1905   7.4029   7.6427
  7.8018   8.1583  24.9706  25.3062  50.4346
 --------------------------------------------------------------
 
 -----------------------------------------------------------------
                    Cartesian Multipole Moments
 -----------------------------------------------------------------
    Charge (ESU x 10^10)
                -0.0000
    Dipole Moment (Debye)
         X       0.5590      Y       0.8221      Z      -1.3414
       Tot       1.6696
    Quadrupole Moments (Debye-Ang)
        XX     -24.9538     XY      -3.1229     YY     -19.1070
        XZ       2.8586     YZ       1.0039     ZZ     -21.1361
    Octopole Moments (Debye-Ang^2)
       XXX     305.9854    XXY      -3.6863    XYY      88.1952
       YYY     -35.2673    XXZ      -5.6052    XYZ      -6.3804
       YYZ      -1.5932    XZZ      91.5984    YZZ     -11.2648
       ZZZ      -7.9566
    Hexadecapole Moments (Debye-Ang^3)
      XXXX   -2814.7187   XXXY     172.2399   XXYY    -452.8021
      XYYY     172.1115   YYYY    -115.9499   XXXZ       3.2743
      XXYZ      38.6078   XYYZ      -0.7971   YYYZ       1.4636
      XXZZ    -430.0038   XYZZ      54.0442   YYZZ     -25.5086
      XZZZ      19.1713   YZZZ       3.0945   ZZZZ     -46.4001
 -----------------------------------------------------------------
Archival summary:
1\1\centos77-c1\SP\ProcedureUnspecified\BasisUnspecified\126\shihchen\WedJul2900:29:322020WedJul2900:29:322020\0\\#,ProcedureUnspecified,BasisUnspecified,\\0,1\C\H,1,1.08064\H,1,1.08302,2,114.888\C,1,1.40901,2,104.31,3,-165.762,0\H,4,1.07931,1,132.913,2,160.236,0\H,4,1.0848,1,104.076,2,10.474,0\H,4,1.42277,1,73.038,2,-94.2405,0\O,7,1.24215,4,129.446,1,3.69426,0\H,8,0.963687,7,118.099,4,-109.293,0\\\@

 Total job time:  13.18s(wall), 69.38s(cpu) 
 Wed Jul 29 00:29:32 2020

        *************************************************************
        *                                                           *
        *  Thank you very much for using Q-Chem.  Have a nice day.  *
        *                                                           *
        *************************************************************


