                  Welcome to Q-Chem
     A Quantum Leap Into The Future Of Chemistry


 Q-Chem 5.3 (devel), Q-Chem, Inc., Pleasanton, CA (2020)

 Yihan Shao,  Zhengting Gan,  E. Epifanovsky,  A. T. B. Gilbert,  M. Wormit,  
 J. Kussmann,  A. W. Lange,  A. Behn,  Jia Deng,  Xintian Feng,  D. Ghosh,  
 M. Goldey,  P. R. Horn,  L. D. Jacobson,  I. Kaliman,  T. Kus,  A. Landau,  
 Jie Liu,  E. I. Proynov,  R. M. Richard,  R. P. Steele,  E. J. Sundstrom,  
 H. L. Woodcock III,  P. M. Zimmerman,  D. Zuev,  B. Alam,  B. Albrecht,  
 E. Alguire,  S. A. Baeppler,  D. Barton,  Z. Benda,  Y. A. Bernard,  
 E. J. Berquist,  K. B. Bravaya,  H. Burton,  K. Carter-Fenk,  D. Casanova,  
 Chun-Min Chang,  Yunqing Chen,  A. Chien,  K. D. Closser,  M. P. Coons,  
 S. Coriani,  S. Dasgupta,  A. L. Dempwolff,  M. Diedenhofen,  Hainam Do,  
 R. G. Edgar,  Po-Tung Fang,  S. Faraji,  S. Fatehi,  Qingguo Feng,  
 J. Fosso-Tande,  J. Gayvert,  Qinghui Ge,  A. Ghysels,  G. Gidofalvi,  
 J. Gomes,  J. Gonthier,  A. Gunina,  D. Hait,  M. W. D. Hanson-Heine,  
 P. H. P. Harbach,  A. W. Hauser,  M. F. Herbst,  J. E. Herr,  
 E. G. Hohenstein,  Z. C. Holden,  Kerwin Hui,  B. C. Huynh,  T.-C. Jagau,  
 Hyunjun Ji,  B. Kaduk,  K. Khistyaev,  Jaehoon Kim,  P. Klunzinger,  K. Koh,  
 D. Kosenkov,  L. Koulias,  T. Kowalczyk,  C. M. Krauter,  A. Kunitsa,  
 Ka Un Lao,  A. Laurent,  K. V. Lawler,  Joonho Lee,  D. Lefrancois,  
 S. Lehtola,  D. S. Levine,  Yi-Pei Li,  You-Sheng Lin,  Fenglai Liu,  
 Kuan-Yu Liu,  E. Livshits,  M. Loipersberger,  A. Luenser,  P. Manohar,  
 E. Mansoor,  S. F. Manzer,  Shan-Ping Mao,  Yuezhi Mao,  N. Mardirossian,  
 A. V. Marenich,  T. Markovich,  L. A. Martinez-Martinez,  S. A. Maurer,  
 N. J. Mayhall,  S. C. McKenzie,  J.-M. Mewes,  P. Morgante,  A. F. Morrison,  
 J. W. Mullinax,  K. Nanda,  T. S. Nguyen-Beck,  R. Olivares-Amaya,  
 K. J. Oosterbaan,  J. A. Parkhill,  S. K. Paul,  F. Pavosevic,  Zheng Pei,  
 T. M. Perrine,  F. Plasser,  P. Pokhilko,  S. Prager,  A. Prociuk,  
 E. Ramos,  B. Rana,  D. R. Rehn,  F. Rob,  M. Scheurer,  M. Schneider,  
 N. Sergueev,  S. M. Sharada,  S. Sharma,  D. W. Small,  T. Stauch,  
 C. J. Stein,  T. Stein,  Yu-Chuan Su,  S. P. Veccham,  Zhen Tao,  
 A. J. W. Thom,  A. Tkatchenko,  T. Tsuchimochi,  N. M. Tubman,  L. Vogt,  
 M. L. Vidal,  O. Vydrov,  M. A. Watson,  J. Wenzel,  M. de Wergifosse,  
 T. A. Wesolowski,  A. White,  J. Witte,  A. Yamada,  Jun Yang,  K. Yao,  
 S. Yeganeh,  S. R. Yost,  Zhi-Qiang You,  A. Zech,  Igor Ying Zhang,  
 Xing Zhang,  Yan Zhao,  Ying Zhu,  B. R. Brooks,  G. K. L. Chan,  
 C. J. Cramer,  M. S. Gordon,  W. J. Hehre,  A. Klamt,  M. W. Schmidt,  
 C. D. Sherrill,  D. G. Truhlar,  A. Aspuru-Guzik,  R. Baer,  A. T. Bell,  
 N. A. Besley,  Jeng-Da Chai,  A. E. DePrince, III,  R. A. DiStasio Jr.,  
 A. Dreuw,  B. D. Dunietz,  T. R. Furlani,  Chao-Ping Hsu,  Yousung Jung,  
 Jing Kong,  D. S. Lambrecht,  WanZhen Liang,  C. Ochsenfeld,  
 V. A. Rassolov,  L. V. Slipchenko,  J. E. Subotnik,  T. Van Voorhis,  
 J. M. Herbert,  A. I. Krylov,  P. M. W. Gill,  M. Head-Gordon

 Contributors to earlier versions of Q-Chem not listed above: 
 R. D. Adamson,  B. Austin,  J. Baker,  G. J. O. Beran,  K. Brandhorst,  
 S. T. Brown,  E. F. C. Byrd,  A. K. Chakraborty,  C.-L. Cheng,  
 Siu Hung Chien,  D. M. Chipman,  D. L. Crittenden,  H. Dachsel,  
 R. J. Doerksen,  A. D. Dutoi,  L. Fusti-Molnar,  W. A. Goddard III,  
 A. Golubeva-Zadorozhnaya,  S. R. Gwaltney,  G. Hawkins,  A. Heyden,  
 S. Hirata,  G. Kedziora,  F. J. Keil,  C. Kelley,  Jihan Kim,  R. A. King,  
 R. Z. Khaliullin,  P. P. Korambath,  W. Kurlancheek,  A. M. Lee,  M. S. Lee,  
 S. V. Levchenko,  Ching Yeh Lin,  D. Liotard,  R. C. Lochan,  I. Lotan,  
 P. E. Maslen,  N. Nair,  D. P. O'Neill,  D. Neuhauser,  E. Neuscamman,  
 C. M. Oana,  R. Olson,  B. Peters,  R. Peverati,  P. A. Pieniazek,  
 Y. M. Rhee,  J. Ritchie,  M. A. Rohrdanz,  E. Rosta,  N. J. Russ,  
 H. F. Schaefer III,  N. E. Schultz,  N. Shenvi,  A. C. Simmonett,  A. Sodt,  
 D. Stuck,  K. S. Thanthiriwatte,  V. Vanovschi,  Tao Wang,  A. Warshel,  
 C. F. Williams,  Q. Wu,  X. Xu,  W. Zhang

 Please cite Q-Chem as follows:
 Y. Shao et al., Mol. Phys. 113, 184-215 (2015)
 DOI: 10.1080/00268976.2014.952696

 Q-Chem 5.3.0 for Intel X86 EM64T Linux

 Parts of Q-Chem use Armadillo 9.800.1 (Horizon Scraper).
 http://arma.sourceforge.net/

 Q-Chem begins on Wed Jul 29 00:48:46 2020  

Host: centos77-c1
0

     Scratch files written to /tmp/30084.centos77-h1/qchem31440//
Processing $rem in /opt/qchem-5.3.0-intel2020u1//config/preferences:
Processing $rem in /home/shihchengli/.qchemrc:

Checking the input file for inconsistencies... 	...done.

--------------------------------------------------------------
User input:
--------------------------------------------------------------
$rem
   JOBTYPE  sp
   EXCHANGE   omegaB97X-D
   BASIS   6-311+G(2df,2pd)
   UNRESTRICTED   False
   max_scf_cycles   250
   geom_opt_max_cycles   1500
   basis2 6-31G*
   scf_algorithm rca_diis
   SYM_IGNORE  TRUE
   print_input   true
   geom_opt_dmax   80
   pop_mulliken false
   XC_GRID 000075000302
$end

$molecule
0 1
C       -5.5547558972     0.5433264385     -0.0363246656
C       -4.4094819315     1.3617587240     0.0521732508
H       -5.9520632842     0.2825311385     -1.1415713776
H       -6.2099545990     0.5767097435     0.6488607849
H       -4.4710240681     -0.3077137886     0.3079643710
O       -3.2922834828     -0.0188826139     0.5871353795
H       -4.2325059505     2.0179691169     1.0146442523
H       -3.9073000331     1.6787981980     -0.7722108589
H       -2.6513631508     -0.2713596998     -0.0877809731
$end
--------------------------------------------------------------
 ----------------------------------------------------------------
             Standard Nuclear Orientation (Angstroms)
    I     Atom           X                Y                Z
 ----------------------------------------------------------------
    1      C      -5.5547558972     0.5433264385    -0.0363246656
    2      C      -4.4094819315     1.3617587240     0.0521732508
    3      H      -5.9520632842     0.2825311385    -1.1415713776
    4      H      -6.2099545990     0.5767097435     0.6488607849
    5      H      -4.4710240681    -0.3077137886     0.3079643710
    6      O      -3.2922834828    -0.0188826139     0.5871353795
    7      H      -4.2325059505     2.0179691169     1.0146442523
    8      H      -3.9073000331     1.6787981980    -0.7722108589
    9      H      -2.6513631508    -0.2713596998    -0.0877809731
 ----------------------------------------------------------------
 Nuclear Repulsion Energy =          79.43261432 hartrees
 There are       13 alpha and       13 beta electrons
 Requested basis set is 6-311+G(2df,2pd)
 There are 60 shells and 186 basis functions

 Total QAlloc Memory Limit   2000 MB
 Mega-Array Size       188 MB
 MEM_STATIC part       192 MB

                       Distance Matrix (Angstroms)
             C (  1)   C (  2)   H (  3)   H (  4)   H (  5)   O (  6)
   C (  2)  1.410431
   H (  3)  1.203095  2.229196
   H (  4)  0.948619  2.052813  1.832675
   H (  5)  1.420310  1.690075  2.154767  1.980478
   O (  6)  2.413206  1.854855  3.186488  2.978480  1.245307
   H (  7)  2.242198  1.178254  3.258510  2.474132  2.442353  2.283757
   H (  8)  2.131885  1.016026  2.503407  2.921688  2.330406  2.260130
   H (  9)  3.015966  2.403673  3.508830  3.731680  1.862553  0.964384
             H (  7)   H (  8)
   H (  8)  1.847606
   H (  9)  2.992721  2.418458
 
 A cutoff of  1.0D-09 yielded   1775 shell pairs
 There are     17213 function pairs (     21386 Cartesian)
 Smallest overlap matrix eigenvalue = 8.92E-05

 Scale SEOQF with 1.000000e-02/1.000000e-01/1.000000e-01

 Standard Electronic Orientation quadrupole field applied
 Nucleus-field energy     =     0.0000000027 hartrees
 Requested basis set is 6-31G(d)
 There are 24 shells and 54 basis functions
 A cutoff of  1.0D-09 yielded    297 shell pairs
 There are      1548 function pairs (      1731 Cartesian)
 Smallest overlap matrix eigenvalue = 6.74E-03
 Guess from superposition of atomic densities
 Warning:  Energy on first SCF cycle will be non-variational
 SAD guess density has 26.000000 electrons
 Long-range K will be added via erf
 Coulomb attenuation parameter = 0.2 bohr**(-1)
 A restricted hybrid HF-DFT SCF calculation will be
 performed using Relaxed Constraint Minimization + Pulay DIIS
 Exchange:     0.2220 Hartree-Fock + 1.0000 wB97X-D + LR-HF
 Correlation:  1.0000 wB97X-D
 Using Euler-Maclaurin-Lebedev (75,302) quadrature formula
 Dispersion:   Grimme D
 SCF converges when DIIS error is below 1.0E-04
 using 6 threads for integral computing
 -------------------------------------------------------
 OpenMP Integral computing Module                
 Release: version 1.0, May 2013, Q-Chem Inc. Pittsburgh 
 -------------------------------------------------------
 using 6 threads for integral computing
 -------------------------------------------------------
 OpenMP Integral computing Module                
 Release: version 1.0, May 2013, Q-Chem Inc. Pittsburgh 
 -------------------------------------------------------
 ---------------------------------------
  Cycle       Energy         DIIS Error
 ---------------------------------------
    1    -155.2442733432      1.00E-01
    2    -154.7511259596      1.59E-02
    3    -154.7867574745      3.29E-03
    4    -154.8280661863      2.59E-03
    5    -154.8290893639      5.15E-04 Done RCA. Switching to DIIS
    6    -154.8304054553      3.19E-04
    7    -154.8304456002      4.21E-05 Convergence criterion met
 ---------------------------------------
 SCF time:  CPU 20.06 s  wall 3.36 s
 SCF   energy in the small basis set = -154.83044560
 Total energy in the small basis set = -154.83044560
 ----------------------------------------------------
  Cycle       Energy    
 ----------------------------------------------------
    1     -18.6780465254     -1.87E+01
 Long-range K will be added via erf
 Coulomb attenuation parameter = 0.2 bohr**(-1)
 A restricted hybrid HF-DFT SCF calculation will be
 performed using Relaxed Constraint Minimization + Pulay DIIS
 Exchange:     0.2220 Hartree-Fock + 1.0000 wB97X-D + LR-HF
 Correlation:  1.0000 wB97X-D
 Using Euler-Maclaurin-Lebedev (75,302) quadrature formula
 Dispersion:   Grimme D
 SCF converges when DIIS error is below 1.0E-05
 Basis2 calculation detected. Using small basis as guess for larger.
 SCFMinFind is unable to tell whether the solution found is close.
 Resetting ReadMinima to 0 and attempting to follow guess.
 SCFMinFind following SCF Guess.
 using 6 threads for integral computing
 -------------------------------------------------------
 OpenMP Integral computing Module                
 Release: version 1.0, May 2013, Q-Chem Inc. Pittsburgh 
 -------------------------------------------------------
 using 6 threads for integral computing
 -------------------------------------------------------
 OpenMP Integral computing Module                
 Release: version 1.0, May 2013, Q-Chem Inc. Pittsburgh 
 -------------------------------------------------------
 ---------------------------------------
  Cycle       Energy         DIIS Error
 ---------------------------------------
    1    -154.8576166909      5.97E-03
    2    -154.8536182350      4.39E-03
    3    -154.8745996729      1.00E-03
    4    -154.9034683019      1.10E-03
    5    -154.9049766030      1.80E-04 Done RCA. Switching to DIIS
    6    -154.9068961640      2.17E-04
    7    -154.9070339567      8.17E-06 Convergence criterion met
 ---------------------------------------
 SCF time:  CPU 62.90 s  wall 10.52 s
 SCF   energy in the final basis set = -154.90703396
 Total energy in the final basis set = -154.90703396
 
 --------------------------------------------------------------
 
                    Orbital Energies (a.u.)
 --------------------------------------------------------------
 
 Alpha MOs
 -- Occupied --
-19.2431 -10.3566 -10.2522  -1.0889  -0.8761  -0.7046  -0.6123  -0.5673
 -0.5083  -0.4614  -0.4328  -0.4270  -0.3059
 -- Virtual --
  0.0526   0.0677   0.0888   0.0958   0.1130   0.1274   0.1379   0.1489
  0.1748   0.1858   0.2050   0.2384   0.2580   0.2753   0.2851   0.2960
  0.3232   0.3297   0.3627   0.3956   0.4620   0.4654   0.4930   0.5447
  0.5657   0.5763   0.5797   0.6028   0.6098   0.6240   0.6515   0.6909
  0.7267   0.7468   0.8030   0.8292   0.8456   0.8811   0.9105   0.9353
  0.9850   1.0089   1.0608   1.1029   1.1297   1.1459   1.1735   1.1850
  1.2289   1.2528   1.2650   1.3045   1.3279   1.3510   1.4137   1.4207
  1.4222   1.4515   1.4533   1.4765   1.5363   1.5791   1.6212   1.6638
  1.7352   1.7875   1.9180   2.0007   2.0612   2.2640   2.3124   2.4238
  2.4661   2.5318   2.6444   2.6636   2.7109   2.7477   2.7832   2.7981
  2.8717   2.8845   2.9524   2.9690   3.0073   3.0482   3.0625   3.0732
  3.0882   3.1311   3.1663   3.1911   3.2416   3.2531   3.3180   3.3364
  3.3534   3.3691   3.4217   3.4502   3.4622   3.5034   3.5418   3.5449
  3.5553   3.6055   3.6384   3.6535   3.6845   3.7181   3.7510   3.7987
  3.8305   3.8761   3.8971   3.9054   3.9423   3.9706   4.0449   4.0709
  4.0907   4.1211   4.1652   4.1854   4.2024   4.2149   4.2820   4.3060
  4.3347   4.3452   4.4269   4.4475   4.4964   4.5205   4.6278   4.7093
  4.7330   4.7510   4.7806   4.8258   4.8911   5.0179   5.0358   5.0968
  5.1759   5.2542   5.2818   5.3937   5.4253   5.4643   5.5573   5.5768
  5.6432   5.7350   5.7826   5.8145   6.0056   6.0656   6.2736   6.4122
  6.5342   6.6249   6.7335   6.8785   7.1651   7.2255   7.4121   7.6190
  7.7782   8.1746  24.8923  25.2568  50.4368
 --------------------------------------------------------------
 
 -----------------------------------------------------------------
                    Cartesian Multipole Moments
 -----------------------------------------------------------------
    Charge (ESU x 10^10)
                 0.0000
    Dipole Moment (Debye)
         X       0.4873      Y       0.9477      Z      -1.4323
       Tot       1.7853
    Quadrupole Moments (Debye-Ang)
        XX     -24.8821     XY      -3.7013     YY     -19.1260
        XZ       3.1431     YZ       0.8797     ZZ     -20.7737
    Octopole Moments (Debye-Ang^2)
       XXX     307.6787    XXY      -1.1645    XYY      88.3993
       YYY     -34.7187    XXZ      -6.8462    XYZ      -4.5463
       YYZ      -2.0636    XZZ      90.0281    YZZ     -10.4726
       ZZZ     -11.7571
    Hexadecapole Moments (Debye-Ang^3)
      XXXX   -2828.7697   XXXY     161.5091   XXYY    -455.9355
      XYYY     169.9137   YYYY    -116.5108   XXXZ       7.6328
      XXYZ      23.5858   XYYZ       2.9366   YYYZ       0.9754
      XXZZ    -423.6400   XYZZ      51.1291   YYZZ     -25.0252
      XZZZ      35.7973   YZZZ      -0.4166   ZZZZ     -48.6361
 -----------------------------------------------------------------
Archival summary:
1\1\centos77-c1\SP\ProcedureUnspecified\BasisUnspecified\126\shihchen\WedJul2900:49:032020WedJul2900:49:032020\0\\#,ProcedureUnspecified,BasisUnspecified,\\0,1\C\H,1,1.01603\H,1,1.17825,2,114.504\C,1,1.41043,2,122.107,3,158.44,0\H,4,0.948619,1,119.676,2,-152.586,0\H,4,1.2031,1,116.845,2,-3.27062,0\H,4,1.42031,1,73.316,2,101.309,0\O,7,1.24531,4,129.614,1,5.76709,0\H,8,0.964384,7,114.296,4,-109.293,0\\\@

 Total job time:  17.04s(wall), 88.42s(cpu) 
 Wed Jul 29 00:49:03 2020

        *************************************************************
        *                                                           *
        *  Thank you very much for using Q-Chem.  Have a nice day.  *
        *                                                           *
        *************************************************************


