                  Welcome to Q-Chem
     A Quantum Leap Into The Future Of Chemistry


 Q-Chem 5.3 (devel), Q-Chem, Inc., Pleasanton, CA (2020)

 Yihan Shao,  Zhengting Gan,  E. Epifanovsky,  A. T. B. Gilbert,  M. Wormit,  
 J. Kussmann,  A. W. Lange,  A. Behn,  Jia Deng,  Xintian Feng,  D. Ghosh,  
 M. Goldey,  P. R. Horn,  L. D. Jacobson,  I. Kaliman,  T. Kus,  A. Landau,  
 Jie Liu,  E. I. Proynov,  R. M. Richard,  R. P. Steele,  E. J. Sundstrom,  
 H. L. Woodcock III,  P. M. Zimmerman,  D. Zuev,  B. Alam,  B. Albrecht,  
 E. Alguire,  S. A. Baeppler,  D. Barton,  Z. Benda,  Y. A. Bernard,  
 E. J. Berquist,  K. B. Bravaya,  H. Burton,  K. Carter-Fenk,  D. Casanova,  
 Chun-Min Chang,  Yunqing Chen,  A. Chien,  K. D. Closser,  M. P. Coons,  
 S. Coriani,  S. Dasgupta,  A. L. Dempwolff,  M. Diedenhofen,  Hainam Do,  
 R. G. Edgar,  Po-Tung Fang,  S. Faraji,  S. Fatehi,  Qingguo Feng,  
 J. Fosso-Tande,  J. Gayvert,  Qinghui Ge,  A. Ghysels,  G. Gidofalvi,  
 J. Gomes,  J. Gonthier,  A. Gunina,  D. Hait,  M. W. D. Hanson-Heine,  
 P. H. P. Harbach,  A. W. Hauser,  M. F. Herbst,  J. E. Herr,  
 E. G. Hohenstein,  Z. C. Holden,  Kerwin Hui,  B. C. Huynh,  T.-C. Jagau,  
 Hyunjun Ji,  B. Kaduk,  K. Khistyaev,  Jaehoon Kim,  P. Klunzinger,  K. Koh,  
 D. Kosenkov,  L. Koulias,  T. Kowalczyk,  C. M. Krauter,  A. Kunitsa,  
 Ka Un Lao,  A. Laurent,  K. V. Lawler,  Joonho Lee,  D. Lefrancois,  
 S. Lehtola,  D. S. Levine,  Yi-Pei Li,  You-Sheng Lin,  Fenglai Liu,  
 Kuan-Yu Liu,  E. Livshits,  M. Loipersberger,  A. Luenser,  P. Manohar,  
 E. Mansoor,  S. F. Manzer,  Shan-Ping Mao,  Yuezhi Mao,  N. Mardirossian,  
 A. V. Marenich,  T. Markovich,  L. A. Martinez-Martinez,  S. A. Maurer,  
 N. J. Mayhall,  S. C. McKenzie,  J.-M. Mewes,  P. Morgante,  A. F. Morrison,  
 J. W. Mullinax,  K. Nanda,  T. S. Nguyen-Beck,  R. Olivares-Amaya,  
 K. J. Oosterbaan,  J. A. Parkhill,  S. K. Paul,  F. Pavosevic,  Zheng Pei,  
 T. M. Perrine,  F. Plasser,  P. Pokhilko,  S. Prager,  A. Prociuk,  
 E. Ramos,  B. Rana,  D. R. Rehn,  F. Rob,  M. Scheurer,  M. Schneider,  
 N. Sergueev,  S. M. Sharada,  S. Sharma,  D. W. Small,  T. Stauch,  
 C. J. Stein,  T. Stein,  Yu-Chuan Su,  S. P. Veccham,  Zhen Tao,  
 A. J. W. Thom,  A. Tkatchenko,  T. Tsuchimochi,  N. M. Tubman,  L. Vogt,  
 M. L. Vidal,  O. Vydrov,  M. A. Watson,  J. Wenzel,  M. de Wergifosse,  
 T. A. Wesolowski,  A. White,  J. Witte,  A. Yamada,  Jun Yang,  K. Yao,  
 S. Yeganeh,  S. R. Yost,  Zhi-Qiang You,  A. Zech,  Igor Ying Zhang,  
 Xing Zhang,  Yan Zhao,  Ying Zhu,  B. R. Brooks,  G. K. L. Chan,  
 C. J. Cramer,  M. S. Gordon,  W. J. Hehre,  A. Klamt,  M. W. Schmidt,  
 C. D. Sherrill,  D. G. Truhlar,  A. Aspuru-Guzik,  R. Baer,  A. T. Bell,  
 N. A. Besley,  Jeng-Da Chai,  A. E. DePrince, III,  R. A. DiStasio Jr.,  
 A. Dreuw,  B. D. Dunietz,  T. R. Furlani,  Chao-Ping Hsu,  Yousung Jung,  
 Jing Kong,  D. S. Lambrecht,  WanZhen Liang,  C. Ochsenfeld,  
 V. A. Rassolov,  L. V. Slipchenko,  J. E. Subotnik,  T. Van Voorhis,  
 J. M. Herbert,  A. I. Krylov,  P. M. W. Gill,  M. Head-Gordon

 Contributors to earlier versions of Q-Chem not listed above: 
 R. D. Adamson,  B. Austin,  J. Baker,  G. J. O. Beran,  K. Brandhorst,  
 S. T. Brown,  E. F. C. Byrd,  A. K. Chakraborty,  C.-L. Cheng,  
 Siu Hung Chien,  D. M. Chipman,  D. L. Crittenden,  H. Dachsel,  
 R. J. Doerksen,  A. D. Dutoi,  L. Fusti-Molnar,  W. A. Goddard III,  
 A. Golubeva-Zadorozhnaya,  S. R. Gwaltney,  G. Hawkins,  A. Heyden,  
 S. Hirata,  G. Kedziora,  F. J. Keil,  C. Kelley,  Jihan Kim,  R. A. King,  
 R. Z. Khaliullin,  P. P. Korambath,  W. Kurlancheek,  A. M. Lee,  M. S. Lee,  
 S. V. Levchenko,  Ching Yeh Lin,  D. Liotard,  R. C. Lochan,  I. Lotan,  
 P. E. Maslen,  N. Nair,  D. P. O'Neill,  D. Neuhauser,  E. Neuscamman,  
 C. M. Oana,  R. Olson,  B. Peters,  R. Peverati,  P. A. Pieniazek,  
 Y. M. Rhee,  J. Ritchie,  M. A. Rohrdanz,  E. Rosta,  N. J. Russ,  
 H. F. Schaefer III,  N. E. Schultz,  N. Shenvi,  A. C. Simmonett,  A. Sodt,  
 D. Stuck,  K. S. Thanthiriwatte,  V. Vanovschi,  Tao Wang,  A. Warshel,  
 C. F. Williams,  Q. Wu,  X. Xu,  W. Zhang

 Please cite Q-Chem as follows:
 Y. Shao et al., Mol. Phys. 113, 184-215 (2015)
 DOI: 10.1080/00268976.2014.952696

 Q-Chem 5.3.0 for Intel X86 EM64T Linux

 Parts of Q-Chem use Armadillo 9.800.1 (Horizon Scraper).
 http://arma.sourceforge.net/

 Q-Chem begins on Wed Jul 29 00:46:53 2020  

Host: centos77-c1
0

     Scratch files written to /tmp/30084.centos77-h1/qchem31184//
Processing $rem in /opt/qchem-5.3.0-intel2020u1//config/preferences:
Processing $rem in /home/shihchengli/.qchemrc:

Checking the input file for inconsistencies... 	...done.

--------------------------------------------------------------
User input:
--------------------------------------------------------------
$rem
   JOBTYPE  sp
   EXCHANGE   omegaB97X-D
   BASIS   6-311+G(2df,2pd)
   UNRESTRICTED   False
   max_scf_cycles   250
   geom_opt_max_cycles   1500
   basis2 6-31G*
   scf_algorithm rca_diis
   SYM_IGNORE  TRUE
   print_input   true
   geom_opt_dmax   80
   pop_mulliken false
   XC_GRID 000075000302
$end

$molecule
0 1
C       -5.5427590168     0.5355584332     -0.0698083472
C       -4.4155588296     1.3578949437     0.0692089994
H       -5.9096474820     0.3028326963     -1.1035344409
H       -6.3226426165     0.5607334766     0.7332988712
H       -4.4667952215     -0.3124199796     0.2903069983
O       -3.2923978376     -0.0221421558     0.5881270491
H       -4.2541160563     1.9843467122     1.0002433447
H       -3.8354861718     1.7299002028     -0.8588348275
H       -2.6413291651     -0.2735670723     -0.0761174838
$end
--------------------------------------------------------------
 ----------------------------------------------------------------
             Standard Nuclear Orientation (Angstroms)
    I     Atom           X                Y                Z
 ----------------------------------------------------------------
    1      C      -5.5427590168     0.5355584332    -0.0698083472
    2      C      -4.4155588296     1.3578949437     0.0692089994
    3      H      -5.9096474820     0.3028326963    -1.1035344409
    4      H      -6.3226426165     0.5607334766     0.7332988712
    5      H      -4.4667952215    -0.3124199796     0.2903069983
    6      O      -3.2923978376    -0.0221421558     0.5881270491
    7      H      -4.2541160563     1.9843467122     1.0002433447
    8      H      -3.8354861718     1.7299002028    -0.8588348275
    9      H      -2.6413291651    -0.2735670723    -0.0761174838
 ----------------------------------------------------------------
 Nuclear Repulsion Energy =          78.72939692 hartrees
 There are       13 alpha and       13 beta electrons
 Requested basis set is 6-311+G(2df,2pd)
 There are 60 shells and 186 basis functions

 Total QAlloc Memory Limit   2000 MB
 Mega-Array Size       188 MB
 MEM_STATIC part       192 MB

                       Distance Matrix (Angstroms)
             C (  1)   C (  2)   H (  3)   H (  4)   H (  5)   O (  6)
   C (  2)  1.402192
   H (  3)  1.121320  2.172737
   H (  4)  1.119747  2.171048  1.900272
   H (  5)  1.416492  1.685664  2.098369  2.098287
   O (  6)  2.409986  1.853448  3.133261  3.089207  1.245860
   H (  7)  2.214633  1.133724  3.161353  2.525220  2.413375  2.262905
   H (  8)  2.227958  1.155914  2.529534  3.176128  2.426963  2.336300
   H (  9)  3.012145  2.414680  3.474151  3.860477  1.862284  0.963497
             H (  7)   H (  8)
   H (  8)  1.922541
   H (  9)  2.976207  2.460191
 
 A cutoff of  1.0D-09 yielded   1774 shell pairs
 There are     17233 function pairs (     21409 Cartesian)
 Smallest overlap matrix eigenvalue = 8.57E-05

 Scale SEOQF with 1.000000e-02/1.000000e-01/1.000000e-01

 Standard Electronic Orientation quadrupole field applied
 Nucleus-field energy     =     0.0000000026 hartrees
 Requested basis set is 6-31G(d)
 There are 24 shells and 54 basis functions
 A cutoff of  1.0D-09 yielded    297 shell pairs
 There are      1548 function pairs (      1731 Cartesian)
 Smallest overlap matrix eigenvalue = 6.72E-03
 Guess from superposition of atomic densities
 Warning:  Energy on first SCF cycle will be non-variational
 SAD guess density has 26.000000 electrons
 Long-range K will be added via erf
 Coulomb attenuation parameter = 0.2 bohr**(-1)
 A restricted hybrid HF-DFT SCF calculation will be
 performed using Relaxed Constraint Minimization + Pulay DIIS
 Exchange:     0.2220 Hartree-Fock + 1.0000 wB97X-D + LR-HF
 Correlation:  1.0000 wB97X-D
 Using Euler-Maclaurin-Lebedev (75,302) quadrature formula
 Dispersion:   Grimme D
 SCF converges when DIIS error is below 1.0E-04
 using 6 threads for integral computing
 -------------------------------------------------------
 OpenMP Integral computing Module                
 Release: version 1.0, May 2013, Q-Chem Inc. Pittsburgh 
 -------------------------------------------------------
 using 6 threads for integral computing
 -------------------------------------------------------
 OpenMP Integral computing Module                
 Release: version 1.0, May 2013, Q-Chem Inc. Pittsburgh 
 -------------------------------------------------------
 ---------------------------------------
  Cycle       Energy         DIIS Error
 ---------------------------------------
    1    -155.1638628873      9.59E-02
    2    -154.7787363911      1.58E-02
    3    -154.8127558983      3.26E-03
    4    -154.8546535780      2.22E-03
    5    -154.8555058713      4.87E-04 Done RCA. Switching to DIIS
    6    -154.8564888235      3.80E-04
    7    -154.8565328374      4.14E-05 Convergence criterion met
 ---------------------------------------
 SCF time:  CPU 19.66 s  wall 3.30 s
 SCF   energy in the small basis set = -154.85653284
 Total energy in the small basis set = -154.85653284
 ----------------------------------------------------
  Cycle       Energy    
 ----------------------------------------------------
    1     -18.6115730132     -1.86E+01
 Long-range K will be added via erf
 Coulomb attenuation parameter = 0.2 bohr**(-1)
 A restricted hybrid HF-DFT SCF calculation will be
 performed using Relaxed Constraint Minimization + Pulay DIIS
 Exchange:     0.2220 Hartree-Fock + 1.0000 wB97X-D + LR-HF
 Correlation:  1.0000 wB97X-D
 Using Euler-Maclaurin-Lebedev (75,302) quadrature formula
 Dispersion:   Grimme D
 SCF converges when DIIS error is below 1.0E-05
 Basis2 calculation detected. Using small basis as guess for larger.
 SCFMinFind is unable to tell whether the solution found is close.
 Resetting ReadMinima to 0 and attempting to follow guess.
 SCFMinFind following SCF Guess.
 using 6 threads for integral computing
 -------------------------------------------------------
 OpenMP Integral computing Module                
 Release: version 1.0, May 2013, Q-Chem Inc. Pittsburgh 
 -------------------------------------------------------
 using 6 threads for integral computing
 -------------------------------------------------------
 OpenMP Integral computing Module                
 Release: version 1.0, May 2013, Q-Chem Inc. Pittsburgh 
 -------------------------------------------------------
 ---------------------------------------
  Cycle       Energy         DIIS Error
 ---------------------------------------
    1    -154.8814757244      5.97E-03
    2    -154.8773410130      4.40E-03
    3    -154.8984238482      1.00E-03
    4    -154.9274320120      1.10E-03
    5    -154.9289390921      1.79E-04 Done RCA. Switching to DIIS
    6    -154.9308561107      2.14E-04
    7    -154.9309917697      8.44E-06 Convergence criterion met
 ---------------------------------------
 SCF time:  CPU 67.26 s  wall 11.25 s
 SCF   energy in the final basis set = -154.93099177
 Total energy in the final basis set = -154.93099177
 
 --------------------------------------------------------------
 
                    Orbital Energies (a.u.)
 --------------------------------------------------------------
 
 Alpha MOs
 -- Occupied --
-19.2421 -10.3658 -10.2627  -1.0882  -0.8718  -0.6830  -0.6087  -0.5594
 -0.5044  -0.4543  -0.4321  -0.4264  -0.3062
 -- Virtual --
  0.0535   0.0676   0.0888   0.0953   0.1128   0.1277   0.1369   0.1484
  0.1723   0.1875   0.2027   0.2374   0.2434   0.2738   0.2839   0.2936
  0.3205   0.3260   0.3600   0.3953   0.4624   0.4644   0.4915   0.5447
  0.5560   0.5747   0.5776   0.5997   0.6097   0.6252   0.6376   0.6657
  0.7011   0.7515   0.7996   0.8283   0.8333   0.8755   0.9018   0.9376
  0.9813   0.9944   1.0567   1.0860   1.1254   1.1438   1.1625   1.1843
  1.2222   1.2490   1.2603   1.2922   1.3152   1.3509   1.3974   1.4165
  1.4303   1.4393   1.4630   1.4775   1.5116   1.5467   1.5609   1.6378
  1.7076   1.7873   1.9132   2.0010   2.0613   2.2621   2.3093   2.4499
  2.4947   2.5746   2.6420   2.6725   2.6992   2.7546   2.7736   2.7802
  2.8647   2.8846   2.9303   2.9572   2.9804   3.0144   3.0413   3.0629
  3.0836   3.1292   3.1571   3.2188   3.2368   3.2557   3.2993   3.3143
  3.3286   3.3899   3.4041   3.4171   3.4438   3.4929   3.5166   3.5368
  3.5647   3.6072   3.6139   3.6370   3.6799   3.7228   3.7305   3.8102
  3.8236   3.8387   3.8452   3.8919   3.8979   3.9168   4.0259   4.0583
  4.0894   4.0904   4.1476   4.1758   4.2125   4.2206   4.2516   4.3006
  4.3064   4.3337   4.4015   4.4181   4.4574   4.5120   4.5829   4.6362
  4.6717   4.7250   4.7567   4.8330   4.8789   4.8879   4.9631   5.0160
  5.0239   5.0741   5.1212   5.1640   5.2449   5.3433   5.4278   5.4353
  5.5243   5.5359   5.7725   5.8128   5.9999   6.0271   6.1507   6.1927
  6.3644   6.6284   6.7331   6.8767   7.1598   7.2237   7.4086   7.6255
  7.7764   8.1787  24.7956  25.1964  50.4410
 --------------------------------------------------------------
 
 -----------------------------------------------------------------
                    Cartesian Multipole Moments
 -----------------------------------------------------------------
    Charge (ESU x 10^10)
                 0.0000
    Dipole Moment (Debye)
         X       0.4499      Y       0.9234      Z      -1.4315
       Tot       1.7619
    Quadrupole Moments (Debye-Ang)
        XX     -24.5427     XY      -3.6047     YY     -19.3330
        XZ       3.1685     YZ       0.9592     ZZ     -20.8332
    Octopole Moments (Debye-Ang^2)
       XXX     305.5202    XXY      -1.6531    XYY      89.4024
       YYY     -35.1938    XXZ      -6.9751    XYZ      -4.9578
       YYZ      -1.9606    XZZ      90.2150    YZZ     -10.4025
       ZZZ     -11.7724
    Hexadecapole Moments (Debye-Ang^3)
      XXXX   -2819.2137   XXXY     164.3016   XXYY    -461.4707
      XYYY     171.9880   YYYY    -117.8748   XXXZ       8.8769
      XXYZ      25.8666   XYYZ       2.8199   YYYZ       2.0696
      XXZZ    -424.3272   XYZZ      50.8305   YYZZ     -25.1715
      XZZZ      36.9787   YZZZ       0.2743   ZZZZ     -49.5574
 -----------------------------------------------------------------
Archival summary:
1\1\centos77-c1\SP\ProcedureUnspecified\BasisUnspecified\126\shihchen\WedJul2900:47:112020WedJul2900:47:112020\0\\#,ProcedureUnspecified,BasisUnspecified,\\0,1\C\H,1,1.13372\H,1,1.15591,2,114.207\C,1,1.40219,2,121.329,3,-158.677,0\H,4,1.11975,1,118.398,2,4.05363,0\H,4,1.12132,1,118.434,2,153.251,0\H,4,1.41649,1,73.4562,2,-101.404,0\O,7,1.24586,4,129.592,1,4.27841,0\H,8,0.963497,7,114.291,4,-109.293,0\\\@

 Total job time:  17.62s(wall), 92.13s(cpu) 
 Wed Jul 29 00:47:11 2020

        *************************************************************
        *                                                           *
        *  Thank you very much for using Q-Chem.  Have a nice day.  *
        *                                                           *
        *************************************************************


