                  Welcome to Q-Chem
     A Quantum Leap Into The Future Of Chemistry


 Q-Chem 5.3 (devel), Q-Chem, Inc., Pleasanton, CA (2020)

 Yihan Shao,  Zhengting Gan,  E. Epifanovsky,  A. T. B. Gilbert,  M. Wormit,  
 J. Kussmann,  A. W. Lange,  A. Behn,  Jia Deng,  Xintian Feng,  D. Ghosh,  
 M. Goldey,  P. R. Horn,  L. D. Jacobson,  I. Kaliman,  T. Kus,  A. Landau,  
 Jie Liu,  E. I. Proynov,  R. M. Richard,  R. P. Steele,  E. J. Sundstrom,  
 H. L. Woodcock III,  P. M. Zimmerman,  D. Zuev,  B. Alam,  B. Albrecht,  
 E. Alguire,  S. A. Baeppler,  D. Barton,  Z. Benda,  Y. A. Bernard,  
 E. J. Berquist,  K. B. Bravaya,  H. Burton,  K. Carter-Fenk,  D. Casanova,  
 Chun-Min Chang,  Yunqing Chen,  A. Chien,  K. D. Closser,  M. P. Coons,  
 S. Coriani,  S. Dasgupta,  A. L. Dempwolff,  M. Diedenhofen,  Hainam Do,  
 R. G. Edgar,  Po-Tung Fang,  S. Faraji,  S. Fatehi,  Qingguo Feng,  
 J. Fosso-Tande,  J. Gayvert,  Qinghui Ge,  A. Ghysels,  G. Gidofalvi,  
 J. Gomes,  J. Gonthier,  A. Gunina,  D. Hait,  M. W. D. Hanson-Heine,  
 P. H. P. Harbach,  A. W. Hauser,  M. F. Herbst,  J. E. Herr,  
 E. G. Hohenstein,  Z. C. Holden,  Kerwin Hui,  B. C. Huynh,  T.-C. Jagau,  
 Hyunjun Ji,  B. Kaduk,  K. Khistyaev,  Jaehoon Kim,  P. Klunzinger,  K. Koh,  
 D. Kosenkov,  L. Koulias,  T. Kowalczyk,  C. M. Krauter,  A. Kunitsa,  
 Ka Un Lao,  A. Laurent,  K. V. Lawler,  Joonho Lee,  D. Lefrancois,  
 S. Lehtola,  D. S. Levine,  Yi-Pei Li,  You-Sheng Lin,  Fenglai Liu,  
 Kuan-Yu Liu,  E. Livshits,  M. Loipersberger,  A. Luenser,  P. Manohar,  
 E. Mansoor,  S. F. Manzer,  Shan-Ping Mao,  Yuezhi Mao,  N. Mardirossian,  
 A. V. Marenich,  T. Markovich,  L. A. Martinez-Martinez,  S. A. Maurer,  
 N. J. Mayhall,  S. C. McKenzie,  J.-M. Mewes,  P. Morgante,  A. F. Morrison,  
 J. W. Mullinax,  K. Nanda,  T. S. Nguyen-Beck,  R. Olivares-Amaya,  
 K. J. Oosterbaan,  J. A. Parkhill,  S. K. Paul,  F. Pavosevic,  Zheng Pei,  
 T. M. Perrine,  F. Plasser,  P. Pokhilko,  S. Prager,  A. Prociuk,  
 E. Ramos,  B. Rana,  D. R. Rehn,  F. Rob,  M. Scheurer,  M. Schneider,  
 N. Sergueev,  S. M. Sharada,  S. Sharma,  D. W. Small,  T. Stauch,  
 C. J. Stein,  T. Stein,  Yu-Chuan Su,  S. P. Veccham,  Zhen Tao,  
 A. J. W. Thom,  A. Tkatchenko,  T. Tsuchimochi,  N. M. Tubman,  L. Vogt,  
 M. L. Vidal,  O. Vydrov,  M. A. Watson,  J. Wenzel,  M. de Wergifosse,  
 T. A. Wesolowski,  A. White,  J. Witte,  A. Yamada,  Jun Yang,  K. Yao,  
 S. Yeganeh,  S. R. Yost,  Zhi-Qiang You,  A. Zech,  Igor Ying Zhang,  
 Xing Zhang,  Yan Zhao,  Ying Zhu,  B. R. Brooks,  G. K. L. Chan,  
 C. J. Cramer,  M. S. Gordon,  W. J. Hehre,  A. Klamt,  M. W. Schmidt,  
 C. D. Sherrill,  D. G. Truhlar,  A. Aspuru-Guzik,  R. Baer,  A. T. Bell,  
 N. A. Besley,  Jeng-Da Chai,  A. E. DePrince, III,  R. A. DiStasio Jr.,  
 A. Dreuw,  B. D. Dunietz,  T. R. Furlani,  Chao-Ping Hsu,  Yousung Jung,  
 Jing Kong,  D. S. Lambrecht,  WanZhen Liang,  C. Ochsenfeld,  
 V. A. Rassolov,  L. V. Slipchenko,  J. E. Subotnik,  T. Van Voorhis,  
 J. M. Herbert,  A. I. Krylov,  P. M. W. Gill,  M. Head-Gordon

 Contributors to earlier versions of Q-Chem not listed above: 
 R. D. Adamson,  B. Austin,  J. Baker,  G. J. O. Beran,  K. Brandhorst,  
 S. T. Brown,  E. F. C. Byrd,  A. K. Chakraborty,  C.-L. Cheng,  
 Siu Hung Chien,  D. M. Chipman,  D. L. Crittenden,  H. Dachsel,  
 R. J. Doerksen,  A. D. Dutoi,  L. Fusti-Molnar,  W. A. Goddard III,  
 A. Golubeva-Zadorozhnaya,  S. R. Gwaltney,  G. Hawkins,  A. Heyden,  
 S. Hirata,  G. Kedziora,  F. J. Keil,  C. Kelley,  Jihan Kim,  R. A. King,  
 R. Z. Khaliullin,  P. P. Korambath,  W. Kurlancheek,  A. M. Lee,  M. S. Lee,  
 S. V. Levchenko,  Ching Yeh Lin,  D. Liotard,  R. C. Lochan,  I. Lotan,  
 P. E. Maslen,  N. Nair,  D. P. O'Neill,  D. Neuhauser,  E. Neuscamman,  
 C. M. Oana,  R. Olson,  B. Peters,  R. Peverati,  P. A. Pieniazek,  
 Y. M. Rhee,  J. Ritchie,  M. A. Rohrdanz,  E. Rosta,  N. J. Russ,  
 H. F. Schaefer III,  N. E. Schultz,  N. Shenvi,  A. C. Simmonett,  A. Sodt,  
 D. Stuck,  K. S. Thanthiriwatte,  V. Vanovschi,  Tao Wang,  A. Warshel,  
 C. F. Williams,  Q. Wu,  X. Xu,  W. Zhang

 Please cite Q-Chem as follows:
 Y. Shao et al., Mol. Phys. 113, 184-215 (2015)
 DOI: 10.1080/00268976.2014.952696

 Q-Chem 5.3.0 for Intel X86 EM64T Linux

 Parts of Q-Chem use Armadillo 9.800.1 (Horizon Scraper).
 http://arma.sourceforge.net/

 Q-Chem begins on Wed Jul 29 00:36:38 2020  

Host: centos77-c1
0

     Scratch files written to /tmp/30084.centos77-h1/qchem29692//
Processing $rem in /opt/qchem-5.3.0-intel2020u1//config/preferences:
Processing $rem in /home/shihchengli/.qchemrc:

Checking the input file for inconsistencies... 	...done.

--------------------------------------------------------------
User input:
--------------------------------------------------------------
$rem
   JOBTYPE  sp
   EXCHANGE   omegaB97X-D
   BASIS   6-311+G(2df,2pd)
   UNRESTRICTED   False
   max_scf_cycles   250
   geom_opt_max_cycles   1500
   basis2 6-31G*
   scf_algorithm rca_diis
   SYM_IGNORE  TRUE
   print_input   true
   geom_opt_dmax   80
   pop_mulliken false
   XC_GRID 000075000302
$end

$molecule
0 1
C       -5.5610965424     0.5484705098     0.0134185062
C       -4.3864251601     1.3405980790     0.0095845640
H       -5.8000370473     0.3263515681     -1.0204114592
H       -6.3896454181     0.5591570737     0.7069103660
H       -4.4616270426     -0.3019217765     0.2861127427
O       -3.2904310757     -0.0243529425     0.6011558330
H       -4.3037148098     1.9184760755     0.9188366175
H       -3.7903841961     1.7223914033     -0.8109979861
H       -2.6973711054     -0.2260327332     -0.1317190209
$end
--------------------------------------------------------------
 ----------------------------------------------------------------
             Standard Nuclear Orientation (Angstroms)
    I     Atom           X                Y                Z
 ----------------------------------------------------------------
    1      C      -5.5610965424     0.5484705098     0.0134185062
    2      C      -4.3864251601     1.3405980790     0.0095845640
    3      H      -5.8000370473     0.3263515681    -1.0204114592
    4      H      -6.3896454181     0.5591570737     0.7069103660
    5      H      -4.4616270426    -0.3019217765     0.2861127427
    6      O      -3.2904310757    -0.0243529425     0.6011558330
    7      H      -4.3037148098     1.9184760755     0.9188366175
    8      H      -3.7903841961     1.7223914033    -0.8109979861
    9      H      -2.6973711054    -0.2260327332    -0.1317190209
 ----------------------------------------------------------------
 Nuclear Repulsion Energy =          79.54917010 hartrees
 There are       13 alpha and       13 beta electrons
 Requested basis set is 6-311+G(2df,2pd)
 There are 60 shells and 186 basis functions

 Total QAlloc Memory Limit   2000 MB
 Mega-Array Size       188 MB
 MEM_STATIC part       192 MB

                       Distance Matrix (Angstroms)
             C (  1)   C (  2)   H (  3)   H (  4)   H (  5)   O (  6)
   C (  2)  1.416804
   H (  3)  1.084082  2.021852
   H (  4)  1.080527  2.260488  1.839967
   H (  5)  1.416461  1.667332  1.973087  2.153087
   O (  6)  2.414432  1.847769  3.008421  3.155439  1.244185
   H (  7)  2.068262  1.080520  2.921391  2.498753  2.314183  2.214102
   H (  8)  2.278854  1.083691  2.455908  3.226967  2.398346  2.301140
   H (  9)  2.970159  2.308073  3.274361  3.866874  1.814646  0.964106
             H (  7)   H (  8)
   H (  8)  1.815017
   H (  9)  2.878007  2.335049
 
 A cutoff of  1.0D-09 yielded   1780 shell pairs
 There are     17261 function pairs (     21447 Cartesian)
 Smallest overlap matrix eigenvalue = 9.97E-05

 Scale SEOQF with 1.000000e-02/1.000000e-01/1.000000e-01

 Standard Electronic Orientation quadrupole field applied
 Nucleus-field energy     =     0.0000000026 hartrees
 Requested basis set is 6-31G(d)
 There are 24 shells and 54 basis functions
 A cutoff of  1.0D-09 yielded    297 shell pairs
 There are      1548 function pairs (      1731 Cartesian)
 Smallest overlap matrix eigenvalue = 6.31E-03
 Guess from superposition of atomic densities
 Warning:  Energy on first SCF cycle will be non-variational
 SAD guess density has 26.000000 electrons
 Long-range K will be added via erf
 Coulomb attenuation parameter = 0.2 bohr**(-1)
 A restricted hybrid HF-DFT SCF calculation will be
 performed using Relaxed Constraint Minimization + Pulay DIIS
 Exchange:     0.2220 Hartree-Fock + 1.0000 wB97X-D + LR-HF
 Correlation:  1.0000 wB97X-D
 Using Euler-Maclaurin-Lebedev (75,302) quadrature formula
 Dispersion:   Grimme D
 SCF converges when DIIS error is below 1.0E-04
 using 6 threads for integral computing
 -------------------------------------------------------
 OpenMP Integral computing Module                
 Release: version 1.0, May 2013, Q-Chem Inc. Pittsburgh 
 -------------------------------------------------------
 using 6 threads for integral computing
 -------------------------------------------------------
 OpenMP Integral computing Module                
 Release: version 1.0, May 2013, Q-Chem Inc. Pittsburgh 
 -------------------------------------------------------
 ---------------------------------------
  Cycle       Energy         DIIS Error
 ---------------------------------------
    1    -155.2746217498      9.98E-02
    2    -154.7730021646      1.57E-02
    3    -154.8071759670      3.34E-03
    4    -154.8480718626      2.48E-03
    5    -154.8490344845      5.25E-04 Done RCA. Switching to DIIS
    6    -154.8502503414      3.28E-04
    7    -154.8502897060      4.39E-05 Convergence criterion met
 ---------------------------------------
 SCF time:  CPU 20.61 s  wall 3.45 s
 SCF   energy in the small basis set = -154.85028971
 Total energy in the small basis set = -154.85028971
 ----------------------------------------------------
  Cycle       Energy    
 ----------------------------------------------------
    1     -18.6717061789     -1.87E+01
 Long-range K will be added via erf
 Coulomb attenuation parameter = 0.2 bohr**(-1)
 A restricted hybrid HF-DFT SCF calculation will be
 performed using Relaxed Constraint Minimization + Pulay DIIS
 Exchange:     0.2220 Hartree-Fock + 1.0000 wB97X-D + LR-HF
 Correlation:  1.0000 wB97X-D
 Using Euler-Maclaurin-Lebedev (75,302) quadrature formula
 Dispersion:   Grimme D
 SCF converges when DIIS error is below 1.0E-05
 Basis2 calculation detected. Using small basis as guess for larger.
 SCFMinFind is unable to tell whether the solution found is close.
 Resetting ReadMinima to 0 and attempting to follow guess.
 SCFMinFind following SCF Guess.
 using 6 threads for integral computing
 -------------------------------------------------------
 OpenMP Integral computing Module                
 Release: version 1.0, May 2013, Q-Chem Inc. Pittsburgh 
 -------------------------------------------------------
 using 6 threads for integral computing
 -------------------------------------------------------
 OpenMP Integral computing Module                
 Release: version 1.0, May 2013, Q-Chem Inc. Pittsburgh 
 -------------------------------------------------------
 ---------------------------------------
  Cycle       Energy         DIIS Error
 ---------------------------------------
    1    -154.8765252344      5.97E-03
    2    -154.8724268711      4.38E-03
    3    -154.8933048144      1.01E-03
    4    -154.9220689217      1.12E-03
    5    -154.9236278057      1.86E-04 Done RCA. Switching to DIIS
    6    -154.9256157045      2.25E-04
    7    -154.9257647495      8.22E-06 Convergence criterion met
 ---------------------------------------
 SCF time:  CPU 70.30 s  wall 11.76 s
 SCF   energy in the final basis set = -154.92576475
 Total energy in the final basis set = -154.92576475
 
 --------------------------------------------------------------
 
                    Orbital Energies (a.u.)
 --------------------------------------------------------------
 
 Alpha MOs
 -- Occupied --
-19.2467 -10.3559 -10.2552  -1.0943  -0.8755  -0.6990  -0.6095  -0.5708
 -0.5114  -0.4710  -0.4325  -0.4228  -0.3041
 -- Virtual --
  0.0534   0.0653   0.0882   0.0958   0.1128   0.1279   0.1371   0.1488
  0.1800   0.1903   0.2115   0.2373   0.2483   0.2743   0.2891   0.2978
  0.3197   0.3226   0.3543   0.4003   0.4598   0.4734   0.4954   0.5438
  0.5560   0.5760   0.5861   0.5948   0.6156   0.6313   0.6529   0.6837
  0.6968   0.7557   0.7832   0.8099   0.8490   0.8800   0.9076   0.9318
  0.9985   1.0258   1.0557   1.0981   1.1219   1.1463   1.1632   1.1816
  1.2200   1.2527   1.2701   1.3095   1.3285   1.3415   1.3812   1.4182
  1.4364   1.4639   1.4746   1.4948   1.5314   1.5721   1.5879   1.6453
  1.7227   1.7833   1.9405   2.0125   2.0694   2.2581   2.2937   2.4567
  2.4692   2.5580   2.6171   2.6473   2.7276   2.7543   2.7652   2.8357
  2.8734   2.8890   2.9271   2.9686   3.0322   3.0453   3.0838   3.0934
  3.1121   3.1371   3.1650   3.2110   3.2528   3.2902   3.3263   3.3341
  3.3642   3.3999   3.4131   3.4249   3.4452   3.4796   3.5153   3.5523
  3.5783   3.6022   3.6133   3.6514   3.6692   3.7347   3.7517   3.8092
  3.8394   3.8532   3.8862   3.9094   3.9394   3.9895   4.0501   4.0664
  4.0865   4.1307   4.1666   4.1962   4.2134   4.2532   4.2675   4.2991
  4.3169   4.3681   4.4194   4.4668   4.5344   4.5421   4.6002   4.7269
  4.7792   4.7995   4.8645   4.9259   5.0127   5.0280   5.0730   5.1273
  5.1460   5.1773   5.2162   5.3088   5.3521   5.4251   5.4715   5.4950
  5.5892   5.7650   5.8257   5.8416   6.0242   6.1005   6.2595   6.3311
  6.4907   6.6270   6.7014   6.8792   7.1774   7.2664   7.4346   7.5796
  7.7547   8.1789  24.9956  25.2879  50.4410
 --------------------------------------------------------------
 
 -----------------------------------------------------------------
                    Cartesian Multipole Moments
 -----------------------------------------------------------------
    Charge (ESU x 10^10)
                -0.0000
    Dipole Moment (Debye)
         X       0.4738      Y       1.0072      Z      -1.5793
       Tot       1.9322
    Quadrupole Moments (Debye-Ang)
        XX     -24.7832     XY      -3.8127     YY     -19.3428
        XZ       3.2204     YZ       0.5808     ZZ     -20.9257
    Octopole Moments (Debye-Ang^2)
       XXX     305.4225    XXY      -0.5000    XYY      89.2753
       YYY     -34.7665    XXZ      -4.1697    XYZ      -3.6405
       YYZ      -3.1113    XZZ      91.0425    YZZ     -10.6162
       ZZZ     -12.1651
    Hexadecapole Moments (Debye-Ang^3)
      XXXX   -2797.2319   XXXY     154.4212   XXYY    -459.1792
      XYYY     170.0621   YYYY    -114.4458   XXXZ     -19.2899
      XXYZ      21.7451   XYYZ       7.8786   YYYZ       0.5236
      XXZZ    -429.8731   XYZZ      51.4778   YYZZ     -24.9269
      XZZZ      40.1386   YZZZ       0.5545   ZZZZ     -47.5902
 -----------------------------------------------------------------
Archival summary:
1\1\centos77-c1\SP\ProcedureUnspecified\BasisUnspecified\126\shihchen\WedJul2900:36:562020WedJul2900:36:562020\0\\#,ProcedureUnspecified,BasisUnspecified,\\0,1\C\H,1,1.08052\H,1,1.08369,2,113.996\C,1,1.4168,2,111.112,3,-160.131,0\H,4,1.08053,1,129.195,2,8.884,0\H,4,1.08408,1,107.14,2,157.366,0\H,4,1.41646,1,72.099,2,-103.709,0\O,7,1.24419,4,130.202,1,13.7064,0\H,8,0.964106,7,109.871,4,-109.293,0\\\@

 Total job time:  18.28s(wall), 96.18s(cpu) 
 Wed Jul 29 00:36:56 2020

        *************************************************************
        *                                                           *
        *  Thank you very much for using Q-Chem.  Have a nice day.  *
        *                                                           *
        *************************************************************


