                  Welcome to Q-Chem
     A Quantum Leap Into The Future Of Chemistry


 Q-Chem 5.3 (devel), Q-Chem, Inc., Pleasanton, CA (2020)

 Yihan Shao,  Zhengting Gan,  E. Epifanovsky,  A. T. B. Gilbert,  M. Wormit,  
 J. Kussmann,  A. W. Lange,  A. Behn,  Jia Deng,  Xintian Feng,  D. Ghosh,  
 M. Goldey,  P. R. Horn,  L. D. Jacobson,  I. Kaliman,  T. Kus,  A. Landau,  
 Jie Liu,  E. I. Proynov,  R. M. Richard,  R. P. Steele,  E. J. Sundstrom,  
 H. L. Woodcock III,  P. M. Zimmerman,  D. Zuev,  B. Alam,  B. Albrecht,  
 E. Alguire,  S. A. Baeppler,  D. Barton,  Z. Benda,  Y. A. Bernard,  
 E. J. Berquist,  K. B. Bravaya,  H. Burton,  K. Carter-Fenk,  D. Casanova,  
 Chun-Min Chang,  Yunqing Chen,  A. Chien,  K. D. Closser,  M. P. Coons,  
 S. Coriani,  S. Dasgupta,  A. L. Dempwolff,  M. Diedenhofen,  Hainam Do,  
 R. G. Edgar,  Po-Tung Fang,  S. Faraji,  S. Fatehi,  Qingguo Feng,  
 J. Fosso-Tande,  J. Gayvert,  Qinghui Ge,  A. Ghysels,  G. Gidofalvi,  
 J. Gomes,  J. Gonthier,  A. Gunina,  D. Hait,  M. W. D. Hanson-Heine,  
 P. H. P. Harbach,  A. W. Hauser,  M. F. Herbst,  J. E. Herr,  
 E. G. Hohenstein,  Z. C. Holden,  Kerwin Hui,  B. C. Huynh,  T.-C. Jagau,  
 Hyunjun Ji,  B. Kaduk,  K. Khistyaev,  Jaehoon Kim,  P. Klunzinger,  K. Koh,  
 D. Kosenkov,  L. Koulias,  T. Kowalczyk,  C. M. Krauter,  A. Kunitsa,  
 Ka Un Lao,  A. Laurent,  K. V. Lawler,  Joonho Lee,  D. Lefrancois,  
 S. Lehtola,  D. S. Levine,  Yi-Pei Li,  You-Sheng Lin,  Fenglai Liu,  
 Kuan-Yu Liu,  E. Livshits,  M. Loipersberger,  A. Luenser,  P. Manohar,  
 E. Mansoor,  S. F. Manzer,  Shan-Ping Mao,  Yuezhi Mao,  N. Mardirossian,  
 A. V. Marenich,  T. Markovich,  L. A. Martinez-Martinez,  S. A. Maurer,  
 N. J. Mayhall,  S. C. McKenzie,  J.-M. Mewes,  P. Morgante,  A. F. Morrison,  
 J. W. Mullinax,  K. Nanda,  T. S. Nguyen-Beck,  R. Olivares-Amaya,  
 K. J. Oosterbaan,  J. A. Parkhill,  S. K. Paul,  F. Pavosevic,  Zheng Pei,  
 T. M. Perrine,  F. Plasser,  P. Pokhilko,  S. Prager,  A. Prociuk,  
 E. Ramos,  B. Rana,  D. R. Rehn,  F. Rob,  M. Scheurer,  M. Schneider,  
 N. Sergueev,  S. M. Sharada,  S. Sharma,  D. W. Small,  T. Stauch,  
 C. J. Stein,  T. Stein,  Yu-Chuan Su,  S. P. Veccham,  Zhen Tao,  
 A. J. W. Thom,  A. Tkatchenko,  T. Tsuchimochi,  N. M. Tubman,  L. Vogt,  
 M. L. Vidal,  O. Vydrov,  M. A. Watson,  J. Wenzel,  M. de Wergifosse,  
 T. A. Wesolowski,  A. White,  J. Witte,  A. Yamada,  Jun Yang,  K. Yao,  
 S. Yeganeh,  S. R. Yost,  Zhi-Qiang You,  A. Zech,  Igor Ying Zhang,  
 Xing Zhang,  Yan Zhao,  Ying Zhu,  B. R. Brooks,  G. K. L. Chan,  
 C. J. Cramer,  M. S. Gordon,  W. J. Hehre,  A. Klamt,  M. W. Schmidt,  
 C. D. Sherrill,  D. G. Truhlar,  A. Aspuru-Guzik,  R. Baer,  A. T. Bell,  
 N. A. Besley,  Jeng-Da Chai,  A. E. DePrince, III,  R. A. DiStasio Jr.,  
 A. Dreuw,  B. D. Dunietz,  T. R. Furlani,  Chao-Ping Hsu,  Yousung Jung,  
 Jing Kong,  D. S. Lambrecht,  WanZhen Liang,  C. Ochsenfeld,  
 V. A. Rassolov,  L. V. Slipchenko,  J. E. Subotnik,  T. Van Voorhis,  
 J. M. Herbert,  A. I. Krylov,  P. M. W. Gill,  M. Head-Gordon

 Contributors to earlier versions of Q-Chem not listed above: 
 R. D. Adamson,  B. Austin,  J. Baker,  G. J. O. Beran,  K. Brandhorst,  
 S. T. Brown,  E. F. C. Byrd,  A. K. Chakraborty,  C.-L. Cheng,  
 Siu Hung Chien,  D. M. Chipman,  D. L. Crittenden,  H. Dachsel,  
 R. J. Doerksen,  A. D. Dutoi,  L. Fusti-Molnar,  W. A. Goddard III,  
 A. Golubeva-Zadorozhnaya,  S. R. Gwaltney,  G. Hawkins,  A. Heyden,  
 S. Hirata,  G. Kedziora,  F. J. Keil,  C. Kelley,  Jihan Kim,  R. A. King,  
 R. Z. Khaliullin,  P. P. Korambath,  W. Kurlancheek,  A. M. Lee,  M. S. Lee,  
 S. V. Levchenko,  Ching Yeh Lin,  D. Liotard,  R. C. Lochan,  I. Lotan,  
 P. E. Maslen,  N. Nair,  D. P. O'Neill,  D. Neuhauser,  E. Neuscamman,  
 C. M. Oana,  R. Olson,  B. Peters,  R. Peverati,  P. A. Pieniazek,  
 Y. M. Rhee,  J. Ritchie,  M. A. Rohrdanz,  E. Rosta,  N. J. Russ,  
 H. F. Schaefer III,  N. E. Schultz,  N. Shenvi,  A. C. Simmonett,  A. Sodt,  
 D. Stuck,  K. S. Thanthiriwatte,  V. Vanovschi,  Tao Wang,  A. Warshel,  
 C. F. Williams,  Q. Wu,  X. Xu,  W. Zhang

 Please cite Q-Chem as follows:
 Y. Shao et al., Mol. Phys. 113, 184-215 (2015)
 DOI: 10.1080/00268976.2014.952696

 Q-Chem 5.3.0 for Intel X86 EM64T Linux

 Parts of Q-Chem use Armadillo 9.800.1 (Horizon Scraper).
 http://arma.sourceforge.net/

 Q-Chem begins on Wed Jul 29 00:30:01 2020  

Host: centos77-c1
0

     Scratch files written to /tmp/30084.centos77-h1/qchem28664//
Processing $rem in /opt/qchem-5.3.0-intel2020u1//config/preferences:
Processing $rem in /home/shihchengli/.qchemrc:

Checking the input file for inconsistencies... 	...done.

--------------------------------------------------------------
User input:
--------------------------------------------------------------
$rem
   JOBTYPE  sp
   EXCHANGE   omegaB97X-D
   BASIS   6-311+G(2df,2pd)
   UNRESTRICTED   False
   max_scf_cycles   250
   geom_opt_max_cycles   1500
   basis2 6-31G*
   scf_algorithm rca_diis
   SYM_IGNORE  TRUE
   print_input   true
   geom_opt_dmax   80
   pop_mulliken false
   XC_GRID 000075000302
$end

$molecule
0 1
C       -5.5583370361     0.5435550303     -0.0017365810
C       -4.4205731455     1.3657560209     0.1650724930
H       -5.7107559053     0.5278950672     -1.0763046438
H       -6.4302167991     0.3686255583     0.6089860751
H       -4.4642326163     -0.3008262210     0.3121708759
O       -3.2909247158     -0.0075432446     0.6225150944
H       -4.0429154729     2.0797530054     0.8837871695
H       -4.0762373867     1.5223556213     -0.8493856977
H       -2.6865393195     -0.2364335807     -0.0922146221
$end
--------------------------------------------------------------
 ----------------------------------------------------------------
             Standard Nuclear Orientation (Angstroms)
    I     Atom           X                Y                Z
 ----------------------------------------------------------------
    1      C      -5.5583370361     0.5435550303    -0.0017365810
    2      C      -4.4205731455     1.3657560209     0.1650724930
    3      H      -5.7107559053     0.5278950672    -1.0763046438
    4      H      -6.4302167991     0.3686255583     0.6089860751
    5      H      -4.4642326163    -0.3008262210     0.3121708759
    6      O      -3.2909247158    -0.0075432446     0.6225150944
    7      H      -4.0429154729     2.0797530054     0.8837871695
    8      H      -4.0762373867     1.5223556213    -0.8493856977
    9      H      -2.6865393195    -0.2364335807    -0.0922146221
 ----------------------------------------------------------------
 Nuclear Repulsion Energy =          79.71604278 hartrees
 There are       13 alpha and       13 beta electrons
 Requested basis set is 6-311+G(2df,2pd)
 There are 60 shells and 186 basis functions

 Total QAlloc Memory Limit   2000 MB
 Mega-Array Size       188 MB
 MEM_STATIC part       192 MB

                       Distance Matrix (Angstroms)
             C (  1)   C (  2)   H (  3)   H (  4)   H (  5)   O (  6)
   C (  2)  1.413629
   H (  3)  1.085437  1.976765
   H (  4)  1.078776  2.286918  1.839347
   H (  5)  1.417245  1.673631  2.041682  2.097942
   O (  6)  2.415483  1.836113  3.004707  3.161778  1.248591
   H (  7)  2.332501  1.081188  3.005314  2.950031  2.484232  2.233956
   H (  8)  1.968039  1.082689  1.926680  2.999860  2.196303  2.263581
   H (  9)  2.977212  2.374886  3.270859  3.856540  1.824244  0.963593
             H (  7)   H (  8)
   H (  8)  1.820904
   H (  9)  2.856056  2.365990
 
 A cutoff of  1.0D-09 yielded   1784 shell pairs
 There are     17289 function pairs (     21481 Cartesian)
 Smallest overlap matrix eigenvalue = 9.24E-05

 Scale SEOQF with 1.000000e-02/1.000000e-01/1.000000e-01

 Standard Electronic Orientation quadrupole field applied
 Nucleus-field energy     =     0.0000000026 hartrees
 Requested basis set is 6-31G(d)
 There are 24 shells and 54 basis functions
 A cutoff of  1.0D-09 yielded    297 shell pairs
 There are      1548 function pairs (      1731 Cartesian)
 Smallest overlap matrix eigenvalue = 4.88E-03
 Guess from superposition of atomic densities
 Warning:  Energy on first SCF cycle will be non-variational
 SAD guess density has 26.000000 electrons
 Long-range K will be added via erf
 Coulomb attenuation parameter = 0.2 bohr**(-1)
 A restricted hybrid HF-DFT SCF calculation will be
 performed using Relaxed Constraint Minimization + Pulay DIIS
 Exchange:     0.2220 Hartree-Fock + 1.0000 wB97X-D + LR-HF
 Correlation:  1.0000 wB97X-D
 Using Euler-Maclaurin-Lebedev (75,302) quadrature formula
 Dispersion:   Grimme D
 SCF converges when DIIS error is below 1.0E-04
 using 6 threads for integral computing
 -------------------------------------------------------
 OpenMP Integral computing Module                
 Release: version 1.0, May 2013, Q-Chem Inc. Pittsburgh 
 -------------------------------------------------------
 using 6 threads for integral computing
 -------------------------------------------------------
 OpenMP Integral computing Module                
 Release: version 1.0, May 2013, Q-Chem Inc. Pittsburgh 
 -------------------------------------------------------
 ---------------------------------------
  Cycle       Energy         DIIS Error
 ---------------------------------------
    1    -155.2952070694      1.00E-01
    2    -154.7691500420      1.55E-02
    3    -154.8027547530      3.27E-03
    4    -154.8422323229      2.48E-03
    5    -154.8431740321      5.03E-04 Done RCA. Switching to DIIS
    6    -154.8443756938      3.06E-04
    7    -154.8444116364      4.16E-05 Convergence criterion met
 ---------------------------------------
 SCF time:  CPU 16.51 s  wall 2.77 s
 SCF   energy in the small basis set = -154.84441164
 Total energy in the small basis set = -154.84441164
 ----------------------------------------------------
  Cycle       Energy    
 ----------------------------------------------------
    1     -18.6771057648     -1.87E+01
 Long-range K will be added via erf
 Coulomb attenuation parameter = 0.2 bohr**(-1)
 A restricted hybrid HF-DFT SCF calculation will be
 performed using Relaxed Constraint Minimization + Pulay DIIS
 Exchange:     0.2220 Hartree-Fock + 1.0000 wB97X-D + LR-HF
 Correlation:  1.0000 wB97X-D
 Using Euler-Maclaurin-Lebedev (75,302) quadrature formula
 Dispersion:   Grimme D
 SCF converges when DIIS error is below 1.0E-05
 Basis2 calculation detected. Using small basis as guess for larger.
 SCFMinFind is unable to tell whether the solution found is close.
 Resetting ReadMinima to 0 and attempting to follow guess.
 SCFMinFind following SCF Guess.
 using 6 threads for integral computing
 -------------------------------------------------------
 OpenMP Integral computing Module                
 Release: version 1.0, May 2013, Q-Chem Inc. Pittsburgh 
 -------------------------------------------------------
 using 6 threads for integral computing
 -------------------------------------------------------
 OpenMP Integral computing Module                
 Release: version 1.0, May 2013, Q-Chem Inc. Pittsburgh 
 -------------------------------------------------------
 ---------------------------------------
  Cycle       Energy         DIIS Error
 ---------------------------------------
    1    -154.8717209963      5.95E-03
    2    -154.8690325605      4.30E-03
    3    -154.8891949694      9.70E-04 Done RCA. Switching to DIIS
    4    -154.9168734902      1.06E-03
    5    -154.9201331786      7.11E-05
    6    -154.9201595069      1.56E-05
    7    -154.9201615834      4.23E-06 Convergence criterion met
 ---------------------------------------
 SCF time:  CPU 55.11 s  wall 9.22 s
 SCF   energy in the final basis set = -154.92016158
 Total energy in the final basis set = -154.92016158
 
 --------------------------------------------------------------
 
                    Orbital Energies (a.u.)
 --------------------------------------------------------------
 
 Alpha MOs
 -- Occupied --
-19.2455 -10.3567 -10.2568  -1.0935  -0.8809  -0.6963  -0.6132  -0.5761
 -0.4975  -0.4678  -0.4345  -0.4267  -0.3055
 -- Virtual --
  0.0551   0.0654   0.0868   0.0960   0.1144   0.1292   0.1363   0.1493
  0.1776   0.1881   0.2213   0.2390   0.2500   0.2658   0.2882   0.2967
  0.3105   0.3293   0.3719   0.3998   0.4548   0.4661   0.4943   0.5449
  0.5700   0.5747   0.5894   0.5940   0.6110   0.6317   0.6471   0.6831
  0.7193   0.7535   0.7823   0.8050   0.8359   0.8791   0.9179   0.9297
  0.9821   1.0463   1.0625   1.0759   1.1064   1.1289   1.1722   1.1934
  1.2005   1.2402   1.2787   1.3141   1.3421   1.3760   1.3970   1.4166
  1.4288   1.4653   1.4907   1.5120   1.5339   1.5839   1.5900   1.6230
  1.7323   1.7988   1.9269   2.0324   2.0548   2.2609   2.3086   2.3850
  2.4999   2.5113   2.6305   2.6745   2.6934   2.7538   2.7933   2.8085
  2.8794   2.8962   2.9071   2.9589   3.0437   3.0675   3.0716   3.0881
  3.1135   3.1471   3.1669   3.2043   3.2241   3.2937   3.3043   3.3280
  3.3665   3.3734   3.4220   3.4547   3.4863   3.5026   3.5231   3.5449
  3.5672   3.5930   3.6305   3.6645   3.6998   3.7156   3.7370   3.7924
  3.8279   3.8460   3.9014   3.9099   3.9435   3.9985   4.0434   4.0676
  4.0748   4.0996   4.1556   4.1916   4.2140   4.2379   4.2676   4.2999
  4.3294   4.4141   4.4299   4.4710   4.5089   4.5350   4.6976   4.7439
  4.7805   4.8351   4.8680   4.9470   5.0258   5.0441   5.0622   5.1080
  5.1543   5.1941   5.2124   5.3106   5.3702   5.3892   5.4627   5.5196
  5.6728   5.7311   5.7901   5.8425   5.9867   6.0910   6.3347   6.4252
  6.6250   6.7037   6.7768   6.8647   7.1755   7.2599   7.4312   7.5945
  7.7591   8.1775  24.9688  25.2955  50.4448
 --------------------------------------------------------------
 
 -----------------------------------------------------------------
                    Cartesian Multipole Moments
 -----------------------------------------------------------------
    Charge (ESU x 10^10)
                -0.0000
    Dipole Moment (Debye)
         X       0.4659      Y       0.9499      Z      -1.5088
       Tot       1.8428
    Quadrupole Moments (Debye-Ang)
        XX     -24.8597     XY      -3.4658     YY     -19.1767
        XZ       3.6347     YZ       0.6786     ZZ     -20.9730
    Octopole Moments (Debye-Ang^2)
       XXX     307.5985    XXY      -3.6061    XYY      89.0265
       YYY     -34.6179    XXZ      -9.9624    XYZ      -2.2648
       YYZ      -2.6692    XZZ      91.3185    YZZ     -10.6531
       ZZZ     -15.0103
    Hexadecapole Moments (Debye-Ang^3)
      XXXX   -2822.7494   XXXY     181.0876   XXYY    -460.9780
      XYYY     170.3529   YYYY    -113.3241   XXXZ      26.6086
      XXYZ       6.5450   XYYZ       8.4137   YYYZ       1.5202
      XXZZ    -432.4456   XYZZ      51.8568   YYZZ     -25.4897
      XZZZ      51.3891   YZZZ      -3.0502   ZZZZ     -49.1528
 -----------------------------------------------------------------
Archival summary:
1\1\centos77-c1\SP\ProcedureUnspecified\BasisUnspecified\126\shihchen\WedJul2900:30:152020WedJul2900:30:152020\0\\#,ProcedureUnspecified,BasisUnspecified,\\0,1\C\H,1,1.08119\H,1,1.08269,2,114.598\C,1,1.41363,2,138.045,3,-152.477,0\H,4,1.07878,1,132.688,2,-1.91946,0\H,4,1.08544,1,103.782,2,146.191,0\H,4,1.41724,1,72.4852,2,-108.317,0\O,7,1.24859,4,129.833,1,5.02522,0\H,8,0.963593,7,110.441,4,-109.293,0\\\@

 Total job time:  14.56s(wall), 76.47s(cpu) 
 Wed Jul 29 00:30:15 2020

        *************************************************************
        *                                                           *
        *  Thank you very much for using Q-Chem.  Have a nice day.  *
        *                                                           *
        *************************************************************


