                  Welcome to Q-Chem
     A Quantum Leap Into The Future Of Chemistry


 Q-Chem 5.3 (devel), Q-Chem, Inc., Pleasanton, CA (2020)

 Yihan Shao,  Zhengting Gan,  E. Epifanovsky,  A. T. B. Gilbert,  M. Wormit,  
 J. Kussmann,  A. W. Lange,  A. Behn,  Jia Deng,  Xintian Feng,  D. Ghosh,  
 M. Goldey,  P. R. Horn,  L. D. Jacobson,  I. Kaliman,  T. Kus,  A. Landau,  
 Jie Liu,  E. I. Proynov,  R. M. Richard,  R. P. Steele,  E. J. Sundstrom,  
 H. L. Woodcock III,  P. M. Zimmerman,  D. Zuev,  B. Alam,  B. Albrecht,  
 E. Alguire,  S. A. Baeppler,  D. Barton,  Z. Benda,  Y. A. Bernard,  
 E. J. Berquist,  K. B. Bravaya,  H. Burton,  K. Carter-Fenk,  D. Casanova,  
 Chun-Min Chang,  Yunqing Chen,  A. Chien,  K. D. Closser,  M. P. Coons,  
 S. Coriani,  S. Dasgupta,  A. L. Dempwolff,  M. Diedenhofen,  Hainam Do,  
 R. G. Edgar,  Po-Tung Fang,  S. Faraji,  S. Fatehi,  Qingguo Feng,  
 J. Fosso-Tande,  J. Gayvert,  Qinghui Ge,  A. Ghysels,  G. Gidofalvi,  
 J. Gomes,  J. Gonthier,  A. Gunina,  D. Hait,  M. W. D. Hanson-Heine,  
 P. H. P. Harbach,  A. W. Hauser,  M. F. Herbst,  J. E. Herr,  
 E. G. Hohenstein,  Z. C. Holden,  Kerwin Hui,  B. C. Huynh,  T.-C. Jagau,  
 Hyunjun Ji,  B. Kaduk,  K. Khistyaev,  Jaehoon Kim,  P. Klunzinger,  K. Koh,  
 D. Kosenkov,  L. Koulias,  T. Kowalczyk,  C. M. Krauter,  A. Kunitsa,  
 Ka Un Lao,  A. Laurent,  K. V. Lawler,  Joonho Lee,  D. Lefrancois,  
 S. Lehtola,  D. S. Levine,  Yi-Pei Li,  You-Sheng Lin,  Fenglai Liu,  
 Kuan-Yu Liu,  E. Livshits,  M. Loipersberger,  A. Luenser,  P. Manohar,  
 E. Mansoor,  S. F. Manzer,  Shan-Ping Mao,  Yuezhi Mao,  N. Mardirossian,  
 A. V. Marenich,  T. Markovich,  L. A. Martinez-Martinez,  S. A. Maurer,  
 N. J. Mayhall,  S. C. McKenzie,  J.-M. Mewes,  P. Morgante,  A. F. Morrison,  
 J. W. Mullinax,  K. Nanda,  T. S. Nguyen-Beck,  R. Olivares-Amaya,  
 K. J. Oosterbaan,  J. A. Parkhill,  S. K. Paul,  F. Pavosevic,  Zheng Pei,  
 T. M. Perrine,  F. Plasser,  P. Pokhilko,  S. Prager,  A. Prociuk,  
 E. Ramos,  B. Rana,  D. R. Rehn,  F. Rob,  M. Scheurer,  M. Schneider,  
 N. Sergueev,  S. M. Sharada,  S. Sharma,  D. W. Small,  T. Stauch,  
 C. J. Stein,  T. Stein,  Yu-Chuan Su,  S. P. Veccham,  Zhen Tao,  
 A. J. W. Thom,  A. Tkatchenko,  T. Tsuchimochi,  N. M. Tubman,  L. Vogt,  
 M. L. Vidal,  O. Vydrov,  M. A. Watson,  J. Wenzel,  M. de Wergifosse,  
 T. A. Wesolowski,  A. White,  J. Witte,  A. Yamada,  Jun Yang,  K. Yao,  
 S. Yeganeh,  S. R. Yost,  Zhi-Qiang You,  A. Zech,  Igor Ying Zhang,  
 Xing Zhang,  Yan Zhao,  Ying Zhu,  B. R. Brooks,  G. K. L. Chan,  
 C. J. Cramer,  M. S. Gordon,  W. J. Hehre,  A. Klamt,  M. W. Schmidt,  
 C. D. Sherrill,  D. G. Truhlar,  A. Aspuru-Guzik,  R. Baer,  A. T. Bell,  
 N. A. Besley,  Jeng-Da Chai,  A. E. DePrince, III,  R. A. DiStasio Jr.,  
 A. Dreuw,  B. D. Dunietz,  T. R. Furlani,  Chao-Ping Hsu,  Yousung Jung,  
 Jing Kong,  D. S. Lambrecht,  WanZhen Liang,  C. Ochsenfeld,  
 V. A. Rassolov,  L. V. Slipchenko,  J. E. Subotnik,  T. Van Voorhis,  
 J. M. Herbert,  A. I. Krylov,  P. M. W. Gill,  M. Head-Gordon

 Contributors to earlier versions of Q-Chem not listed above: 
 R. D. Adamson,  B. Austin,  J. Baker,  G. J. O. Beran,  K. Brandhorst,  
 S. T. Brown,  E. F. C. Byrd,  A. K. Chakraborty,  C.-L. Cheng,  
 Siu Hung Chien,  D. M. Chipman,  D. L. Crittenden,  H. Dachsel,  
 R. J. Doerksen,  A. D. Dutoi,  L. Fusti-Molnar,  W. A. Goddard III,  
 A. Golubeva-Zadorozhnaya,  S. R. Gwaltney,  G. Hawkins,  A. Heyden,  
 S. Hirata,  G. Kedziora,  F. J. Keil,  C. Kelley,  Jihan Kim,  R. A. King,  
 R. Z. Khaliullin,  P. P. Korambath,  W. Kurlancheek,  A. M. Lee,  M. S. Lee,  
 S. V. Levchenko,  Ching Yeh Lin,  D. Liotard,  R. C. Lochan,  I. Lotan,  
 P. E. Maslen,  N. Nair,  D. P. O'Neill,  D. Neuhauser,  E. Neuscamman,  
 C. M. Oana,  R. Olson,  B. Peters,  R. Peverati,  P. A. Pieniazek,  
 Y. M. Rhee,  J. Ritchie,  M. A. Rohrdanz,  E. Rosta,  N. J. Russ,  
 H. F. Schaefer III,  N. E. Schultz,  N. Shenvi,  A. C. Simmonett,  A. Sodt,  
 D. Stuck,  K. S. Thanthiriwatte,  V. Vanovschi,  Tao Wang,  A. Warshel,  
 C. F. Williams,  Q. Wu,  X. Xu,  W. Zhang

 Please cite Q-Chem as follows:
 Y. Shao et al., Mol. Phys. 113, 184-215 (2015)
 DOI: 10.1080/00268976.2014.952696

 Q-Chem 5.3.0 for Intel X86 EM64T Linux

 Parts of Q-Chem use Armadillo 9.800.1 (Horizon Scraper).
 http://arma.sourceforge.net/

 Q-Chem begins on Wed Jul 29 00:22:48 2020  

Host: centos77-c1
0

     Scratch files written to /tmp/30084.centos77-h1/qchem27405//
Processing $rem in /opt/qchem-5.3.0-intel2020u1//config/preferences:
Processing $rem in /home/shihchengli/.qchemrc:

Checking the input file for inconsistencies... 	...done.

--------------------------------------------------------------
User input:
--------------------------------------------------------------
$rem
   JOBTYPE  sp
   EXCHANGE   omegaB97X-D
   BASIS   6-311+G(2df,2pd)
   UNRESTRICTED   False
   max_scf_cycles   250
   geom_opt_max_cycles   1500
   basis2 6-31G*
   scf_algorithm rca_diis
   SYM_IGNORE  TRUE
   print_input   true
   geom_opt_dmax   80
   pop_mulliken false
   XC_GRID 000075000302
$end

$molecule
0 1
C       -5.5506595545     0.5318148403     -0.0737309694
C       -4.3910422941     1.3312363022     0.0757627579
H       -5.9038073810     0.3300504800     -1.0768566376
H       -6.3122243179     0.5949031470     0.6922481593
H       -4.4119414867     -0.3499450814     0.3212354798
O       -3.3236398338     0.0196059260     0.5763289333
H       -4.2578239739     1.9487062726     0.9539830512
H       -3.8475677355     1.6807196236     -0.7944969072
H       -2.6820258199     -0.2239542532     -0.1015837039
$end
--------------------------------------------------------------
 ----------------------------------------------------------------
             Standard Nuclear Orientation (Angstroms)
    I     Atom           X                Y                Z
 ----------------------------------------------------------------
    1      C      -5.5506595545     0.5318148403    -0.0737309694
    2      C      -4.3910422941     1.3312363022     0.0757627579
    3      H      -5.9038073810     0.3300504800    -1.0768566376
    4      H      -6.3122243179     0.5949031470     0.6922481593
    5      H      -4.4119414867    -0.3499450814     0.3212354798
    6      O      -3.3236398338     0.0196059260     0.5763289333
    7      H      -4.2578239739     1.9487062726     0.9539830512
    8      H      -3.8475677355     1.6807196236    -0.7944969072
    9      H      -2.6820258199    -0.2239542532    -0.1015837039
 ----------------------------------------------------------------
 Nuclear Repulsion Energy =          80.47176562 hartrees
 There are       13 alpha and       13 beta electrons
 Requested basis set is 6-311+G(2df,2pd)
 There are 60 shells and 186 basis functions

 Total QAlloc Memory Limit   2000 MB
 Mega-Array Size       188 MB
 MEM_STATIC part       192 MB

                       Distance Matrix (Angstroms)
             C (  1)   C (  2)   H (  3)   H (  4)   H (  5)   O (  6)
   C (  2)  1.416381
   H (  3)  1.082443  2.149270
   H (  4)  1.081982  2.147832  1.834852
   H (  5)  1.493378  1.699136  2.154697  2.154406
   O (  6)  2.375827  1.763601  3.080043  3.045659  1.177302
   H (  7)  2.176052  1.081798  3.074674  2.474237  2.389125  2.176408
   H (  8)  2.177156  1.083907  2.476319  3.076352  2.384738  2.216520
   H (  9)  2.966652  2.317500  3.411445  3.805133  1.785289  0.964653
             H (  7)   H (  8)
   H (  8)  1.815849
   H (  9)  2.884062  2.338033
 
 A cutoff of  1.0D-09 yielded   1779 shell pairs
 There are     17258 function pairs (     21440 Cartesian)
 Smallest overlap matrix eigenvalue = 9.05E-05

 Scale SEOQF with 1.000000e-02/1.000000e-01/1.000000e-01

 Standard Electronic Orientation quadrupole field applied
 Nucleus-field energy     =     0.0000000026 hartrees
 Requested basis set is 6-31G(d)
 There are 24 shells and 54 basis functions
 A cutoff of  1.0D-09 yielded    298 shell pairs
 There are      1549 function pairs (      1732 Cartesian)
 Smallest overlap matrix eigenvalue = 6.71E-03
 Guess from superposition of atomic densities
 Warning:  Energy on first SCF cycle will be non-variational
 SAD guess density has 26.000000 electrons
 Long-range K will be added via erf
 Coulomb attenuation parameter = 0.2 bohr**(-1)
 A restricted hybrid HF-DFT SCF calculation will be
 performed using Relaxed Constraint Minimization + Pulay DIIS
 Exchange:     0.2220 Hartree-Fock + 1.0000 wB97X-D + LR-HF
 Correlation:  1.0000 wB97X-D
 Using Euler-Maclaurin-Lebedev (75,302) quadrature formula
 Dispersion:   Grimme D
 SCF converges when DIIS error is below 1.0E-04
 using 6 threads for integral computing
 -------------------------------------------------------
 OpenMP Integral computing Module                
 Release: version 1.0, May 2013, Q-Chem Inc. Pittsburgh 
 -------------------------------------------------------
 using 6 threads for integral computing
 -------------------------------------------------------
 OpenMP Integral computing Module                
 Release: version 1.0, May 2013, Q-Chem Inc. Pittsburgh 
 -------------------------------------------------------
 ---------------------------------------
  Cycle       Energy         DIIS Error
 ---------------------------------------
    1    -155.3162328051      1.01E-01
    2    -154.7940446282      1.45E-02
    3    -154.8273278500      3.06E-03
    4    -154.8586096265      3.09E-03
    5    -154.8597899857      4.65E-04 Done RCA. Switching to DIIS
    6    -154.8613097958      5.33E-04
    7    -154.8613911363      3.62E-05 Convergence criterion met
 ---------------------------------------
 SCF time:  CPU 15.95 s  wall 2.67 s
 SCF   energy in the small basis set = -154.86139114
 Total energy in the small basis set = -154.86139114
 ----------------------------------------------------
  Cycle       Energy    
 ----------------------------------------------------
    1     -18.6852290249     -1.87E+01
 Long-range K will be added via erf
 Coulomb attenuation parameter = 0.2 bohr**(-1)
 A restricted hybrid HF-DFT SCF calculation will be
 performed using Relaxed Constraint Minimization + Pulay DIIS
 Exchange:     0.2220 Hartree-Fock + 1.0000 wB97X-D + LR-HF
 Correlation:  1.0000 wB97X-D
 Using Euler-Maclaurin-Lebedev (75,302) quadrature formula
 Dispersion:   Grimme D
 SCF converges when DIIS error is below 1.0E-05
 Basis2 calculation detected. Using small basis as guess for larger.
 SCFMinFind is unable to tell whether the solution found is close.
 Resetting ReadMinima to 0 and attempting to follow guess.
 SCFMinFind following SCF Guess.
 using 6 threads for integral computing
 -------------------------------------------------------
 OpenMP Integral computing Module                
 Release: version 1.0, May 2013, Q-Chem Inc. Pittsburgh 
 -------------------------------------------------------
 using 6 threads for integral computing
 -------------------------------------------------------
 OpenMP Integral computing Module                
 Release: version 1.0, May 2013, Q-Chem Inc. Pittsburgh 
 -------------------------------------------------------
 ---------------------------------------
  Cycle       Energy         DIIS Error
 ---------------------------------------
    1    -154.8935405062      5.83E-03
    2    -154.9013341820      3.58E-03
    3    -154.9158482652      6.96E-04 Done RCA. Switching to DIIS
    4    -154.9352111449      6.47E-04
    5    -154.9364775703      6.35E-05
    6    -154.9365018674      1.25E-05
    7    -154.9365037444      6.49E-06 Convergence criterion met
 ---------------------------------------
 SCF time:  CPU 50.77 s  wall 8.49 s
 SCF   energy in the final basis set = -154.93650374
 Total energy in the final basis set = -154.93650374
 
 --------------------------------------------------------------
 
                    Orbital Energies (a.u.)
 --------------------------------------------------------------
 
 Alpha MOs
 -- Occupied --
-19.2664 -10.3489 -10.2426  -1.1219  -0.8656  -0.6930  -0.6325  -0.5676
 -0.5060  -0.4611  -0.4574  -0.4350  -0.2937
 -- Virtual --
  0.0641   0.0683   0.0914   0.0980   0.1168   0.1290   0.1405   0.1530
  0.1768   0.1885   0.2150   0.2337   0.2492   0.2757   0.2864   0.2956
  0.3200   0.3323   0.3637   0.3923   0.4660   0.4699   0.5004   0.5477
  0.5669   0.5751   0.5866   0.6099   0.6144   0.6320   0.6508   0.6882
  0.7022   0.7511   0.7936   0.8274   0.8499   0.8696   0.9126   0.9404
  0.9997   1.0210   1.0649   1.0891   1.1064   1.1480   1.1715   1.1865
  1.2409   1.2593   1.2712   1.3002   1.3286   1.3589   1.4109   1.4312
  1.4435   1.4523   1.4775   1.4909   1.5391   1.5757   1.5945   1.6574
  1.7143   1.7985   1.9088   2.0110   2.0831   2.2399   2.3132   2.4340
  2.4865   2.5674   2.6434   2.6616   2.6917   2.7545   2.7827   2.8088
  2.8247   2.8951   2.9630   2.9873   3.0076   3.0429   3.0821   3.1030
  3.1114   3.1301   3.1763   3.2246   3.2422   3.2834   3.3052   3.3464
  3.3683   3.4221   3.4328   3.4443   3.4964   3.5208   3.5606   3.5628
  3.5726   3.6057   3.6282   3.6609   3.7035   3.7266   3.7593   3.8119
  3.8406   3.8508   3.8826   3.9059   3.9280   3.9659   4.0563   4.0786
  4.0971   4.1289   4.1733   4.2200   4.2346   4.2562   4.2713   4.3138
  4.3214   4.3579   4.3865   4.4415   4.5131   4.5856   4.5950   4.7135
  4.7311   4.7852   4.8622   4.9389   4.9783   5.0070   5.0329   5.0740
  5.1057   5.2080   5.2650   5.2981   5.3575   5.4240   5.4707   5.5199
  5.5787   5.6259   5.8731   5.9053   6.0884   6.1637   6.2347   6.2882
  6.4701   6.6128   6.7364   7.0591   7.1925   7.2567   7.4633   7.6536
  7.7769   8.1766  24.9448  25.2971  50.4456
 --------------------------------------------------------------
 
 -----------------------------------------------------------------
                    Cartesian Multipole Moments
 -----------------------------------------------------------------
    Charge (ESU x 10^10)
                 0.0000
    Dipole Moment (Debye)
         X       1.2296      Y       0.6932      Z      -1.2339
       Tot       1.8749
    Quadrupole Moments (Debye-Ang)
        XX     -31.3546     XY      -2.5910     YY     -19.6213
        XZ       2.5616     YZ       0.8477     ZZ     -20.8219
    Octopole Moments (Debye-Ang^2)
       XXX     352.1751    XXY      -6.0130    XYY      91.1185
       YYY     -35.7413    XXZ      -5.0960    XYZ      -4.5570
       YYZ      -1.8294    XZZ      90.9954    YZZ     -10.7956
       ZZZ     -11.2223
    Hexadecapole Moments (Debye-Ang^3)
      XXXX   -3112.4735   XXXY     182.4401   XXYY    -470.2577
      XYYY     173.4128   YYYY    -114.7961   XXXZ       3.7530
      XXYZ      24.4081   XYYZ       2.4740   YYYZ       1.3247
      XXZZ    -430.6232   XYZZ      51.9405   YYZZ     -24.8658
      XZZZ      35.3974   YZZZ      -0.4121   ZZZZ     -47.5630
 -----------------------------------------------------------------
Archival summary:
1\1\centos77-c1\SP\ProcedureUnspecified\BasisUnspecified\126\shihchen\WedJul2900:23:022020WedJul2900:23:022020\0\\#,ProcedureUnspecified,BasisUnspecified,\\0,1\C\H,1,1.0818\H,1,1.08391,2,113.955\C,1,1.41638,2,120.575,3,-155.205,0\H,4,1.08198,1,117.946,2,2.74909,0\H,4,1.08244,1,118.042,2,150.254,0\H,4,1.49338,1,71.401,2,-103.511,0\O,7,1.1773,4,125.228,1,3.33979,0\H,8,0.964653,7,112.539,4,-109.293,0\\\@

 Total job time:  13.65s(wall), 70.93s(cpu) 
 Wed Jul 29 00:23:02 2020

        *************************************************************
        *                                                           *
        *  Thank you very much for using Q-Chem.  Have a nice day.  *
        *                                                           *
        *************************************************************


