                  Welcome to Q-Chem
     A Quantum Leap Into The Future Of Chemistry


 Q-Chem 5.3 (devel), Q-Chem, Inc., Pleasanton, CA (2020)

 Yihan Shao,  Zhengting Gan,  E. Epifanovsky,  A. T. B. Gilbert,  M. Wormit,  
 J. Kussmann,  A. W. Lange,  A. Behn,  Jia Deng,  Xintian Feng,  D. Ghosh,  
 M. Goldey,  P. R. Horn,  L. D. Jacobson,  I. Kaliman,  T. Kus,  A. Landau,  
 Jie Liu,  E. I. Proynov,  R. M. Richard,  R. P. Steele,  E. J. Sundstrom,  
 H. L. Woodcock III,  P. M. Zimmerman,  D. Zuev,  B. Alam,  B. Albrecht,  
 E. Alguire,  S. A. Baeppler,  D. Barton,  Z. Benda,  Y. A. Bernard,  
 E. J. Berquist,  K. B. Bravaya,  H. Burton,  K. Carter-Fenk,  D. Casanova,  
 Chun-Min Chang,  Yunqing Chen,  A. Chien,  K. D. Closser,  M. P. Coons,  
 S. Coriani,  S. Dasgupta,  A. L. Dempwolff,  M. Diedenhofen,  Hainam Do,  
 R. G. Edgar,  Po-Tung Fang,  S. Faraji,  S. Fatehi,  Qingguo Feng,  
 J. Fosso-Tande,  J. Gayvert,  Qinghui Ge,  A. Ghysels,  G. Gidofalvi,  
 J. Gomes,  J. Gonthier,  A. Gunina,  D. Hait,  M. W. D. Hanson-Heine,  
 P. H. P. Harbach,  A. W. Hauser,  M. F. Herbst,  J. E. Herr,  
 E. G. Hohenstein,  Z. C. Holden,  Kerwin Hui,  B. C. Huynh,  T.-C. Jagau,  
 Hyunjun Ji,  B. Kaduk,  K. Khistyaev,  Jaehoon Kim,  P. Klunzinger,  K. Koh,  
 D. Kosenkov,  L. Koulias,  T. Kowalczyk,  C. M. Krauter,  A. Kunitsa,  
 Ka Un Lao,  A. Laurent,  K. V. Lawler,  Joonho Lee,  D. Lefrancois,  
 S. Lehtola,  D. S. Levine,  Yi-Pei Li,  You-Sheng Lin,  Fenglai Liu,  
 Kuan-Yu Liu,  E. Livshits,  M. Loipersberger,  A. Luenser,  P. Manohar,  
 E. Mansoor,  S. F. Manzer,  Shan-Ping Mao,  Yuezhi Mao,  N. Mardirossian,  
 A. V. Marenich,  T. Markovich,  L. A. Martinez-Martinez,  S. A. Maurer,  
 N. J. Mayhall,  S. C. McKenzie,  J.-M. Mewes,  P. Morgante,  A. F. Morrison,  
 J. W. Mullinax,  K. Nanda,  T. S. Nguyen-Beck,  R. Olivares-Amaya,  
 K. J. Oosterbaan,  J. A. Parkhill,  S. K. Paul,  F. Pavosevic,  Zheng Pei,  
 T. M. Perrine,  F. Plasser,  P. Pokhilko,  S. Prager,  A. Prociuk,  
 E. Ramos,  B. Rana,  D. R. Rehn,  F. Rob,  M. Scheurer,  M. Schneider,  
 N. Sergueev,  S. M. Sharada,  S. Sharma,  D. W. Small,  T. Stauch,  
 C. J. Stein,  T. Stein,  Yu-Chuan Su,  S. P. Veccham,  Zhen Tao,  
 A. J. W. Thom,  A. Tkatchenko,  T. Tsuchimochi,  N. M. Tubman,  L. Vogt,  
 M. L. Vidal,  O. Vydrov,  M. A. Watson,  J. Wenzel,  M. de Wergifosse,  
 T. A. Wesolowski,  A. White,  J. Witte,  A. Yamada,  Jun Yang,  K. Yao,  
 S. Yeganeh,  S. R. Yost,  Zhi-Qiang You,  A. Zech,  Igor Ying Zhang,  
 Xing Zhang,  Yan Zhao,  Ying Zhu,  B. R. Brooks,  G. K. L. Chan,  
 C. J. Cramer,  M. S. Gordon,  W. J. Hehre,  A. Klamt,  M. W. Schmidt,  
 C. D. Sherrill,  D. G. Truhlar,  A. Aspuru-Guzik,  R. Baer,  A. T. Bell,  
 N. A. Besley,  Jeng-Da Chai,  A. E. DePrince, III,  R. A. DiStasio Jr.,  
 A. Dreuw,  B. D. Dunietz,  T. R. Furlani,  Chao-Ping Hsu,  Yousung Jung,  
 Jing Kong,  D. S. Lambrecht,  WanZhen Liang,  C. Ochsenfeld,  
 V. A. Rassolov,  L. V. Slipchenko,  J. E. Subotnik,  T. Van Voorhis,  
 J. M. Herbert,  A. I. Krylov,  P. M. W. Gill,  M. Head-Gordon

 Contributors to earlier versions of Q-Chem not listed above: 
 R. D. Adamson,  B. Austin,  J. Baker,  G. J. O. Beran,  K. Brandhorst,  
 S. T. Brown,  E. F. C. Byrd,  A. K. Chakraborty,  C.-L. Cheng,  
 Siu Hung Chien,  D. M. Chipman,  D. L. Crittenden,  H. Dachsel,  
 R. J. Doerksen,  A. D. Dutoi,  L. Fusti-Molnar,  W. A. Goddard III,  
 A. Golubeva-Zadorozhnaya,  S. R. Gwaltney,  G. Hawkins,  A. Heyden,  
 S. Hirata,  G. Kedziora,  F. J. Keil,  C. Kelley,  Jihan Kim,  R. A. King,  
 R. Z. Khaliullin,  P. P. Korambath,  W. Kurlancheek,  A. M. Lee,  M. S. Lee,  
 S. V. Levchenko,  Ching Yeh Lin,  D. Liotard,  R. C. Lochan,  I. Lotan,  
 P. E. Maslen,  N. Nair,  D. P. O'Neill,  D. Neuhauser,  E. Neuscamman,  
 C. M. Oana,  R. Olson,  B. Peters,  R. Peverati,  P. A. Pieniazek,  
 Y. M. Rhee,  J. Ritchie,  M. A. Rohrdanz,  E. Rosta,  N. J. Russ,  
 H. F. Schaefer III,  N. E. Schultz,  N. Shenvi,  A. C. Simmonett,  A. Sodt,  
 D. Stuck,  K. S. Thanthiriwatte,  V. Vanovschi,  Tao Wang,  A. Warshel,  
 C. F. Williams,  Q. Wu,  X. Xu,  W. Zhang

 Please cite Q-Chem as follows:
 Y. Shao et al., Mol. Phys. 113, 184-215 (2015)
 DOI: 10.1080/00268976.2014.952696

 Q-Chem 5.3.0 for Intel X86 EM64T Linux

 Parts of Q-Chem use Armadillo 9.800.1 (Horizon Scraper).
 http://arma.sourceforge.net/

 Q-Chem begins on Wed Jul 29 00:35:28 2020  

Host: centos77-c1
0

     Scratch files written to /tmp/30084.centos77-h1/qchem29525//
Processing $rem in /opt/qchem-5.3.0-intel2020u1//config/preferences:
Processing $rem in /home/shihchengli/.qchemrc:

Checking the input file for inconsistencies... 	...done.

--------------------------------------------------------------
User input:
--------------------------------------------------------------
$rem
   JOBTYPE  sp
   EXCHANGE   omegaB97X-D
   BASIS   6-311+G(2df,2pd)
   UNRESTRICTED   False
   max_scf_cycles   250
   geom_opt_max_cycles   1500
   basis2 6-31G*
   scf_algorithm rca_diis
   SYM_IGNORE  TRUE
   print_input   true
   geom_opt_dmax   80
   pop_mulliken false
   XC_GRID 000075000302
$end

$molecule
0 1
C       -5.5726004674     0.5114592202     -0.0860990048
C       -4.4467868672     1.4097040855     0.0303603185
H       -5.9650478721     0.3051432728     -1.0754276524
H       -6.3226046625     0.5175592154     0.6957446886
H       -4.4786434697     -0.2553186790     0.2896800031
O       -3.3120163861     0.0344357828     0.6064272882
H       -4.1250700853     1.8650813915     0.9571849709
H       -3.8081792199     1.6890244593     -0.7986310893
H       -2.6497833672     -0.2139514914     -0.0463493594
$end
--------------------------------------------------------------
 ----------------------------------------------------------------
             Standard Nuclear Orientation (Angstroms)
    I     Atom           X                Y                Z
 ----------------------------------------------------------------
    1      C      -5.5726004674     0.5114592202    -0.0860990048
    2      C      -4.4467868672     1.4097040855     0.0303603185
    3      H      -5.9650478721     0.3051432728    -1.0754276524
    4      H      -6.3226046625     0.5175592154     0.6957446886
    5      H      -4.4786434697    -0.2553186790     0.2896800031
    6      O      -3.3120163861     0.0344357828     0.6064272882
    7      H      -4.1250700853     1.8650813915     0.9571849709
    8      H      -3.8081792199     1.6890244593    -0.7986310893
    9      H      -2.6497833672    -0.2139514914    -0.0463493594
 ----------------------------------------------------------------
 Nuclear Repulsion Energy =          79.09613465 hartrees
 There are       13 alpha and       13 beta electrons
 Requested basis set is 6-311+G(2df,2pd)
 There are 60 shells and 186 basis functions

 Total QAlloc Memory Limit   2000 MB
 Mega-Array Size       188 MB
 MEM_STATIC part       192 MB

                       Distance Matrix (Angstroms)
             C (  1)   C (  2)   H (  3)   H (  4)   H (  5)   O (  6)
   C (  2)  1.444944
   H (  3)  1.084137  2.178976
   H (  4)  1.083431  2.181135  1.819346
   H (  5)  1.387768  1.685397  2.094525  2.040201
   O (  6)  2.411925  1.873745  3.152855  3.050414  1.243103
   H (  7)  2.239660  1.081607  3.154432  2.591009  2.250927  2.033556
   H (  8)  2.237754  1.083082  2.577562  3.150845  2.326889  2.226663
   H (  9)  3.011754  2.423090  3.509906  3.817778  1.859934  0.962479
             H (  7)   H (  8)
   H (  8)  1.792849
   H (  9)  2.739695  2.351409
 
 A cutoff of  1.0D-09 yielded   1775 shell pairs
 There are     17224 function pairs (     21392 Cartesian)
 Smallest overlap matrix eigenvalue = 1.10E-04

 Scale SEOQF with 1.000000e-02/1.000000e-01/1.000000e-01

 Standard Electronic Orientation quadrupole field applied
 Nucleus-field energy     =     0.0000000027 hartrees
 Requested basis set is 6-31G(d)
 There are 24 shells and 54 basis functions
 A cutoff of  1.0D-09 yielded    297 shell pairs
 There are      1548 function pairs (      1731 Cartesian)
 Smallest overlap matrix eigenvalue = 7.31E-03
 Guess from superposition of atomic densities
 Warning:  Energy on first SCF cycle will be non-variational
 SAD guess density has 26.000000 electrons
 Long-range K will be added via erf
 Coulomb attenuation parameter = 0.2 bohr**(-1)
 A restricted hybrid HF-DFT SCF calculation will be
 performed using Relaxed Constraint Minimization + Pulay DIIS
 Exchange:     0.2220 Hartree-Fock + 1.0000 wB97X-D + LR-HF
 Correlation:  1.0000 wB97X-D
 Using Euler-Maclaurin-Lebedev (75,302) quadrature formula
 Dispersion:   Grimme D
 SCF converges when DIIS error is below 1.0E-04
 using 6 threads for integral computing
 -------------------------------------------------------
 OpenMP Integral computing Module                
 Release: version 1.0, May 2013, Q-Chem Inc. Pittsburgh 
 -------------------------------------------------------
 using 6 threads for integral computing
 -------------------------------------------------------
 OpenMP Integral computing Module                
 Release: version 1.0, May 2013, Q-Chem Inc. Pittsburgh 
 -------------------------------------------------------
 ---------------------------------------
  Cycle       Energy         DIIS Error
 ---------------------------------------
    1    -155.2265799138      9.77E-02
    2    -154.7743252305      1.62E-02
    3    -154.8084150754      3.47E-03
    4    -154.8527919145      2.14E-03
    5    -154.8536677680      4.91E-04 Done RCA. Switching to DIIS
    6    -154.8544929539      5.30E-04
    7    -154.8545714753      4.22E-05 Convergence criterion met
 ---------------------------------------
 SCF time:  CPU 17.22 s  wall 2.88 s
 SCF   energy in the small basis set = -154.85457148
 Total energy in the small basis set = -154.85457148
 ----------------------------------------------------
  Cycle       Energy    
 ----------------------------------------------------
    1     -18.6646660309     -1.87E+01
 Long-range K will be added via erf
 Coulomb attenuation parameter = 0.2 bohr**(-1)
 A restricted hybrid HF-DFT SCF calculation will be
 performed using Relaxed Constraint Minimization + Pulay DIIS
 Exchange:     0.2220 Hartree-Fock + 1.0000 wB97X-D + LR-HF
 Correlation:  1.0000 wB97X-D
 Using Euler-Maclaurin-Lebedev (75,302) quadrature formula
 Dispersion:   Grimme D
 SCF converges when DIIS error is below 1.0E-05
 Basis2 calculation detected. Using small basis as guess for larger.
 SCFMinFind is unable to tell whether the solution found is close.
 Resetting ReadMinima to 0 and attempting to follow guess.
 SCFMinFind following SCF Guess.
 using 6 threads for integral computing
 -------------------------------------------------------
 OpenMP Integral computing Module                
 Release: version 1.0, May 2013, Q-Chem Inc. Pittsburgh 
 -------------------------------------------------------
 using 6 threads for integral computing
 -------------------------------------------------------
 OpenMP Integral computing Module                
 Release: version 1.0, May 2013, Q-Chem Inc. Pittsburgh 
 -------------------------------------------------------
 ---------------------------------------
  Cycle       Energy         DIIS Error
 ---------------------------------------
    1    -154.8754207111      6.07E-03
    2    -154.8653263390      4.80E-03
    3    -154.8901613352      1.17E-03
    4    -154.9248528748      1.22E-03
    5    -154.9269758666      1.45E-04 Done RCA. Switching to DIIS
    6    -154.9299244545      1.63E-04
    7    -154.9300062879      1.34E-05
    8    -154.9300081860      3.54E-06 Convergence criterion met
 ---------------------------------------
 SCF time:  CPU 67.35 s  wall 11.26 s
 SCF   energy in the final basis set = -154.93000819
 Total energy in the final basis set = -154.93000819
 
 --------------------------------------------------------------
 
                    Orbital Energies (a.u.)
 --------------------------------------------------------------
 
 Alpha MOs
 -- Occupied --
-19.2341 -10.3590 -10.2628  -1.0842  -0.8695  -0.7064  -0.6084  -0.5623
 -0.5082  -0.4612  -0.4384  -0.4144  -0.3082
 -- Virtual --
  0.0426   0.0670   0.0877   0.0992   0.1130   0.1284   0.1389   0.1477
  0.1799   0.1916   0.2158   0.2391   0.2424   0.2725   0.2825   0.2989
  0.3283   0.3343   0.3502   0.3971   0.4554   0.4663   0.4988   0.5408
  0.5575   0.5827   0.5890   0.5976   0.6158   0.6387   0.6599   0.6772
  0.6987   0.7503   0.7926   0.8121   0.8181   0.8827   0.9199   0.9372
  0.9828   1.0197   1.0538   1.0835   1.1301   1.1333   1.1640   1.1993
  1.2098   1.2398   1.2567   1.2979   1.3229   1.3535   1.4134   1.4254
  1.4419   1.4466   1.4811   1.4951   1.5567   1.5818   1.6197   1.6650
  1.6891   1.7780   1.8866   2.0011   2.0573   2.2718   2.3212   2.4479
  2.5167   2.5571   2.6140   2.6186   2.6998   2.7370   2.8041   2.8417
  2.8747   2.8978   2.9317   2.9615   2.9826   3.0232   3.0791   3.0845
  3.1190   3.1364   3.1676   3.2110   3.2158   3.2425   3.3040   3.3287
  3.3590   3.3905   3.4157   3.4483   3.4667   3.4873   3.5130   3.5545
  3.5656   3.6012   3.6195   3.6774   3.7093   3.7488   3.7884   3.7912
  3.8380   3.8533   3.8745   3.9083   3.9212   3.9637   3.9876   4.0372
  4.1004   4.1283   4.1411   4.1947   4.2135   4.2504   4.2818   4.2961
  4.3036   4.3912   4.4136   4.4656   4.5117   4.5368   4.6072   4.7091
  4.7630   4.8460   4.8580   4.9126   4.9609   5.0161   5.0809   5.1174
  5.1457   5.1652   5.2184   5.2872   5.3868   5.4031   5.4672   5.4862
  5.5665   5.6372   5.7918   5.8305   6.0498   6.1069   6.2126   6.3165
  6.4756   6.6411   6.7512   6.9257   7.1716   7.2329   7.4117   7.6126
  7.7882   8.1887  25.0118  25.2369  50.4415
 --------------------------------------------------------------
 
 -----------------------------------------------------------------
                    Cartesian Multipole Moments
 -----------------------------------------------------------------
    Charge (ESU x 10^10)
                 0.0000
    Dipole Moment (Debye)
         X       0.4211      Y       0.9915      Z      -1.4925
       Tot       1.8406
    Quadrupole Moments (Debye-Ang)
        XX     -23.8759     XY      -3.5632     YY     -19.3372
        XZ       3.5706     YZ       0.6890     ZZ     -20.9717
    Octopole Moments (Debye-Ang^2)
       XXX     298.9259    XXY      -3.2194    XYY      90.1387
       YYY     -36.3676    XXZ      -9.2181    XYZ      -3.5872
       YYZ      -2.2990    XZZ      91.2178    YZZ     -11.1111
       ZZZ     -11.3282
    Hexadecapole Moments (Debye-Ang^3)
      XXXX   -2770.8645   XXXY     176.4388   XXYY    -467.3250
      XYYY     176.9020   YYYY    -118.4763   XXXZ      19.8034
      XXYZ      18.7889   XYYZ       4.5775   YYYZ       1.1295
      XXZZ    -430.4039   XYZZ      53.7997   YYZZ     -25.8544
      XZZZ      33.9862   YZZZ       0.6280   ZZZZ     -48.6714
 -----------------------------------------------------------------
Archival summary:
1\1\centos77-c1\SP\ProcedureUnspecified\BasisUnspecified\126\shihchen\WedJul2900:35:442020WedJul2900:35:442020\0\\#,ProcedureUnspecified,BasisUnspecified,\\0,1\C\H,1,1.08161\H,1,1.08308,2,111.834\C,1,1.44494,2,124.232,3,178.617,0\H,4,1.08343,1,118.535,2,19.7632,0\H,4,1.08414,1,118.287,2,164.981,0\H,4,1.38777,1,72.9904,2,-84.9702,0\O,7,1.2431,4,132.843,1,5.66043,0\H,8,0.962479,7,114.378,4,-109.293,0\\\@

 Total job time:  16.77s(wall), 88.98s(cpu) 
 Wed Jul 29 00:35:44 2020

        *************************************************************
        *                                                           *
        *  Thank you very much for using Q-Chem.  Have a nice day.  *
        *                                                           *
        *************************************************************


