                  Welcome to Q-Chem
     A Quantum Leap Into The Future Of Chemistry


 Q-Chem 5.3 (devel), Q-Chem, Inc., Pleasanton, CA (2020)

 Yihan Shao,  Zhengting Gan,  E. Epifanovsky,  A. T. B. Gilbert,  M. Wormit,  
 J. Kussmann,  A. W. Lange,  A. Behn,  Jia Deng,  Xintian Feng,  D. Ghosh,  
 M. Goldey,  P. R. Horn,  L. D. Jacobson,  I. Kaliman,  T. Kus,  A. Landau,  
 Jie Liu,  E. I. Proynov,  R. M. Richard,  R. P. Steele,  E. J. Sundstrom,  
 H. L. Woodcock III,  P. M. Zimmerman,  D. Zuev,  B. Alam,  B. Albrecht,  
 E. Alguire,  S. A. Baeppler,  D. Barton,  Z. Benda,  Y. A. Bernard,  
 E. J. Berquist,  K. B. Bravaya,  H. Burton,  K. Carter-Fenk,  D. Casanova,  
 Chun-Min Chang,  Yunqing Chen,  A. Chien,  K. D. Closser,  M. P. Coons,  
 S. Coriani,  S. Dasgupta,  A. L. Dempwolff,  M. Diedenhofen,  Hainam Do,  
 R. G. Edgar,  Po-Tung Fang,  S. Faraji,  S. Fatehi,  Qingguo Feng,  
 J. Fosso-Tande,  J. Gayvert,  Qinghui Ge,  A. Ghysels,  G. Gidofalvi,  
 J. Gomes,  J. Gonthier,  A. Gunina,  D. Hait,  M. W. D. Hanson-Heine,  
 P. H. P. Harbach,  A. W. Hauser,  M. F. Herbst,  J. E. Herr,  
 E. G. Hohenstein,  Z. C. Holden,  Kerwin Hui,  B. C. Huynh,  T.-C. Jagau,  
 Hyunjun Ji,  B. Kaduk,  K. Khistyaev,  Jaehoon Kim,  P. Klunzinger,  K. Koh,  
 D. Kosenkov,  L. Koulias,  T. Kowalczyk,  C. M. Krauter,  A. Kunitsa,  
 Ka Un Lao,  A. Laurent,  K. V. Lawler,  Joonho Lee,  D. Lefrancois,  
 S. Lehtola,  D. S. Levine,  Yi-Pei Li,  You-Sheng Lin,  Fenglai Liu,  
 Kuan-Yu Liu,  E. Livshits,  M. Loipersberger,  A. Luenser,  P. Manohar,  
 E. Mansoor,  S. F. Manzer,  Shan-Ping Mao,  Yuezhi Mao,  N. Mardirossian,  
 A. V. Marenich,  T. Markovich,  L. A. Martinez-Martinez,  S. A. Maurer,  
 N. J. Mayhall,  S. C. McKenzie,  J.-M. Mewes,  P. Morgante,  A. F. Morrison,  
 J. W. Mullinax,  K. Nanda,  T. S. Nguyen-Beck,  R. Olivares-Amaya,  
 K. J. Oosterbaan,  J. A. Parkhill,  S. K. Paul,  F. Pavosevic,  Zheng Pei,  
 T. M. Perrine,  F. Plasser,  P. Pokhilko,  S. Prager,  A. Prociuk,  
 E. Ramos,  B. Rana,  D. R. Rehn,  F. Rob,  M. Scheurer,  M. Schneider,  
 N. Sergueev,  S. M. Sharada,  S. Sharma,  D. W. Small,  T. Stauch,  
 C. J. Stein,  T. Stein,  Yu-Chuan Su,  S. P. Veccham,  Zhen Tao,  
 A. J. W. Thom,  A. Tkatchenko,  T. Tsuchimochi,  N. M. Tubman,  L. Vogt,  
 M. L. Vidal,  O. Vydrov,  M. A. Watson,  J. Wenzel,  M. de Wergifosse,  
 T. A. Wesolowski,  A. White,  J. Witte,  A. Yamada,  Jun Yang,  K. Yao,  
 S. Yeganeh,  S. R. Yost,  Zhi-Qiang You,  A. Zech,  Igor Ying Zhang,  
 Xing Zhang,  Yan Zhao,  Ying Zhu,  B. R. Brooks,  G. K. L. Chan,  
 C. J. Cramer,  M. S. Gordon,  W. J. Hehre,  A. Klamt,  M. W. Schmidt,  
 C. D. Sherrill,  D. G. Truhlar,  A. Aspuru-Guzik,  R. Baer,  A. T. Bell,  
 N. A. Besley,  Jeng-Da Chai,  A. E. DePrince, III,  R. A. DiStasio Jr.,  
 A. Dreuw,  B. D. Dunietz,  T. R. Furlani,  Chao-Ping Hsu,  Yousung Jung,  
 Jing Kong,  D. S. Lambrecht,  WanZhen Liang,  C. Ochsenfeld,  
 V. A. Rassolov,  L. V. Slipchenko,  J. E. Subotnik,  T. Van Voorhis,  
 J. M. Herbert,  A. I. Krylov,  P. M. W. Gill,  M. Head-Gordon

 Contributors to earlier versions of Q-Chem not listed above: 
 R. D. Adamson,  B. Austin,  J. Baker,  G. J. O. Beran,  K. Brandhorst,  
 S. T. Brown,  E. F. C. Byrd,  A. K. Chakraborty,  C.-L. Cheng,  
 Siu Hung Chien,  D. M. Chipman,  D. L. Crittenden,  H. Dachsel,  
 R. J. Doerksen,  A. D. Dutoi,  L. Fusti-Molnar,  W. A. Goddard III,  
 A. Golubeva-Zadorozhnaya,  S. R. Gwaltney,  G. Hawkins,  A. Heyden,  
 S. Hirata,  G. Kedziora,  F. J. Keil,  C. Kelley,  Jihan Kim,  R. A. King,  
 R. Z. Khaliullin,  P. P. Korambath,  W. Kurlancheek,  A. M. Lee,  M. S. Lee,  
 S. V. Levchenko,  Ching Yeh Lin,  D. Liotard,  R. C. Lochan,  I. Lotan,  
 P. E. Maslen,  N. Nair,  D. P. O'Neill,  D. Neuhauser,  E. Neuscamman,  
 C. M. Oana,  R. Olson,  B. Peters,  R. Peverati,  P. A. Pieniazek,  
 Y. M. Rhee,  J. Ritchie,  M. A. Rohrdanz,  E. Rosta,  N. J. Russ,  
 H. F. Schaefer III,  N. E. Schultz,  N. Shenvi,  A. C. Simmonett,  A. Sodt,  
 D. Stuck,  K. S. Thanthiriwatte,  V. Vanovschi,  Tao Wang,  A. Warshel,  
 C. F. Williams,  Q. Wu,  X. Xu,  W. Zhang

 Please cite Q-Chem as follows:
 Y. Shao et al., Mol. Phys. 113, 184-215 (2015)
 DOI: 10.1080/00268976.2014.952696

 Q-Chem 5.3.0 for Intel X86 EM64T Linux

 Parts of Q-Chem use Armadillo 9.800.1 (Horizon Scraper).
 http://arma.sourceforge.net/

 Q-Chem begins on Wed Jul 29 00:46:03 2020  

Host: centos77-c1
0

     Scratch files written to /tmp/30084.centos77-h1/qchem31055//
Processing $rem in /opt/qchem-5.3.0-intel2020u1//config/preferences:
Processing $rem in /home/shihchengli/.qchemrc:

Checking the input file for inconsistencies... 	...done.

--------------------------------------------------------------
User input:
--------------------------------------------------------------
$rem
   JOBTYPE  sp
   EXCHANGE   omegaB97X-D
   BASIS   6-311+G(2df,2pd)
   UNRESTRICTED   False
   max_scf_cycles   250
   geom_opt_max_cycles   1500
   basis2 6-31G*
   scf_algorithm rca_diis
   SYM_IGNORE  TRUE
   print_input   true
   geom_opt_dmax   80
   pop_mulliken false
   XC_GRID 000075000302
$end

$molecule
0 1
C       -5.5325413761     0.5463734470     -0.0695317033
C       -4.3988980223     1.3728089924     0.0647029636
H       -5.9109568622     0.3067272930     -1.1289104105
H       -6.3276487068     0.5749507347     0.7486723699
H       -4.4590545151     -0.3043333493     0.2912101140
O       -3.2849065576     -0.0156976207     0.5876824855
H       -4.2518490150     1.9498121280     0.9284761323
H       -3.8801615317     1.7019740979     -0.7726092356
H       -2.6347158105     -0.2694784659     -0.0768025526
$end
--------------------------------------------------------------
 ----------------------------------------------------------------
             Standard Nuclear Orientation (Angstroms)
    I     Atom           X                Y                Z
 ----------------------------------------------------------------
    1      C      -5.5325413761     0.5463734470    -0.0695317033
    2      C      -4.3988980223     1.3728089924     0.0647029636
    3      H      -5.9109568622     0.3067272930    -1.1289104105
    4      H      -6.3276487068     0.5749507347     0.7486723699
    5      H      -4.4590545151    -0.3043333493     0.2912101140
    6      O      -3.2849065576    -0.0156976207     0.5876824855
    7      H      -4.2518490150     1.9498121280     0.9284761323
    8      H      -3.8801615317     1.7019740979    -0.7726092356
    9      H      -2.6347158105    -0.2694784659    -0.0768025526
 ----------------------------------------------------------------
 Nuclear Repulsion Energy =          79.25306745 hartrees
 There are       13 alpha and       13 beta electrons
 Requested basis set is 6-311+G(2df,2pd)
 There are 60 shells and 186 basis functions

 Total QAlloc Memory Limit   2000 MB
 Mega-Array Size       188 MB
 MEM_STATIC part       192 MB

                       Distance Matrix (Angstroms)
             C (  1)   C (  2)   H (  3)   H (  4)   H (  5)   O (  6)
   C (  2)  1.409313
   H (  3)  1.150179  2.201719
   H (  4)  1.141258  2.196468  1.941879
   H (  5)  1.416408  1.693438  2.120886  2.115197
   O (  6)  2.408260  1.855380  3.153853  3.103718  1.244922
   H (  7)  2.146120  1.049123  3.112106  2.496301  2.351641  2.216833
   H (  8)  2.135437  1.038522  2.489537  3.094297  2.343523  2.270489
   H (  9)  3.010492  2.414430  3.488940  3.877141  1.861413  0.963687
             H (  7)   H (  8)
   H (  8)  1.758769
   H (  9)  2.924202  2.433497
 
 A cutoff of  1.0D-09 yielded   1774 shell pairs
 There are     17209 function pairs (     21374 Cartesian)
 Smallest overlap matrix eigenvalue = 8.87E-05

 Scale SEOQF with 1.000000e-02/1.000000e-01/1.000000e-01

 Standard Electronic Orientation quadrupole field applied
 Nucleus-field energy     =     0.0000000027 hartrees
 Requested basis set is 6-31G(d)
 There are 24 shells and 54 basis functions
 A cutoff of  1.0D-09 yielded    296 shell pairs
 There are      1547 function pairs (      1730 Cartesian)
 Smallest overlap matrix eigenvalue = 6.68E-03
 Guess from superposition of atomic densities
 Warning:  Energy on first SCF cycle will be non-variational
 SAD guess density has 26.000000 electrons
 Long-range K will be added via erf
 Coulomb attenuation parameter = 0.2 bohr**(-1)
 A restricted hybrid HF-DFT SCF calculation will be
 performed using Relaxed Constraint Minimization + Pulay DIIS
 Exchange:     0.2220 Hartree-Fock + 1.0000 wB97X-D + LR-HF
 Correlation:  1.0000 wB97X-D
 Using Euler-Maclaurin-Lebedev (75,302) quadrature formula
 Dispersion:   Grimme D
 SCF converges when DIIS error is below 1.0E-04
 using 6 threads for integral computing
 -------------------------------------------------------
 OpenMP Integral computing Module                
 Release: version 1.0, May 2013, Q-Chem Inc. Pittsburgh 
 -------------------------------------------------------
 using 6 threads for integral computing
 -------------------------------------------------------
 OpenMP Integral computing Module                
 Release: version 1.0, May 2013, Q-Chem Inc. Pittsburgh 
 -------------------------------------------------------
 ---------------------------------------
  Cycle       Energy         DIIS Error
 ---------------------------------------
    1    -155.2351050686      9.87E-02
    2    -154.7836260019      1.53E-02
    3    -154.8150559206      3.22E-03
    4    -154.8536800751      2.13E-03
    5    -154.8544551168      4.74E-04 Done RCA. Switching to DIIS
    6    -154.8553634287      3.54E-04
    7    -154.8554023223      4.25E-05 Convergence criterion met
 ---------------------------------------
 SCF time:  CPU 17.28 s  wall 2.90 s
 SCF   energy in the small basis set = -154.85540232
 Total energy in the small basis set = -154.85540232
 ----------------------------------------------------
  Cycle       Energy    
 ----------------------------------------------------
    1     -18.6600497233     -1.87E+01
 Long-range K will be added via erf
 Coulomb attenuation parameter = 0.2 bohr**(-1)
 A restricted hybrid HF-DFT SCF calculation will be
 performed using Relaxed Constraint Minimization + Pulay DIIS
 Exchange:     0.2220 Hartree-Fock + 1.0000 wB97X-D + LR-HF
 Correlation:  1.0000 wB97X-D
 Using Euler-Maclaurin-Lebedev (75,302) quadrature formula
 Dispersion:   Grimme D
 SCF converges when DIIS error is below 1.0E-05
 Basis2 calculation detected. Using small basis as guess for larger.
 SCFMinFind is unable to tell whether the solution found is close.
 Resetting ReadMinima to 0 and attempting to follow guess.
 SCFMinFind following SCF Guess.
 using 6 threads for integral computing
 -------------------------------------------------------
 OpenMP Integral computing Module                
 Release: version 1.0, May 2013, Q-Chem Inc. Pittsburgh 
 -------------------------------------------------------
 using 6 threads for integral computing
 -------------------------------------------------------
 OpenMP Integral computing Module                
 Release: version 1.0, May 2013, Q-Chem Inc. Pittsburgh 
 -------------------------------------------------------
 ---------------------------------------
  Cycle       Energy         DIIS Error
 ---------------------------------------
    1    -154.8810402989      5.98E-03
    2    -154.8771359020      4.39E-03
    3    -154.8982005557      9.98E-04 Done RCA. Switching to DIIS
    4    -154.9271809746      1.10E-03
    5    -154.9306796293      7.55E-05
    6    -154.9307083367      1.65E-05
    7    -154.9307105253      4.76E-06 Convergence criterion met
 ---------------------------------------
 SCF time:  CPU 59.21 s  wall 9.90 s
 SCF   energy in the final basis set = -154.93071053
 Total energy in the final basis set = -154.93071053
 
 --------------------------------------------------------------
 
                    Orbital Energies (a.u.)
 --------------------------------------------------------------
 
 Alpha MOs
 -- Occupied --
-19.2426 -10.3472 -10.2667  -1.0890  -0.8761  -0.6977  -0.6104  -0.5723
 -0.5030  -0.4536  -0.4373  -0.4290  -0.3055
 -- Virtual --
  0.0516   0.0677   0.0895   0.0967   0.1130   0.1281   0.1381   0.1481
  0.1791   0.1873   0.2110   0.2353   0.2502   0.2743   0.2891   0.2980
  0.3255   0.3281   0.3592   0.3965   0.4616   0.4632   0.4920   0.5500
  0.5653   0.5770   0.5836   0.5940   0.6113   0.6342   0.6569   0.6797
  0.6981   0.7536   0.7993   0.8298   0.8397   0.8800   0.9079   0.9361
  0.9851   1.0023   1.0611   1.0817   1.1316   1.1526   1.1733   1.1935
  1.2315   1.2548   1.2661   1.2971   1.3213   1.3489   1.4050   1.4277
  1.4364   1.4472   1.4677   1.4882   1.5399   1.5536   1.5751   1.6770
  1.7091   1.7856   1.9101   2.0042   2.0547   2.2637   2.3110   2.4391
  2.4821   2.5592   2.6558   2.6747   2.6987   2.7439   2.7581   2.7963
  2.8675   2.8812   2.9534   2.9705   2.9998   3.0170   3.0613   3.0871
  3.1220   3.1383   3.1549   3.2172   3.2422   3.2580   3.3082   3.3279
  3.3475   3.4012   3.4222   3.4296   3.4612   3.5085   3.5365   3.5575
  3.5757   3.5940   3.6265   3.6601   3.7026   3.7312   3.7626   3.8163
  3.8192   3.8425   3.8721   3.9031   3.9212   3.9422   4.0582   4.0649
  4.1042   4.1211   4.1750   4.2048   4.2149   4.2347   4.2654   4.2908
  4.3178   4.3645   4.3994   4.4442   4.4744   4.5478   4.5947   4.6827
  4.7076   4.7629   4.7966   4.9291   4.9602   4.9811   5.0264   5.0894
  5.0992   5.1562   5.2677   5.3157   5.3569   5.4021   5.4341   5.4782
  5.5544   5.6405   5.7759   5.8158   6.0476   6.1626   6.1968   6.2279
  6.4926   6.6280   6.7323   6.8805   7.1628   7.2267   7.4094   7.6226
  7.7799   8.1747  24.9066  25.2842  50.4397
 --------------------------------------------------------------
 
 -----------------------------------------------------------------
                    Cartesian Multipole Moments
 -----------------------------------------------------------------
    Charge (ESU x 10^10)
                 0.0000
    Dipole Moment (Debye)
         X       0.5208      Y       0.9910      Z      -1.4457
       Tot       1.8285
    Quadrupole Moments (Debye-Ang)
        XX     -25.1791     XY      -3.8472     YY     -19.0461
        XZ       3.2150     YZ       0.9007     ZZ     -20.8477
    Octopole Moments (Debye-Ang^2)
       XXX     309.9285    XXY      -0.7825    XYY      88.2246
       YYY     -34.4142    XXZ      -7.0401    XYZ      -4.6890
       YYZ      -2.0776    XZZ      90.1484    YZZ     -10.6221
       ZZZ     -11.7514
    Hexadecapole Moments (Debye-Ang^3)
      XXXX   -2847.7722   XXXY     161.6772   XXYY    -456.4090
      XYYY     169.1087   YYYY    -114.1260   XXXZ       7.6345
      XXYZ      24.7832   XYYZ       3.2670   YYYZ       1.6029
      XXZZ    -423.3483   XYZZ      51.7061   YYZZ     -25.2748
      XZZZ      36.5436   YZZZ       0.1094   ZZZZ     -48.4627
 -----------------------------------------------------------------
Archival summary:
1\1\centos77-c1\SP\ProcedureUnspecified\BasisUnspecified\126\shihchen\WedJul2900:46:182020WedJul2900:46:182020\0\\#,ProcedureUnspecified,BasisUnspecified,\\0,1\C\H,1,1.03852\H,1,1.04912,2,114.802\C,1,1.40931,2,120.721,3,158.886,0\H,4,1.14126,1,118.519,2,-153.193,0\H,4,1.15018,1,118.331,2,-4.19855,0\H,4,1.41641,1,73.6382,2,101.26,0\O,7,1.24492,4,129.51,1,4.40376,0\H,8,0.963687,7,114.272,4,-109.293,0\\\@

 Total job time:  15.41s(wall), 80.98s(cpu) 
 Wed Jul 29 00:46:18 2020

        *************************************************************
        *                                                           *
        *  Thank you very much for using Q-Chem.  Have a nice day.  *
        *                                                           *
        *************************************************************


