                  Welcome to Q-Chem
     A Quantum Leap Into The Future Of Chemistry


 Q-Chem 5.3 (devel), Q-Chem, Inc., Pleasanton, CA (2020)

 Yihan Shao,  Zhengting Gan,  E. Epifanovsky,  A. T. B. Gilbert,  M. Wormit,  
 J. Kussmann,  A. W. Lange,  A. Behn,  Jia Deng,  Xintian Feng,  D. Ghosh,  
 M. Goldey,  P. R. Horn,  L. D. Jacobson,  I. Kaliman,  T. Kus,  A. Landau,  
 Jie Liu,  E. I. Proynov,  R. M. Richard,  R. P. Steele,  E. J. Sundstrom,  
 H. L. Woodcock III,  P. M. Zimmerman,  D. Zuev,  B. Alam,  B. Albrecht,  
 E. Alguire,  S. A. Baeppler,  D. Barton,  Z. Benda,  Y. A. Bernard,  
 E. J. Berquist,  K. B. Bravaya,  H. Burton,  K. Carter-Fenk,  D. Casanova,  
 Chun-Min Chang,  Yunqing Chen,  A. Chien,  K. D. Closser,  M. P. Coons,  
 S. Coriani,  S. Dasgupta,  A. L. Dempwolff,  M. Diedenhofen,  Hainam Do,  
 R. G. Edgar,  Po-Tung Fang,  S. Faraji,  S. Fatehi,  Qingguo Feng,  
 J. Fosso-Tande,  J. Gayvert,  Qinghui Ge,  A. Ghysels,  G. Gidofalvi,  
 J. Gomes,  J. Gonthier,  A. Gunina,  D. Hait,  M. W. D. Hanson-Heine,  
 P. H. P. Harbach,  A. W. Hauser,  M. F. Herbst,  J. E. Herr,  
 E. G. Hohenstein,  Z. C. Holden,  Kerwin Hui,  B. C. Huynh,  T.-C. Jagau,  
 Hyunjun Ji,  B. Kaduk,  K. Khistyaev,  Jaehoon Kim,  P. Klunzinger,  K. Koh,  
 D. Kosenkov,  L. Koulias,  T. Kowalczyk,  C. M. Krauter,  A. Kunitsa,  
 Ka Un Lao,  A. Laurent,  K. V. Lawler,  Joonho Lee,  D. Lefrancois,  
 S. Lehtola,  D. S. Levine,  Yi-Pei Li,  You-Sheng Lin,  Fenglai Liu,  
 Kuan-Yu Liu,  E. Livshits,  M. Loipersberger,  A. Luenser,  P. Manohar,  
 E. Mansoor,  S. F. Manzer,  Shan-Ping Mao,  Yuezhi Mao,  N. Mardirossian,  
 A. V. Marenich,  T. Markovich,  L. A. Martinez-Martinez,  S. A. Maurer,  
 N. J. Mayhall,  S. C. McKenzie,  J.-M. Mewes,  P. Morgante,  A. F. Morrison,  
 J. W. Mullinax,  K. Nanda,  T. S. Nguyen-Beck,  R. Olivares-Amaya,  
 K. J. Oosterbaan,  J. A. Parkhill,  S. K. Paul,  F. Pavosevic,  Zheng Pei,  
 T. M. Perrine,  F. Plasser,  P. Pokhilko,  S. Prager,  A. Prociuk,  
 E. Ramos,  B. Rana,  D. R. Rehn,  F. Rob,  M. Scheurer,  M. Schneider,  
 N. Sergueev,  S. M. Sharada,  S. Sharma,  D. W. Small,  T. Stauch,  
 C. J. Stein,  T. Stein,  Yu-Chuan Su,  S. P. Veccham,  Zhen Tao,  
 A. J. W. Thom,  A. Tkatchenko,  T. Tsuchimochi,  N. M. Tubman,  L. Vogt,  
 M. L. Vidal,  O. Vydrov,  M. A. Watson,  J. Wenzel,  M. de Wergifosse,  
 T. A. Wesolowski,  A. White,  J. Witte,  A. Yamada,  Jun Yang,  K. Yao,  
 S. Yeganeh,  S. R. Yost,  Zhi-Qiang You,  A. Zech,  Igor Ying Zhang,  
 Xing Zhang,  Yan Zhao,  Ying Zhu,  B. R. Brooks,  G. K. L. Chan,  
 C. J. Cramer,  M. S. Gordon,  W. J. Hehre,  A. Klamt,  M. W. Schmidt,  
 C. D. Sherrill,  D. G. Truhlar,  A. Aspuru-Guzik,  R. Baer,  A. T. Bell,  
 N. A. Besley,  Jeng-Da Chai,  A. E. DePrince, III,  R. A. DiStasio Jr.,  
 A. Dreuw,  B. D. Dunietz,  T. R. Furlani,  Chao-Ping Hsu,  Yousung Jung,  
 Jing Kong,  D. S. Lambrecht,  WanZhen Liang,  C. Ochsenfeld,  
 V. A. Rassolov,  L. V. Slipchenko,  J. E. Subotnik,  T. Van Voorhis,  
 J. M. Herbert,  A. I. Krylov,  P. M. W. Gill,  M. Head-Gordon

 Contributors to earlier versions of Q-Chem not listed above: 
 R. D. Adamson,  B. Austin,  J. Baker,  G. J. O. Beran,  K. Brandhorst,  
 S. T. Brown,  E. F. C. Byrd,  A. K. Chakraborty,  C.-L. Cheng,  
 Siu Hung Chien,  D. M. Chipman,  D. L. Crittenden,  H. Dachsel,  
 R. J. Doerksen,  A. D. Dutoi,  L. Fusti-Molnar,  W. A. Goddard III,  
 A. Golubeva-Zadorozhnaya,  S. R. Gwaltney,  G. Hawkins,  A. Heyden,  
 S. Hirata,  G. Kedziora,  F. J. Keil,  C. Kelley,  Jihan Kim,  R. A. King,  
 R. Z. Khaliullin,  P. P. Korambath,  W. Kurlancheek,  A. M. Lee,  M. S. Lee,  
 S. V. Levchenko,  Ching Yeh Lin,  D. Liotard,  R. C. Lochan,  I. Lotan,  
 P. E. Maslen,  N. Nair,  D. P. O'Neill,  D. Neuhauser,  E. Neuscamman,  
 C. M. Oana,  R. Olson,  B. Peters,  R. Peverati,  P. A. Pieniazek,  
 Y. M. Rhee,  J. Ritchie,  M. A. Rohrdanz,  E. Rosta,  N. J. Russ,  
 H. F. Schaefer III,  N. E. Schultz,  N. Shenvi,  A. C. Simmonett,  A. Sodt,  
 D. Stuck,  K. S. Thanthiriwatte,  V. Vanovschi,  Tao Wang,  A. Warshel,  
 C. F. Williams,  Q. Wu,  X. Xu,  W. Zhang

 Please cite Q-Chem as follows:
 Y. Shao et al., Mol. Phys. 113, 184-215 (2015)
 DOI: 10.1080/00268976.2014.952696

 Q-Chem 5.3.0 for Intel X86 EM64T Linux

 Parts of Q-Chem use Armadillo 9.800.1 (Horizon Scraper).
 http://arma.sourceforge.net/

 Q-Chem begins on Wed Jul 29 00:44:00 2020  

Host: centos77-c1
0

     Scratch files written to /tmp/30084.centos77-h1/qchem30760//
Processing $rem in /opt/qchem-5.3.0-intel2020u1//config/preferences:
Processing $rem in /home/shihchengli/.qchemrc:

Checking the input file for inconsistencies... 	...done.

--------------------------------------------------------------
User input:
--------------------------------------------------------------
$rem
   JOBTYPE  sp
   EXCHANGE   omegaB97X-D
   BASIS   6-311+G(2df,2pd)
   UNRESTRICTED   False
   max_scf_cycles   250
   geom_opt_max_cycles   1500
   basis2 6-31G*
   scf_algorithm rca_diis
   SYM_IGNORE  TRUE
   print_input   true
   geom_opt_dmax   80
   pop_mulliken false
   XC_GRID 000075000302
$end

$molecule
0 1
C       -5.5371877452     0.5192315380     -0.0698119587
C       -4.4091851718     1.3488545818     0.0697594382
H       -5.9157403423     0.3131952360     -1.0618829072
H       -6.3013986443     0.5405246962     0.6947271548
H       -4.4487312841     -0.1936971903     0.2795941372
O       -3.3018413051     -0.0287556086     0.5721683309
H       -4.2608745684     1.9616330300     0.9472669514
H       -3.8669541609     1.7129925928     -0.7935184500
H       -2.6388191752     -0.3108416188     -0.0654125333
$end
--------------------------------------------------------------
 ----------------------------------------------------------------
             Standard Nuclear Orientation (Angstroms)
    I     Atom           X                Y                Z
 ----------------------------------------------------------------
    1      C      -5.5371877452     0.5192315380    -0.0698119587
    2      C      -4.4091851718     1.3488545818     0.0697594382
    3      H      -5.9157403423     0.3131952360    -1.0618829072
    4      H      -6.3013986443     0.5405246962     0.6947271548
    5      H      -4.4487312841    -0.1936971903     0.2795941372
    6      O      -3.3018413051    -0.0287556086     0.5721683309
    7      H      -4.2608745684     1.9616330300     0.9472669514
    8      H      -3.8669541609     1.7129925928    -0.7935184500
    9      H      -2.6388191752    -0.3108416188    -0.0654125333
 ----------------------------------------------------------------
 Nuclear Repulsion Energy =          80.09904465 hartrees
 There are       13 alpha and       13 beta electrons
 Requested basis set is 6-311+G(2df,2pd)
 There are 60 shells and 186 basis functions

 Total QAlloc Memory Limit   2000 MB
 Mega-Array Size       188 MB
 MEM_STATIC part       192 MB

                       Distance Matrix (Angstroms)
             C (  1)   C (  2)   H (  3)   H (  4)   H (  5)   O (  6)
   C (  2)  1.407176
   H (  3)  1.081646  2.150096
   H (  4)  1.081199  2.150454  1.812758
   H (  5)  1.347253  1.557261  2.051491  2.035631
   O (  6)  2.389394  1.837508  3.101535  3.055560  1.195057
   H (  7)  2.178060  1.080515  3.081008  2.499413  2.264183  2.241002
   H (  8)  2.176809  1.082525  2.495792  3.084814  2.263957  2.284325
   H (  9)  3.014893  2.430444  3.481463  3.836291  1.846222  0.962123
             H (  7)   H (  8)
   H (  8)  1.802035
   H (  9)  2.969970  2.476764
 
 A cutoff of  1.0D-09 yielded   1776 shell pairs
 There are     17238 function pairs (     21417 Cartesian)
 Smallest overlap matrix eigenvalue = 9.18E-05

 Scale SEOQF with 1.000000e-02/1.000000e-01/1.000000e-01

 Standard Electronic Orientation quadrupole field applied
 Nucleus-field energy     =     0.0000000027 hartrees
 Requested basis set is 6-31G(d)
 There are 24 shells and 54 basis functions
 A cutoff of  1.0D-09 yielded    297 shell pairs
 There are      1548 function pairs (      1731 Cartesian)
 Smallest overlap matrix eigenvalue = 6.54E-03
 Guess from superposition of atomic densities
 Warning:  Energy on first SCF cycle will be non-variational
 SAD guess density has 26.000000 electrons
 Long-range K will be added via erf
 Coulomb attenuation parameter = 0.2 bohr**(-1)
 A restricted hybrid HF-DFT SCF calculation will be
 performed using Relaxed Constraint Minimization + Pulay DIIS
 Exchange:     0.2220 Hartree-Fock + 1.0000 wB97X-D + LR-HF
 Correlation:  1.0000 wB97X-D
 Using Euler-Maclaurin-Lebedev (75,302) quadrature formula
 Dispersion:   Grimme D
 SCF converges when DIIS error is below 1.0E-04
 using 6 threads for integral computing
 -------------------------------------------------------
 OpenMP Integral computing Module                
 Release: version 1.0, May 2013, Q-Chem Inc. Pittsburgh 
 -------------------------------------------------------
 using 6 threads for integral computing
 -------------------------------------------------------
 OpenMP Integral computing Module                
 Release: version 1.0, May 2013, Q-Chem Inc. Pittsburgh 
 -------------------------------------------------------
 ---------------------------------------
  Cycle       Energy         DIIS Error
 ---------------------------------------
    1    -155.3586443340      1.03E-01
    2    -154.7797741622      1.58E-02
    3    -154.8144800904      3.24E-03
    4    -154.8546587002      2.43E-03
    5    -154.8555547028      4.68E-04 Done RCA. Switching to DIIS
    6    -154.8566825265      2.80E-04
    7    -154.8567120036      3.90E-05 Convergence criterion met
 ---------------------------------------
 SCF time:  CPU 20.23 s  wall 3.39 s
 SCF   energy in the small basis set = -154.85671200
 Total energy in the small basis set = -154.85671200
 ----------------------------------------------------
  Cycle       Energy    
 ----------------------------------------------------
    1     -18.7057444897     -1.87E+01
 Long-range K will be added via erf
 Coulomb attenuation parameter = 0.2 bohr**(-1)
 A restricted hybrid HF-DFT SCF calculation will be
 performed using Relaxed Constraint Minimization + Pulay DIIS
 Exchange:     0.2220 Hartree-Fock + 1.0000 wB97X-D + LR-HF
 Correlation:  1.0000 wB97X-D
 Using Euler-Maclaurin-Lebedev (75,302) quadrature formula
 Dispersion:   Grimme D
 SCF converges when DIIS error is below 1.0E-05
 Basis2 calculation detected. Using small basis as guess for larger.
 SCFMinFind is unable to tell whether the solution found is close.
 Resetting ReadMinima to 0 and attempting to follow guess.
 SCFMinFind following SCF Guess.
 using 6 threads for integral computing
 -------------------------------------------------------
 OpenMP Integral computing Module                
 Release: version 1.0, May 2013, Q-Chem Inc. Pittsburgh 
 -------------------------------------------------------
 using 6 threads for integral computing
 -------------------------------------------------------
 OpenMP Integral computing Module                
 Release: version 1.0, May 2013, Q-Chem Inc. Pittsburgh 
 -------------------------------------------------------
 ---------------------------------------
  Cycle       Energy         DIIS Error
 ---------------------------------------
    1    -154.8844828467      5.96E-03
    2    -154.8836343460      4.25E-03
    3    -154.9034185921      9.26E-04 Done RCA. Switching to DIIS
    4    -154.9305261488      9.77E-04
    5    -154.9332931654      7.18E-05
    6    -154.9333198898      1.49E-05
    7    -154.9333218773      4.87E-06 Convergence criterion met
 ---------------------------------------
 SCF time:  CPU 63.56 s  wall 10.63 s
 SCF   energy in the final basis set = -154.93332188
 Total energy in the final basis set = -154.93332188
 
 --------------------------------------------------------------
 
                    Orbital Energies (a.u.)
 --------------------------------------------------------------
 
 Alpha MOs
 -- Occupied --
-19.2393 -10.3561 -10.2510  -1.0959  -0.8824  -0.6999  -0.6260  -0.5707
 -0.5111  -0.4555  -0.4365  -0.4259  -0.3075
 -- Virtual --
  0.0562   0.0684   0.0896   0.0969   0.1141   0.1290   0.1391   0.1507
  0.1810   0.1883   0.2124   0.2416   0.2568   0.2804   0.2907   0.2983
  0.3305   0.3350   0.3641   0.3960   0.4566   0.4613   0.5003   0.5477
  0.5642   0.5786   0.5861   0.6110   0.6141   0.6443   0.6489   0.6816
  0.7086   0.7565   0.8077   0.8310   0.8476   0.8841   0.9154   0.9310
  0.9973   1.0243   1.0679   1.0972   1.1328   1.1568   1.1724   1.1979
  1.2375   1.2558   1.2861   1.3131   1.3247   1.3306   1.4087   1.4352
  1.4442   1.4540   1.4805   1.4871   1.5388   1.5850   1.6176   1.6983
  1.7144   1.7789   1.9048   2.0304   2.0729   2.2595   2.3439   2.4629
  2.5050   2.5493   2.6462   2.6585   2.6849   2.7410   2.7610   2.8150
  2.8638   2.9047   2.9576   2.9967   3.0075   3.0490   3.0903   3.0966
  3.1183   3.1454   3.1736   3.2278   3.2436   3.2657   3.3233   3.3510
  3.3778   3.4192   3.4345   3.4382   3.4586   3.5246   3.5392   3.5629
  3.5728   3.6369   3.6490   3.6729   3.6928   3.7575   3.7786   3.8278
  3.8477   3.8666   3.8961   3.9260   3.9305   3.9684   4.0676   4.0891
  4.1068   4.1421   4.1862   4.2163   4.2355   4.2555   4.3186   4.3372
  4.3562   4.3999   4.4804   4.5166   4.5808   4.5952   4.5979   4.7468
  4.8025   4.8396   4.9170   5.0102   5.0251   5.0336   5.0827   5.1288
  5.1963   5.2412   5.2655   5.3003   5.3576   5.3995   5.4734   5.4903
  5.6055   5.6484   5.8168   5.9309   6.1500   6.1816   6.2982   6.3531
  6.4946   6.6367   6.8190   7.0775   7.1558   7.2377   7.4449   7.6432
  7.8154   8.1877  24.9998  25.3437  50.4616
 --------------------------------------------------------------
 
 -----------------------------------------------------------------
                    Cartesian Multipole Moments
 -----------------------------------------------------------------
    Charge (ESU x 10^10)
                 0.0000
    Dipole Moment (Debye)
         X       0.5052      Y       1.0374      Z      -1.4327
       Tot       1.8396
    Quadrupole Moments (Debye-Ang)
        XX     -24.5949     XY      -4.2213     YY     -18.9936
        XZ       3.3390     YZ       0.9283     ZZ     -20.7987
    Octopole Moments (Debye-Ang^2)
       XXX     302.7746    XXY       1.6783    XYY      87.9218
       YYY     -33.6156    XXZ      -8.3658    XYZ      -4.6950
       YYZ      -2.0810    XZZ      90.1151    YZZ     -10.3112
       ZZZ     -11.5357
    Hexadecapole Moments (Debye-Ang^3)
      XXXX   -2778.7288   XXXY     145.6309   XXYY    -453.3315
      XYYY     164.8984   YYYY    -111.5177   XXXZ      18.5359
      XXYZ      23.9655   XYYZ       3.5313   YYYZ       1.7489
      XXZZ    -423.2125   XYZZ      50.2190   YYZZ     -24.3877
      XZZZ      36.2387   YZZZ       0.0526   ZZZZ     -46.8351
 -----------------------------------------------------------------
Archival summary:
1\1\centos77-c1\SP\ProcedureUnspecified\BasisUnspecified\126\shihchen\WedJul2900:44:172020WedJul2900:44:172020\0\\#,ProcedureUnspecified,BasisUnspecified,\\0,1\C\H,1,1.08052\H,1,1.08252,2,112.838\C,1,1.40718,2,121.664,3,-157.455,0\H,4,1.0812,1,119.002,2,3.61828,0\H,4,1.08165,1,118.935,2,150.287,0\H,4,1.34725,1,68.8158,2,-102.242,0\O,7,1.19506,4,139.978,1,3.91932,0\H,8,0.962123,7,117.3,4,-109.293,0\\\@

 Total job time:  17.18s(wall), 89.10s(cpu) 
 Wed Jul 29 00:44:17 2020

        *************************************************************
        *                                                           *
        *  Thank you very much for using Q-Chem.  Have a nice day.  *
        *                                                           *
        *************************************************************


