                  Welcome to Q-Chem
     A Quantum Leap Into The Future Of Chemistry


 Q-Chem 5.3 (devel), Q-Chem, Inc., Pleasanton, CA (2020)

 Yihan Shao,  Zhengting Gan,  E. Epifanovsky,  A. T. B. Gilbert,  M. Wormit,  
 J. Kussmann,  A. W. Lange,  A. Behn,  Jia Deng,  Xintian Feng,  D. Ghosh,  
 M. Goldey,  P. R. Horn,  L. D. Jacobson,  I. Kaliman,  T. Kus,  A. Landau,  
 Jie Liu,  E. I. Proynov,  R. M. Richard,  R. P. Steele,  E. J. Sundstrom,  
 H. L. Woodcock III,  P. M. Zimmerman,  D. Zuev,  B. Alam,  B. Albrecht,  
 E. Alguire,  S. A. Baeppler,  D. Barton,  Z. Benda,  Y. A. Bernard,  
 E. J. Berquist,  K. B. Bravaya,  H. Burton,  K. Carter-Fenk,  D. Casanova,  
 Chun-Min Chang,  Yunqing Chen,  A. Chien,  K. D. Closser,  M. P. Coons,  
 S. Coriani,  S. Dasgupta,  A. L. Dempwolff,  M. Diedenhofen,  Hainam Do,  
 R. G. Edgar,  Po-Tung Fang,  S. Faraji,  S. Fatehi,  Qingguo Feng,  
 J. Fosso-Tande,  J. Gayvert,  Qinghui Ge,  A. Ghysels,  G. Gidofalvi,  
 J. Gomes,  J. Gonthier,  A. Gunina,  D. Hait,  M. W. D. Hanson-Heine,  
 P. H. P. Harbach,  A. W. Hauser,  M. F. Herbst,  J. E. Herr,  
 E. G. Hohenstein,  Z. C. Holden,  Kerwin Hui,  B. C. Huynh,  T.-C. Jagau,  
 Hyunjun Ji,  B. Kaduk,  K. Khistyaev,  Jaehoon Kim,  P. Klunzinger,  K. Koh,  
 D. Kosenkov,  L. Koulias,  T. Kowalczyk,  C. M. Krauter,  A. Kunitsa,  
 Ka Un Lao,  A. Laurent,  K. V. Lawler,  Joonho Lee,  D. Lefrancois,  
 S. Lehtola,  D. S. Levine,  Yi-Pei Li,  You-Sheng Lin,  Fenglai Liu,  
 Kuan-Yu Liu,  E. Livshits,  M. Loipersberger,  A. Luenser,  P. Manohar,  
 E. Mansoor,  S. F. Manzer,  Shan-Ping Mao,  Yuezhi Mao,  N. Mardirossian,  
 A. V. Marenich,  T. Markovich,  L. A. Martinez-Martinez,  S. A. Maurer,  
 N. J. Mayhall,  S. C. McKenzie,  J.-M. Mewes,  P. Morgante,  A. F. Morrison,  
 J. W. Mullinax,  K. Nanda,  T. S. Nguyen-Beck,  R. Olivares-Amaya,  
 K. J. Oosterbaan,  J. A. Parkhill,  S. K. Paul,  F. Pavosevic,  Zheng Pei,  
 T. M. Perrine,  F. Plasser,  P. Pokhilko,  S. Prager,  A. Prociuk,  
 E. Ramos,  B. Rana,  D. R. Rehn,  F. Rob,  M. Scheurer,  M. Schneider,  
 N. Sergueev,  S. M. Sharada,  S. Sharma,  D. W. Small,  T. Stauch,  
 C. J. Stein,  T. Stein,  Yu-Chuan Su,  S. P. Veccham,  Zhen Tao,  
 A. J. W. Thom,  A. Tkatchenko,  T. Tsuchimochi,  N. M. Tubman,  L. Vogt,  
 M. L. Vidal,  O. Vydrov,  M. A. Watson,  J. Wenzel,  M. de Wergifosse,  
 T. A. Wesolowski,  A. White,  J. Witte,  A. Yamada,  Jun Yang,  K. Yao,  
 S. Yeganeh,  S. R. Yost,  Zhi-Qiang You,  A. Zech,  Igor Ying Zhang,  
 Xing Zhang,  Yan Zhao,  Ying Zhu,  B. R. Brooks,  G. K. L. Chan,  
 C. J. Cramer,  M. S. Gordon,  W. J. Hehre,  A. Klamt,  M. W. Schmidt,  
 C. D. Sherrill,  D. G. Truhlar,  A. Aspuru-Guzik,  R. Baer,  A. T. Bell,  
 N. A. Besley,  Jeng-Da Chai,  A. E. DePrince, III,  R. A. DiStasio Jr.,  
 A. Dreuw,  B. D. Dunietz,  T. R. Furlani,  Chao-Ping Hsu,  Yousung Jung,  
 Jing Kong,  D. S. Lambrecht,  WanZhen Liang,  C. Ochsenfeld,  
 V. A. Rassolov,  L. V. Slipchenko,  J. E. Subotnik,  T. Van Voorhis,  
 J. M. Herbert,  A. I. Krylov,  P. M. W. Gill,  M. Head-Gordon

 Contributors to earlier versions of Q-Chem not listed above: 
 R. D. Adamson,  B. Austin,  J. Baker,  G. J. O. Beran,  K. Brandhorst,  
 S. T. Brown,  E. F. C. Byrd,  A. K. Chakraborty,  C.-L. Cheng,  
 Siu Hung Chien,  D. M. Chipman,  D. L. Crittenden,  H. Dachsel,  
 R. J. Doerksen,  A. D. Dutoi,  L. Fusti-Molnar,  W. A. Goddard III,  
 A. Golubeva-Zadorozhnaya,  S. R. Gwaltney,  G. Hawkins,  A. Heyden,  
 S. Hirata,  G. Kedziora,  F. J. Keil,  C. Kelley,  Jihan Kim,  R. A. King,  
 R. Z. Khaliullin,  P. P. Korambath,  W. Kurlancheek,  A. M. Lee,  M. S. Lee,  
 S. V. Levchenko,  Ching Yeh Lin,  D. Liotard,  R. C. Lochan,  I. Lotan,  
 P. E. Maslen,  N. Nair,  D. P. O'Neill,  D. Neuhauser,  E. Neuscamman,  
 C. M. Oana,  R. Olson,  B. Peters,  R. Peverati,  P. A. Pieniazek,  
 Y. M. Rhee,  J. Ritchie,  M. A. Rohrdanz,  E. Rosta,  N. J. Russ,  
 H. F. Schaefer III,  N. E. Schultz,  N. Shenvi,  A. C. Simmonett,  A. Sodt,  
 D. Stuck,  K. S. Thanthiriwatte,  V. Vanovschi,  Tao Wang,  A. Warshel,  
 C. F. Williams,  Q. Wu,  X. Xu,  W. Zhang

 Please cite Q-Chem as follows:
 Y. Shao et al., Mol. Phys. 113, 184-215 (2015)
 DOI: 10.1080/00268976.2014.952696

 Q-Chem 5.3.0 for Intel X86 EM64T Linux

 Parts of Q-Chem use Armadillo 9.800.1 (Horizon Scraper).
 http://arma.sourceforge.net/

 Q-Chem begins on Wed Jul 29 00:38:42 2020  

Host: centos77-c1
0

     Scratch files written to /tmp/30084.centos77-h1/qchem29991//
Processing $rem in /opt/qchem-5.3.0-intel2020u1//config/preferences:
Processing $rem in /home/shihchengli/.qchemrc:

Checking the input file for inconsistencies... 	...done.

--------------------------------------------------------------
User input:
--------------------------------------------------------------
$rem
   JOBTYPE  sp
   EXCHANGE   omegaB97X-D
   BASIS   6-311+G(2df,2pd)
   UNRESTRICTED   False
   max_scf_cycles   250
   geom_opt_max_cycles   1500
   basis2 6-31G*
   scf_algorithm rca_diis
   SYM_IGNORE  TRUE
   print_input   true
   geom_opt_dmax   80
   pop_mulliken false
   XC_GRID 000075000302
$end

$molecule
0 1
C       -5.5269428813     0.5470234109     -0.0706029562
C       -4.4391684931     1.3592426431     0.0520646335
H       -5.8608205496     0.3430014472     -1.0774509401
H       -6.2584163211     0.5803883100     0.7226926914
H       -4.4860930191     -0.2886811831     0.2892112263
O       -3.2944512534     -0.0014571584     0.5885510664
H       -4.2794821750     1.9128900114     0.9635028340
H       -3.8918360855     1.6743915156     -0.8239916971
H       -2.6435216192     -0.2636617395     -0.0710866949
$end
--------------------------------------------------------------
 ----------------------------------------------------------------
             Standard Nuclear Orientation (Angstroms)
    I     Atom           X                Y                Z
 ----------------------------------------------------------------
    1      C      -5.5269428813     0.5470234109    -0.0706029562
    2      C      -4.4391684931     1.3592426431     0.0520646335
    3      H      -5.8608205496     0.3430014472    -1.0774509401
    4      H      -6.2584163211     0.5803883100     0.7226926914
    5      H      -4.4860930191    -0.2886811831     0.2892112263
    6      O      -3.2944512534    -0.0014571584     0.5885510664
    7      H      -4.2794821750     1.9128900114     0.9635028340
    8      H      -3.8918360855     1.6743915156    -0.8239916971
    9      H      -2.6435216192    -0.2636617395    -0.0710866949
 ----------------------------------------------------------------
 Nuclear Repulsion Energy =          80.28895107 hartrees
 There are       13 alpha and       13 beta electrons
 Requested basis set is 6-311+G(2df,2pd)
 There are 60 shells and 186 basis functions

 Total QAlloc Memory Limit   2000 MB
 Mega-Array Size       188 MB
 MEM_STATIC part       192 MB

                       Distance Matrix (Angstroms)
             C (  1)   C (  2)   H (  3)   H (  4)   H (  5)   O (  6)
   C (  2)  1.363085
   H (  3)  1.080205  2.080780
   H (  4)  1.079576  2.089502  1.858750
   H (  5)  1.382475  1.665561  2.038790  2.020970
   O (  6)  2.391513  1.857337  3.079037  3.023512  1.261789
   H (  7)  2.119227  1.078306  3.021700  2.397860  2.311768  2.185315
   H (  8)  2.124177  1.079984  2.390343  3.031465  2.333670  2.271699
   H (  9)  2.995218  2.423496  3.425175  3.796047  1.877634  0.963111
             H (  7)   H (  8)
   H (  8)  1.844529
   H (  9)  2.912751  2.425120
 
 A cutoff of  1.0D-09 yielded   1778 shell pairs
 There are     17249 function pairs (     21431 Cartesian)
 Smallest overlap matrix eigenvalue = 7.28E-05

 Scale SEOQF with 1.000000e-02/1.000000e-01/1.000000e-01

 Standard Electronic Orientation quadrupole field applied
 Nucleus-field energy     =     0.0000000026 hartrees
 Requested basis set is 6-31G(d)
 There are 24 shells and 54 basis functions
 A cutoff of  1.0D-09 yielded    298 shell pairs
 There are      1549 function pairs (      1732 Cartesian)
 Smallest overlap matrix eigenvalue = 5.64E-03
 Guess from superposition of atomic densities
 Warning:  Energy on first SCF cycle will be non-variational
 SAD guess density has 26.000000 electrons
 Long-range K will be added via erf
 Coulomb attenuation parameter = 0.2 bohr**(-1)
 A restricted hybrid HF-DFT SCF calculation will be
 performed using Relaxed Constraint Minimization + Pulay DIIS
 Exchange:     0.2220 Hartree-Fock + 1.0000 wB97X-D + LR-HF
 Correlation:  1.0000 wB97X-D
 Using Euler-Maclaurin-Lebedev (75,302) quadrature formula
 Dispersion:   Grimme D
 SCF converges when DIIS error is below 1.0E-04
 using 6 threads for integral computing
 -------------------------------------------------------
 OpenMP Integral computing Module                
 Release: version 1.0, May 2013, Q-Chem Inc. Pittsburgh 
 -------------------------------------------------------
 using 6 threads for integral computing
 -------------------------------------------------------
 OpenMP Integral computing Module                
 Release: version 1.0, May 2013, Q-Chem Inc. Pittsburgh 
 -------------------------------------------------------
 ---------------------------------------
  Cycle       Energy         DIIS Error
 ---------------------------------------
    1    -155.3554789708      1.03E-01
    2    -154.7776647488      1.62E-02
    3    -154.8132769399      3.39E-03
    4    -154.8561323210      2.44E-03
    5    -154.8571018341      5.22E-04 Done RCA. Switching to DIIS
    6    -154.8582746924      3.60E-04
    7    -154.8583174484      3.73E-05 Convergence criterion met
 ---------------------------------------
 SCF time:  CPU 17.08 s  wall 2.86 s
 SCF   energy in the small basis set = -154.85831745
 Total energy in the small basis set = -154.85831745
 ----------------------------------------------------
  Cycle       Energy    
 ----------------------------------------------------
    1     -18.7098022884     -1.87E+01
 Long-range K will be added via erf
 Coulomb attenuation parameter = 0.2 bohr**(-1)
 A restricted hybrid HF-DFT SCF calculation will be
 performed using Relaxed Constraint Minimization + Pulay DIIS
 Exchange:     0.2220 Hartree-Fock + 1.0000 wB97X-D + LR-HF
 Correlation:  1.0000 wB97X-D
 Using Euler-Maclaurin-Lebedev (75,302) quadrature formula
 Dispersion:   Grimme D
 SCF converges when DIIS error is below 1.0E-05
 Basis2 calculation detected. Using small basis as guess for larger.
 SCFMinFind is unable to tell whether the solution found is close.
 Resetting ReadMinima to 0 and attempting to follow guess.
 SCFMinFind following SCF Guess.
 using 6 threads for integral computing
 -------------------------------------------------------
 OpenMP Integral computing Module                
 Release: version 1.0, May 2013, Q-Chem Inc. Pittsburgh 
 -------------------------------------------------------
 using 6 threads for integral computing
 -------------------------------------------------------
 OpenMP Integral computing Module                
 Release: version 1.0, May 2013, Q-Chem Inc. Pittsburgh 
 -------------------------------------------------------
 ---------------------------------------
  Cycle       Energy         DIIS Error
 ---------------------------------------
    1    -154.8826701174      6.03E-03
    2    -154.8759540832      4.59E-03
    3    -154.8987969478      1.07E-03
    4    -154.9303372583      1.19E-03
    5    -154.9320910138      1.96E-04 Done RCA. Switching to DIIS
    6    -154.9343147572      2.45E-04
    7    -154.9344878776      7.03E-06 Convergence criterion met
 ---------------------------------------
 SCF time:  CPU 61.54 s  wall 10.29 s
 SCF   energy in the final basis set = -154.93448788
 Total energy in the final basis set = -154.93448788
 
 --------------------------------------------------------------
 
                    Orbital Energies (a.u.)
 --------------------------------------------------------------
 
 Alpha MOs
 -- Occupied --
-19.2331 -10.3467 -10.2512  -1.0817  -0.8885  -0.6941  -0.6096  -0.5779
 -0.5084  -0.4600  -0.4377  -0.4180  -0.3095
 -- Virtual --
  0.0549   0.0694   0.0898   0.0952   0.1121   0.1277   0.1371   0.1487
  0.1772   0.1894   0.2187   0.2424   0.2541   0.2779   0.2865   0.2998
  0.3276   0.3344   0.3670   0.3985   0.4549   0.4675   0.4891   0.5494
  0.5660   0.5749   0.5833   0.6074   0.6282   0.6375   0.6555   0.6934
  0.7114   0.7594   0.8083   0.8349   0.8572   0.8830   0.9116   0.9362
  0.9801   0.9998   1.0691   1.0972   1.1418   1.1596   1.1776   1.1982
  1.2440   1.2617   1.2847   1.3118   1.3328   1.3397   1.4106   1.4429
  1.4490   1.4557   1.4774   1.4925   1.5395   1.5641   1.5943   1.6732
  1.7256   1.7843   1.9087   2.0102   2.0595   2.2691   2.3084   2.4464
  2.4995   2.5489   2.6509   2.6723   2.6904   2.7577   2.7907   2.8158
  2.8820   2.9075   2.9681   2.9809   2.9980   3.0375   3.0679   3.0781
  3.0822   3.1322   3.1740   3.2294   3.2453   3.2760   3.3304   3.3653
  3.3697   3.4024   3.4229   3.4573   3.4815   3.5059   3.5535   3.5605
  3.5743   3.6172   3.6427   3.6804   3.7340   3.7524   3.7911   3.8163
  3.8467   3.8619   3.9112   3.9144   3.9435   3.9544   4.0446   4.0828
  4.1019   4.1518   4.2059   4.2262   4.2572   4.2694   4.2908   4.3202
  4.3609   4.3845   4.4551   4.5031   4.5143   4.6576   4.6819   4.7276
  4.7408   4.8351   4.8861   4.9844   5.0011   5.0345   5.0845   5.1187
  5.1264   5.2028   5.2655   5.3113   5.4019   5.4492   5.4674   5.5414
  5.6355   5.7281   5.7752   5.8252   6.0591   6.2263   6.2875   6.3633
  6.4653   6.6386   6.7315   6.8426   7.1655   7.2274   7.4098   7.6300
  7.7825   8.1864  24.9678  25.4488  50.4471
 --------------------------------------------------------------
 
 -----------------------------------------------------------------
                    Cartesian Multipole Moments
 -----------------------------------------------------------------
    Charge (ESU x 10^10)
                 0.0000
    Dipole Moment (Debye)
         X       0.1955      Y       0.9685      Z      -1.5155
       Tot       1.8091
    Quadrupole Moments (Debye-Ang)
        XX     -22.2934     XY      -4.0257     YY     -19.1316
        XZ       3.4492     YZ       0.8120     ZZ     -20.6121
    Octopole Moments (Debye-Ang^2)
       XXX     290.0767    XXY       1.4753    XYY      87.8218
       YYY     -35.1819    XXZ      -7.8096    XYZ      -4.2596
       YYZ      -2.1988    XZZ      88.9447    YZZ     -10.3766
       ZZZ     -11.7245
    Hexadecapole Moments (Debye-Ang^3)
      XXXX   -2718.3233   XXXY     143.8357   XXYY    -449.4801
      XYYY     171.6251   YYYY    -114.6396   XXXZ      10.7321
      XXYZ      22.5093   XYYZ       3.9449   YYYZ       1.6140
      XXZZ    -416.6333   XYZZ      50.5106   YYZZ     -24.6077
      XZZZ      36.4481   YZZZ       0.3149   ZZZZ     -47.5716
 -----------------------------------------------------------------
Archival summary:
1\1\centos77-c1\SP\ProcedureUnspecified\BasisUnspecified\126\shihchen\WedJul2900:38:582020WedJul2900:38:582020\0\\#,ProcedureUnspecified,BasisUnspecified,\\0,1\C\H,1,1.07831\H,1,1.07998,2,117.437\C,1,1.36308,2,120.013,3,-163.218,0\H,4,1.07958,1,117.14,2,7.01737,0\H,4,1.0802,1,116.301,2,155.965,0\H,4,1.38247,1,74.6899,2,-97.6347,0\O,7,1.26179,4,129.433,1,4.22534,0\H,8,0.963111,7,114.446,4,-109.293,0\\\@

 Total job time:  15.86s(wall), 83.30s(cpu) 
 Wed Jul 29 00:38:58 2020

        *************************************************************
        *                                                           *
        *  Thank you very much for using Q-Chem.  Have a nice day.  *
        *                                                           *
        *************************************************************


