                  Welcome to Q-Chem
     A Quantum Leap Into The Future Of Chemistry


 Q-Chem 5.3 (devel), Q-Chem, Inc., Pleasanton, CA (2020)

 Yihan Shao,  Zhengting Gan,  E. Epifanovsky,  A. T. B. Gilbert,  M. Wormit,  
 J. Kussmann,  A. W. Lange,  A. Behn,  Jia Deng,  Xintian Feng,  D. Ghosh,  
 M. Goldey,  P. R. Horn,  L. D. Jacobson,  I. Kaliman,  T. Kus,  A. Landau,  
 Jie Liu,  E. I. Proynov,  R. M. Richard,  R. P. Steele,  E. J. Sundstrom,  
 H. L. Woodcock III,  P. M. Zimmerman,  D. Zuev,  B. Alam,  B. Albrecht,  
 E. Alguire,  S. A. Baeppler,  D. Barton,  Z. Benda,  Y. A. Bernard,  
 E. J. Berquist,  K. B. Bravaya,  H. Burton,  K. Carter-Fenk,  D. Casanova,  
 Chun-Min Chang,  Yunqing Chen,  A. Chien,  K. D. Closser,  M. P. Coons,  
 S. Coriani,  S. Dasgupta,  A. L. Dempwolff,  M. Diedenhofen,  Hainam Do,  
 R. G. Edgar,  Po-Tung Fang,  S. Faraji,  S. Fatehi,  Qingguo Feng,  
 J. Fosso-Tande,  J. Gayvert,  Qinghui Ge,  A. Ghysels,  G. Gidofalvi,  
 J. Gomes,  J. Gonthier,  A. Gunina,  D. Hait,  M. W. D. Hanson-Heine,  
 P. H. P. Harbach,  A. W. Hauser,  M. F. Herbst,  J. E. Herr,  
 E. G. Hohenstein,  Z. C. Holden,  Kerwin Hui,  B. C. Huynh,  T.-C. Jagau,  
 Hyunjun Ji,  B. Kaduk,  K. Khistyaev,  Jaehoon Kim,  P. Klunzinger,  K. Koh,  
 D. Kosenkov,  L. Koulias,  T. Kowalczyk,  C. M. Krauter,  A. Kunitsa,  
 Ka Un Lao,  A. Laurent,  K. V. Lawler,  Joonho Lee,  D. Lefrancois,  
 S. Lehtola,  D. S. Levine,  Yi-Pei Li,  You-Sheng Lin,  Fenglai Liu,  
 Kuan-Yu Liu,  E. Livshits,  M. Loipersberger,  A. Luenser,  P. Manohar,  
 E. Mansoor,  S. F. Manzer,  Shan-Ping Mao,  Yuezhi Mao,  N. Mardirossian,  
 A. V. Marenich,  T. Markovich,  L. A. Martinez-Martinez,  S. A. Maurer,  
 N. J. Mayhall,  S. C. McKenzie,  J.-M. Mewes,  P. Morgante,  A. F. Morrison,  
 J. W. Mullinax,  K. Nanda,  T. S. Nguyen-Beck,  R. Olivares-Amaya,  
 K. J. Oosterbaan,  J. A. Parkhill,  S. K. Paul,  F. Pavosevic,  Zheng Pei,  
 T. M. Perrine,  F. Plasser,  P. Pokhilko,  S. Prager,  A. Prociuk,  
 E. Ramos,  B. Rana,  D. R. Rehn,  F. Rob,  M. Scheurer,  M. Schneider,  
 N. Sergueev,  S. M. Sharada,  S. Sharma,  D. W. Small,  T. Stauch,  
 C. J. Stein,  T. Stein,  Yu-Chuan Su,  S. P. Veccham,  Zhen Tao,  
 A. J. W. Thom,  A. Tkatchenko,  T. Tsuchimochi,  N. M. Tubman,  L. Vogt,  
 M. L. Vidal,  O. Vydrov,  M. A. Watson,  J. Wenzel,  M. de Wergifosse,  
 T. A. Wesolowski,  A. White,  J. Witte,  A. Yamada,  Jun Yang,  K. Yao,  
 S. Yeganeh,  S. R. Yost,  Zhi-Qiang You,  A. Zech,  Igor Ying Zhang,  
 Xing Zhang,  Yan Zhao,  Ying Zhu,  B. R. Brooks,  G. K. L. Chan,  
 C. J. Cramer,  M. S. Gordon,  W. J. Hehre,  A. Klamt,  M. W. Schmidt,  
 C. D. Sherrill,  D. G. Truhlar,  A. Aspuru-Guzik,  R. Baer,  A. T. Bell,  
 N. A. Besley,  Jeng-Da Chai,  A. E. DePrince, III,  R. A. DiStasio Jr.,  
 A. Dreuw,  B. D. Dunietz,  T. R. Furlani,  Chao-Ping Hsu,  Yousung Jung,  
 Jing Kong,  D. S. Lambrecht,  WanZhen Liang,  C. Ochsenfeld,  
 V. A. Rassolov,  L. V. Slipchenko,  J. E. Subotnik,  T. Van Voorhis,  
 J. M. Herbert,  A. I. Krylov,  P. M. W. Gill,  M. Head-Gordon

 Contributors to earlier versions of Q-Chem not listed above: 
 R. D. Adamson,  B. Austin,  J. Baker,  G. J. O. Beran,  K. Brandhorst,  
 S. T. Brown,  E. F. C. Byrd,  A. K. Chakraborty,  C.-L. Cheng,  
 Siu Hung Chien,  D. M. Chipman,  D. L. Crittenden,  H. Dachsel,  
 R. J. Doerksen,  A. D. Dutoi,  L. Fusti-Molnar,  W. A. Goddard III,  
 A. Golubeva-Zadorozhnaya,  S. R. Gwaltney,  G. Hawkins,  A. Heyden,  
 S. Hirata,  G. Kedziora,  F. J. Keil,  C. Kelley,  Jihan Kim,  R. A. King,  
 R. Z. Khaliullin,  P. P. Korambath,  W. Kurlancheek,  A. M. Lee,  M. S. Lee,  
 S. V. Levchenko,  Ching Yeh Lin,  D. Liotard,  R. C. Lochan,  I. Lotan,  
 P. E. Maslen,  N. Nair,  D. P. O'Neill,  D. Neuhauser,  E. Neuscamman,  
 C. M. Oana,  R. Olson,  B. Peters,  R. Peverati,  P. A. Pieniazek,  
 Y. M. Rhee,  J. Ritchie,  M. A. Rohrdanz,  E. Rosta,  N. J. Russ,  
 H. F. Schaefer III,  N. E. Schultz,  N. Shenvi,  A. C. Simmonett,  A. Sodt,  
 D. Stuck,  K. S. Thanthiriwatte,  V. Vanovschi,  Tao Wang,  A. Warshel,  
 C. F. Williams,  Q. Wu,  X. Xu,  W. Zhang

 Please cite Q-Chem as follows:
 Y. Shao et al., Mol. Phys. 113, 184-215 (2015)
 DOI: 10.1080/00268976.2014.952696

 Q-Chem 5.3.0 for Intel X86 EM64T Linux

 Parts of Q-Chem use Armadillo 9.800.1 (Horizon Scraper).
 http://arma.sourceforge.net/

 Q-Chem begins on Wed Jul 29 00:30:46 2020  

Host: centos77-c1
0

     Scratch files written to /tmp/30084.centos77-h1/qchem28808//
Processing $rem in /opt/qchem-5.3.0-intel2020u1//config/preferences:
Processing $rem in /home/shihchengli/.qchemrc:

Checking the input file for inconsistencies... 	...done.

--------------------------------------------------------------
User input:
--------------------------------------------------------------
$rem
   JOBTYPE  sp
   EXCHANGE   omegaB97X-D
   BASIS   6-311+G(2df,2pd)
   UNRESTRICTED   False
   max_scf_cycles   250
   geom_opt_max_cycles   1500
   basis2 6-31G*
   scf_algorithm rca_diis
   SYM_IGNORE  TRUE
   print_input   true
   geom_opt_dmax   80
   pop_mulliken false
   XC_GRID 000075000302
$end

$molecule
0 1
C       -5.5162164591     0.4141071742     -0.0481768884
C       -4.4413147474     1.3455572170     0.0586854623
H       -5.9444061847     0.4516738058     -1.0458432410
H       -6.3126163706     0.6916290438     0.6360353353
H       -4.3827514747     -0.4137469295     0.3261334233
O       -3.2469914445     -0.0391354049     0.6001384976
H       -4.3150393879     1.9628170564     0.9382505145
H       -3.9274405204     1.7160140148     -0.8208571763
H       -2.5939558081     -0.2657787205     -0.0714757641
$end
--------------------------------------------------------------
 ----------------------------------------------------------------
             Standard Nuclear Orientation (Angstroms)
    I     Atom           X                Y                Z
 ----------------------------------------------------------------
    1      C      -5.5162164591     0.4141071742    -0.0481768884
    2      C      -4.4413147474     1.3455572170     0.0586854623
    3      H      -5.9444061847     0.4516738058    -1.0458432410
    4      H      -6.3126163706     0.6916290438     0.6360353353
    5      H      -4.3827514747    -0.4137469295     0.3261334233
    6      O      -3.2469914445    -0.0391354049     0.6001384976
    7      H      -4.3150393879     1.9628170564     0.9382505145
    8      H      -3.9274405204     1.7160140148    -0.8208571763
    9      H      -2.5939558081    -0.2657787205    -0.0714757641
 ----------------------------------------------------------------
 Nuclear Repulsion Energy =          78.64520477 hartrees
 There are       13 alpha and       13 beta electrons
 Requested basis set is 6-311+G(2df,2pd)
 There are 60 shells and 186 basis functions

 Total QAlloc Memory Limit   2000 MB
 Mega-Array Size       188 MB
 MEM_STATIC part       192 MB

                       Distance Matrix (Angstroms)
             C (  1)   C (  2)   H (  3)   H (  4)   H (  5)   O (  6)
   C (  2)  1.426335
   H (  3)  1.086322  2.068404
   H (  4)  1.086010  2.064637  1.738353
   H (  5)  1.452651  1.780480  2.251675  2.245501
   O (  6)  2.403149  1.907080  3.197842  3.151724  1.226933
   H (  7)  2.194167  1.081938  2.979097  2.386958  2.455062  2.294092
   H (  8)  2.194585  1.083928  2.391093  2.976737  2.461458  2.358557
   H (  9)  3.000399  2.454808  3.562253  3.904566  1.838417  0.963789
             H (  7)   H (  8)
   H (  8)  1.818132
   H (  9)  2.991373  2.503449
 
 A cutoff of  1.0D-09 yielded   1778 shell pairs
 There are     17219 function pairs (     21384 Cartesian)
 Smallest overlap matrix eigenvalue = 8.75E-05

 Scale SEOQF with 1.000000e-02/1.000000e-01/1.000000e-01

 Standard Electronic Orientation quadrupole field applied
 Nucleus-field energy     =     0.0000000026 hartrees
 Requested basis set is 6-31G(d)
 There are 24 shells and 54 basis functions
 A cutoff of  1.0D-09 yielded    296 shell pairs
 There are      1547 function pairs (      1730 Cartesian)
 Smallest overlap matrix eigenvalue = 6.88E-03
 Guess from superposition of atomic densities
 Warning:  Energy on first SCF cycle will be non-variational
 SAD guess density has 26.000000 electrons
 Long-range K will be added via erf
 Coulomb attenuation parameter = 0.2 bohr**(-1)
 A restricted hybrid HF-DFT SCF calculation will be
 performed using Relaxed Constraint Minimization + Pulay DIIS
 Exchange:     0.2220 Hartree-Fock + 1.0000 wB97X-D + LR-HF
 Correlation:  1.0000 wB97X-D
 Using Euler-Maclaurin-Lebedev (75,302) quadrature formula
 Dispersion:   Grimme D
 SCF converges when DIIS error is below 1.0E-04
 using 6 threads for integral computing
 -------------------------------------------------------
 OpenMP Integral computing Module                
 Release: version 1.0, May 2013, Q-Chem Inc. Pittsburgh 
 -------------------------------------------------------
 using 6 threads for integral computing
 -------------------------------------------------------
 OpenMP Integral computing Module                
 Release: version 1.0, May 2013, Q-Chem Inc. Pittsburgh 
 -------------------------------------------------------
 ---------------------------------------
  Cycle       Energy         DIIS Error
 ---------------------------------------
    1    -155.2014221868      9.75E-02
    2    -154.7770969441      1.55E-02
    3    -154.8107576324      3.27E-03
    4    -154.8510659810      2.39E-03
    5    -154.8519712345      5.05E-04 Done RCA. Switching to DIIS
    6    -154.8531022431      3.17E-04
    7    -154.8531382813      4.18E-05 Convergence criterion met
 ---------------------------------------
 SCF time:  CPU 17.17 s  wall 2.88 s
 SCF   energy in the small basis set = -154.85313828
 Total energy in the small basis set = -154.85313828
 ----------------------------------------------------
  Cycle       Energy    
 ----------------------------------------------------
    1     -18.6527820802     -1.87E+01
 Long-range K will be added via erf
 Coulomb attenuation parameter = 0.2 bohr**(-1)
 A restricted hybrid HF-DFT SCF calculation will be
 performed using Relaxed Constraint Minimization + Pulay DIIS
 Exchange:     0.2220 Hartree-Fock + 1.0000 wB97X-D + LR-HF
 Correlation:  1.0000 wB97X-D
 Using Euler-Maclaurin-Lebedev (75,302) quadrature formula
 Dispersion:   Grimme D
 SCF converges when DIIS error is below 1.0E-05
 Basis2 calculation detected. Using small basis as guess for larger.
 SCFMinFind is unable to tell whether the solution found is close.
 Resetting ReadMinima to 0 and attempting to follow guess.
 SCFMinFind following SCF Guess.
 using 6 threads for integral computing
 -------------------------------------------------------
 OpenMP Integral computing Module                
 Release: version 1.0, May 2013, Q-Chem Inc. Pittsburgh 
 -------------------------------------------------------
 using 6 threads for integral computing
 -------------------------------------------------------
 OpenMP Integral computing Module                
 Release: version 1.0, May 2013, Q-Chem Inc. Pittsburgh 
 -------------------------------------------------------
 ---------------------------------------
  Cycle       Energy         DIIS Error
 ---------------------------------------
    1    -154.8778197179      5.97E-03
    2    -154.8739823499      4.40E-03
    3    -154.8951459647      1.01E-03
    4    -154.9244624138      1.11E-03
    5    -154.9260151810      1.79E-04 Done RCA. Switching to DIIS
    6    -154.9279939806      2.14E-04
    7    -154.9281318571      1.05E-05
    8    -154.9281328165      1.13E-05
    9    -154.9281332487      3.54E-06 Convergence criterion met
 ---------------------------------------
 SCF time:  CPU 73.96 s  wall 12.37 s
 SCF   energy in the final basis set = -154.92813325
 Total energy in the final basis set = -154.92813325
 
 --------------------------------------------------------------
 
                    Orbital Energies (a.u.)
 --------------------------------------------------------------
 
 Alpha MOs
 -- Occupied --
-19.2500 -10.3577 -10.2522  -1.0908  -0.8734  -0.6960  -0.6164  -0.5669
 -0.4980  -0.4505  -0.4328  -0.4297  -0.3152
 -- Virtual --
  0.0363   0.0664   0.0911   0.0954   0.1097   0.1343   0.1369   0.1482
  0.1784   0.1877   0.2031   0.2421   0.2553   0.2766   0.2809   0.2910
  0.3229   0.3321   0.3563   0.3962   0.4649   0.4692   0.5038   0.5280
  0.5529   0.5710   0.5810   0.5931   0.6256   0.6288   0.6506   0.6582
  0.6868   0.7319   0.7854   0.8319   0.8692   0.8905   0.9037   0.9440
  0.9923   1.0221   1.0499   1.0831   1.0986   1.1254   1.1574   1.1780
  1.2173   1.2446   1.2909   1.3040   1.3247   1.3616   1.3899   1.4144
  1.4428   1.4545   1.4619   1.4726   1.4996   1.5433   1.5992   1.6216
  1.6262   1.7950   1.9036   1.9775   2.0415   2.2620   2.3181   2.4246
  2.4837   2.5690   2.5888   2.6293   2.6801   2.7315   2.7738   2.8383
  2.8711   2.8774   2.9476   2.9863   3.0079   3.0447   3.0756   3.0795
  3.1040   3.1243   3.1837   3.2049   3.2392   3.2469   3.2729   3.3542
  3.3964   3.4019   3.4352   3.4426   3.4709   3.4879   3.4995   3.5099
  3.5354   3.5742   3.5890   3.6375   3.6555   3.6867   3.7059   3.7679
  3.7953   3.8213   3.8600   3.9043   3.9234   4.0119   4.0273   4.0643
  4.0796   4.0944   4.1242   4.1647   4.2035   4.2352   4.2852   4.2967
  4.3184   4.3471   4.3664   4.4100   4.5305   4.5830   4.6514   4.6896
  4.7125   4.7752   4.8154   4.9101   4.9370   4.9694   5.0189   5.0879
  5.1231   5.2016   5.2489   5.3213   5.3320   5.3854   5.4227   5.5083
  5.5554   5.5662   5.7385   5.7986   5.8717   6.0384   6.1467   6.3404
  6.4354   6.6208   6.7321   6.9172   7.1459   7.2187   7.3935   7.5989
  7.7611   8.1596  24.9319  25.2870  50.4267
 --------------------------------------------------------------
 
 -----------------------------------------------------------------
                    Cartesian Multipole Moments
 -----------------------------------------------------------------
    Charge (ESU x 10^10)
                 0.0000
    Dipole Moment (Debye)
         X       0.6141      Y       1.4662      Z      -1.5004
       Tot       2.1859
    Quadrupole Moments (Debye-Ang)
        XX     -25.7872     XY      -7.1244     YY     -18.4013
        XZ       3.7092     YZ       0.5916     ZZ     -21.1446
    Octopole Moments (Debye-Ang^2)
       XXX     312.0486    XXY      21.4740    XYY      83.7320
       YYY     -30.8323    XXZ     -11.3320    XYZ      -3.0016
       YYZ      -2.4500    XZZ      91.7755    YZZ      -9.3978
       ZZZ     -12.2388
    Hexadecapole Moments (Debye-Ang^3)
      XXXX   -2843.6951   XXXY      13.7113   XXYY    -426.8787
      XYYY     150.1695   YYYY    -108.8314   XXXZ      41.4040
      XXYZ      15.5957   XYYZ       4.9508   YYYZ       1.7932
      XXZZ    -433.0559   XYZZ      45.5470   YYZZ     -23.9296
      XZZZ      38.5796   YZZZ       0.0745   ZZZZ     -48.3410
 -----------------------------------------------------------------
Archival summary:
1\1\centos77-c1\SP\ProcedureUnspecified\BasisUnspecified\126\shihchen\WedJul2900:31:042020WedJul2900:31:042020\0\\#,ProcedureUnspecified,BasisUnspecified,\\0,1\C\H,1,1.08194\H,1,1.08393,2,114.164\C,1,1.42634,2,121.428,3,-160.334,0\H,4,1.08601,1,109.789,2,21.1302,0\H,4,1.08632,1,110.076,2,137.819,0\H,4,1.45265,1,76.3985,2,-100.224,0\O,7,1.22693,4,127.289,1,4.14239,0\H,8,0.963789,7,113.566,4,-109.293,0\\\@

 Total job time:  17.81s(wall), 95.72s(cpu) 
 Wed Jul 29 00:31:04 2020

        *************************************************************
        *                                                           *
        *  Thank you very much for using Q-Chem.  Have a nice day.  *
        *                                                           *
        *************************************************************


