                  Welcome to Q-Chem
     A Quantum Leap Into The Future Of Chemistry


 Q-Chem 5.3 (devel), Q-Chem, Inc., Pleasanton, CA (2020)

 Yihan Shao,  Zhengting Gan,  E. Epifanovsky,  A. T. B. Gilbert,  M. Wormit,  
 J. Kussmann,  A. W. Lange,  A. Behn,  Jia Deng,  Xintian Feng,  D. Ghosh,  
 M. Goldey,  P. R. Horn,  L. D. Jacobson,  I. Kaliman,  T. Kus,  A. Landau,  
 Jie Liu,  E. I. Proynov,  R. M. Richard,  R. P. Steele,  E. J. Sundstrom,  
 H. L. Woodcock III,  P. M. Zimmerman,  D. Zuev,  B. Alam,  B. Albrecht,  
 E. Alguire,  S. A. Baeppler,  D. Barton,  Z. Benda,  Y. A. Bernard,  
 E. J. Berquist,  K. B. Bravaya,  H. Burton,  K. Carter-Fenk,  D. Casanova,  
 Chun-Min Chang,  Yunqing Chen,  A. Chien,  K. D. Closser,  M. P. Coons,  
 S. Coriani,  S. Dasgupta,  A. L. Dempwolff,  M. Diedenhofen,  Hainam Do,  
 R. G. Edgar,  Po-Tung Fang,  S. Faraji,  S. Fatehi,  Qingguo Feng,  
 J. Fosso-Tande,  J. Gayvert,  Qinghui Ge,  A. Ghysels,  G. Gidofalvi,  
 J. Gomes,  J. Gonthier,  A. Gunina,  D. Hait,  M. W. D. Hanson-Heine,  
 P. H. P. Harbach,  A. W. Hauser,  M. F. Herbst,  J. E. Herr,  
 E. G. Hohenstein,  Z. C. Holden,  Kerwin Hui,  B. C. Huynh,  T.-C. Jagau,  
 Hyunjun Ji,  B. Kaduk,  K. Khistyaev,  Jaehoon Kim,  P. Klunzinger,  K. Koh,  
 D. Kosenkov,  L. Koulias,  T. Kowalczyk,  C. M. Krauter,  A. Kunitsa,  
 Ka Un Lao,  A. Laurent,  K. V. Lawler,  Joonho Lee,  D. Lefrancois,  
 S. Lehtola,  D. S. Levine,  Yi-Pei Li,  You-Sheng Lin,  Fenglai Liu,  
 Kuan-Yu Liu,  E. Livshits,  M. Loipersberger,  A. Luenser,  P. Manohar,  
 E. Mansoor,  S. F. Manzer,  Shan-Ping Mao,  Yuezhi Mao,  N. Mardirossian,  
 A. V. Marenich,  T. Markovich,  L. A. Martinez-Martinez,  S. A. Maurer,  
 N. J. Mayhall,  S. C. McKenzie,  J.-M. Mewes,  P. Morgante,  A. F. Morrison,  
 J. W. Mullinax,  K. Nanda,  T. S. Nguyen-Beck,  R. Olivares-Amaya,  
 K. J. Oosterbaan,  J. A. Parkhill,  S. K. Paul,  F. Pavosevic,  Zheng Pei,  
 T. M. Perrine,  F. Plasser,  P. Pokhilko,  S. Prager,  A. Prociuk,  
 E. Ramos,  B. Rana,  D. R. Rehn,  F. Rob,  M. Scheurer,  M. Schneider,  
 N. Sergueev,  S. M. Sharada,  S. Sharma,  D. W. Small,  T. Stauch,  
 C. J. Stein,  T. Stein,  Yu-Chuan Su,  S. P. Veccham,  Zhen Tao,  
 A. J. W. Thom,  A. Tkatchenko,  T. Tsuchimochi,  N. M. Tubman,  L. Vogt,  
 M. L. Vidal,  O. Vydrov,  M. A. Watson,  J. Wenzel,  M. de Wergifosse,  
 T. A. Wesolowski,  A. White,  J. Witte,  A. Yamada,  Jun Yang,  K. Yao,  
 S. Yeganeh,  S. R. Yost,  Zhi-Qiang You,  A. Zech,  Igor Ying Zhang,  
 Xing Zhang,  Yan Zhao,  Ying Zhu,  B. R. Brooks,  G. K. L. Chan,  
 C. J. Cramer,  M. S. Gordon,  W. J. Hehre,  A. Klamt,  M. W. Schmidt,  
 C. D. Sherrill,  D. G. Truhlar,  A. Aspuru-Guzik,  R. Baer,  A. T. Bell,  
 N. A. Besley,  Jeng-Da Chai,  A. E. DePrince, III,  R. A. DiStasio Jr.,  
 A. Dreuw,  B. D. Dunietz,  T. R. Furlani,  Chao-Ping Hsu,  Yousung Jung,  
 Jing Kong,  D. S. Lambrecht,  WanZhen Liang,  C. Ochsenfeld,  
 V. A. Rassolov,  L. V. Slipchenko,  J. E. Subotnik,  T. Van Voorhis,  
 J. M. Herbert,  A. I. Krylov,  P. M. W. Gill,  M. Head-Gordon

 Contributors to earlier versions of Q-Chem not listed above: 
 R. D. Adamson,  B. Austin,  J. Baker,  G. J. O. Beran,  K. Brandhorst,  
 S. T. Brown,  E. F. C. Byrd,  A. K. Chakraborty,  C.-L. Cheng,  
 Siu Hung Chien,  D. M. Chipman,  D. L. Crittenden,  H. Dachsel,  
 R. J. Doerksen,  A. D. Dutoi,  L. Fusti-Molnar,  W. A. Goddard III,  
 A. Golubeva-Zadorozhnaya,  S. R. Gwaltney,  G. Hawkins,  A. Heyden,  
 S. Hirata,  G. Kedziora,  F. J. Keil,  C. Kelley,  Jihan Kim,  R. A. King,  
 R. Z. Khaliullin,  P. P. Korambath,  W. Kurlancheek,  A. M. Lee,  M. S. Lee,  
 S. V. Levchenko,  Ching Yeh Lin,  D. Liotard,  R. C. Lochan,  I. Lotan,  
 P. E. Maslen,  N. Nair,  D. P. O'Neill,  D. Neuhauser,  E. Neuscamman,  
 C. M. Oana,  R. Olson,  B. Peters,  R. Peverati,  P. A. Pieniazek,  
 Y. M. Rhee,  J. Ritchie,  M. A. Rohrdanz,  E. Rosta,  N. J. Russ,  
 H. F. Schaefer III,  N. E. Schultz,  N. Shenvi,  A. C. Simmonett,  A. Sodt,  
 D. Stuck,  K. S. Thanthiriwatte,  V. Vanovschi,  Tao Wang,  A. Warshel,  
 C. F. Williams,  Q. Wu,  X. Xu,  W. Zhang

 Please cite Q-Chem as follows:
 Y. Shao et al., Mol. Phys. 113, 184-215 (2015)
 DOI: 10.1080/00268976.2014.952696

 Q-Chem 5.3.0 for Intel X86 EM64T Linux

 Parts of Q-Chem use Armadillo 9.800.1 (Horizon Scraper).
 http://arma.sourceforge.net/

 Q-Chem begins on Wed Jul 29 00:40:28 2020  

Host: centos77-c1
0

     Scratch files written to /tmp/30084.centos77-h1/qchem30257//
Processing $rem in /opt/qchem-5.3.0-intel2020u1//config/preferences:
Processing $rem in /home/shihchengli/.qchemrc:

Checking the input file for inconsistencies... 	...done.

--------------------------------------------------------------
User input:
--------------------------------------------------------------
$rem
   JOBTYPE  sp
   EXCHANGE   omegaB97X-D
   BASIS   6-311+G(2df,2pd)
   UNRESTRICTED   False
   max_scf_cycles   250
   geom_opt_max_cycles   1500
   basis2 6-31G*
   scf_algorithm rca_diis
   SYM_IGNORE  TRUE
   print_input   true
   geom_opt_dmax   80
   pop_mulliken false
   XC_GRID 000075000302
$end

$molecule
0 1
C       -5.5489801489     0.5507300894     -0.0912504070
C       -4.4320793806     1.4059882189     0.0247541527
H       -5.9556566620     0.4504898025     -1.0887869782
H       -6.2520298803     0.4095024829     0.7203304208
H       -4.4896473795     -0.2918478066     0.4333317201
O       -3.2771881674     -0.0144017135     0.4983477591
H       -4.3294392794     2.0130022144     0.9143015411
H       -3.8303039252     1.7356658798     -0.8120086869
H       -2.5654075739     -0.3959919105     -0.0261293584
$end
--------------------------------------------------------------
 ----------------------------------------------------------------
             Standard Nuclear Orientation (Angstroms)
    I     Atom           X                Y                Z
 ----------------------------------------------------------------
    1      C      -5.5489801489     0.5507300894    -0.0912504070
    2      C      -4.4320793806     1.4059882189     0.0247541527
    3      H      -5.9556566620     0.4504898025    -1.0887869782
    4      H      -6.2520298803     0.4095024829     0.7203304208
    5      H      -4.4896473795    -0.2918478066     0.4333317201
    6      O      -3.2771881674    -0.0144017135     0.4983477591
    7      H      -4.3294392794     2.0130022144     0.9143015411
    8      H      -3.8303039252     1.7356658798    -0.8120086869
    9      H      -2.5654075739    -0.3959919105    -0.0261293584
 ----------------------------------------------------------------
 Nuclear Repulsion Energy =          78.75333747 hartrees
 There are       13 alpha and       13 beta electrons
 Requested basis set is 6-311+G(2df,2pd)
 There are 60 shells and 186 basis functions

 Total QAlloc Memory Limit   2000 MB
 Mega-Array Size       188 MB
 MEM_STATIC part       192 MB

                       Distance Matrix (Angstroms)
             C (  1)   C (  2)   H (  3)   H (  4)   H (  5)   O (  6)
   C (  2)  1.411521
   H (  3)  1.081903  2.115240
   H (  4)  1.082999  2.188385  1.833691
   H (  5)  1.451658  1.747254  2.239887  1.918398
   O (  6)  2.414133  1.890918  3.147906  3.013081  1.245496
   H (  7)  2.153289  1.081802  3.016354  2.511014  2.359943  2.321770
   H (  8)  2.208487  1.082124  2.499081  3.157773  2.469093  2.255151
   H (  9)  3.130851  2.595031  3.652336  3.846714  1.981073  0.962974
             H (  7)   H (  8)
   H (  8)  1.818296
   H (  9)  3.130411  2.600295
 
 A cutoff of  1.0D-09 yielded   1771 shell pairs
 There are     17215 function pairs (     21391 Cartesian)
 Smallest overlap matrix eigenvalue = 9.28E-05

 Scale SEOQF with 1.000000e-02/1.000000e-01/1.000000e-01

 Standard Electronic Orientation quadrupole field applied
 Nucleus-field energy     =     0.0000000028 hartrees
 Requested basis set is 6-31G(d)
 There are 24 shells and 54 basis functions
 A cutoff of  1.0D-09 yielded    297 shell pairs
 There are      1548 function pairs (      1731 Cartesian)
 Smallest overlap matrix eigenvalue = 7.02E-03
 Guess from superposition of atomic densities
 Warning:  Energy on first SCF cycle will be non-variational
 SAD guess density has 26.000000 electrons
 Long-range K will be added via erf
 Coulomb attenuation parameter = 0.2 bohr**(-1)
 A restricted hybrid HF-DFT SCF calculation will be
 performed using Relaxed Constraint Minimization + Pulay DIIS
 Exchange:     0.2220 Hartree-Fock + 1.0000 wB97X-D + LR-HF
 Correlation:  1.0000 wB97X-D
 Using Euler-Maclaurin-Lebedev (75,302) quadrature formula
 Dispersion:   Grimme D
 SCF converges when DIIS error is below 1.0E-04
 using 6 threads for integral computing
 -------------------------------------------------------
 OpenMP Integral computing Module                
 Release: version 1.0, May 2013, Q-Chem Inc. Pittsburgh 
 -------------------------------------------------------
 using 6 threads for integral computing
 -------------------------------------------------------
 OpenMP Integral computing Module                
 Release: version 1.0, May 2013, Q-Chem Inc. Pittsburgh 
 -------------------------------------------------------
 ---------------------------------------
  Cycle       Energy         DIIS Error
 ---------------------------------------
    1    -155.2115243931      9.75E-02
    2    -154.7710856077      1.60E-02
    3    -154.8055790776      3.21E-03
    4    -154.8476079585      2.12E-03
    5    -154.8484048468      4.68E-04 Done RCA. Switching to DIIS
    6    -154.8493066724      3.71E-04
    7    -154.8493481523      4.17E-05 Convergence criterion met
 ---------------------------------------
 SCF time:  CPU 20.79 s  wall 3.48 s
 SCF   energy in the small basis set = -154.84934815
 Total energy in the small basis set = -154.84934815
 ----------------------------------------------------
  Cycle       Energy    
 ----------------------------------------------------
    1     -18.6620706106     -1.87E+01
 Long-range K will be added via erf
 Coulomb attenuation parameter = 0.2 bohr**(-1)
 A restricted hybrid HF-DFT SCF calculation will be
 performed using Relaxed Constraint Minimization + Pulay DIIS
 Exchange:     0.2220 Hartree-Fock + 1.0000 wB97X-D + LR-HF
 Correlation:  1.0000 wB97X-D
 Using Euler-Maclaurin-Lebedev (75,302) quadrature formula
 Dispersion:   Grimme D
 SCF converges when DIIS error is below 1.0E-05
 Basis2 calculation detected. Using small basis as guess for larger.
 SCFMinFind is unable to tell whether the solution found is close.
 Resetting ReadMinima to 0 and attempting to follow guess.
 SCFMinFind following SCF Guess.
 using 6 threads for integral computing
 -------------------------------------------------------
 OpenMP Integral computing Module                
 Release: version 1.0, May 2013, Q-Chem Inc. Pittsburgh 
 -------------------------------------------------------
 using 6 threads for integral computing
 -------------------------------------------------------
 OpenMP Integral computing Module                
 Release: version 1.0, May 2013, Q-Chem Inc. Pittsburgh 
 -------------------------------------------------------
 ---------------------------------------
  Cycle       Energy         DIIS Error
 ---------------------------------------
    1    -154.8737874250      6.04E-03
    2    -154.8684033199      4.58E-03
    3    -154.8912806320      1.04E-03
    4    -154.9228508305      1.12E-03
    5    -154.9244252162      1.76E-04 Done RCA. Switching to DIIS
    6    -154.9264195951      2.11E-04
    7    -154.9265501274      1.15E-05
    8    -154.9265510283      1.06E-05
    9    -154.9265514255      2.55E-06 Convergence criterion met
 ---------------------------------------
 SCF time:  CPU 86.78 s  wall 14.51 s
 SCF   energy in the final basis set = -154.92655143
 Total energy in the final basis set = -154.92655143
 
 --------------------------------------------------------------
 
                    Orbital Energies (a.u.)
 --------------------------------------------------------------
 
 Alpha MOs
 -- Occupied --
-19.2325 -10.3503 -10.2595  -1.0748  -0.8729  -0.6975  -0.6164  -0.5630
 -0.5063  -0.4617  -0.4257  -0.4099  -0.3058
 -- Virtual --
  0.0472   0.0713   0.0889   0.0983   0.1116   0.1295   0.1381   0.1485
  0.1746   0.1872   0.2072   0.2444   0.2474   0.2681   0.2885   0.2962
  0.3299   0.3349   0.3587   0.3857   0.4636   0.4682   0.4840   0.5474
  0.5696   0.5809   0.5820   0.6151   0.6216   0.6469   0.6654   0.6809
  0.7041   0.7404   0.7833   0.8396   0.8629   0.8853   0.9050   0.9274
  0.9786   1.0295   1.0622   1.0809   1.1345   1.1515   1.1847   1.1994
  1.2185   1.2774   1.2919   1.3018   1.3386   1.3691   1.3937   1.4301
  1.4369   1.4599   1.4791   1.5063   1.5288   1.5911   1.6045   1.6585
  1.7122   1.7948   1.8579   1.8877   2.0261   2.2764   2.3000   2.4001
  2.5031   2.5561   2.6144   2.6413   2.7251   2.7500   2.7775   2.8215
  2.8673   2.8854   2.9151   2.9782   3.0079   3.0451   3.0742   3.0883
  3.1036   3.1246   3.1361   3.1861   3.2316   3.2960   3.3085   3.3429
  3.3797   3.3949   3.4142   3.4448   3.4554   3.4855   3.5139   3.5336
  3.5689   3.5938   3.6553   3.6627   3.6983   3.7543   3.7606   3.7771
  3.8247   3.8582   3.8736   3.9365   3.9678   3.9888   4.0077   4.0373
  4.1066   4.1199   4.1730   4.2038   4.2250   4.2505   4.2680   4.3058
  4.3452   4.3723   4.4408   4.4472   4.4964   4.5626   4.6577   4.7133
  4.7656   4.8329   4.8509   4.9421   4.9745   5.0116   5.0771   5.1012
  5.1410   5.1961   5.2299   5.2833   5.3168   5.3585   5.3803   5.4559
  5.5628   5.5926   5.6667   5.7865   6.0359   6.2021   6.2196   6.3065
  6.4866   6.6254   6.6592   7.0053   7.0956   7.1186   7.3723   7.6570
  7.8302   8.1018  24.9521  25.2875  50.4440
 --------------------------------------------------------------
 
 -----------------------------------------------------------------
                    Cartesian Multipole Moments
 -----------------------------------------------------------------
    Charge (ESU x 10^10)
                 0.0000
    Dipole Moment (Debye)
         X       0.3233      Y       0.7413      Z      -1.1222
       Tot       1.3833
    Quadrupole Moments (Debye-Ang)
        XX     -22.9386     XY      -3.0344     YY     -18.8690
        XZ       2.0470     YZ       0.2716     ZZ     -20.6497
    Octopole Moments (Debye-Ang^2)
       XXX     293.0047    XXY      -4.6356    XYY      87.8438
       YYY     -35.3018    XXZ      -2.5551    XYZ      -1.5095
       YYZ      -1.7404    XZZ      89.1463    YZZ     -10.8742
       ZZZ      -9.6869
    Hexadecapole Moments (Debye-Ang^3)
      XXXX   -2740.7331   XXXY     186.7913   XXYY    -457.1495
      XYYY     174.0165   YYYY    -119.7000   XXXZ      -8.0653
      XXYZ       7.6758   XYYZ       2.1996   YYYZ       3.2438
      XXZZ    -417.6602   XYZZ      52.8631   YYZZ     -25.5109
      XZZZ      28.7711   YZZZ       0.9139   ZZZZ     -45.0033
 -----------------------------------------------------------------
Archival summary:
1\1\centos77-c1\SP\ProcedureUnspecified\BasisUnspecified\126\shihchen\WedJul2900:40:492020WedJul2900:40:492020\0\\#,ProcedureUnspecified,BasisUnspecified,\\0,1\C\H,1,1.0818\H,1,1.08212,2,114.339\C,1,1.41152,2,118.858,3,-162.249,0\H,4,1.0819,1,115.426,2,143.837,0\H,4,1.083,1,122.08,2,-6.18654,0\H,4,1.45166,1,75.2005,2,-95.597,0\O,7,1.2455,4,126.866,1,-12.1041,0\H,8,0.962974,7,127.074,4,-109.293,0\\\@

 Total job time:  21.28s(wall), 113.03s(cpu) 
 Wed Jul 29 00:40:49 2020

        *************************************************************
        *                                                           *
        *  Thank you very much for using Q-Chem.  Have a nice day.  *
        *                                                           *
        *************************************************************


