                  Welcome to Q-Chem
     A Quantum Leap Into The Future Of Chemistry


 Q-Chem 5.3 (devel), Q-Chem, Inc., Pleasanton, CA (2020)

 Yihan Shao,  Zhengting Gan,  E. Epifanovsky,  A. T. B. Gilbert,  M. Wormit,  
 J. Kussmann,  A. W. Lange,  A. Behn,  Jia Deng,  Xintian Feng,  D. Ghosh,  
 M. Goldey,  P. R. Horn,  L. D. Jacobson,  I. Kaliman,  T. Kus,  A. Landau,  
 Jie Liu,  E. I. Proynov,  R. M. Richard,  R. P. Steele,  E. J. Sundstrom,  
 H. L. Woodcock III,  P. M. Zimmerman,  D. Zuev,  B. Alam,  B. Albrecht,  
 E. Alguire,  S. A. Baeppler,  D. Barton,  Z. Benda,  Y. A. Bernard,  
 E. J. Berquist,  K. B. Bravaya,  H. Burton,  K. Carter-Fenk,  D. Casanova,  
 Chun-Min Chang,  Yunqing Chen,  A. Chien,  K. D. Closser,  M. P. Coons,  
 S. Coriani,  S. Dasgupta,  A. L. Dempwolff,  M. Diedenhofen,  Hainam Do,  
 R. G. Edgar,  Po-Tung Fang,  S. Faraji,  S. Fatehi,  Qingguo Feng,  
 J. Fosso-Tande,  J. Gayvert,  Qinghui Ge,  A. Ghysels,  G. Gidofalvi,  
 J. Gomes,  J. Gonthier,  A. Gunina,  D. Hait,  M. W. D. Hanson-Heine,  
 P. H. P. Harbach,  A. W. Hauser,  M. F. Herbst,  J. E. Herr,  
 E. G. Hohenstein,  Z. C. Holden,  Kerwin Hui,  B. C. Huynh,  T.-C. Jagau,  
 Hyunjun Ji,  B. Kaduk,  K. Khistyaev,  Jaehoon Kim,  P. Klunzinger,  K. Koh,  
 D. Kosenkov,  L. Koulias,  T. Kowalczyk,  C. M. Krauter,  A. Kunitsa,  
 Ka Un Lao,  A. Laurent,  K. V. Lawler,  Joonho Lee,  D. Lefrancois,  
 S. Lehtola,  D. S. Levine,  Yi-Pei Li,  You-Sheng Lin,  Fenglai Liu,  
 Kuan-Yu Liu,  E. Livshits,  M. Loipersberger,  A. Luenser,  P. Manohar,  
 E. Mansoor,  S. F. Manzer,  Shan-Ping Mao,  Yuezhi Mao,  N. Mardirossian,  
 A. V. Marenich,  T. Markovich,  L. A. Martinez-Martinez,  S. A. Maurer,  
 N. J. Mayhall,  S. C. McKenzie,  J.-M. Mewes,  P. Morgante,  A. F. Morrison,  
 J. W. Mullinax,  K. Nanda,  T. S. Nguyen-Beck,  R. Olivares-Amaya,  
 K. J. Oosterbaan,  J. A. Parkhill,  S. K. Paul,  F. Pavosevic,  Zheng Pei,  
 T. M. Perrine,  F. Plasser,  P. Pokhilko,  S. Prager,  A. Prociuk,  
 E. Ramos,  B. Rana,  D. R. Rehn,  F. Rob,  M. Scheurer,  M. Schneider,  
 N. Sergueev,  S. M. Sharada,  S. Sharma,  D. W. Small,  T. Stauch,  
 C. J. Stein,  T. Stein,  Yu-Chuan Su,  S. P. Veccham,  Zhen Tao,  
 A. J. W. Thom,  A. Tkatchenko,  T. Tsuchimochi,  N. M. Tubman,  L. Vogt,  
 M. L. Vidal,  O. Vydrov,  M. A. Watson,  J. Wenzel,  M. de Wergifosse,  
 T. A. Wesolowski,  A. White,  J. Witte,  A. Yamada,  Jun Yang,  K. Yao,  
 S. Yeganeh,  S. R. Yost,  Zhi-Qiang You,  A. Zech,  Igor Ying Zhang,  
 Xing Zhang,  Yan Zhao,  Ying Zhu,  B. R. Brooks,  G. K. L. Chan,  
 C. J. Cramer,  M. S. Gordon,  W. J. Hehre,  A. Klamt,  M. W. Schmidt,  
 C. D. Sherrill,  D. G. Truhlar,  A. Aspuru-Guzik,  R. Baer,  A. T. Bell,  
 N. A. Besley,  Jeng-Da Chai,  A. E. DePrince, III,  R. A. DiStasio Jr.,  
 A. Dreuw,  B. D. Dunietz,  T. R. Furlani,  Chao-Ping Hsu,  Yousung Jung,  
 Jing Kong,  D. S. Lambrecht,  WanZhen Liang,  C. Ochsenfeld,  
 V. A. Rassolov,  L. V. Slipchenko,  J. E. Subotnik,  T. Van Voorhis,  
 J. M. Herbert,  A. I. Krylov,  P. M. W. Gill,  M. Head-Gordon

 Contributors to earlier versions of Q-Chem not listed above: 
 R. D. Adamson,  B. Austin,  J. Baker,  G. J. O. Beran,  K. Brandhorst,  
 S. T. Brown,  E. F. C. Byrd,  A. K. Chakraborty,  C.-L. Cheng,  
 Siu Hung Chien,  D. M. Chipman,  D. L. Crittenden,  H. Dachsel,  
 R. J. Doerksen,  A. D. Dutoi,  L. Fusti-Molnar,  W. A. Goddard III,  
 A. Golubeva-Zadorozhnaya,  S. R. Gwaltney,  G. Hawkins,  A. Heyden,  
 S. Hirata,  G. Kedziora,  F. J. Keil,  C. Kelley,  Jihan Kim,  R. A. King,  
 R. Z. Khaliullin,  P. P. Korambath,  W. Kurlancheek,  A. M. Lee,  M. S. Lee,  
 S. V. Levchenko,  Ching Yeh Lin,  D. Liotard,  R. C. Lochan,  I. Lotan,  
 P. E. Maslen,  N. Nair,  D. P. O'Neill,  D. Neuhauser,  E. Neuscamman,  
 C. M. Oana,  R. Olson,  B. Peters,  R. Peverati,  P. A. Pieniazek,  
 Y. M. Rhee,  J. Ritchie,  M. A. Rohrdanz,  E. Rosta,  N. J. Russ,  
 H. F. Schaefer III,  N. E. Schultz,  N. Shenvi,  A. C. Simmonett,  A. Sodt,  
 D. Stuck,  K. S. Thanthiriwatte,  V. Vanovschi,  Tao Wang,  A. Warshel,  
 C. F. Williams,  Q. Wu,  X. Xu,  W. Zhang

 Please cite Q-Chem as follows:
 Y. Shao et al., Mol. Phys. 113, 184-215 (2015)
 DOI: 10.1080/00268976.2014.952696

 Q-Chem 5.3.0 for Intel X86 EM64T Linux

 Parts of Q-Chem use Armadillo 9.800.1 (Horizon Scraper).
 http://arma.sourceforge.net/

 Q-Chem begins on Wed Jul 29 00:51:53 2020  

Host: centos77-c1
0

     Scratch files written to /tmp/30084.centos77-h1/qchem31920//
Processing $rem in /opt/qchem-5.3.0-intel2020u1//config/preferences:
Processing $rem in /home/shihchengli/.qchemrc:

Checking the input file for inconsistencies... 	...done.

--------------------------------------------------------------
User input:
--------------------------------------------------------------
$rem
   JOBTYPE  sp
   EXCHANGE   omegaB97X-D
   BASIS   6-311+G(2df,2pd)
   UNRESTRICTED   False
   max_scf_cycles   250
   geom_opt_max_cycles   1500
   basis2 6-31G*
   scf_algorithm rca_diis
   SYM_IGNORE  TRUE
   print_input   true
   geom_opt_dmax   80
   pop_mulliken false
   XC_GRID 000075000302
$end

$molecule
0 1
C       -5.5572333847     0.5450027929     -0.0718262258
C       -4.4219050978     1.3706431182     0.0725606218
H       -5.8969370895     0.3117085698     -1.0725773564
H       -6.3187756546     0.5813822065     0.6958640507
H       -4.4849595851     -0.3003611403     0.3129860788
O       -3.3218751771     -0.0087009435     0.6301900014
H       -4.2800580168     1.9739714661     0.9573167990
H       -3.8670954538     1.7058159553     -0.7958505803
H       -2.5318929379     -0.3163247679     -0.1557732260
$end
--------------------------------------------------------------
 ----------------------------------------------------------------
             Standard Nuclear Orientation (Angstroms)
    I     Atom           X                Y                Z
 ----------------------------------------------------------------
    1      C      -5.5572333847     0.5450027929    -0.0718262258
    2      C      -4.4219050978     1.3706431182     0.0725606218
    3      H      -5.8969370895     0.3117085698    -1.0725773564
    4      H      -6.3187756546     0.5813822065     0.6958640507
    5      H      -4.4849595851    -0.3003611403     0.3129860788
    6      O      -3.3218751771    -0.0087009435     0.6301900014
    7      H      -4.2800580168     1.9739714661     0.9573167990
    8      H      -3.8670954538     1.7058159553    -0.7958505803
    9      H      -2.5318929379    -0.3163247679    -0.1557732260
 ----------------------------------------------------------------
 Nuclear Repulsion Energy =          78.56887078 hartrees
 There are       13 alpha and       13 beta electrons
 Requested basis set is 6-311+G(2df,2pd)
 There are 60 shells and 186 basis functions

 Total QAlloc Memory Limit   2000 MB
 Mega-Array Size       188 MB
 MEM_STATIC part       192 MB

                       Distance Matrix (Angstroms)
             C (  1)   C (  2)   H (  3)   H (  4)   H (  5)   O (  6)
   C (  2)  1.411205
   H (  3)  1.082279  2.146719
   H (  4)  1.081951  2.146988  1.837949
   H (  5)  1.418623  1.689389  2.070772  2.070495
   O (  6)  2.407538  1.850299  3.103711  3.055147  1.240342
   H (  7)  2.175377  1.080240  3.081864  2.482747  2.372706  2.226234
   H (  8)  2.174457  1.083648  2.477977  3.082256  2.374031  2.295741
   H (  9)  3.146684  2.543648  3.543794  3.983923  2.008596  1.156046
             H (  7)   H (  8)
   H (  8)  1.821000
   H (  9)  3.088771  2.506296
 
 A cutoff of  1.0D-09 yielded   1771 shell pairs
 There are     17187 function pairs (     21351 Cartesian)
 Smallest overlap matrix eigenvalue = 8.84E-05

 Scale SEOQF with 1.000000e-02/1.000000e-01/1.000000e-01

 Standard Electronic Orientation quadrupole field applied
 Nucleus-field energy     =     0.0000000026 hartrees
 Requested basis set is 6-31G(d)
 There are 24 shells and 54 basis functions
 A cutoff of  1.0D-09 yielded    297 shell pairs
 There are      1548 function pairs (      1731 Cartesian)
 Smallest overlap matrix eigenvalue = 6.74E-03
 Guess from superposition of atomic densities
 Warning:  Energy on first SCF cycle will be non-variational
 SAD guess density has 26.000000 electrons
 Long-range K will be added via erf
 Coulomb attenuation parameter = 0.2 bohr**(-1)
 A restricted hybrid HF-DFT SCF calculation will be
 performed using Relaxed Constraint Minimization + Pulay DIIS
 Exchange:     0.2220 Hartree-Fock + 1.0000 wB97X-D + LR-HF
 Correlation:  1.0000 wB97X-D
 Using Euler-Maclaurin-Lebedev (75,302) quadrature formula
 Dispersion:   Grimme D
 SCF converges when DIIS error is below 1.0E-04
 using 6 threads for integral computing
 -------------------------------------------------------
 OpenMP Integral computing Module                
 Release: version 1.0, May 2013, Q-Chem Inc. Pittsburgh 
 -------------------------------------------------------
 using 6 threads for integral computing
 -------------------------------------------------------
 OpenMP Integral computing Module                
 Release: version 1.0, May 2013, Q-Chem Inc. Pittsburgh 
 -------------------------------------------------------
 ---------------------------------------
  Cycle       Energy         DIIS Error
 ---------------------------------------
    1    -155.1367642459      9.50E-02
    2    -154.7656867300      1.51E-02
    3    -154.7986310746      3.40E-03
    4    -154.8392387577      2.55E-03
    5    -154.8402494873      5.75E-04 Done RCA. Switching to DIIS
    6    -154.8415275612      3.92E-04
    7    -154.8415823627      4.05E-05 Convergence criterion met
 ---------------------------------------
 SCF time:  CPU 19.91 s  wall 3.34 s
 SCF   energy in the small basis set = -154.84158236
 Total energy in the small basis set = -154.84158236
 ----------------------------------------------------
  Cycle       Energy    
 ----------------------------------------------------
    1     -18.6012855978     -1.86E+01
 Long-range K will be added via erf
 Coulomb attenuation parameter = 0.2 bohr**(-1)
 A restricted hybrid HF-DFT SCF calculation will be
 performed using Relaxed Constraint Minimization + Pulay DIIS
 Exchange:     0.2220 Hartree-Fock + 1.0000 wB97X-D + LR-HF
 Correlation:  1.0000 wB97X-D
 Using Euler-Maclaurin-Lebedev (75,302) quadrature formula
 Dispersion:   Grimme D
 SCF converges when DIIS error is below 1.0E-05
 Basis2 calculation detected. Using small basis as guess for larger.
 SCFMinFind is unable to tell whether the solution found is close.
 Resetting ReadMinima to 0 and attempting to follow guess.
 SCFMinFind following SCF Guess.
 using 6 threads for integral computing
 -------------------------------------------------------
 OpenMP Integral computing Module                
 Release: version 1.0, May 2013, Q-Chem Inc. Pittsburgh 
 -------------------------------------------------------
 using 6 threads for integral computing
 -------------------------------------------------------
 OpenMP Integral computing Module                
 Release: version 1.0, May 2013, Q-Chem Inc. Pittsburgh 
 -------------------------------------------------------
 ---------------------------------------
  Cycle       Energy         DIIS Error
 ---------------------------------------
    1    -154.8628912478      6.00E-03
    2    -154.8490017810      4.78E-03
    3    -154.8739728426      1.19E-03
    4    -154.9080870585      1.09E-03
    5    -154.9105432835      1.34E-04 Done RCA. Switching to DIIS
    6    -154.9142124947      1.68E-04
    7    -154.9143119277      8.95E-06 Convergence criterion met
 ---------------------------------------
 SCF time:  CPU 69.16 s  wall 11.56 s
 SCF   energy in the final basis set = -154.91431193
 Total energy in the final basis set = -154.91431193
 
 --------------------------------------------------------------
 
                    Orbital Energies (a.u.)
 --------------------------------------------------------------
 
 Alpha MOs
 -- Occupied --
-19.2582 -10.3519 -10.2551  -1.0610  -0.8675  -0.6966  -0.5908  -0.5676
 -0.4986  -0.4564  -0.4369  -0.4249  -0.3032
 -- Virtual --
  0.0514   0.0586   0.0893   0.0962   0.1098   0.1270   0.1361   0.1455
  0.1661   0.1796   0.2168   0.2230   0.2502   0.2762   0.2887   0.2953
  0.3239   0.3312   0.3591   0.3890   0.4623   0.4634   0.4858   0.5079
  0.5623   0.5672   0.5774   0.6049   0.6132   0.6282   0.6446   0.6856
  0.7024   0.7482   0.7874   0.8342   0.8406   0.8621   0.9102   0.9320
  0.9839   1.0157   1.0746   1.0925   1.1273   1.1536   1.1705   1.1977
  1.2234   1.2476   1.2685   1.2857   1.3200   1.3465   1.3601   1.4084
  1.4335   1.4376   1.4556   1.4857   1.5271   1.5737   1.5910   1.6669
  1.7174   1.8043   1.8505   1.9746   2.0625   2.2475   2.3369   2.4424
  2.4651   2.5586   2.6166   2.6599   2.6875   2.7345   2.7696   2.7976
  2.8708   2.8956   2.9462   2.9778   2.9939   3.0151   3.0651   3.0859
  3.0941   3.1200   3.1293   3.2105   3.2250   3.2413   3.3112   3.3395
  3.3479   3.3977   3.4140   3.4188   3.4422   3.4897   3.5078   3.5410
  3.5593   3.5858   3.6066   3.6365   3.6975   3.7210   3.7450   3.7999
  3.8131   3.8400   3.8657   3.8915   3.9095   3.9336   3.9969   4.0208
  4.0460   4.0850   4.0924   4.1706   4.2036   4.2193   4.2422   4.2781
  4.3010   4.3327   4.3618   4.4088   4.4709   4.5014   4.5804   4.6258
  4.7193   4.7842   4.8491   4.9700   4.9736   5.0056   5.0493   5.0963
  5.1012   5.2051   5.2378   5.2902   5.3323   5.3537   5.4184   5.4324
  5.5648   5.6250   5.6567   5.7413   5.9711   6.0308   6.1980   6.2040
  6.2745   6.2861   6.4695   6.8736   7.1163   7.1872   7.2598   7.6001
  7.6819   7.8556  24.9599  25.3130  50.1836
 --------------------------------------------------------------
 
 -----------------------------------------------------------------
                    Cartesian Multipole Moments
 -----------------------------------------------------------------
    Charge (ESU x 10^10)
                -0.0000
    Dipole Moment (Debye)
         X       0.5564      Y       0.9079      Z      -1.5256
       Tot       1.8605
    Quadrupole Moments (Debye-Ang)
        XX     -25.0862     XY      -3.7047     YY     -19.2792
        XZ       3.4043     YZ       0.9726     ZZ     -21.0212
    Octopole Moments (Debye-Ang^2)
       XXX     307.6159    XXY      -0.7622    XYY      89.0513
       YYY     -34.8471    XXZ      -7.9212    XYZ      -4.9424
       YYZ      -2.2747    XZZ      91.0143    YZZ     -10.6111
       ZZZ     -12.6592
    Hexadecapole Moments (Debye-Ang^3)
      XXXX   -2827.7340   XXXY     159.7513   XXYY    -459.4285
      XYYY     171.3435   YYYY    -116.7211   XXXZ      14.5083
      XXYZ      25.6255   XYYZ       4.0568   YYYZ       1.6331
      XXZZ    -428.3179   XYZZ      51.8391   YYZZ     -25.5869
      XZZZ      40.3338   YZZZ      -0.1123   ZZZZ     -50.3307
 -----------------------------------------------------------------
Archival summary:
1\1\centos77-c1\SP\ProcedureUnspecified\BasisUnspecified\126\shihchen\WedJul2900:52:112020WedJul2900:52:112020\0\\#,ProcedureUnspecified,BasisUnspecified,\\0,1\C\H,1,1.08024\H,1,1.08365,2,114.606\C,1,1.41121,2,121.078,3,-158.761,0\H,4,1.08195,1,118.294,2,4.14077,0\H,4,1.08228,1,118.245,2,153.405,0\H,4,1.41862,1,73.3092,2,-101.222,0\O,7,1.24034,4,129.644,1,4.88732,0\H,8,1.15605,7,113.85,4,-109.293,0\\\@

 Total job time:  18.02s(wall), 94.36s(cpu) 
 Wed Jul 29 00:52:11 2020

        *************************************************************
        *                                                           *
        *  Thank you very much for using Q-Chem.  Have a nice day.  *
        *                                                           *
        *************************************************************


