                  Welcome to Q-Chem
     A Quantum Leap Into The Future Of Chemistry


 Q-Chem 5.3 (devel), Q-Chem, Inc., Pleasanton, CA (2020)

 Yihan Shao,  Zhengting Gan,  E. Epifanovsky,  A. T. B. Gilbert,  M. Wormit,  
 J. Kussmann,  A. W. Lange,  A. Behn,  Jia Deng,  Xintian Feng,  D. Ghosh,  
 M. Goldey,  P. R. Horn,  L. D. Jacobson,  I. Kaliman,  T. Kus,  A. Landau,  
 Jie Liu,  E. I. Proynov,  R. M. Richard,  R. P. Steele,  E. J. Sundstrom,  
 H. L. Woodcock III,  P. M. Zimmerman,  D. Zuev,  B. Alam,  B. Albrecht,  
 E. Alguire,  S. A. Baeppler,  D. Barton,  Z. Benda,  Y. A. Bernard,  
 E. J. Berquist,  K. B. Bravaya,  H. Burton,  K. Carter-Fenk,  D. Casanova,  
 Chun-Min Chang,  Yunqing Chen,  A. Chien,  K. D. Closser,  M. P. Coons,  
 S. Coriani,  S. Dasgupta,  A. L. Dempwolff,  M. Diedenhofen,  Hainam Do,  
 R. G. Edgar,  Po-Tung Fang,  S. Faraji,  S. Fatehi,  Qingguo Feng,  
 J. Fosso-Tande,  J. Gayvert,  Qinghui Ge,  A. Ghysels,  G. Gidofalvi,  
 J. Gomes,  J. Gonthier,  A. Gunina,  D. Hait,  M. W. D. Hanson-Heine,  
 P. H. P. Harbach,  A. W. Hauser,  M. F. Herbst,  J. E. Herr,  
 E. G. Hohenstein,  Z. C. Holden,  Kerwin Hui,  B. C. Huynh,  T.-C. Jagau,  
 Hyunjun Ji,  B. Kaduk,  K. Khistyaev,  Jaehoon Kim,  P. Klunzinger,  K. Koh,  
 D. Kosenkov,  L. Koulias,  T. Kowalczyk,  C. M. Krauter,  A. Kunitsa,  
 Ka Un Lao,  A. Laurent,  K. V. Lawler,  Joonho Lee,  D. Lefrancois,  
 S. Lehtola,  D. S. Levine,  Yi-Pei Li,  You-Sheng Lin,  Fenglai Liu,  
 Kuan-Yu Liu,  E. Livshits,  M. Loipersberger,  A. Luenser,  P. Manohar,  
 E. Mansoor,  S. F. Manzer,  Shan-Ping Mao,  Yuezhi Mao,  N. Mardirossian,  
 A. V. Marenich,  T. Markovich,  L. A. Martinez-Martinez,  S. A. Maurer,  
 N. J. Mayhall,  S. C. McKenzie,  J.-M. Mewes,  P. Morgante,  A. F. Morrison,  
 J. W. Mullinax,  K. Nanda,  T. S. Nguyen-Beck,  R. Olivares-Amaya,  
 K. J. Oosterbaan,  J. A. Parkhill,  S. K. Paul,  F. Pavosevic,  Zheng Pei,  
 T. M. Perrine,  F. Plasser,  P. Pokhilko,  S. Prager,  A. Prociuk,  
 E. Ramos,  B. Rana,  D. R. Rehn,  F. Rob,  M. Scheurer,  M. Schneider,  
 N. Sergueev,  S. M. Sharada,  S. Sharma,  D. W. Small,  T. Stauch,  
 C. J. Stein,  T. Stein,  Yu-Chuan Su,  S. P. Veccham,  Zhen Tao,  
 A. J. W. Thom,  A. Tkatchenko,  T. Tsuchimochi,  N. M. Tubman,  L. Vogt,  
 M. L. Vidal,  O. Vydrov,  M. A. Watson,  J. Wenzel,  M. de Wergifosse,  
 T. A. Wesolowski,  A. White,  J. Witte,  A. Yamada,  Jun Yang,  K. Yao,  
 S. Yeganeh,  S. R. Yost,  Zhi-Qiang You,  A. Zech,  Igor Ying Zhang,  
 Xing Zhang,  Yan Zhao,  Ying Zhu,  B. R. Brooks,  G. K. L. Chan,  
 C. J. Cramer,  M. S. Gordon,  W. J. Hehre,  A. Klamt,  M. W. Schmidt,  
 C. D. Sherrill,  D. G. Truhlar,  A. Aspuru-Guzik,  R. Baer,  A. T. Bell,  
 N. A. Besley,  Jeng-Da Chai,  A. E. DePrince, III,  R. A. DiStasio Jr.,  
 A. Dreuw,  B. D. Dunietz,  T. R. Furlani,  Chao-Ping Hsu,  Yousung Jung,  
 Jing Kong,  D. S. Lambrecht,  WanZhen Liang,  C. Ochsenfeld,  
 V. A. Rassolov,  L. V. Slipchenko,  J. E. Subotnik,  T. Van Voorhis,  
 J. M. Herbert,  A. I. Krylov,  P. M. W. Gill,  M. Head-Gordon

 Contributors to earlier versions of Q-Chem not listed above: 
 R. D. Adamson,  B. Austin,  J. Baker,  G. J. O. Beran,  K. Brandhorst,  
 S. T. Brown,  E. F. C. Byrd,  A. K. Chakraborty,  C.-L. Cheng,  
 Siu Hung Chien,  D. M. Chipman,  D. L. Crittenden,  H. Dachsel,  
 R. J. Doerksen,  A. D. Dutoi,  L. Fusti-Molnar,  W. A. Goddard III,  
 A. Golubeva-Zadorozhnaya,  S. R. Gwaltney,  G. Hawkins,  A. Heyden,  
 S. Hirata,  G. Kedziora,  F. J. Keil,  C. Kelley,  Jihan Kim,  R. A. King,  
 R. Z. Khaliullin,  P. P. Korambath,  W. Kurlancheek,  A. M. Lee,  M. S. Lee,  
 S. V. Levchenko,  Ching Yeh Lin,  D. Liotard,  R. C. Lochan,  I. Lotan,  
 P. E. Maslen,  N. Nair,  D. P. O'Neill,  D. Neuhauser,  E. Neuscamman,  
 C. M. Oana,  R. Olson,  B. Peters,  R. Peverati,  P. A. Pieniazek,  
 Y. M. Rhee,  J. Ritchie,  M. A. Rohrdanz,  E. Rosta,  N. J. Russ,  
 H. F. Schaefer III,  N. E. Schultz,  N. Shenvi,  A. C. Simmonett,  A. Sodt,  
 D. Stuck,  K. S. Thanthiriwatte,  V. Vanovschi,  Tao Wang,  A. Warshel,  
 C. F. Williams,  Q. Wu,  X. Xu,  W. Zhang

 Please cite Q-Chem as follows:
 Y. Shao et al., Mol. Phys. 113, 184-215 (2015)
 DOI: 10.1080/00268976.2014.952696

 Q-Chem 5.3.0 for Intel X86 EM64T Linux

 Parts of Q-Chem use Armadillo 9.800.1 (Horizon Scraper).
 http://arma.sourceforge.net/

 Q-Chem begins on Wed Jul 29 00:24:11 2020  

Host: centos77-c1
0

     Scratch files written to /tmp/30084.centos77-h1/qchem27651//
Processing $rem in /opt/qchem-5.3.0-intel2020u1//config/preferences:
Processing $rem in /home/shihchengli/.qchemrc:

Checking the input file for inconsistencies... 	...done.

--------------------------------------------------------------
User input:
--------------------------------------------------------------
$rem
   JOBTYPE  sp
   EXCHANGE   omegaB97X-D
   BASIS   6-311+G(2df,2pd)
   UNRESTRICTED   False
   max_scf_cycles   250
   geom_opt_max_cycles   1500
   basis2 6-31G*
   scf_algorithm rca_diis
   SYM_IGNORE  TRUE
   print_input   true
   geom_opt_dmax   80
   pop_mulliken false
   XC_GRID 000075000302
$end

$molecule
0 1
C       -5.5206597869     0.5643711340     -0.0685619857
C       -4.4793833778     1.4883271521     0.0374062178
H       -5.8558300170     0.2627554076     -1.0523130473
H       -6.2348110410     0.4739267011     0.7381678723
H       -4.6059996493     -0.1616203788     0.2073035323
O       -3.2137259733     -0.1644165988     0.6108030389
H       -4.2821825797     2.0263702589     0.9507970490
H       -3.9463003274     1.8263432236     -0.8385494133
H       -2.5418396451     -0.4529196425     -0.0121631007
$end
--------------------------------------------------------------
 ----------------------------------------------------------------
             Standard Nuclear Orientation (Angstroms)
    I     Atom           X                Y                Z
 ----------------------------------------------------------------
    1      C      -5.5206597869     0.5643711340    -0.0685619857
    2      C      -4.4793833778     1.4883271521     0.0374062178
    3      H      -5.8558300170     0.2627554076    -1.0523130473
    4      H      -6.2348110410     0.4739267011     0.7381678723
    5      H      -4.6059996493    -0.1616203788     0.2073035323
    6      O      -3.2137259733    -0.1644165988     0.6108030389
    7      H      -4.2821825797     2.0263702589     0.9507970490
    8      H      -3.9463003274     1.8263432236    -0.8385494133
    9      H      -2.5418396451    -0.4529196425    -0.0121631007
 ----------------------------------------------------------------
 Nuclear Repulsion Energy =          76.56501679 hartrees
 There are       13 alpha and       13 beta electrons
 Requested basis set is 6-311+G(2df,2pd)
 There are 60 shells and 186 basis functions

 Total QAlloc Memory Limit   2000 MB
 Mega-Array Size       188 MB
 MEM_STATIC part       192 MB

                       Distance Matrix (Angstroms)
             C (  1)   C (  2)   H (  3)   H (  4)   H (  5)   O (  6)
   C (  2)  1.396131
   H (  3)  1.082163  2.141056
   H (  4)  1.081205  2.145134  1.842293
   H (  5)  1.199904  1.663497  1.824501  1.827228
   O (  6)  2.512889  2.159221  3.151055  3.090414  1.449567
   H (  7)  2.170336  1.078268  3.098250  2.503607  2.333440  2.461045
   H (  8)  2.159644  1.079690  2.477258  3.090687  2.341156  2.569127
   H (  9)  3.148242  2.743168  3.546355  3.880732  2.096134  0.960600
             H (  7)   H (  8)
   H (  8)  1.831554
   H (  9)  3.178516  2.801868
 
 A cutoff of  1.0D-09 yielded   1761 shell pairs
 There are     17150 function pairs (     21310 Cartesian)
 Smallest overlap matrix eigenvalue = 8.38E-05

 Scale SEOQF with 1.000000e-02/1.000000e-01/1.000000e-01

 Standard Electronic Orientation quadrupole field applied
 Nucleus-field energy     =     0.0000000029 hartrees
 Requested basis set is 6-31G(d)
 There are 24 shells and 54 basis functions
 A cutoff of  1.0D-09 yielded    297 shell pairs
 There are      1548 function pairs (      1731 Cartesian)
 Smallest overlap matrix eigenvalue = 6.53E-03
 Guess from superposition of atomic densities
 Warning:  Energy on first SCF cycle will be non-variational
 SAD guess density has 26.000000 electrons
 Long-range K will be added via erf
 Coulomb attenuation parameter = 0.2 bohr**(-1)
 A restricted hybrid HF-DFT SCF calculation will be
 performed using Relaxed Constraint Minimization + Pulay DIIS
 Exchange:     0.2220 Hartree-Fock + 1.0000 wB97X-D + LR-HF
 Correlation:  1.0000 wB97X-D
 Using Euler-Maclaurin-Lebedev (75,302) quadrature formula
 Dispersion:   Grimme D
 SCF converges when DIIS error is below 1.0E-04
 using 6 threads for integral computing
 -------------------------------------------------------
 OpenMP Integral computing Module                
 Release: version 1.0, May 2013, Q-Chem Inc. Pittsburgh 
 -------------------------------------------------------
 using 6 threads for integral computing
 -------------------------------------------------------
 OpenMP Integral computing Module                
 Release: version 1.0, May 2013, Q-Chem Inc. Pittsburgh 
 -------------------------------------------------------
 ---------------------------------------
  Cycle       Energy         DIIS Error
 ---------------------------------------
    1    -155.1917523842      9.79E-02
    2    -154.7149481862      2.03E-02
    3    -154.7593758427      6.49E-03
    4    -154.8388182215      6.10E-03
    5    -154.8432194495      1.14E-03
    6    -154.8487881339      7.84E-04 Done RCA. Switching to DIIS
    7    -154.8488925368      5.82E-04
    8    -154.8490152613      1.11E-04
    9    -154.8490193482      1.74E-05 Convergence criterion met
 ---------------------------------------
 SCF time:  CPU 17.67 s  wall 2.96 s
 SCF   energy in the small basis set = -154.84901935
 Total energy in the small basis set = -154.84901935
 ----------------------------------------------------
  Cycle       Energy    
 ----------------------------------------------------
    1     -18.6679136593     -1.87E+01
 Long-range K will be added via erf
 Coulomb attenuation parameter = 0.2 bohr**(-1)
 A restricted hybrid HF-DFT SCF calculation will be
 performed using Relaxed Constraint Minimization + Pulay DIIS
 Exchange:     0.2220 Hartree-Fock + 1.0000 wB97X-D + LR-HF
 Correlation:  1.0000 wB97X-D
 Using Euler-Maclaurin-Lebedev (75,302) quadrature formula
 Dispersion:   Grimme D
 SCF converges when DIIS error is below 1.0E-05
 Basis2 calculation detected. Using small basis as guess for larger.
 SCFMinFind is unable to tell whether the solution found is close.
 Resetting ReadMinima to 0 and attempting to follow guess.
 SCFMinFind following SCF Guess.
 using 6 threads for integral computing
 -------------------------------------------------------
 OpenMP Integral computing Module                
 Release: version 1.0, May 2013, Q-Chem Inc. Pittsburgh 
 -------------------------------------------------------
 using 6 threads for integral computing
 -------------------------------------------------------
 OpenMP Integral computing Module                
 Release: version 1.0, May 2013, Q-Chem Inc. Pittsburgh 
 -------------------------------------------------------
 ---------------------------------------
  Cycle       Energy         DIIS Error
 ---------------------------------------
    1    -154.8214200838      6.97E-03
    2    -154.7414623580      7.99E-03
    3    -154.8008977373      2.96E-03
    4    -154.8952234949      1.27E-03
    5    -154.9140087256      1.88E-03
    6    -154.9190089212      2.91E-04 Done RCA. Switching to DIIS
    7    -154.9275743302      3.63E-04
    8    -154.9279766637      4.66E-05
    9    -154.9279841199      2.27E-05
   10    -154.9279859876      9.18E-06 Convergence criterion met
 ---------------------------------------
 SCF time:  CPU 74.73 s  wall 12.49 s
 SCF   energy in the final basis set = -154.92798599
 Total energy in the final basis set = -154.92798599
 
 --------------------------------------------------------------
 
                    Orbital Energies (a.u.)
 --------------------------------------------------------------
 
 Alpha MOs
 -- Occupied --
-19.1865 -10.3740 -10.2837  -1.0143  -0.9087  -0.7218  -0.5935  -0.5719
 -0.5175  -0.4746  -0.4333  -0.3547  -0.3154
 -- Virtual --
  0.0027   0.0687   0.0829   0.0919   0.1083   0.1241   0.1319   0.1438
  0.1804   0.1867   0.2139   0.2425   0.2604   0.2786   0.2876   0.3091
  0.3276   0.3412   0.3501   0.4000   0.4436   0.4500   0.4811   0.5444
  0.5551   0.5792   0.5842   0.6043   0.6298   0.6310   0.6487   0.6773
  0.7012   0.7283   0.7992   0.8221   0.8510   0.8837   0.9049   0.9193
  0.9536   0.9966   1.0592   1.0937   1.1120   1.1468   1.1733   1.2125
  1.2373   1.2525   1.2703   1.2945   1.3088   1.3349   1.4002   1.4214
  1.4347   1.4572   1.4859   1.5059   1.5137   1.5591   1.6114   1.6602
  1.7235   1.7689   1.9083   1.9683   2.0181   2.2584   2.3166   2.4228
  2.4554   2.5482   2.6648   2.6764   2.7147   2.7303   2.7559   2.7801
  2.7896   2.8481   2.9481   2.9765   2.9840   3.0139   3.0337   3.0782
  3.0911   3.1277   3.1599   3.1850   3.2487   3.2784   3.2880   3.3147
  3.3245   3.3480   3.3927   3.4285   3.4569   3.4689   3.4702   3.5338
  3.5558   3.5741   3.6544   3.6981   3.7055   3.7719   3.7907   3.8161
  3.8456   3.8870   3.9117   3.9354   3.9556   3.9746   4.0315   4.0456
  4.0758   4.1180   4.1453   4.1703   4.2259   4.2499   4.2874   4.2946
  4.3335   4.3555   4.4017   4.5193   4.5488   4.6390   4.6732   4.7743
  4.8057   4.8900   4.9296   5.0038   5.0124   5.0182   5.1048   5.1289
  5.1537   5.2174   5.2574   5.2650   5.3037   5.3729   5.4140   5.4491
  5.5359   5.6394   5.6621   5.6999   6.0560   6.2360   6.2663   6.3000
  6.4538   6.5210   6.6842   6.7561   7.1002   7.1455   7.2938   7.5039
  7.7416   8.1592  25.0257  25.4577  50.4549
 --------------------------------------------------------------
 
 -----------------------------------------------------------------
                    Cartesian Multipole Moments
 -----------------------------------------------------------------
    Charge (ESU x 10^10)
                 0.0000
    Dipole Moment (Debye)
         X      -1.5491      Y       1.9868      Z      -2.0002
       Tot       3.2168
    Quadrupole Moments (Debye-Ang)
        XX      -7.1156     XY      -8.2897     YY     -17.3748
        XZ       5.0701     YZ       1.1686     ZZ     -20.8334
    Octopole Moments (Debye-Ang^2)
       XXX     185.5115    XXY      19.1534    XYY      79.2117
       YYY     -29.8466    XXZ     -13.7151    XYZ      -5.3323
       YYZ      -2.7757    XZZ      87.9570    YZZ      -9.3457
       ZZZ     -13.0308
    Hexadecapole Moments (Debye-Ang^3)
      XXXX   -2052.4724   XXXY      74.3644   XXYY    -410.1972
      XYYY     153.0644   YYYY    -120.0286   XXXZ      32.4439
      XXYZ      26.0693   XYYZ       5.6484   YYYZ       4.0229
      XXZZ    -405.8391   XYZZ      48.3945   YYZZ     -26.1079
      XZZZ      39.2503   YZZZ       2.7804   ZZZZ     -48.8000
 -----------------------------------------------------------------
Archival summary:
1\1\centos77-c1\SP\ProcedureUnspecified\BasisUnspecified\126\shihchen\WedJul2900:24:292020WedJul2900:24:292020\0\\#,ProcedureUnspecified,BasisUnspecified,\\0,1\C\H,1,1.07827\H,1,1.07969,2,116.151\C,1,1.39613,2,122.068,3,-169.464,0\H,4,1.08121,1,119.43,2,8.27344,0\H,4,1.08216,1,118.977,2,162.901,0\H,4,1.1999,1,79.3059,2,-94.5646,0\O,7,1.44957,4,142.874,1,7.32055,0\H,8,0.9606,7,119.463,4,-109.293,0\\\@

 Total job time:  17.67s(wall), 96.59s(cpu) 
 Wed Jul 29 00:24:29 2020

        *************************************************************
        *                                                           *
        *  Thank you very much for using Q-Chem.  Have a nice day.  *
        *                                                           *
        *************************************************************


