                  Welcome to Q-Chem
     A Quantum Leap Into The Future Of Chemistry


 Q-Chem 5.3 (devel), Q-Chem, Inc., Pleasanton, CA (2020)

 Yihan Shao,  Zhengting Gan,  E. Epifanovsky,  A. T. B. Gilbert,  M. Wormit,  
 J. Kussmann,  A. W. Lange,  A. Behn,  Jia Deng,  Xintian Feng,  D. Ghosh,  
 M. Goldey,  P. R. Horn,  L. D. Jacobson,  I. Kaliman,  T. Kus,  A. Landau,  
 Jie Liu,  E. I. Proynov,  R. M. Richard,  R. P. Steele,  E. J. Sundstrom,  
 H. L. Woodcock III,  P. M. Zimmerman,  D. Zuev,  B. Alam,  B. Albrecht,  
 E. Alguire,  S. A. Baeppler,  D. Barton,  Z. Benda,  Y. A. Bernard,  
 E. J. Berquist,  K. B. Bravaya,  H. Burton,  K. Carter-Fenk,  D. Casanova,  
 Chun-Min Chang,  Yunqing Chen,  A. Chien,  K. D. Closser,  M. P. Coons,  
 S. Coriani,  S. Dasgupta,  A. L. Dempwolff,  M. Diedenhofen,  Hainam Do,  
 R. G. Edgar,  Po-Tung Fang,  S. Faraji,  S. Fatehi,  Qingguo Feng,  
 J. Fosso-Tande,  J. Gayvert,  Qinghui Ge,  A. Ghysels,  G. Gidofalvi,  
 J. Gomes,  J. Gonthier,  A. Gunina,  D. Hait,  M. W. D. Hanson-Heine,  
 P. H. P. Harbach,  A. W. Hauser,  M. F. Herbst,  J. E. Herr,  
 E. G. Hohenstein,  Z. C. Holden,  Kerwin Hui,  B. C. Huynh,  T.-C. Jagau,  
 Hyunjun Ji,  B. Kaduk,  K. Khistyaev,  Jaehoon Kim,  P. Klunzinger,  K. Koh,  
 D. Kosenkov,  L. Koulias,  T. Kowalczyk,  C. M. Krauter,  A. Kunitsa,  
 Ka Un Lao,  A. Laurent,  K. V. Lawler,  Joonho Lee,  D. Lefrancois,  
 S. Lehtola,  D. S. Levine,  Yi-Pei Li,  You-Sheng Lin,  Fenglai Liu,  
 Kuan-Yu Liu,  E. Livshits,  M. Loipersberger,  A. Luenser,  P. Manohar,  
 E. Mansoor,  S. F. Manzer,  Shan-Ping Mao,  Yuezhi Mao,  N. Mardirossian,  
 A. V. Marenich,  T. Markovich,  L. A. Martinez-Martinez,  S. A. Maurer,  
 N. J. Mayhall,  S. C. McKenzie,  J.-M. Mewes,  P. Morgante,  A. F. Morrison,  
 J. W. Mullinax,  K. Nanda,  T. S. Nguyen-Beck,  R. Olivares-Amaya,  
 K. J. Oosterbaan,  J. A. Parkhill,  S. K. Paul,  F. Pavosevic,  Zheng Pei,  
 T. M. Perrine,  F. Plasser,  P. Pokhilko,  S. Prager,  A. Prociuk,  
 E. Ramos,  B. Rana,  D. R. Rehn,  F. Rob,  M. Scheurer,  M. Schneider,  
 N. Sergueev,  S. M. Sharada,  S. Sharma,  D. W. Small,  T. Stauch,  
 C. J. Stein,  T. Stein,  Yu-Chuan Su,  S. P. Veccham,  Zhen Tao,  
 A. J. W. Thom,  A. Tkatchenko,  T. Tsuchimochi,  N. M. Tubman,  L. Vogt,  
 M. L. Vidal,  O. Vydrov,  M. A. Watson,  J. Wenzel,  M. de Wergifosse,  
 T. A. Wesolowski,  A. White,  J. Witte,  A. Yamada,  Jun Yang,  K. Yao,  
 S. Yeganeh,  S. R. Yost,  Zhi-Qiang You,  A. Zech,  Igor Ying Zhang,  
 Xing Zhang,  Yan Zhao,  Ying Zhu,  B. R. Brooks,  G. K. L. Chan,  
 C. J. Cramer,  M. S. Gordon,  W. J. Hehre,  A. Klamt,  M. W. Schmidt,  
 C. D. Sherrill,  D. G. Truhlar,  A. Aspuru-Guzik,  R. Baer,  A. T. Bell,  
 N. A. Besley,  Jeng-Da Chai,  A. E. DePrince, III,  R. A. DiStasio Jr.,  
 A. Dreuw,  B. D. Dunietz,  T. R. Furlani,  Chao-Ping Hsu,  Yousung Jung,  
 Jing Kong,  D. S. Lambrecht,  WanZhen Liang,  C. Ochsenfeld,  
 V. A. Rassolov,  L. V. Slipchenko,  J. E. Subotnik,  T. Van Voorhis,  
 J. M. Herbert,  A. I. Krylov,  P. M. W. Gill,  M. Head-Gordon

 Contributors to earlier versions of Q-Chem not listed above: 
 R. D. Adamson,  B. Austin,  J. Baker,  G. J. O. Beran,  K. Brandhorst,  
 S. T. Brown,  E. F. C. Byrd,  A. K. Chakraborty,  C.-L. Cheng,  
 Siu Hung Chien,  D. M. Chipman,  D. L. Crittenden,  H. Dachsel,  
 R. J. Doerksen,  A. D. Dutoi,  L. Fusti-Molnar,  W. A. Goddard III,  
 A. Golubeva-Zadorozhnaya,  S. R. Gwaltney,  G. Hawkins,  A. Heyden,  
 S. Hirata,  G. Kedziora,  F. J. Keil,  C. Kelley,  Jihan Kim,  R. A. King,  
 R. Z. Khaliullin,  P. P. Korambath,  W. Kurlancheek,  A. M. Lee,  M. S. Lee,  
 S. V. Levchenko,  Ching Yeh Lin,  D. Liotard,  R. C. Lochan,  I. Lotan,  
 P. E. Maslen,  N. Nair,  D. P. O'Neill,  D. Neuhauser,  E. Neuscamman,  
 C. M. Oana,  R. Olson,  B. Peters,  R. Peverati,  P. A. Pieniazek,  
 Y. M. Rhee,  J. Ritchie,  M. A. Rohrdanz,  E. Rosta,  N. J. Russ,  
 H. F. Schaefer III,  N. E. Schultz,  N. Shenvi,  A. C. Simmonett,  A. Sodt,  
 D. Stuck,  K. S. Thanthiriwatte,  V. Vanovschi,  Tao Wang,  A. Warshel,  
 C. F. Williams,  Q. Wu,  X. Xu,  W. Zhang

 Please cite Q-Chem as follows:
 Y. Shao et al., Mol. Phys. 113, 184-215 (2015)
 DOI: 10.1080/00268976.2014.952696

 Q-Chem 5.3.0 for Intel X86 EM64T Linux

 Parts of Q-Chem use Armadillo 9.800.1 (Horizon Scraper).
 http://arma.sourceforge.net/

 Q-Chem begins on Wed Jul 29 00:32:25 2020  

Host: centos77-c1
0

     Scratch files written to /tmp/30084.centos77-h1/qchem29064//
Processing $rem in /opt/qchem-5.3.0-intel2020u1//config/preferences:
Processing $rem in /home/shihchengli/.qchemrc:

Checking the input file for inconsistencies... 	...done.

--------------------------------------------------------------
User input:
--------------------------------------------------------------
$rem
   JOBTYPE  sp
   EXCHANGE   omegaB97X-D
   BASIS   6-311+G(2df,2pd)
   UNRESTRICTED   False
   max_scf_cycles   250
   geom_opt_max_cycles   1500
   basis2 6-31G*
   scf_algorithm rca_diis
   SYM_IGNORE  TRUE
   print_input   true
   geom_opt_dmax   80
   pop_mulliken false
   XC_GRID 000075000302
$end

$molecule
0 1
C       -5.5520067532     0.5426348606     -0.0720927430
C       -4.4186490919     1.3723279128     0.0537048694
H       -5.8816893398     0.3103997297     -1.0766257625
H       -6.3202274294     0.5698705664     0.6889567548
H       -4.4740187795     -0.3041098429     0.3095204637
O       -3.3000215667     -0.0094021134     0.5887906892
H       -4.1843546026     1.9026338034     0.9643532902
H       -3.9246300006     1.7472636992     -0.8358385870
H       -2.6251348336     -0.2684813587     -0.0478788116
$end
--------------------------------------------------------------
 ----------------------------------------------------------------
             Standard Nuclear Orientation (Angstroms)
    I     Atom           X                Y                Z
 ----------------------------------------------------------------
    1      C      -5.5520067532     0.5426348606    -0.0720927430
    2      C      -4.4186490919     1.3723279128     0.0537048694
    3      H      -5.8816893398     0.3103997297    -1.0766257625
    4      H      -6.3202274294     0.5698705664     0.6889567548
    5      H      -4.4740187795    -0.3041098429     0.3095204637
    6      O      -3.3000215667    -0.0094021134     0.5887906892
    7      H      -4.1843546026     1.9026338034     0.9643532902
    8      H      -3.9246300006     1.7472636992    -0.8358385870
    9      H      -2.6251348336    -0.2684813587    -0.0478788116
 ----------------------------------------------------------------
 Nuclear Repulsion Energy =          79.39216741 hartrees
 There are       13 alpha and       13 beta electrons
 Requested basis set is 6-311+G(2df,2pd)
 There are 60 shells and 186 basis functions

 Total QAlloc Memory Limit   2000 MB
 Mega-Array Size       188 MB
 MEM_STATIC part       192 MB

                       Distance Matrix (Angstroms)
             C (  1)   C (  2)   H (  3)   H (  4)   H (  5)   O (  6)
   C (  2)  1.410218
   H (  3)  1.082456  2.132094
   H (  4)  1.081712  2.159510  1.837640
   H (  5)  1.422907  1.696747  2.068951  2.077571
   O (  6)  2.411006  1.856562  3.088834  3.076887  1.242221
   H (  7)  2.189587  1.079536  3.095440  2.532598  2.320006  2.139854
   H (  8)  2.163976  1.084398  2.439803  3.074108  2.412842  2.346397
   H (  9)  3.037281  2.432955  3.463895  3.859983  1.883448  0.963298
             H (  7)   H (  8)
   H (  8)  1.825455
   H (  9)  2.858237  2.524440
 
 A cutoff of  1.0D-09 yielded   1775 shell pairs
 There are     17229 function pairs (     21405 Cartesian)
 Smallest overlap matrix eigenvalue = 9.14E-05

 Scale SEOQF with 1.000000e-02/1.000000e-01/1.000000e-01

 Standard Electronic Orientation quadrupole field applied
 Nucleus-field energy     =     0.0000000027 hartrees
 Requested basis set is 6-31G(d)
 There are 24 shells and 54 basis functions
 A cutoff of  1.0D-09 yielded    298 shell pairs
 There are      1549 function pairs (      1732 Cartesian)
 Smallest overlap matrix eigenvalue = 6.71E-03
 Guess from superposition of atomic densities
 Warning:  Energy on first SCF cycle will be non-variational
 SAD guess density has 26.000000 electrons
 Long-range K will be added via erf
 Coulomb attenuation parameter = 0.2 bohr**(-1)
 A restricted hybrid HF-DFT SCF calculation will be
 performed using Relaxed Constraint Minimization + Pulay DIIS
 Exchange:     0.2220 Hartree-Fock + 1.0000 wB97X-D + LR-HF
 Correlation:  1.0000 wB97X-D
 Using Euler-Maclaurin-Lebedev (75,302) quadrature formula
 Dispersion:   Grimme D
 SCF converges when DIIS error is below 1.0E-04
 using 6 threads for integral computing
 -------------------------------------------------------
 OpenMP Integral computing Module                
 Release: version 1.0, May 2013, Q-Chem Inc. Pittsburgh 
 -------------------------------------------------------
 using 6 threads for integral computing
 -------------------------------------------------------
 OpenMP Integral computing Module                
 Release: version 1.0, May 2013, Q-Chem Inc. Pittsburgh 
 -------------------------------------------------------
 ---------------------------------------
  Cycle       Energy         DIIS Error
 ---------------------------------------
    1    -155.2592608803      9.93E-02
    2    -154.7843167468      1.57E-02
    3    -154.8181387370      3.26E-03
    4    -154.8585868856      2.36E-03
    5    -154.8594870349      4.98E-04 Done RCA. Switching to DIIS
    6    -154.8605942169      3.25E-04
    7    -154.8606305869      4.10E-05 Convergence criterion met
 ---------------------------------------
 SCF time:  CPU 15.09 s  wall 2.53 s
 SCF   energy in the small basis set = -154.86063059
 Total energy in the small basis set = -154.86063059
 ----------------------------------------------------
  Cycle       Energy    
 ----------------------------------------------------
    1     -18.6744297598     -1.87E+01
 Long-range K will be added via erf
 Coulomb attenuation parameter = 0.2 bohr**(-1)
 A restricted hybrid HF-DFT SCF calculation will be
 performed using Relaxed Constraint Minimization + Pulay DIIS
 Exchange:     0.2220 Hartree-Fock + 1.0000 wB97X-D + LR-HF
 Correlation:  1.0000 wB97X-D
 Using Euler-Maclaurin-Lebedev (75,302) quadrature formula
 Dispersion:   Grimme D
 SCF converges when DIIS error is below 1.0E-05
 Basis2 calculation detected. Using small basis as guess for larger.
 SCFMinFind is unable to tell whether the solution found is close.
 Resetting ReadMinima to 0 and attempting to follow guess.
 SCFMinFind following SCF Guess.
 using 6 threads for integral computing
 -------------------------------------------------------
 OpenMP Integral computing Module                
 Release: version 1.0, May 2013, Q-Chem Inc. Pittsburgh 
 -------------------------------------------------------
 using 6 threads for integral computing
 -------------------------------------------------------
 OpenMP Integral computing Module                
 Release: version 1.0, May 2013, Q-Chem Inc. Pittsburgh 
 -------------------------------------------------------
 ---------------------------------------
  Cycle       Energy         DIIS Error
 ---------------------------------------
    1    -154.8858896929      5.99E-03
    2    -154.8815323453      4.44E-03
    3    -154.9029882646      1.01E-03
    4    -154.9325505592      1.12E-03
    5    -154.9340912625      1.81E-04 Done RCA. Switching to DIIS
    6    -154.9360507492      2.18E-04
    7    -154.9361900217      7.99E-06 Convergence criterion met
 ---------------------------------------
 SCF time:  CPU 52.96 s  wall 8.86 s
 SCF   energy in the final basis set = -154.93619002
 Total energy in the final basis set = -154.93619002
 
 --------------------------------------------------------------
 
                    Orbital Energies (a.u.)
 --------------------------------------------------------------
 
 Alpha MOs
 -- Occupied --
-19.2407 -10.3527 -10.2547  -1.0871  -0.8742  -0.6972  -0.6142  -0.5671
 -0.5052  -0.4555  -0.4409  -0.4247  -0.3055
 -- Virtual --
  0.0521   0.0684   0.0893   0.0977   0.1134   0.1280   0.1388   0.1485
  0.1771   0.1888   0.2174   0.2396   0.2533   0.2748   0.2845   0.2947
  0.3239   0.3328   0.3601   0.3929   0.4619   0.4645   0.4926   0.5497
  0.5689   0.5798   0.5853   0.6065   0.6125   0.6385   0.6490   0.6873
  0.7019   0.7501   0.8087   0.8238   0.8467   0.8820   0.9112   0.9326
  0.9826   1.0124   1.0661   1.0916   1.1301   1.1557   1.1661   1.2102
  1.2267   1.2562   1.2590   1.3070   1.3271   1.3493   1.4094   1.4306
  1.4492   1.4558   1.4765   1.4868   1.5364   1.5749   1.5952   1.6673
  1.7158   1.7835   1.8999   1.9882   2.0525   2.2616   2.3145   2.4339
  2.4897   2.5556   2.6430   2.6565   2.6899   2.7540   2.7829   2.8073
  2.8760   2.8927   2.9438   2.9881   3.0035   3.0311   3.0759   3.0868
  3.0971   3.1265   3.1664   3.2192   3.2342   3.2925   3.3134   3.3436
  3.3567   3.4041   3.4110   3.4472   3.4670   3.5116   3.5370   3.5605
  3.5697   3.6010   3.6200   3.6625   3.7061   3.7467   3.7664   3.8246
  3.8414   3.8574   3.8853   3.9227   3.9395   3.9508   4.0238   4.0706
  4.1127   4.1342   4.1887   4.1987   4.2325   4.2422   4.2844   4.3187
  4.3258   4.3584   4.4136   4.4718   4.4958   4.5819   4.6145   4.7093
  4.7337   4.8143   4.8538   4.9617   4.9757   5.0143   5.0585   5.1043
  5.1136   5.2123   5.2266   5.2950   5.3717   5.3972   5.4391   5.4734
  5.5922   5.6373   5.7589   5.8162   6.0485   6.2049   6.2514   6.2867
  6.4682   6.6316   6.7350   6.9092   7.1603   7.2069   7.4019   7.6275
  7.7905   8.1694  24.9633  25.3132  50.4387
 --------------------------------------------------------------
 
 -----------------------------------------------------------------
                    Cartesian Multipole Moments
 -----------------------------------------------------------------
    Charge (ESU x 10^10)
                 0.0000
    Dipole Moment (Debye)
         X       0.5181      Y       0.9194      Z      -1.4243
       Tot       1.7726
    Quadrupole Moments (Debye-Ang)
        XX     -24.8989     XY      -3.5504     YY     -19.1698
        XZ       3.3216     YZ       0.7612     ZZ     -20.8047
    Octopole Moments (Debye-Ang^2)
       XXX     306.7385    XXY      -2.0803    XYY      88.8409
       YYY     -35.2093    XXZ      -8.0240    XYZ      -3.9334
       YYZ      -2.3796    XZZ      90.2893    YZZ     -10.5350
       ZZZ     -11.6558
    Hexadecapole Moments (Debye-Ang^3)
      XXXX   -2819.7265   XXXY     167.1420   XXYY    -459.0648
      XYYY     172.6009   YYYY    -116.5975   XXXZ      13.0274
      XXYZ      21.0463   XYYZ       4.9571   YYYZ       1.2182
      XXZZ    -425.4648   XYZZ      51.5371   YYZZ     -24.9738
      XZZZ      36.0899   YZZZ       0.5309   ZZZZ     -48.0016
 -----------------------------------------------------------------
Archival summary:
1\1\centos77-c1\SP\ProcedureUnspecified\BasisUnspecified\126\shihchen\WedJul2900:32:392020WedJul2900:32:392020\0\\#,ProcedureUnspecified,BasisUnspecified,\\0,1\C\H,1,1.07954\H,1,1.0844,2,115.04\C,1,1.41022,2,122.594,3,-161.621,0\H,4,1.08171,1,119.55,2,11.8101,0\H,4,1.08246,1,116.987,2,161.003,0\H,4,1.42291,1,73.5802,2,-93.827,0\O,7,1.24222,4,129.428,1,3.36848,0\H,8,0.963298,7,116.726,4,-109.293,0\\\@

 Total job time:  13.59s(wall), 71.93s(cpu) 
 Wed Jul 29 00:32:39 2020

        *************************************************************
        *                                                           *
        *  Thank you very much for using Q-Chem.  Have a nice day.  *
        *                                                           *
        *************************************************************


