                  Welcome to Q-Chem
     A Quantum Leap Into The Future Of Chemistry


 Q-Chem 5.3 (devel), Q-Chem, Inc., Pleasanton, CA (2020)

 Yihan Shao,  Zhengting Gan,  E. Epifanovsky,  A. T. B. Gilbert,  M. Wormit,  
 J. Kussmann,  A. W. Lange,  A. Behn,  Jia Deng,  Xintian Feng,  D. Ghosh,  
 M. Goldey,  P. R. Horn,  L. D. Jacobson,  I. Kaliman,  T. Kus,  A. Landau,  
 Jie Liu,  E. I. Proynov,  R. M. Richard,  R. P. Steele,  E. J. Sundstrom,  
 H. L. Woodcock III,  P. M. Zimmerman,  D. Zuev,  B. Alam,  B. Albrecht,  
 E. Alguire,  S. A. Baeppler,  D. Barton,  Z. Benda,  Y. A. Bernard,  
 E. J. Berquist,  K. B. Bravaya,  H. Burton,  K. Carter-Fenk,  D. Casanova,  
 Chun-Min Chang,  Yunqing Chen,  A. Chien,  K. D. Closser,  M. P. Coons,  
 S. Coriani,  S. Dasgupta,  A. L. Dempwolff,  M. Diedenhofen,  Hainam Do,  
 R. G. Edgar,  Po-Tung Fang,  S. Faraji,  S. Fatehi,  Qingguo Feng,  
 J. Fosso-Tande,  J. Gayvert,  Qinghui Ge,  A. Ghysels,  G. Gidofalvi,  
 J. Gomes,  J. Gonthier,  A. Gunina,  D. Hait,  M. W. D. Hanson-Heine,  
 P. H. P. Harbach,  A. W. Hauser,  M. F. Herbst,  J. E. Herr,  
 E. G. Hohenstein,  Z. C. Holden,  Kerwin Hui,  B. C. Huynh,  T.-C. Jagau,  
 Hyunjun Ji,  B. Kaduk,  K. Khistyaev,  Jaehoon Kim,  P. Klunzinger,  K. Koh,  
 D. Kosenkov,  L. Koulias,  T. Kowalczyk,  C. M. Krauter,  A. Kunitsa,  
 Ka Un Lao,  A. Laurent,  K. V. Lawler,  Joonho Lee,  D. Lefrancois,  
 S. Lehtola,  D. S. Levine,  Yi-Pei Li,  You-Sheng Lin,  Fenglai Liu,  
 Kuan-Yu Liu,  E. Livshits,  M. Loipersberger,  A. Luenser,  P. Manohar,  
 E. Mansoor,  S. F. Manzer,  Shan-Ping Mao,  Yuezhi Mao,  N. Mardirossian,  
 A. V. Marenich,  T. Markovich,  L. A. Martinez-Martinez,  S. A. Maurer,  
 N. J. Mayhall,  S. C. McKenzie,  J.-M. Mewes,  P. Morgante,  A. F. Morrison,  
 J. W. Mullinax,  K. Nanda,  T. S. Nguyen-Beck,  R. Olivares-Amaya,  
 K. J. Oosterbaan,  J. A. Parkhill,  S. K. Paul,  F. Pavosevic,  Zheng Pei,  
 T. M. Perrine,  F. Plasser,  P. Pokhilko,  S. Prager,  A. Prociuk,  
 E. Ramos,  B. Rana,  D. R. Rehn,  F. Rob,  M. Scheurer,  M. Schneider,  
 N. Sergueev,  S. M. Sharada,  S. Sharma,  D. W. Small,  T. Stauch,  
 C. J. Stein,  T. Stein,  Yu-Chuan Su,  S. P. Veccham,  Zhen Tao,  
 A. J. W. Thom,  A. Tkatchenko,  T. Tsuchimochi,  N. M. Tubman,  L. Vogt,  
 M. L. Vidal,  O. Vydrov,  M. A. Watson,  J. Wenzel,  M. de Wergifosse,  
 T. A. Wesolowski,  A. White,  J. Witte,  A. Yamada,  Jun Yang,  K. Yao,  
 S. Yeganeh,  S. R. Yost,  Zhi-Qiang You,  A. Zech,  Igor Ying Zhang,  
 Xing Zhang,  Yan Zhao,  Ying Zhu,  B. R. Brooks,  G. K. L. Chan,  
 C. J. Cramer,  M. S. Gordon,  W. J. Hehre,  A. Klamt,  M. W. Schmidt,  
 C. D. Sherrill,  D. G. Truhlar,  A. Aspuru-Guzik,  R. Baer,  A. T. Bell,  
 N. A. Besley,  Jeng-Da Chai,  A. E. DePrince, III,  R. A. DiStasio Jr.,  
 A. Dreuw,  B. D. Dunietz,  T. R. Furlani,  Chao-Ping Hsu,  Yousung Jung,  
 Jing Kong,  D. S. Lambrecht,  WanZhen Liang,  C. Ochsenfeld,  
 V. A. Rassolov,  L. V. Slipchenko,  J. E. Subotnik,  T. Van Voorhis,  
 J. M. Herbert,  A. I. Krylov,  P. M. W. Gill,  M. Head-Gordon

 Contributors to earlier versions of Q-Chem not listed above: 
 R. D. Adamson,  B. Austin,  J. Baker,  G. J. O. Beran,  K. Brandhorst,  
 S. T. Brown,  E. F. C. Byrd,  A. K. Chakraborty,  C.-L. Cheng,  
 Siu Hung Chien,  D. M. Chipman,  D. L. Crittenden,  H. Dachsel,  
 R. J. Doerksen,  A. D. Dutoi,  L. Fusti-Molnar,  W. A. Goddard III,  
 A. Golubeva-Zadorozhnaya,  S. R. Gwaltney,  G. Hawkins,  A. Heyden,  
 S. Hirata,  G. Kedziora,  F. J. Keil,  C. Kelley,  Jihan Kim,  R. A. King,  
 R. Z. Khaliullin,  P. P. Korambath,  W. Kurlancheek,  A. M. Lee,  M. S. Lee,  
 S. V. Levchenko,  Ching Yeh Lin,  D. Liotard,  R. C. Lochan,  I. Lotan,  
 P. E. Maslen,  N. Nair,  D. P. O'Neill,  D. Neuhauser,  E. Neuscamman,  
 C. M. Oana,  R. Olson,  B. Peters,  R. Peverati,  P. A. Pieniazek,  
 Y. M. Rhee,  J. Ritchie,  M. A. Rohrdanz,  E. Rosta,  N. J. Russ,  
 H. F. Schaefer III,  N. E. Schultz,  N. Shenvi,  A. C. Simmonett,  A. Sodt,  
 D. Stuck,  K. S. Thanthiriwatte,  V. Vanovschi,  Tao Wang,  A. Warshel,  
 C. F. Williams,  Q. Wu,  X. Xu,  W. Zhang

 Please cite Q-Chem as follows:
 Y. Shao et al., Mol. Phys. 113, 184-215 (2015)
 DOI: 10.1080/00268976.2014.952696

 Q-Chem 5.3.0 for Intel X86 EM64T Linux

 Parts of Q-Chem use Armadillo 9.800.1 (Horizon Scraper).
 http://arma.sourceforge.net/

 Q-Chem begins on Wed Jul 29 00:48:27 2020  

Host: centos77-c1
0

     Scratch files written to /tmp/30084.centos77-h1/qchem31399//
Processing $rem in /opt/qchem-5.3.0-intel2020u1//config/preferences:
Processing $rem in /home/shihchengli/.qchemrc:

Checking the input file for inconsistencies... 	...done.

--------------------------------------------------------------
User input:
--------------------------------------------------------------
$rem
   JOBTYPE  sp
   EXCHANGE   omegaB97X-D
   BASIS   6-311+G(2df,2pd)
   UNRESTRICTED   False
   max_scf_cycles   250
   geom_opt_max_cycles   1500
   basis2 6-31G*
   scf_algorithm rca_diis
   SYM_IGNORE  TRUE
   print_input   true
   geom_opt_dmax   80
   pop_mulliken false
   XC_GRID 000075000302
$end

$molecule
0 1
C       -5.5504468344     0.5414795504     -0.0545195503
C       -4.4098525484     1.3641622521     0.0586412174
H       -5.9249402735     0.2990857431     -1.1065847569
H       -6.2537609206     0.5721160586     0.6769510118
H       -4.4689357094     -0.3084626057     0.2987295098
O       -3.2925492424     -0.0188597509     0.5870198199
H       -4.2458266354     1.9898705133     0.9846793690
H       -3.8878028799     1.6950855788     -0.7894611894
H       -2.6466173534     -0.2713400827     -0.0825652680
$end
--------------------------------------------------------------
 ----------------------------------------------------------------
             Standard Nuclear Orientation (Angstroms)
    I     Atom           X                Y                Z
 ----------------------------------------------------------------
    1      C      -5.5504468344     0.5414795504    -0.0545195503
    2      C      -4.4098525484     1.3641622521     0.0586412174
    3      H      -5.9249402735     0.2990857431    -1.1065847569
    4      H      -6.2537609206     0.5721160586     0.6769510118
    5      H      -4.4689357094    -0.3084626057     0.2987295098
    6      O      -3.2925492424    -0.0188597509     0.5870198199
    7      H      -4.2458266354     1.9898705133     0.9846793690
    8      H      -3.8878028799     1.6950855788    -0.7894611894
    9      H      -2.6466173534    -0.2713400827    -0.0825652680
 ----------------------------------------------------------------
 Nuclear Repulsion Energy =          79.36744739 hartrees
 There are       13 alpha and       13 beta electrons
 Requested basis set is 6-311+G(2df,2pd)
 There are 60 shells and 186 basis functions

 Total QAlloc Memory Limit   2000 MB
 Mega-Array Size       188 MB
 MEM_STATIC part       192 MB

                       Distance Matrix (Angstroms)
             C (  1)   C (  2)   H (  3)   H (  4)   H (  5)   O (  6)
   C (  2)  1.410875
   H (  3)  1.142734  2.188065
   H (  4)  1.015204  2.099915  1.834031
   H (  5)  1.420159  1.690801  2.112812  2.025851
   O (  6)  2.413225  1.854805  3.146247  3.020946  1.245338
   H (  7)  2.209028  1.129585  3.170420  2.477201  2.408867  2.258732
   H (  8)  2.152982  1.049440  2.489842  3.001530  2.352888  2.277419
   H (  9)  3.015574  2.409109  3.481580  3.781503  1.862151  0.964012
             H (  7)   H (  8)
   H (  8)  1.833754
   H (  9)  2.968089  2.430447
 
 A cutoff of  1.0D-09 yielded   1777 shell pairs
 There are     17243 function pairs (     21422 Cartesian)
 Smallest overlap matrix eigenvalue = 8.93E-05

 Scale SEOQF with 1.000000e-02/1.000000e-01/1.000000e-01

 Standard Electronic Orientation quadrupole field applied
 Nucleus-field energy     =     0.0000000027 hartrees
 Requested basis set is 6-31G(d)
 There are 24 shells and 54 basis functions
 A cutoff of  1.0D-09 yielded    297 shell pairs
 There are      1548 function pairs (      1731 Cartesian)
 Smallest overlap matrix eigenvalue = 6.74E-03
 Guess from superposition of atomic densities
 Warning:  Energy on first SCF cycle will be non-variational
 SAD guess density has 26.000000 electrons
 Long-range K will be added via erf
 Coulomb attenuation parameter = 0.2 bohr**(-1)
 A restricted hybrid HF-DFT SCF calculation will be
 performed using Relaxed Constraint Minimization + Pulay DIIS
 Exchange:     0.2220 Hartree-Fock + 1.0000 wB97X-D + LR-HF
 Correlation:  1.0000 wB97X-D
 Using Euler-Maclaurin-Lebedev (75,302) quadrature formula
 Dispersion:   Grimme D
 SCF converges when DIIS error is below 1.0E-04
 using 6 threads for integral computing
 -------------------------------------------------------
 OpenMP Integral computing Module                
 Release: version 1.0, May 2013, Q-Chem Inc. Pittsburgh 
 -------------------------------------------------------
 using 6 threads for integral computing
 -------------------------------------------------------
 OpenMP Integral computing Module                
 Release: version 1.0, May 2013, Q-Chem Inc. Pittsburgh 
 -------------------------------------------------------
 ---------------------------------------
  Cycle       Energy         DIIS Error
 ---------------------------------------
    1    -155.2528392315      9.94E-02
    2    -154.7771558889      1.57E-02
    3    -154.8115795165      3.28E-03
    4    -154.8522193504      2.46E-03
    5    -154.8531688017      5.06E-04 Done RCA. Switching to DIIS
    6    -154.8543633410      3.14E-04
    7    -154.8543998864      4.11E-05 Convergence criterion met
 ---------------------------------------
 SCF time:  CPU 20.71 s  wall 3.48 s
 SCF   energy in the small basis set = -154.85439989
 Total energy in the small basis set = -154.85439989
 ----------------------------------------------------
  Cycle       Energy    
 ----------------------------------------------------
    1     -18.6727081731     -1.87E+01
 Long-range K will be added via erf
 Coulomb attenuation parameter = 0.2 bohr**(-1)
 A restricted hybrid HF-DFT SCF calculation will be
 performed using Relaxed Constraint Minimization + Pulay DIIS
 Exchange:     0.2220 Hartree-Fock + 1.0000 wB97X-D + LR-HF
 Correlation:  1.0000 wB97X-D
 Using Euler-Maclaurin-Lebedev (75,302) quadrature formula
 Dispersion:   Grimme D
 SCF converges when DIIS error is below 1.0E-05
 Basis2 calculation detected. Using small basis as guess for larger.
 SCFMinFind is unable to tell whether the solution found is close.
 Resetting ReadMinima to 0 and attempting to follow guess.
 SCFMinFind following SCF Guess.
 using 6 threads for integral computing
 -------------------------------------------------------
 OpenMP Integral computing Module                
 Release: version 1.0, May 2013, Q-Chem Inc. Pittsburgh 
 -------------------------------------------------------
 using 6 threads for integral computing
 -------------------------------------------------------
 OpenMP Integral computing Module                
 Release: version 1.0, May 2013, Q-Chem Inc. Pittsburgh 
 -------------------------------------------------------
 ---------------------------------------
  Cycle       Energy         DIIS Error
 ---------------------------------------
    1    -154.8804132517      5.98E-03
    2    -154.8765360447      4.39E-03
    3    -154.8975572851      1.00E-03
    4    -154.9264855308      1.10E-03
    5    -154.9279848974      1.79E-04 Done RCA. Switching to DIIS
    6    -154.9298935124      2.15E-04
    7    -154.9300289665      8.22E-06 Convergence criterion met
 ---------------------------------------
 SCF time:  CPU 74.25 s  wall 12.43 s
 SCF   energy in the final basis set = -154.93002897
 Total energy in the final basis set = -154.93002897
 
 --------------------------------------------------------------
 
                    Orbital Energies (a.u.)
 --------------------------------------------------------------
 
 Alpha MOs
 -- Occupied --
-19.2425 -10.3553 -10.2535  -1.0884  -0.8746  -0.6988  -0.6110  -0.5691
 -0.5054  -0.4604  -0.4362  -0.4278  -0.3053
 -- Virtual --
  0.0529   0.0680   0.0892   0.0966   0.1133   0.1276   0.1382   0.1492
  0.1766   0.1880   0.2122   0.2387   0.2541   0.2770   0.2864   0.2958
  0.3241   0.3302   0.3604   0.3957   0.4619   0.4640   0.4932   0.5480
  0.5667   0.5776   0.5850   0.6054   0.6113   0.6283   0.6476   0.6874
  0.7101   0.7488   0.8033   0.8295   0.8437   0.8802   0.9109   0.9351
  0.9882   1.0084   1.0655   1.0977   1.1313   1.1510   1.1716   1.1892
  1.2324   1.2566   1.2649   1.3008   1.3243   1.3492   1.4138   1.4279
  1.4348   1.4523   1.4732   1.4794   1.5338   1.5734   1.6008   1.6634
  1.7232   1.7865   1.9137   2.0037   2.0602   2.2636   2.3113   2.4327
  2.4738   2.5443   2.6481   2.6619   2.6962   2.7516   2.7772   2.7994
  2.8712   2.8860   2.9479   2.9774   3.0091   3.0351   3.0733   3.0865
  3.0953   3.1314   3.1660   3.2120   3.2413   3.2621   3.3273   3.3331
  3.3626   3.3952   3.4126   3.4492   3.4664   3.5048   3.5435   3.5504
  3.5626   3.6113   3.6247   3.6609   3.7002   3.7303   3.7526   3.8146
  3.8360   3.8660   3.8978   3.9038   3.9309   3.9504   4.0469   4.0752
  4.0955   4.1188   4.1752   4.2041   4.2182   4.2279   4.2824   4.3172
  4.3301   4.3481   4.4325   4.4525   4.5013   4.5584   4.6193   4.7200
  4.7234   4.8038   4.8287   4.8562   4.9482   5.0325   5.0747   5.0940
  5.1442   5.1996   5.2357   5.3668   5.3851   5.4259   5.4583   5.4960
  5.5930   5.6516   5.7789   5.8145   6.0304   6.1550   6.2154   6.3589
  6.4674   6.6266   6.7329   6.8790   7.1632   7.2260   7.4109   7.6219
  7.7788   8.1757  24.9351  25.2978  50.4388
 --------------------------------------------------------------
 
 -----------------------------------------------------------------
                    Cartesian Multipole Moments
 -----------------------------------------------------------------
    Charge (ESU x 10^10)
                 0.0000
    Dipole Moment (Debye)
         X       0.4782      Y       0.9559      Z      -1.4401
       Tot       1.7934
    Quadrupole Moments (Debye-Ang)
        XX     -24.7439     XY      -3.7383     YY     -19.0999
        XZ       3.2009     YZ       0.8939     ZZ     -20.7930
    Octopole Moments (Debye-Ang^2)
       XXX     306.3638    XXY      -0.9922    XYY      88.2861
       YYY     -34.6294    XXZ      -7.1535    XYZ      -4.6198
       YYZ      -2.0604    XZZ      90.0722    YZZ     -10.4831
       ZZZ     -11.7304
    Hexadecapole Moments (Debye-Ang^3)
      XXXX   -2818.5584   XXXY     160.7761   XXYY    -455.4538
      XYYY     169.6136   YYYY    -115.8248   XXXZ       9.5560
      XXYZ      24.0837   XYYZ       3.0855   YYYZ       1.4263
      XXZZ    -423.5671   XYZZ      51.1406   YYZZ     -24.9776
      XZZZ      36.1139   YZZZ      -0.0826   ZZZZ     -48.1214
 -----------------------------------------------------------------
Archival summary:
1\1\centos77-c1\SP\ProcedureUnspecified\BasisUnspecified\126\shihchen\WedJul2900:48:462020WedJul2900:48:462020\0\\#,ProcedureUnspecified,BasisUnspecified,\\0,1\C\H,1,1.04944\H,1,1.12958,2,114.558\C,1,1.41087,2,121.414,3,158.611,0\H,4,1.0152,1,118.991,2,-152.941,0\H,4,1.14273,1,117.546,2,-3.63901,0\H,4,1.42016,1,73.3438,2,101.306,0\O,7,1.24534,4,129.627,1,5.05417,0\H,8,0.964012,7,114.283,4,-109.293,0\\\@

 Total job time:  19.28s(wall), 100.77s(cpu) 
 Wed Jul 29 00:48:46 2020

        *************************************************************
        *                                                           *
        *  Thank you very much for using Q-Chem.  Have a nice day.  *
        *                                                           *
        *************************************************************


