                  Welcome to Q-Chem
     A Quantum Leap Into The Future Of Chemistry


 Q-Chem 5.3 (devel), Q-Chem, Inc., Pleasanton, CA (2020)

 Yihan Shao,  Zhengting Gan,  E. Epifanovsky,  A. T. B. Gilbert,  M. Wormit,  
 J. Kussmann,  A. W. Lange,  A. Behn,  Jia Deng,  Xintian Feng,  D. Ghosh,  
 M. Goldey,  P. R. Horn,  L. D. Jacobson,  I. Kaliman,  T. Kus,  A. Landau,  
 Jie Liu,  E. I. Proynov,  R. M. Richard,  R. P. Steele,  E. J. Sundstrom,  
 H. L. Woodcock III,  P. M. Zimmerman,  D. Zuev,  B. Alam,  B. Albrecht,  
 E. Alguire,  S. A. Baeppler,  D. Barton,  Z. Benda,  Y. A. Bernard,  
 E. J. Berquist,  K. B. Bravaya,  H. Burton,  K. Carter-Fenk,  D. Casanova,  
 Chun-Min Chang,  Yunqing Chen,  A. Chien,  K. D. Closser,  M. P. Coons,  
 S. Coriani,  S. Dasgupta,  A. L. Dempwolff,  M. Diedenhofen,  Hainam Do,  
 R. G. Edgar,  Po-Tung Fang,  S. Faraji,  S. Fatehi,  Qingguo Feng,  
 J. Fosso-Tande,  J. Gayvert,  Qinghui Ge,  A. Ghysels,  G. Gidofalvi,  
 J. Gomes,  J. Gonthier,  A. Gunina,  D. Hait,  M. W. D. Hanson-Heine,  
 P. H. P. Harbach,  A. W. Hauser,  M. F. Herbst,  J. E. Herr,  
 E. G. Hohenstein,  Z. C. Holden,  Kerwin Hui,  B. C. Huynh,  T.-C. Jagau,  
 Hyunjun Ji,  B. Kaduk,  K. Khistyaev,  Jaehoon Kim,  P. Klunzinger,  K. Koh,  
 D. Kosenkov,  L. Koulias,  T. Kowalczyk,  C. M. Krauter,  A. Kunitsa,  
 Ka Un Lao,  A. Laurent,  K. V. Lawler,  Joonho Lee,  D. Lefrancois,  
 S. Lehtola,  D. S. Levine,  Yi-Pei Li,  You-Sheng Lin,  Fenglai Liu,  
 Kuan-Yu Liu,  E. Livshits,  M. Loipersberger,  A. Luenser,  P. Manohar,  
 E. Mansoor,  S. F. Manzer,  Shan-Ping Mao,  Yuezhi Mao,  N. Mardirossian,  
 A. V. Marenich,  T. Markovich,  L. A. Martinez-Martinez,  S. A. Maurer,  
 N. J. Mayhall,  S. C. McKenzie,  J.-M. Mewes,  P. Morgante,  A. F. Morrison,  
 J. W. Mullinax,  K. Nanda,  T. S. Nguyen-Beck,  R. Olivares-Amaya,  
 K. J. Oosterbaan,  J. A. Parkhill,  S. K. Paul,  F. Pavosevic,  Zheng Pei,  
 T. M. Perrine,  F. Plasser,  P. Pokhilko,  S. Prager,  A. Prociuk,  
 E. Ramos,  B. Rana,  D. R. Rehn,  F. Rob,  M. Scheurer,  M. Schneider,  
 N. Sergueev,  S. M. Sharada,  S. Sharma,  D. W. Small,  T. Stauch,  
 C. J. Stein,  T. Stein,  Yu-Chuan Su,  S. P. Veccham,  Zhen Tao,  
 A. J. W. Thom,  A. Tkatchenko,  T. Tsuchimochi,  N. M. Tubman,  L. Vogt,  
 M. L. Vidal,  O. Vydrov,  M. A. Watson,  J. Wenzel,  M. de Wergifosse,  
 T. A. Wesolowski,  A. White,  J. Witte,  A. Yamada,  Jun Yang,  K. Yao,  
 S. Yeganeh,  S. R. Yost,  Zhi-Qiang You,  A. Zech,  Igor Ying Zhang,  
 Xing Zhang,  Yan Zhao,  Ying Zhu,  B. R. Brooks,  G. K. L. Chan,  
 C. J. Cramer,  M. S. Gordon,  W. J. Hehre,  A. Klamt,  M. W. Schmidt,  
 C. D. Sherrill,  D. G. Truhlar,  A. Aspuru-Guzik,  R. Baer,  A. T. Bell,  
 N. A. Besley,  Jeng-Da Chai,  A. E. DePrince, III,  R. A. DiStasio Jr.,  
 A. Dreuw,  B. D. Dunietz,  T. R. Furlani,  Chao-Ping Hsu,  Yousung Jung,  
 Jing Kong,  D. S. Lambrecht,  WanZhen Liang,  C. Ochsenfeld,  
 V. A. Rassolov,  L. V. Slipchenko,  J. E. Subotnik,  T. Van Voorhis,  
 J. M. Herbert,  A. I. Krylov,  P. M. W. Gill,  M. Head-Gordon

 Contributors to earlier versions of Q-Chem not listed above: 
 R. D. Adamson,  B. Austin,  J. Baker,  G. J. O. Beran,  K. Brandhorst,  
 S. T. Brown,  E. F. C. Byrd,  A. K. Chakraborty,  C.-L. Cheng,  
 Siu Hung Chien,  D. M. Chipman,  D. L. Crittenden,  H. Dachsel,  
 R. J. Doerksen,  A. D. Dutoi,  L. Fusti-Molnar,  W. A. Goddard III,  
 A. Golubeva-Zadorozhnaya,  S. R. Gwaltney,  G. Hawkins,  A. Heyden,  
 S. Hirata,  G. Kedziora,  F. J. Keil,  C. Kelley,  Jihan Kim,  R. A. King,  
 R. Z. Khaliullin,  P. P. Korambath,  W. Kurlancheek,  A. M. Lee,  M. S. Lee,  
 S. V. Levchenko,  Ching Yeh Lin,  D. Liotard,  R. C. Lochan,  I. Lotan,  
 P. E. Maslen,  N. Nair,  D. P. O'Neill,  D. Neuhauser,  E. Neuscamman,  
 C. M. Oana,  R. Olson,  B. Peters,  R. Peverati,  P. A. Pieniazek,  
 Y. M. Rhee,  J. Ritchie,  M. A. Rohrdanz,  E. Rosta,  N. J. Russ,  
 H. F. Schaefer III,  N. E. Schultz,  N. Shenvi,  A. C. Simmonett,  A. Sodt,  
 D. Stuck,  K. S. Thanthiriwatte,  V. Vanovschi,  Tao Wang,  A. Warshel,  
 C. F. Williams,  Q. Wu,  X. Xu,  W. Zhang

 Please cite Q-Chem as follows:
 Y. Shao et al., Mol. Phys. 113, 184-215 (2015)
 DOI: 10.1080/00268976.2014.952696

 Q-Chem 5.3.0 for Intel X86 EM64T Linux

 Parts of Q-Chem use Armadillo 9.800.1 (Horizon Scraper).
 http://arma.sourceforge.net/

 Q-Chem begins on Wed Jul 29 00:47:29 2020  

Host: centos77-c1
0

     Scratch files written to /tmp/30084.centos77-h1/qchem31272//
Processing $rem in /opt/qchem-5.3.0-intel2020u1//config/preferences:
Processing $rem in /home/shihchengli/.qchemrc:

Checking the input file for inconsistencies... 	...done.

--------------------------------------------------------------
User input:
--------------------------------------------------------------
$rem
   JOBTYPE  sp
   EXCHANGE   omegaB97X-D
   BASIS   6-311+G(2df,2pd)
   UNRESTRICTED   False
   max_scf_cycles   250
   geom_opt_max_cycles   1500
   basis2 6-31G*
   scf_algorithm rca_diis
   SYM_IGNORE  TRUE
   print_input   true
   geom_opt_dmax   80
   pop_mulliken false
   XC_GRID 000075000302
$end

$molecule
0 1
C       -5.5492451440     0.5442817602     -0.0756338141
C       -4.4051984156     1.3750292729     0.0610342186
H       -5.8864257649     0.3279098833     -1.0390816291
H       -6.2728471235     0.5733292337     0.6761206561
H       -4.4669888835     -0.3057054650     0.2886088986
O       -3.2934069546     -0.0155370216     0.5856398977
H       -4.2631922653     1.9395798466     0.9084542016
H       -3.9007171287     1.6934221644     -0.7537075755
H       -2.6427107173     -0.2691724174     -0.0785446906
$end
--------------------------------------------------------------
 ----------------------------------------------------------------
             Standard Nuclear Orientation (Angstroms)
    I     Atom           X                Y                Z
 ----------------------------------------------------------------
    1      C      -5.5492451440     0.5442817602    -0.0756338141
    2      C      -4.4051984156     1.3750292729     0.0610342186
    3      H      -5.8864257649     0.3279098833    -1.0390816291
    4      H      -6.2728471235     0.5733292337     0.6761206561
    5      H      -4.4669888835    -0.3057054650     0.2886088986
    6      O      -3.2934069546    -0.0155370216     0.5856398977
    7      H      -4.2631922653     1.9395798466     0.9084542016
    8      H      -3.9007171287     1.6934221644    -0.7537075755
    9      H      -2.6427107173    -0.2691724174    -0.0785446906
 ----------------------------------------------------------------
 Nuclear Repulsion Energy =          80.06587470 hartrees
 There are       13 alpha and       13 beta electrons
 Requested basis set is 6-311+G(2df,2pd)
 There are 60 shells and 186 basis functions

 Total QAlloc Memory Limit   2000 MB
 Mega-Array Size       188 MB
 MEM_STATIC part       192 MB

                       Distance Matrix (Angstroms)
             C (  1)   C (  2)   H (  3)   H (  4)   H (  5)   O (  6)
   C (  2)  1.420444
   H (  3)  1.043427  2.121497
   H (  4)  1.043829  2.123480  1.775238
   H (  5)  1.423527  1.697197  2.044268  2.045481
   O (  6)  2.416503  1.856062  3.079192  3.038423  1.244877
   H (  7)  2.137573  1.028107  3.004208  2.441174  2.338172  2.206167
   H (  8)  2.120838  1.009792  2.426747  2.987644  2.324564  2.254599
   H (  9)  3.018221  2.414383  3.435233  3.802265  1.861217  0.963783
             H (  7)   H (  8)
   H (  8)  1.718943
   H (  9)  2.911823  2.426974
 
 A cutoff of  1.0D-09 yielded   1781 shell pairs
 There are     17257 function pairs (     21439 Cartesian)
 Smallest overlap matrix eigenvalue = 9.29E-05

 Scale SEOQF with 1.000000e-02/1.000000e-01/1.000000e-01

 Standard Electronic Orientation quadrupole field applied
 Nucleus-field energy     =     0.0000000027 hartrees
 Requested basis set is 6-31G(d)
 There are 24 shells and 54 basis functions
 A cutoff of  1.0D-09 yielded    298 shell pairs
 There are      1549 function pairs (      1732 Cartesian)
 Smallest overlap matrix eigenvalue = 6.70E-03
 Guess from superposition of atomic densities
 Warning:  Energy on first SCF cycle will be non-variational
 SAD guess density has 26.000000 electrons
 Long-range K will be added via erf
 Coulomb attenuation parameter = 0.2 bohr**(-1)
 A restricted hybrid HF-DFT SCF calculation will be
 performed using Relaxed Constraint Minimization + Pulay DIIS
 Exchange:     0.2220 Hartree-Fock + 1.0000 wB97X-D + LR-HF
 Correlation:  1.0000 wB97X-D
 Using Euler-Maclaurin-Lebedev (75,302) quadrature formula
 Dispersion:   Grimme D
 SCF converges when DIIS error is below 1.0E-04
 using 6 threads for integral computing
 -------------------------------------------------------
 OpenMP Integral computing Module                
 Release: version 1.0, May 2013, Q-Chem Inc. Pittsburgh 
 -------------------------------------------------------
 using 6 threads for integral computing
 -------------------------------------------------------
 OpenMP Integral computing Module                
 Release: version 1.0, May 2013, Q-Chem Inc. Pittsburgh 
 -------------------------------------------------------
 ---------------------------------------
  Cycle       Energy         DIIS Error
 ---------------------------------------
    1    -155.3522095197      1.03E-01
    2    -154.7781032821      1.55E-02
    3    -154.8118287333      3.31E-03
    4    -154.8500843290      2.69E-03
    5    -154.8511360531      5.18E-04 Done RCA. Switching to DIIS
    6    -154.8525096423      3.34E-04
    7    -154.8525528491      4.03E-05 Convergence criterion met
 ---------------------------------------
 SCF time:  CPU 20.82 s  wall 3.50 s
 SCF   energy in the small basis set = -154.85255285
 Total energy in the small basis set = -154.85255285
 ----------------------------------------------------
  Cycle       Energy    
 ----------------------------------------------------
    1     -18.7398807451     -1.87E+01
 Long-range K will be added via erf
 Coulomb attenuation parameter = 0.2 bohr**(-1)
 A restricted hybrid HF-DFT SCF calculation will be
 performed using Relaxed Constraint Minimization + Pulay DIIS
 Exchange:     0.2220 Hartree-Fock + 1.0000 wB97X-D + LR-HF
 Correlation:  1.0000 wB97X-D
 Using Euler-Maclaurin-Lebedev (75,302) quadrature formula
 Dispersion:   Grimme D
 SCF converges when DIIS error is below 1.0E-05
 Basis2 calculation detected. Using small basis as guess for larger.
 SCFMinFind is unable to tell whether the solution found is close.
 Resetting ReadMinima to 0 and attempting to follow guess.
 SCFMinFind following SCF Guess.
 using 6 threads for integral computing
 -------------------------------------------------------
 OpenMP Integral computing Module                
 Release: version 1.0, May 2013, Q-Chem Inc. Pittsburgh 
 -------------------------------------------------------
 using 6 threads for integral computing
 -------------------------------------------------------
 OpenMP Integral computing Module                
 Release: version 1.0, May 2013, Q-Chem Inc. Pittsburgh 
 -------------------------------------------------------
 ---------------------------------------
  Cycle       Energy         DIIS Error
 ---------------------------------------
    1    -154.8795537508      5.98E-03
    2    -154.8760524530      4.39E-03
    3    -154.8970238180      1.00E-03
    4    -154.9258952531      1.09E-03
    5    -154.9273763938      1.79E-04 Done RCA. Switching to DIIS
    6    -154.9292630788      2.13E-04
    7    -154.9293957773      8.59E-06 Convergence criterion met
 ---------------------------------------
 SCF time:  CPU 74.48 s  wall 12.46 s
 SCF   energy in the final basis set = -154.92939578
 Total energy in the final basis set = -154.92939578
 
 --------------------------------------------------------------
 
                    Orbital Energies (a.u.)
 --------------------------------------------------------------
 
 Alpha MOs
 -- Occupied --
-19.2424 -10.3413 -10.2458  -1.0884  -0.8784  -0.7127  -0.6139  -0.5799
 -0.5077  -0.4638  -0.4444  -0.4290  -0.3040
 -- Virtual --
  0.0518   0.0683   0.0896   0.0977   0.1140   0.1278   0.1397   0.1499
  0.1804   0.1904   0.2271   0.2429   0.2567   0.2802   0.2913   0.2994
  0.3303   0.3364   0.3584   0.3959   0.4606   0.4641   0.4945   0.5537
  0.5734   0.5800   0.5941   0.6057   0.6283   0.6407   0.6669   0.7060
  0.7079   0.7488   0.8060   0.8324   0.8520   0.8835   0.9185   0.9328
  0.9955   1.0300   1.0806   1.1017   1.1358   1.1627   1.1781   1.2030
  1.2460   1.2610   1.2814   1.3018   1.3301   1.3457   1.4240   1.4321
  1.4582   1.4672   1.4863   1.5104   1.5512   1.5878   1.6396   1.7013
  1.7325   1.7850   1.9094   2.0108   2.0546   2.2639   2.3115   2.4105
  2.4571   2.5391   2.6232   2.6603   2.6825   2.7531   2.7651   2.8318
  2.8823   2.9025   2.9794   2.9961   3.0178   3.0517   3.0837   3.1110
  3.1238   3.1636   3.1824   3.2203   3.2472   3.2717   3.3315   3.3720
  3.3755   3.4208   3.4400   3.4637   3.4705   3.5046   3.5471   3.5707
  3.5846   3.6109   3.6523   3.6779   3.7361   3.7547   3.8008   3.8183
  3.8436   3.8813   3.9122   3.9215   3.9730   3.9918   4.0721   4.0997
  4.1241   4.1525   4.2166   4.2357   4.2660   4.2731   4.2965   4.3386
  4.3454   4.3770   4.4450   4.5019   4.5296   4.6232   4.6890   4.7452
  4.7539   4.8947   4.9677   5.0456   5.1393   5.1407   5.1858   5.2097
  5.2266   5.3392   5.3898   5.4166   5.4460   5.4711   5.4913   5.5876
  5.7056   5.7502   5.7869   5.8261   6.0581   6.3176   6.3646   6.4173
  6.5856   6.6294   6.7339   6.8822   7.1666   7.2295   7.4102   7.6230
  7.7806   8.1743  25.0739  25.4219  50.4392
 --------------------------------------------------------------
 
 -----------------------------------------------------------------
                    Cartesian Multipole Moments
 -----------------------------------------------------------------
    Charge (ESU x 10^10)
                 0.0000
    Dipole Moment (Debye)
         X       0.5088      Y       0.9882      Z      -1.4607
       Tot       1.8355
    Quadrupole Moments (Debye-Ang)
        XX     -24.8637     XY      -3.8840     YY     -18.8289
        XZ       3.3431     YZ       0.8559     ZZ     -20.7796
    Octopole Moments (Debye-Ang^2)
       XXX     306.1081    XXY      -0.2212    XYY      86.9971
       YYY     -33.9538    XXZ      -7.9473    XYZ      -4.4150
       YYZ      -2.1451    XZZ      89.9795    YZZ     -10.5863
       ZZZ     -11.6235
    Hexadecapole Moments (Debye-Ang^3)
      XXXX   -2809.2149   XXXY     156.6118   XXYY    -448.7534
      XYYY     166.8192   YYYY    -112.7376   XXXZ      14.1204
      XXYZ      23.1790   XYYZ       3.6470   YYYZ       1.6811
      XXZZ    -422.6124   XYZZ      51.4910   YYZZ     -24.7434
      XZZZ      35.8922   YZZZ       0.2214   ZZZZ     -45.9652
 -----------------------------------------------------------------
Archival summary:
1\1\centos77-c1\SP\ProcedureUnspecified\BasisUnspecified\126\shihchen\WedJul2900:47:482020WedJul2900:47:482020\0\\#,ProcedureUnspecified,BasisUnspecified,\\0,1\C\H,1,1.00979\H,1,1.02811,2,115.018\C,1,1.42044,2,120.607,3,158.775,0\H,4,1.04343,1,118.059,2,-3.99163,0\H,4,1.04383,1,118.214,2,-153.362,0\H,4,1.42353,1,73.2777,2,101.292,0\O,7,1.24488,4,129.687,1,4.40364,0\H,8,0.963783,7,114.249,4,-109.293,0\\\@

 Total job time:  19.20s(wall), 100.56s(cpu) 
 Wed Jul 29 00:47:48 2020

        *************************************************************
        *                                                           *
        *  Thank you very much for using Q-Chem.  Have a nice day.  *
        *                                                           *
        *************************************************************


