                  Welcome to Q-Chem
     A Quantum Leap Into The Future Of Chemistry


 Q-Chem 5.3 (devel), Q-Chem, Inc., Pleasanton, CA (2020)

 Yihan Shao,  Zhengting Gan,  E. Epifanovsky,  A. T. B. Gilbert,  M. Wormit,  
 J. Kussmann,  A. W. Lange,  A. Behn,  Jia Deng,  Xintian Feng,  D. Ghosh,  
 M. Goldey,  P. R. Horn,  L. D. Jacobson,  I. Kaliman,  T. Kus,  A. Landau,  
 Jie Liu,  E. I. Proynov,  R. M. Richard,  R. P. Steele,  E. J. Sundstrom,  
 H. L. Woodcock III,  P. M. Zimmerman,  D. Zuev,  B. Alam,  B. Albrecht,  
 E. Alguire,  S. A. Baeppler,  D. Barton,  Z. Benda,  Y. A. Bernard,  
 E. J. Berquist,  K. B. Bravaya,  H. Burton,  K. Carter-Fenk,  D. Casanova,  
 Chun-Min Chang,  Yunqing Chen,  A. Chien,  K. D. Closser,  M. P. Coons,  
 S. Coriani,  S. Dasgupta,  A. L. Dempwolff,  M. Diedenhofen,  Hainam Do,  
 R. G. Edgar,  Po-Tung Fang,  S. Faraji,  S. Fatehi,  Qingguo Feng,  
 J. Fosso-Tande,  J. Gayvert,  Qinghui Ge,  A. Ghysels,  G. Gidofalvi,  
 J. Gomes,  J. Gonthier,  A. Gunina,  D. Hait,  M. W. D. Hanson-Heine,  
 P. H. P. Harbach,  A. W. Hauser,  M. F. Herbst,  J. E. Herr,  
 E. G. Hohenstein,  Z. C. Holden,  Kerwin Hui,  B. C. Huynh,  T.-C. Jagau,  
 Hyunjun Ji,  B. Kaduk,  K. Khistyaev,  Jaehoon Kim,  P. Klunzinger,  K. Koh,  
 D. Kosenkov,  L. Koulias,  T. Kowalczyk,  C. M. Krauter,  A. Kunitsa,  
 Ka Un Lao,  A. Laurent,  K. V. Lawler,  Joonho Lee,  D. Lefrancois,  
 S. Lehtola,  D. S. Levine,  Yi-Pei Li,  You-Sheng Lin,  Fenglai Liu,  
 Kuan-Yu Liu,  E. Livshits,  M. Loipersberger,  A. Luenser,  P. Manohar,  
 E. Mansoor,  S. F. Manzer,  Shan-Ping Mao,  Yuezhi Mao,  N. Mardirossian,  
 A. V. Marenich,  T. Markovich,  L. A. Martinez-Martinez,  S. A. Maurer,  
 N. J. Mayhall,  S. C. McKenzie,  J.-M. Mewes,  P. Morgante,  A. F. Morrison,  
 J. W. Mullinax,  K. Nanda,  T. S. Nguyen-Beck,  R. Olivares-Amaya,  
 K. J. Oosterbaan,  J. A. Parkhill,  S. K. Paul,  F. Pavosevic,  Zheng Pei,  
 T. M. Perrine,  F. Plasser,  P. Pokhilko,  S. Prager,  A. Prociuk,  
 E. Ramos,  B. Rana,  D. R. Rehn,  F. Rob,  M. Scheurer,  M. Schneider,  
 N. Sergueev,  S. M. Sharada,  S. Sharma,  D. W. Small,  T. Stauch,  
 C. J. Stein,  T. Stein,  Yu-Chuan Su,  S. P. Veccham,  Zhen Tao,  
 A. J. W. Thom,  A. Tkatchenko,  T. Tsuchimochi,  N. M. Tubman,  L. Vogt,  
 M. L. Vidal,  O. Vydrov,  M. A. Watson,  J. Wenzel,  M. de Wergifosse,  
 T. A. Wesolowski,  A. White,  J. Witte,  A. Yamada,  Jun Yang,  K. Yao,  
 S. Yeganeh,  S. R. Yost,  Zhi-Qiang You,  A. Zech,  Igor Ying Zhang,  
 Xing Zhang,  Yan Zhao,  Ying Zhu,  B. R. Brooks,  G. K. L. Chan,  
 C. J. Cramer,  M. S. Gordon,  W. J. Hehre,  A. Klamt,  M. W. Schmidt,  
 C. D. Sherrill,  D. G. Truhlar,  A. Aspuru-Guzik,  R. Baer,  A. T. Bell,  
 N. A. Besley,  Jeng-Da Chai,  A. E. DePrince, III,  R. A. DiStasio Jr.,  
 A. Dreuw,  B. D. Dunietz,  T. R. Furlani,  Chao-Ping Hsu,  Yousung Jung,  
 Jing Kong,  D. S. Lambrecht,  WanZhen Liang,  C. Ochsenfeld,  
 V. A. Rassolov,  L. V. Slipchenko,  J. E. Subotnik,  T. Van Voorhis,  
 J. M. Herbert,  A. I. Krylov,  P. M. W. Gill,  M. Head-Gordon

 Contributors to earlier versions of Q-Chem not listed above: 
 R. D. Adamson,  B. Austin,  J. Baker,  G. J. O. Beran,  K. Brandhorst,  
 S. T. Brown,  E. F. C. Byrd,  A. K. Chakraborty,  C.-L. Cheng,  
 Siu Hung Chien,  D. M. Chipman,  D. L. Crittenden,  H. Dachsel,  
 R. J. Doerksen,  A. D. Dutoi,  L. Fusti-Molnar,  W. A. Goddard III,  
 A. Golubeva-Zadorozhnaya,  S. R. Gwaltney,  G. Hawkins,  A. Heyden,  
 S. Hirata,  G. Kedziora,  F. J. Keil,  C. Kelley,  Jihan Kim,  R. A. King,  
 R. Z. Khaliullin,  P. P. Korambath,  W. Kurlancheek,  A. M. Lee,  M. S. Lee,  
 S. V. Levchenko,  Ching Yeh Lin,  D. Liotard,  R. C. Lochan,  I. Lotan,  
 P. E. Maslen,  N. Nair,  D. P. O'Neill,  D. Neuhauser,  E. Neuscamman,  
 C. M. Oana,  R. Olson,  B. Peters,  R. Peverati,  P. A. Pieniazek,  
 Y. M. Rhee,  J. Ritchie,  M. A. Rohrdanz,  E. Rosta,  N. J. Russ,  
 H. F. Schaefer III,  N. E. Schultz,  N. Shenvi,  A. C. Simmonett,  A. Sodt,  
 D. Stuck,  K. S. Thanthiriwatte,  V. Vanovschi,  Tao Wang,  A. Warshel,  
 C. F. Williams,  Q. Wu,  X. Xu,  W. Zhang

 Please cite Q-Chem as follows:
 Y. Shao et al., Mol. Phys. 113, 184-215 (2015)
 DOI: 10.1080/00268976.2014.952696

 Q-Chem 5.3.0 for Intel X86 EM64T Linux

 Parts of Q-Chem use Armadillo 9.800.1 (Horizon Scraper).
 http://arma.sourceforge.net/

 Q-Chem begins on Wed Jul 29 00:27:30 2020  

Host: centos77-c1
0

     Scratch files written to /tmp/30084.centos77-h1/qchem28251//
Processing $rem in /opt/qchem-5.3.0-intel2020u1//config/preferences:
Processing $rem in /home/shihchengli/.qchemrc:

Checking the input file for inconsistencies... 	...done.

--------------------------------------------------------------
User input:
--------------------------------------------------------------
$rem
   JOBTYPE  sp
   EXCHANGE   omegaB97X-D
   BASIS   6-311+G(2df,2pd)
   UNRESTRICTED   False
   max_scf_cycles   250
   geom_opt_max_cycles   1500
   basis2 6-31G*
   scf_algorithm rca_diis
   SYM_IGNORE  TRUE
   print_input   true
   geom_opt_dmax   80
   pop_mulliken false
   XC_GRID 000075000302
$end

$molecule
0 1
C       -5.6497388189     0.5968942545     -0.0653656633
C       -4.4299151063     1.2673724140     0.0663479383
H       -6.0041564426     0.3685757218     -1.0623325011
H       -6.3939893214     0.6749345492     0.7143721744
H       -4.4675755592     -0.2945602093     0.2007234639
O       -3.2211265630     -0.0497759687     0.5358437069
H       -4.2244151910     1.8486637668     0.9517508644
H       -3.8973459113     1.5812217924     -0.8203246567
H       -2.3924694836     -0.1301890636     0.0518748366
$end
--------------------------------------------------------------
 ----------------------------------------------------------------
             Standard Nuclear Orientation (Angstroms)
    I     Atom           X                Y                Z
 ----------------------------------------------------------------
    1      C      -5.6497388189     0.5968942545    -0.0653656633
    2      C      -4.4299151063     1.2673724140     0.0663479383
    3      H      -6.0041564426     0.3685757218    -1.0623325011
    4      H      -6.3939893214     0.6749345492     0.7143721744
    5      H      -4.4675755592    -0.2945602093     0.2007234639
    6      O      -3.2211265630    -0.0497759687     0.5358437069
    7      H      -4.2244151910     1.8486637668     0.9517508644
    8      H      -3.8973459113     1.5812217924    -0.8203246567
    9      H      -2.3924694836    -0.1301890636     0.0518748366
 ----------------------------------------------------------------
 Nuclear Repulsion Energy =          78.53380018 hartrees
 There are       13 alpha and       13 beta electrons
 Requested basis set is 6-311+G(2df,2pd)
 There are 60 shells and 186 basis functions

 Total QAlloc Memory Limit   2000 MB
 Mega-Array Size       188 MB
 MEM_STATIC part       192 MB

                       Distance Matrix (Angstroms)
             C (  1)   C (  2)   H (  3)   H (  4)   H (  5)   O (  6)
   C (  2)  1.398163
   H (  3)  1.082444  2.135413
   H (  4)  1.080736  2.151396  1.844588
   H (  5)  1.504329  1.568155  2.096698  2.216940
   O (  6)  2.584143  1.848371  3.236424  3.259469  1.313720
   H (  7)  2.152441  1.078920  3.068334  2.478112  2.283983  2.187153
   H (  8)  2.147032  1.080888  2.442894  3.067553  2.210488  2.226347
   H (  9)  3.339491  2.470743  3.812415  4.135129  2.086921  0.962998
             H (  7)   H (  8)
   H (  8)  1.821744
   H (  9)  2.842826  2.440146
 
 A cutoff of  1.0D-09 yielded   1769 shell pairs
 There are     17129 function pairs (     21274 Cartesian)
 Smallest overlap matrix eigenvalue = 9.68E-05

 Scale SEOQF with 1.000000e-02/1.000000e-01/1.000000e-01

 Standard Electronic Orientation quadrupole field applied
 Nucleus-field energy     =     0.0000000026 hartrees
 Requested basis set is 6-31G(d)
 There are 24 shells and 54 basis functions
 A cutoff of  1.0D-09 yielded    294 shell pairs
 There are      1545 function pairs (      1728 Cartesian)
 Smallest overlap matrix eigenvalue = 7.05E-03
 Guess from superposition of atomic densities
 Warning:  Energy on first SCF cycle will be non-variational
 SAD guess density has 26.000000 electrons
 Long-range K will be added via erf
 Coulomb attenuation parameter = 0.2 bohr**(-1)
 A restricted hybrid HF-DFT SCF calculation will be
 performed using Relaxed Constraint Minimization + Pulay DIIS
 Exchange:     0.2220 Hartree-Fock + 1.0000 wB97X-D + LR-HF
 Correlation:  1.0000 wB97X-D
 Using Euler-Maclaurin-Lebedev (75,302) quadrature formula
 Dispersion:   Grimme D
 SCF converges when DIIS error is below 1.0E-04
 using 6 threads for integral computing
 -------------------------------------------------------
 OpenMP Integral computing Module                
 Release: version 1.0, May 2013, Q-Chem Inc. Pittsburgh 
 -------------------------------------------------------
 using 6 threads for integral computing
 -------------------------------------------------------
 OpenMP Integral computing Module                
 Release: version 1.0, May 2013, Q-Chem Inc. Pittsburgh 
 -------------------------------------------------------
 ---------------------------------------
  Cycle       Energy         DIIS Error
 ---------------------------------------
    1    -155.2401475749      9.89E-02
    2    -154.7686584712      1.61E-02
    3    -154.8027324050      3.47E-03
    4    -154.8462180467      2.25E-03
    5    -154.8471437081      5.37E-04 Done RCA. Switching to DIIS
    6    -154.8481737476      4.73E-04
    7    -154.8482413268      5.21E-05 Convergence criterion met
 ---------------------------------------
 SCF time:  CPU 16.22 s  wall 2.72 s
 SCF   energy in the small basis set = -154.84824133
 Total energy in the small basis set = -154.84824133
 ----------------------------------------------------
  Cycle       Energy    
 ----------------------------------------------------
    1     -18.6625550132     -1.87E+01
 Long-range K will be added via erf
 Coulomb attenuation parameter = 0.2 bohr**(-1)
 A restricted hybrid HF-DFT SCF calculation will be
 performed using Relaxed Constraint Minimization + Pulay DIIS
 Exchange:     0.2220 Hartree-Fock + 1.0000 wB97X-D + LR-HF
 Correlation:  1.0000 wB97X-D
 Using Euler-Maclaurin-Lebedev (75,302) quadrature formula
 Dispersion:   Grimme D
 SCF converges when DIIS error is below 1.0E-05
 Basis2 calculation detected. Using small basis as guess for larger.
 SCFMinFind is unable to tell whether the solution found is close.
 Resetting ReadMinima to 0 and attempting to follow guess.
 SCFMinFind following SCF Guess.
 using 6 threads for integral computing
 -------------------------------------------------------
 OpenMP Integral computing Module                
 Release: version 1.0, May 2013, Q-Chem Inc. Pittsburgh 
 -------------------------------------------------------
 using 6 threads for integral computing
 -------------------------------------------------------
 OpenMP Integral computing Module                
 Release: version 1.0, May 2013, Q-Chem Inc. Pittsburgh 
 -------------------------------------------------------
 ---------------------------------------
  Cycle       Energy         DIIS Error
 ---------------------------------------
    1    -154.8716719323      6.10E-03
    2    -154.8594949128      4.92E-03
    3    -154.8852387657      1.21E-03
    4    -154.9210924814      1.22E-03
    5    -154.9233805459      1.15E-04 Done RCA. Switching to DIIS
    6    -154.9266810810      1.08E-04
    7    -154.9267200416      9.89E-06 Convergence criterion met
 ---------------------------------------
 SCF time:  CPU 56.54 s  wall 9.46 s
 SCF   energy in the final basis set = -154.92672004
 Total energy in the final basis set = -154.92672004
 
 --------------------------------------------------------------
 
                    Orbital Energies (a.u.)
 --------------------------------------------------------------
 
 Alpha MOs
 -- Occupied --
-19.2310 -10.3517 -10.2706  -1.0726  -0.8851  -0.6960  -0.6150  -0.5762
 -0.5146  -0.4585  -0.4253  -0.4022  -0.3163
 -- Virtual --
  0.0609   0.0703   0.0880   0.0974   0.1141   0.1265   0.1379   0.1489
  0.1750   0.1916   0.2085   0.2363   0.2423   0.2654   0.2856   0.3034
  0.3091   0.3317   0.3594   0.3889   0.4536   0.4590   0.4915   0.5491
  0.5621   0.5774   0.5923   0.5959   0.6151   0.6371   0.6565   0.6866
  0.6919   0.7512   0.8164   0.8311   0.8364   0.8670   0.9041   0.9355
  0.9936   1.0062   1.0592   1.0729   1.1169   1.1672   1.1862   1.2058
  1.2391   1.2455   1.2923   1.3199   1.3333   1.3428   1.3948   1.4269
  1.4356   1.4567   1.4804   1.4911   1.5205   1.5556   1.5812   1.6343
  1.7159   1.7583   1.8847   1.9244   2.0328   2.2654   2.2844   2.4583
  2.4907   2.5133   2.5995   2.6581   2.6819   2.7249   2.7588   2.8096
  2.8779   2.9276   2.9517   2.9603   3.0052   3.0205   3.0288   3.0701
  3.0921   3.1002   3.1213   3.2104   3.2275   3.2839   3.3016   3.3198
  3.3549   3.3686   3.4291   3.4363   3.4686   3.5096   3.5321   3.5598
  3.5688   3.5999   3.6413   3.6593   3.7098   3.7528   3.7734   3.8054
  3.8246   3.8559   3.8797   3.9245   3.9379   3.9793   4.0076   4.0440
  4.0929   4.1441   4.1577   4.2061   4.2444   4.2627   4.2760   4.3282
  4.3532   4.3919   4.4871   4.5174   4.5525   4.5802   4.6059   4.7477
  4.8066   4.8101   4.8890   4.9498   5.0012   5.0505   5.0605   5.0859
  5.1076   5.1885   5.2466   5.2979   5.3410   5.3601   5.3755   5.4320
  5.4930   5.5921   5.6482   5.8222   5.9053   6.2212   6.2430   6.2708
  6.3747   6.4718   6.6509   6.9240   7.0975   7.1508   7.3780   7.5796
  7.8532   8.1044  24.9519  25.3073  50.4356
 --------------------------------------------------------------
 
 -----------------------------------------------------------------
                    Cartesian Multipole Moments
 -----------------------------------------------------------------
    Charge (ESU x 10^10)
                -0.0000
    Dipole Moment (Debye)
         X       0.2926      Y       1.2219      Z      -1.3519
       Tot       1.8456
    Quadrupole Moments (Debye-Ang)
        XX     -21.3645     XY      -4.6657     YY     -19.9126
        XZ       3.3536     YZ       0.8977     ZZ     -20.9055
    Octopole Moments (Debye-Ang^2)
       XXX     276.0100    XXY       4.1883    XYY      91.3761
       YYY     -34.6558    XXZ      -9.1538    XYZ      -4.7219
       YYZ      -1.9287    XZZ      90.3606    YZZ     -10.0364
       ZZZ     -11.3920
    Hexadecapole Moments (Debye-Ang^3)
      XXXX   -2616.2822   XXXY     126.2889   XXYY    -468.4926
      XYYY     173.4074   YYYY    -109.8177   XXXZ      21.5284
      XXYZ      25.3018   XYYZ       2.7339   YYYZ       1.9978
      XXZZ    -426.2811   XYZZ      50.1074   YYZZ     -23.5682
      XZZZ      35.1024   YZZZ       0.4184   ZZZZ     -45.8095
 -----------------------------------------------------------------
Archival summary:
1\1\centos77-c1\SP\ProcedureUnspecified\BasisUnspecified\126\shihchen\WedJul2900:27:452020WedJul2900:27:452020\0\\#,ProcedureUnspecified,BasisUnspecified,\\0,1\C\H,1,1.07892\H,1,1.08089,2,115.018\C,1,1.39816,2,120.122,3,-153.93,0\H,4,1.08074,1,119.882,2,1.01012,0\H,4,1.08244,1,118.267,2,155.674,0\H,4,1.50433,1,65.2856,2,-107.346,0\O,7,1.31372,4,132.867,1,9.46873,0\H,8,0.962998,7,132.274,4,-109.293,0\\\@

 Total job time:  14.65s(wall), 77.21s(cpu) 
 Wed Jul 29 00:27:45 2020

        *************************************************************
        *                                                           *
        *  Thank you very much for using Q-Chem.  Have a nice day.  *
        *                                                           *
        *************************************************************


