                  Welcome to Q-Chem
     A Quantum Leap Into The Future Of Chemistry


 Q-Chem 5.3 (devel), Q-Chem, Inc., Pleasanton, CA (2020)

 Yihan Shao,  Zhengting Gan,  E. Epifanovsky,  A. T. B. Gilbert,  M. Wormit,  
 J. Kussmann,  A. W. Lange,  A. Behn,  Jia Deng,  Xintian Feng,  D. Ghosh,  
 M. Goldey,  P. R. Horn,  L. D. Jacobson,  I. Kaliman,  T. Kus,  A. Landau,  
 Jie Liu,  E. I. Proynov,  R. M. Richard,  R. P. Steele,  E. J. Sundstrom,  
 H. L. Woodcock III,  P. M. Zimmerman,  D. Zuev,  B. Alam,  B. Albrecht,  
 E. Alguire,  S. A. Baeppler,  D. Barton,  Z. Benda,  Y. A. Bernard,  
 E. J. Berquist,  K. B. Bravaya,  H. Burton,  K. Carter-Fenk,  D. Casanova,  
 Chun-Min Chang,  Yunqing Chen,  A. Chien,  K. D. Closser,  M. P. Coons,  
 S. Coriani,  S. Dasgupta,  A. L. Dempwolff,  M. Diedenhofen,  Hainam Do,  
 R. G. Edgar,  Po-Tung Fang,  S. Faraji,  S. Fatehi,  Qingguo Feng,  
 J. Fosso-Tande,  J. Gayvert,  Qinghui Ge,  A. Ghysels,  G. Gidofalvi,  
 J. Gomes,  J. Gonthier,  A. Gunina,  D. Hait,  M. W. D. Hanson-Heine,  
 P. H. P. Harbach,  A. W. Hauser,  M. F. Herbst,  J. E. Herr,  
 E. G. Hohenstein,  Z. C. Holden,  Kerwin Hui,  B. C. Huynh,  T.-C. Jagau,  
 Hyunjun Ji,  B. Kaduk,  K. Khistyaev,  Jaehoon Kim,  P. Klunzinger,  K. Koh,  
 D. Kosenkov,  L. Koulias,  T. Kowalczyk,  C. M. Krauter,  A. Kunitsa,  
 Ka Un Lao,  A. Laurent,  K. V. Lawler,  Joonho Lee,  D. Lefrancois,  
 S. Lehtola,  D. S. Levine,  Yi-Pei Li,  You-Sheng Lin,  Fenglai Liu,  
 Kuan-Yu Liu,  E. Livshits,  M. Loipersberger,  A. Luenser,  P. Manohar,  
 E. Mansoor,  S. F. Manzer,  Shan-Ping Mao,  Yuezhi Mao,  N. Mardirossian,  
 A. V. Marenich,  T. Markovich,  L. A. Martinez-Martinez,  S. A. Maurer,  
 N. J. Mayhall,  S. C. McKenzie,  J.-M. Mewes,  P. Morgante,  A. F. Morrison,  
 J. W. Mullinax,  K. Nanda,  T. S. Nguyen-Beck,  R. Olivares-Amaya,  
 K. J. Oosterbaan,  J. A. Parkhill,  S. K. Paul,  F. Pavosevic,  Zheng Pei,  
 T. M. Perrine,  F. Plasser,  P. Pokhilko,  S. Prager,  A. Prociuk,  
 E. Ramos,  B. Rana,  D. R. Rehn,  F. Rob,  M. Scheurer,  M. Schneider,  
 N. Sergueev,  S. M. Sharada,  S. Sharma,  D. W. Small,  T. Stauch,  
 C. J. Stein,  T. Stein,  Yu-Chuan Su,  S. P. Veccham,  Zhen Tao,  
 A. J. W. Thom,  A. Tkatchenko,  T. Tsuchimochi,  N. M. Tubman,  L. Vogt,  
 M. L. Vidal,  O. Vydrov,  M. A. Watson,  J. Wenzel,  M. de Wergifosse,  
 T. A. Wesolowski,  A. White,  J. Witte,  A. Yamada,  Jun Yang,  K. Yao,  
 S. Yeganeh,  S. R. Yost,  Zhi-Qiang You,  A. Zech,  Igor Ying Zhang,  
 Xing Zhang,  Yan Zhao,  Ying Zhu,  B. R. Brooks,  G. K. L. Chan,  
 C. J. Cramer,  M. S. Gordon,  W. J. Hehre,  A. Klamt,  M. W. Schmidt,  
 C. D. Sherrill,  D. G. Truhlar,  A. Aspuru-Guzik,  R. Baer,  A. T. Bell,  
 N. A. Besley,  Jeng-Da Chai,  A. E. DePrince, III,  R. A. DiStasio Jr.,  
 A. Dreuw,  B. D. Dunietz,  T. R. Furlani,  Chao-Ping Hsu,  Yousung Jung,  
 Jing Kong,  D. S. Lambrecht,  WanZhen Liang,  C. Ochsenfeld,  
 V. A. Rassolov,  L. V. Slipchenko,  J. E. Subotnik,  T. Van Voorhis,  
 J. M. Herbert,  A. I. Krylov,  P. M. W. Gill,  M. Head-Gordon

 Contributors to earlier versions of Q-Chem not listed above: 
 R. D. Adamson,  B. Austin,  J. Baker,  G. J. O. Beran,  K. Brandhorst,  
 S. T. Brown,  E. F. C. Byrd,  A. K. Chakraborty,  C.-L. Cheng,  
 Siu Hung Chien,  D. M. Chipman,  D. L. Crittenden,  H. Dachsel,  
 R. J. Doerksen,  A. D. Dutoi,  L. Fusti-Molnar,  W. A. Goddard III,  
 A. Golubeva-Zadorozhnaya,  S. R. Gwaltney,  G. Hawkins,  A. Heyden,  
 S. Hirata,  G. Kedziora,  F. J. Keil,  C. Kelley,  Jihan Kim,  R. A. King,  
 R. Z. Khaliullin,  P. P. Korambath,  W. Kurlancheek,  A. M. Lee,  M. S. Lee,  
 S. V. Levchenko,  Ching Yeh Lin,  D. Liotard,  R. C. Lochan,  I. Lotan,  
 P. E. Maslen,  N. Nair,  D. P. O'Neill,  D. Neuhauser,  E. Neuscamman,  
 C. M. Oana,  R. Olson,  B. Peters,  R. Peverati,  P. A. Pieniazek,  
 Y. M. Rhee,  J. Ritchie,  M. A. Rohrdanz,  E. Rosta,  N. J. Russ,  
 H. F. Schaefer III,  N. E. Schultz,  N. Shenvi,  A. C. Simmonett,  A. Sodt,  
 D. Stuck,  K. S. Thanthiriwatte,  V. Vanovschi,  Tao Wang,  A. Warshel,  
 C. F. Williams,  Q. Wu,  X. Xu,  W. Zhang

 Please cite Q-Chem as follows:
 Y. Shao et al., Mol. Phys. 113, 184-215 (2015)
 DOI: 10.1080/00268976.2014.952696

 Q-Chem 5.3.0 for Intel X86 EM64T Linux

 Parts of Q-Chem use Armadillo 9.800.1 (Horizon Scraper).
 http://arma.sourceforge.net/

 Q-Chem begins on Wed Jul 29 00:25:53 2020  

Host: centos77-c1
0

     Scratch files written to /tmp/30084.centos77-h1/qchem27988//
Processing $rem in /opt/qchem-5.3.0-intel2020u1//config/preferences:
Processing $rem in /home/shihchengli/.qchemrc:

Checking the input file for inconsistencies... 	...done.

--------------------------------------------------------------
User input:
--------------------------------------------------------------
$rem
   JOBTYPE  sp
   EXCHANGE   omegaB97X-D
   BASIS   6-311+G(2df,2pd)
   UNRESTRICTED   False
   max_scf_cycles   250
   geom_opt_max_cycles   1500
   basis2 6-31G*
   scf_algorithm rca_diis
   SYM_IGNORE  TRUE
   print_input   true
   geom_opt_dmax   80
   pop_mulliken false
   XC_GRID 000075000302
$end

$molecule
0 1
C       -5.5397300379     0.5330636688     -0.0889520149
C       -4.4127843590     1.3696837977     0.0655536382
H       -5.8911016562     0.3121866710     -1.0880915698
H       -6.2870013837     0.5365884749     0.6936076651
H       -4.4448596975     -0.2610278019     0.3291597823
O       -3.2353797552     0.0336141425     0.6130312773
H       -4.2754812477     1.9557488652     0.9630985483
H       -3.8586779434     1.7239707022     -0.7942544669
H       -2.7357163167     -0.3406912635     -0.1202626964
$end
--------------------------------------------------------------
 ----------------------------------------------------------------
             Standard Nuclear Orientation (Angstroms)
    I     Atom           X                Y                Z
 ----------------------------------------------------------------
    1      C      -5.5397300379     0.5330636688    -0.0889520149
    2      C      -4.4127843590     1.3696837977     0.0655536382
    3      H      -5.8911016562     0.3121866710    -1.0880915698
    4      H      -6.2870013837     0.5365884749     0.6936076651
    5      H      -4.4448596975    -0.2610278019     0.3291597823
    6      O      -3.2353797552     0.0336141425     0.6130312773
    7      H      -4.2754812477     1.9557488652     0.9630985483
    8      H      -3.8586779434     1.7239707022    -0.7942544669
    9      H      -2.7357163167    -0.3406912635    -0.1202626964
 ----------------------------------------------------------------
 Nuclear Repulsion Energy =          79.11301154 hartrees
 There are       13 alpha and       13 beta electrons
 Requested basis set is 6-311+G(2df,2pd)
 There are 60 shells and 186 basis functions

 Total QAlloc Memory Limit   2000 MB
 Mega-Array Size       188 MB
 MEM_STATIC part       192 MB

                       Distance Matrix (Angstroms)
             C (  1)   C (  2)   H (  3)   H (  4)   H (  5)   O (  6)
   C (  2)  1.412024
   H (  3)  1.081910  2.152817
   H (  4)  1.082047  2.145038  1.838898
   H (  5)  1.415676  1.652192  2.104470  2.040221
   O (  6)  2.460134  1.863088  3.166114  3.093844  1.276808
   H (  7)  2.174665  1.080699  3.085273  2.476460  2.311853  2.213359
   H (  8)  2.177532  1.082508  2.492031  3.085509  2.354971  2.286101
   H (  9)  2.937162  2.402596  3.364431  3.747483  1.769039  0.963062
             H (  7)   H (  8)
   H (  8)  1.820916
   H (  9)  2.969543  2.445023
 
 A cutoff of  1.0D-09 yielded   1776 shell pairs
 There are     17235 function pairs (     21411 Cartesian)
 Smallest overlap matrix eigenvalue = 9.10E-05

 Scale SEOQF with 1.000000e-02/1.000000e-01/1.000000e-01

 Standard Electronic Orientation quadrupole field applied
 Nucleus-field energy     =     0.0000000026 hartrees
 Requested basis set is 6-31G(d)
 There are 24 shells and 54 basis functions
 A cutoff of  1.0D-09 yielded    297 shell pairs
 There are      1548 function pairs (      1731 Cartesian)
 Smallest overlap matrix eigenvalue = 6.74E-03
 Guess from superposition of atomic densities
 Warning:  Energy on first SCF cycle will be non-variational
 SAD guess density has 26.000000 electrons
 Long-range K will be added via erf
 Coulomb attenuation parameter = 0.2 bohr**(-1)
 A restricted hybrid HF-DFT SCF calculation will be
 performed using Relaxed Constraint Minimization + Pulay DIIS
 Exchange:     0.2220 Hartree-Fock + 1.0000 wB97X-D + LR-HF
 Correlation:  1.0000 wB97X-D
 Using Euler-Maclaurin-Lebedev (75,302) quadrature formula
 Dispersion:   Grimme D
 SCF converges when DIIS error is below 1.0E-04
 using 6 threads for integral computing
 -------------------------------------------------------
 OpenMP Integral computing Module                
 Release: version 1.0, May 2013, Q-Chem Inc. Pittsburgh 
 -------------------------------------------------------
 using 6 threads for integral computing
 -------------------------------------------------------
 OpenMP Integral computing Module                
 Release: version 1.0, May 2013, Q-Chem Inc. Pittsburgh 
 -------------------------------------------------------
 ---------------------------------------
  Cycle       Energy         DIIS Error
 ---------------------------------------
    1    -155.2522939073      9.92E-02
    2    -154.7812055872      1.60E-02
    3    -154.8155518893      3.47E-03
    4    -154.8585251523      2.36E-03
    5    -154.8594761191      5.43E-04 Done RCA. Switching to DIIS
    6    -154.8605774212      4.31E-04
    7    -154.8606333520      4.33E-05 Convergence criterion met
 ---------------------------------------
 SCF time:  CPU 19.17 s  wall 3.22 s
 SCF   energy in the small basis set = -154.86063335
 Total energy in the small basis set = -154.86063335
 ----------------------------------------------------
  Cycle       Energy    
 ----------------------------------------------------
    1     -18.6685949537     -1.87E+01
 Long-range K will be added via erf
 Coulomb attenuation parameter = 0.2 bohr**(-1)
 A restricted hybrid HF-DFT SCF calculation will be
 performed using Relaxed Constraint Minimization + Pulay DIIS
 Exchange:     0.2220 Hartree-Fock + 1.0000 wB97X-D + LR-HF
 Correlation:  1.0000 wB97X-D
 Using Euler-Maclaurin-Lebedev (75,302) quadrature formula
 Dispersion:   Grimme D
 SCF converges when DIIS error is below 1.0E-05
 Basis2 calculation detected. Using small basis as guess for larger.
 SCFMinFind is unable to tell whether the solution found is close.
 Resetting ReadMinima to 0 and attempting to follow guess.
 SCFMinFind following SCF Guess.
 using 6 threads for integral computing
 -------------------------------------------------------
 OpenMP Integral computing Module                
 Release: version 1.0, May 2013, Q-Chem Inc. Pittsburgh 
 -------------------------------------------------------
 using 6 threads for integral computing
 -------------------------------------------------------
 OpenMP Integral computing Module                
 Release: version 1.0, May 2013, Q-Chem Inc. Pittsburgh 
 -------------------------------------------------------
 ---------------------------------------
  Cycle       Energy         DIIS Error
 ---------------------------------------
    1    -154.8846445993      6.01E-03
    2    -154.8774897592      4.58E-03
    3    -154.9001171477      1.09E-03
    4    -154.9314594365      1.18E-03
    5    -154.9333080810      1.64E-04 Done RCA. Switching to DIIS
    6    -154.9358140342      1.93E-04
    7    -154.9359242606      9.57E-06 Convergence criterion met
 ---------------------------------------
 SCF time:  CPU 65.78 s  wall 11.00 s
 SCF   energy in the final basis set = -154.93592426
 Total energy in the final basis set = -154.93592426
 
 --------------------------------------------------------------
 
                    Orbital Energies (a.u.)
 --------------------------------------------------------------
 
 Alpha MOs
 -- Occupied --
-19.2385 -10.3574 -10.2598  -1.0846  -0.8781  -0.7001  -0.6005  -0.5684
 -0.5145  -0.4635  -0.4450  -0.4183  -0.3066
 -- Virtual --
  0.0512   0.0688   0.0887   0.0961   0.1115   0.1273   0.1376   0.1510
  0.1755   0.1894   0.2142   0.2427   0.2484   0.2760   0.2885   0.2983
  0.3244   0.3268   0.3582   0.3980   0.4554   0.4598   0.4914   0.5502
  0.5561   0.5734   0.5849   0.5977   0.6141   0.6397   0.6483   0.6826
  0.7014   0.7495   0.7679   0.8127   0.8405   0.8872   0.9245   0.9349
  0.9873   1.0070   1.0555   1.0915   1.1273   1.1423   1.1796   1.1929
  1.2349   1.2489   1.2762   1.2914   1.3180   1.3396   1.4008   1.4237
  1.4310   1.4462   1.4758   1.4886   1.5448   1.5732   1.5940   1.6616
  1.7144   1.7656   1.9120   2.0182   2.0547   2.2713   2.2994   2.4394
  2.4920   2.5443   2.6382   2.6571   2.6810   2.7552   2.7834   2.7986
  2.8485   2.8714   2.9453   2.9683   2.9932   3.0293   3.0659   3.0759
  3.1007   3.1238   3.1622   3.2074   3.2382   3.2649   3.3064   3.3444
  3.3512   3.3977   3.4174   3.4491   3.4594   3.5160   3.5398   3.5490
  3.5652   3.6099   3.6185   3.6646   3.7026   3.7366   3.7787   3.8105
  3.8299   3.8577   3.8789   3.8934   3.9171   3.9275   4.0276   4.0495
  4.1081   4.1375   4.1810   4.1961   4.2102   4.2408   4.2464   4.3003
  4.3331   4.3890   4.4380   4.4854   4.5090   4.5736   4.6117   4.6983
  4.7289   4.8067   4.8753   4.9617   4.9813   5.0155   5.0619   5.1014
  5.1153   5.2157   5.2272   5.2917   5.3595   5.4057   5.4879   5.5100
  5.5926   5.6257   5.7708   5.8232   5.9960   6.2030   6.2394   6.2738
  6.4642   6.6148   6.6377   6.8105   7.1630   7.2761   7.4315   7.5696
  7.7499   8.1810  24.9620  25.3043  50.4560
 --------------------------------------------------------------
 
 -----------------------------------------------------------------
                    Cartesian Multipole Moments
 -----------------------------------------------------------------
    Charge (ESU x 10^10)
                -0.0000
    Dipole Moment (Debye)
         X       0.0216      Y       0.8603      Z      -1.5364
       Tot       1.7610
    Quadrupole Moments (Debye-Ang)
        XX     -21.6795     XY      -3.6879     YY     -18.8430
        XZ       3.3679     YZ       0.9092     ZZ     -20.7031
    Octopole Moments (Debye-Ang^2)
       XXX     288.3221    XXY      -0.2497    XYY      86.8787
       YYY     -34.9550    XXZ      -7.4021    XYZ      -4.6828
       YYZ      -2.1414    XZZ      89.1100    YZZ     -10.6977
       ZZZ     -11.8473
    Hexadecapole Moments (Debye-Ang^3)
      XXXX   -2710.2287   XXXY     154.3461   XXYY    -448.1232
      XYYY     169.6689   YYYY    -114.1363   XXXZ       9.6451
      XXYZ      24.0806   XYYZ       3.0502   YYYZ       1.4453
      XXZZ    -417.5384   XYZZ      51.5542   YYZZ     -24.9696
      XZZZ      35.6922   YZZZ      -0.1379   ZZZZ     -48.5897
 -----------------------------------------------------------------
Archival summary:
1\1\centos77-c1\SP\ProcedureUnspecified\BasisUnspecified\126\shihchen\WedJul2900:26:112020WedJul2900:26:112020\0\\#,ProcedureUnspecified,BasisUnspecified,\\0,1\C\H,1,1.0807\H,1,1.08251,2,114.654\C,1,1.41202,2,120.903,3,-159.362,0\H,4,1.08191,1,118.765,2,153.276,0\H,4,1.08205,1,118.042,2,3.20886,0\H,4,1.41568,1,71.5053,2,-98.734,0\O,7,1.27681,4,131.977,1,1.00556,0\H,8,0.963062,7,103.444,4,-109.293,0\\\@

 Total job time:  17.20s(wall), 90.01s(cpu) 
 Wed Jul 29 00:26:11 2020

        *************************************************************
        *                                                           *
        *  Thank you very much for using Q-Chem.  Have a nice day.  *
        *                                                           *
        *************************************************************


