                  Welcome to Q-Chem
     A Quantum Leap Into The Future Of Chemistry


 Q-Chem 5.3 (devel), Q-Chem, Inc., Pleasanton, CA (2020)

 Yihan Shao,  Zhengting Gan,  E. Epifanovsky,  A. T. B. Gilbert,  M. Wormit,  
 J. Kussmann,  A. W. Lange,  A. Behn,  Jia Deng,  Xintian Feng,  D. Ghosh,  
 M. Goldey,  P. R. Horn,  L. D. Jacobson,  I. Kaliman,  T. Kus,  A. Landau,  
 Jie Liu,  E. I. Proynov,  R. M. Richard,  R. P. Steele,  E. J. Sundstrom,  
 H. L. Woodcock III,  P. M. Zimmerman,  D. Zuev,  B. Alam,  B. Albrecht,  
 E. Alguire,  S. A. Baeppler,  D. Barton,  Z. Benda,  Y. A. Bernard,  
 E. J. Berquist,  K. B. Bravaya,  H. Burton,  K. Carter-Fenk,  D. Casanova,  
 Chun-Min Chang,  Yunqing Chen,  A. Chien,  K. D. Closser,  M. P. Coons,  
 S. Coriani,  S. Dasgupta,  A. L. Dempwolff,  M. Diedenhofen,  Hainam Do,  
 R. G. Edgar,  Po-Tung Fang,  S. Faraji,  S. Fatehi,  Qingguo Feng,  
 J. Fosso-Tande,  J. Gayvert,  Qinghui Ge,  A. Ghysels,  G. Gidofalvi,  
 J. Gomes,  J. Gonthier,  A. Gunina,  D. Hait,  M. W. D. Hanson-Heine,  
 P. H. P. Harbach,  A. W. Hauser,  M. F. Herbst,  J. E. Herr,  
 E. G. Hohenstein,  Z. C. Holden,  Kerwin Hui,  B. C. Huynh,  T.-C. Jagau,  
 Hyunjun Ji,  B. Kaduk,  K. Khistyaev,  Jaehoon Kim,  P. Klunzinger,  K. Koh,  
 D. Kosenkov,  L. Koulias,  T. Kowalczyk,  C. M. Krauter,  A. Kunitsa,  
 Ka Un Lao,  A. Laurent,  K. V. Lawler,  Joonho Lee,  D. Lefrancois,  
 S. Lehtola,  D. S. Levine,  Yi-Pei Li,  You-Sheng Lin,  Fenglai Liu,  
 Kuan-Yu Liu,  E. Livshits,  M. Loipersberger,  A. Luenser,  P. Manohar,  
 E. Mansoor,  S. F. Manzer,  Shan-Ping Mao,  Yuezhi Mao,  N. Mardirossian,  
 A. V. Marenich,  T. Markovich,  L. A. Martinez-Martinez,  S. A. Maurer,  
 N. J. Mayhall,  S. C. McKenzie,  J.-M. Mewes,  P. Morgante,  A. F. Morrison,  
 J. W. Mullinax,  K. Nanda,  T. S. Nguyen-Beck,  R. Olivares-Amaya,  
 K. J. Oosterbaan,  J. A. Parkhill,  S. K. Paul,  F. Pavosevic,  Zheng Pei,  
 T. M. Perrine,  F. Plasser,  P. Pokhilko,  S. Prager,  A. Prociuk,  
 E. Ramos,  B. Rana,  D. R. Rehn,  F. Rob,  M. Scheurer,  M. Schneider,  
 N. Sergueev,  S. M. Sharada,  S. Sharma,  D. W. Small,  T. Stauch,  
 C. J. Stein,  T. Stein,  Yu-Chuan Su,  S. P. Veccham,  Zhen Tao,  
 A. J. W. Thom,  A. Tkatchenko,  T. Tsuchimochi,  N. M. Tubman,  L. Vogt,  
 M. L. Vidal,  O. Vydrov,  M. A. Watson,  J. Wenzel,  M. de Wergifosse,  
 T. A. Wesolowski,  A. White,  J. Witte,  A. Yamada,  Jun Yang,  K. Yao,  
 S. Yeganeh,  S. R. Yost,  Zhi-Qiang You,  A. Zech,  Igor Ying Zhang,  
 Xing Zhang,  Yan Zhao,  Ying Zhu,  B. R. Brooks,  G. K. L. Chan,  
 C. J. Cramer,  M. S. Gordon,  W. J. Hehre,  A. Klamt,  M. W. Schmidt,  
 C. D. Sherrill,  D. G. Truhlar,  A. Aspuru-Guzik,  R. Baer,  A. T. Bell,  
 N. A. Besley,  Jeng-Da Chai,  A. E. DePrince, III,  R. A. DiStasio Jr.,  
 A. Dreuw,  B. D. Dunietz,  T. R. Furlani,  Chao-Ping Hsu,  Yousung Jung,  
 Jing Kong,  D. S. Lambrecht,  WanZhen Liang,  C. Ochsenfeld,  
 V. A. Rassolov,  L. V. Slipchenko,  J. E. Subotnik,  T. Van Voorhis,  
 J. M. Herbert,  A. I. Krylov,  P. M. W. Gill,  M. Head-Gordon

 Contributors to earlier versions of Q-Chem not listed above: 
 R. D. Adamson,  B. Austin,  J. Baker,  G. J. O. Beran,  K. Brandhorst,  
 S. T. Brown,  E. F. C. Byrd,  A. K. Chakraborty,  C.-L. Cheng,  
 Siu Hung Chien,  D. M. Chipman,  D. L. Crittenden,  H. Dachsel,  
 R. J. Doerksen,  A. D. Dutoi,  L. Fusti-Molnar,  W. A. Goddard III,  
 A. Golubeva-Zadorozhnaya,  S. R. Gwaltney,  G. Hawkins,  A. Heyden,  
 S. Hirata,  G. Kedziora,  F. J. Keil,  C. Kelley,  Jihan Kim,  R. A. King,  
 R. Z. Khaliullin,  P. P. Korambath,  W. Kurlancheek,  A. M. Lee,  M. S. Lee,  
 S. V. Levchenko,  Ching Yeh Lin,  D. Liotard,  R. C. Lochan,  I. Lotan,  
 P. E. Maslen,  N. Nair,  D. P. O'Neill,  D. Neuhauser,  E. Neuscamman,  
 C. M. Oana,  R. Olson,  B. Peters,  R. Peverati,  P. A. Pieniazek,  
 Y. M. Rhee,  J. Ritchie,  M. A. Rohrdanz,  E. Rosta,  N. J. Russ,  
 H. F. Schaefer III,  N. E. Schultz,  N. Shenvi,  A. C. Simmonett,  A. Sodt,  
 D. Stuck,  K. S. Thanthiriwatte,  V. Vanovschi,  Tao Wang,  A. Warshel,  
 C. F. Williams,  Q. Wu,  X. Xu,  W. Zhang

 Please cite Q-Chem as follows:
 Y. Shao et al., Mol. Phys. 113, 184-215 (2015)
 DOI: 10.1080/00268976.2014.952696

 Q-Chem 5.3.0 for Intel X86 EM64T Linux

 Parts of Q-Chem use Armadillo 9.800.1 (Horizon Scraper).
 http://arma.sourceforge.net/

 Q-Chem begins on Wed Jul 29 00:27:45 2020  

Host: centos77-c1
0

     Scratch files written to /tmp/30084.centos77-h1/qchem28290//
Processing $rem in /opt/qchem-5.3.0-intel2020u1//config/preferences:
Processing $rem in /home/shihchengli/.qchemrc:

Checking the input file for inconsistencies... 	...done.

--------------------------------------------------------------
User input:
--------------------------------------------------------------
$rem
   JOBTYPE  sp
   EXCHANGE   omegaB97X-D
   BASIS   6-311+G(2df,2pd)
   UNRESTRICTED   False
   max_scf_cycles   250
   geom_opt_max_cycles   1500
   basis2 6-31G*
   scf_algorithm rca_diis
   SYM_IGNORE  TRUE
   print_input   true
   geom_opt_dmax   80
   pop_mulliken false
   XC_GRID 000075000302
$end

$molecule
0 1
C       -5.5081067655     0.5216692611     -0.0743580453
C       -4.4060376131     1.3995064037     0.0637080451
H       -5.8604201519     0.2992094951     -1.0732914750
H       -6.2608795653     0.5296420287     0.7030049951
H       -4.4625457320     -0.3107961249     0.3144832126
O       -3.3120241482     -0.0083493547     0.5965116497
H       -4.2719781943     1.9982147771     0.9544342830
H       -3.8634655828     1.7575887746     -0.8031148604
H       -2.7352746441     -0.3235480035     -0.1084876414
$end
--------------------------------------------------------------
 ----------------------------------------------------------------
             Standard Nuclear Orientation (Angstroms)
    I     Atom           X                Y                Z
 ----------------------------------------------------------------
    1      C      -5.5081067655     0.5216692611    -0.0743580453
    2      C      -4.4060376131     1.3995064037     0.0637080451
    3      H      -5.8604201519     0.2992094951    -1.0732914750
    4      H      -6.2608795653     0.5296420287     0.7030049951
    5      H      -4.4625457320    -0.3107961249     0.3144832126
    6      O      -3.3120241482    -0.0083493547     0.5965116497
    7      H      -4.2719781943     1.9982147771     0.9544342830
    8      H      -3.8634655828     1.7575887746    -0.8031148604
    9      H      -2.7352746441    -0.3235480035    -0.1084876414
 ----------------------------------------------------------------
 Nuclear Repulsion Energy =          79.66077518 hartrees
 There are       13 alpha and       13 beta electrons
 Requested basis set is 6-311+G(2df,2pd)
 There are 60 shells and 186 basis functions

 Total QAlloc Memory Limit   2000 MB
 Mega-Array Size       188 MB
 MEM_STATIC part       192 MB

                       Distance Matrix (Angstroms)
             C (  1)   C (  2)   H (  3)   H (  4)   H (  5)   O (  6)
   C (  2)  1.415704
   H (  3)  1.082350  2.149104
   H (  4)  1.082139  2.146114  1.835401
   H (  5)  1.391903  1.729513  2.062057  2.022694
   O (  6)  2.356643  1.860861  3.062214  2.999421  1.222585
   H (  7)  2.183258  1.081581  3.085683  2.485086  2.403619  2.252980
   H (  8)  2.182528  1.083508  2.487507  3.086073  2.426137  2.319823
   H (  9)  2.898992  2.406245  3.329446  3.717034  1.778351  0.963854
             H (  7)   H (  8)
   H (  8)  1.820374
   H (  9)  2.980242  2.467074
 
 A cutoff of  1.0D-09 yielded   1782 shell pairs
 There are     17296 function pairs (     21491 Cartesian)
 Smallest overlap matrix eigenvalue = 8.83E-05

 Scale SEOQF with 1.000000e-02/1.000000e-01/1.000000e-01

 Standard Electronic Orientation quadrupole field applied
 Nucleus-field energy     =     0.0000000027 hartrees
 Requested basis set is 6-31G(d)
 There are 24 shells and 54 basis functions
 A cutoff of  1.0D-09 yielded    298 shell pairs
 There are      1549 function pairs (      1732 Cartesian)
 Smallest overlap matrix eigenvalue = 6.74E-03
 Guess from superposition of atomic densities
 Warning:  Energy on first SCF cycle will be non-variational
 SAD guess density has 26.000000 electrons
 Long-range K will be added via erf
 Coulomb attenuation parameter = 0.2 bohr**(-1)
 A restricted hybrid HF-DFT SCF calculation will be
 performed using Relaxed Constraint Minimization + Pulay DIIS
 Exchange:     0.2220 Hartree-Fock + 1.0000 wB97X-D + LR-HF
 Correlation:  1.0000 wB97X-D
 Using Euler-Maclaurin-Lebedev (75,302) quadrature formula
 Dispersion:   Grimme D
 SCF converges when DIIS error is below 1.0E-04
 using 6 threads for integral computing
 -------------------------------------------------------
 OpenMP Integral computing Module                
 Release: version 1.0, May 2013, Q-Chem Inc. Pittsburgh 
 -------------------------------------------------------
 using 6 threads for integral computing
 -------------------------------------------------------
 OpenMP Integral computing Module                
 Release: version 1.0, May 2013, Q-Chem Inc. Pittsburgh 
 -------------------------------------------------------
 ---------------------------------------
  Cycle       Energy         DIIS Error
 ---------------------------------------
    1    -155.2699832856      9.96E-02
    2    -154.7841859039      1.57E-02
    3    -154.8185967404      3.26E-03
    4    -154.8591936140      2.41E-03
    5    -154.8601021935      4.93E-04 Done RCA. Switching to DIIS
    6    -154.8612319064      3.06E-04
    7    -154.8612655699      3.86E-05 Convergence criterion met
 ---------------------------------------
 SCF time:  CPU 16.27 s  wall 2.73 s
 SCF   energy in the small basis set = -154.86126557
 Total energy in the small basis set = -154.86126557
 ----------------------------------------------------
  Cycle       Energy    
 ----------------------------------------------------
    1     -18.6786501221     -1.87E+01
 Long-range K will be added via erf
 Coulomb attenuation parameter = 0.2 bohr**(-1)
 A restricted hybrid HF-DFT SCF calculation will be
 performed using Relaxed Constraint Minimization + Pulay DIIS
 Exchange:     0.2220 Hartree-Fock + 1.0000 wB97X-D + LR-HF
 Correlation:  1.0000 wB97X-D
 Using Euler-Maclaurin-Lebedev (75,302) quadrature formula
 Dispersion:   Grimme D
 SCF converges when DIIS error is below 1.0E-05
 Basis2 calculation detected. Using small basis as guess for larger.
 SCFMinFind is unable to tell whether the solution found is close.
 Resetting ReadMinima to 0 and attempting to follow guess.
 SCFMinFind following SCF Guess.
 using 6 threads for integral computing
 -------------------------------------------------------
 OpenMP Integral computing Module                
 Release: version 1.0, May 2013, Q-Chem Inc. Pittsburgh 
 -------------------------------------------------------
 using 6 threads for integral computing
 -------------------------------------------------------
 OpenMP Integral computing Module                
 Release: version 1.0, May 2013, Q-Chem Inc. Pittsburgh 
 -------------------------------------------------------
 ---------------------------------------
  Cycle       Energy         DIIS Error
 ---------------------------------------
    1    -154.8865537680      5.97E-03
    2    -154.8841913970      4.32E-03
    3    -154.9046950012      9.64E-04 Done RCA. Switching to DIIS
    4    -154.9328665815      1.04E-03
    5    -154.9360206449      7.43E-05
    6    -154.9360497118      1.56E-05
    7    -154.9360519746      5.62E-06 Convergence criterion met
 ---------------------------------------
 SCF time:  CPU 50.80 s  wall 8.50 s
 SCF   energy in the final basis set = -154.93605197
 Total energy in the final basis set = -154.93605197
 
 --------------------------------------------------------------
 
                    Orbital Energies (a.u.)
 --------------------------------------------------------------
 
 Alpha MOs
 -- Occupied --
-19.2436 -10.3548 -10.2508  -1.0927  -0.8717  -0.6992  -0.6081  -0.5671
 -0.5055  -0.4610  -0.4440  -0.4314  -0.3004
 -- Virtual --
  0.0487   0.0681   0.0891   0.0964   0.1130   0.1282   0.1380   0.1488
  0.1776   0.1887   0.2173   0.2395   0.2529   0.2804   0.2871   0.2949
  0.3286   0.3339   0.3559   0.3990   0.4620   0.4654   0.4918   0.5526
  0.5600   0.5713   0.5855   0.6039   0.6269   0.6382   0.6450   0.6816
  0.7056   0.7489   0.7879   0.8235   0.8434   0.8827   0.9231   0.9308
  0.9898   1.0123   1.0723   1.0998   1.1232   1.1466   1.1667   1.1925
  1.2325   1.2511   1.2715   1.2840   1.3248   1.3463   1.4134   1.4279
  1.4480   1.4502   1.4786   1.4943   1.5328   1.5855   1.5953   1.6585
  1.7144   1.7928   1.9195   2.0302   2.0661   2.2625   2.3142   2.4300
  2.4740   2.5644   2.6472   2.6717   2.6871   2.7660   2.7839   2.8045
  2.8491   2.8715   2.9511   2.9709   3.0060   3.0410   3.0788   3.0833
  3.1070   3.1432   3.1875   3.2249   3.2581   3.2741   3.3223   3.3456
  3.3637   3.4085   3.4109   3.4370   3.4686   3.4976   3.5337   3.5564
  3.5686   3.6155   3.6299   3.6650   3.7040   3.7254   3.7384   3.8191
  3.8357   3.8686   3.9046   3.9137   3.9314   3.9379   4.0482   4.0741
  4.1116   4.1198   4.1698   4.1994   4.2237   4.2577   4.2730   4.3069
  4.3242   4.3512   4.4365   4.4611   4.5011   4.5859   4.6449   4.6971
  4.7247   4.8026   4.8246   4.9650   4.9748   5.0026   5.0710   5.1128
  5.1273   5.2110   5.2380   5.2852   5.3680   5.3959   5.4902   5.5057
  5.6166   5.6251   5.7916   5.8933   6.0922   6.1824   6.2582   6.2846
  6.4657   6.6303   6.7000   6.9546   7.1703   7.2701   7.4345   7.6159
  7.7772   8.1843  24.9631  25.3153  50.4524
 --------------------------------------------------------------
 
 -----------------------------------------------------------------
                    Cartesian Multipole Moments
 -----------------------------------------------------------------
    Charge (ESU x 10^10)
                 0.0000
    Dipole Moment (Debye)
         X       0.4315      Y       0.8995      Z      -1.4486
       Tot       1.7589
    Quadrupole Moments (Debye-Ang)
        XX     -24.9049     XY      -3.5448     YY     -18.7351
        XZ       3.1749     YZ       0.9193     ZZ     -20.7566
    Octopole Moments (Debye-Ang^2)
       XXX     309.8391    XXY      -2.0888    XYY      86.7496
       YYY     -34.4045    XXZ      -6.7814    XYZ      -4.6921
       YYZ      -2.0768    XZZ      89.8900    YZZ     -10.6283
       ZZZ     -11.6640
    Hexadecapole Moments (Debye-Ang^3)
      XXXX   -2844.1696   XXXY     168.2785   XXYY    -448.5135
      XYYY     167.5588   YYYY    -117.1233   XXXZ       7.5066
      XXYZ      24.2808   XYYZ       3.2935   YYYZ       1.8166
      XXZZ    -421.7683   XYZZ      51.4646   YYZZ     -25.4051
      XZZZ      36.3744   YZZZ       0.1836   ZZZZ     -48.0657
 -----------------------------------------------------------------
Archival summary:
1\1\centos77-c1\SP\ProcedureUnspecified\BasisUnspecified\126\shihchen\WedJul2900:27:592020WedJul2900:27:592020\0\\#,ProcedureUnspecified,BasisUnspecified,\\0,1\C\H,1,1.08158\H,1,1.08351,2,114.446\C,1,1.4157,2,121.335,3,-160.274,0\H,4,1.08214,1,117.833,2,5.16271,0\H,4,1.08235,1,118.089,2,152.654,0\H,4,1.3919,1,76.0454,2,-99.2542,0\O,7,1.22258,4,128.564,1,2.46388,0\H,8,0.963854,7,108.269,4,-109.293,0\\\@

 Total job time:  13.71s(wall), 71.32s(cpu) 
 Wed Jul 29 00:27:59 2020

        *************************************************************
        *                                                           *
        *  Thank you very much for using Q-Chem.  Have a nice day.  *
        *                                                           *
        *************************************************************


