9
# Point -3 Energy = 0.011212669999991931
C       -5.5271561040     0.5342188191     -0.0713992923
C       -4.3860401023     1.3498795010     0.1121751707
H       -5.9421210053     0.3406750985     -1.0518794097
H       -6.2288352935     0.5498681600     0.7521042368
H       -4.4461438829     -0.3225809703     0.2271377998
O       -3.2732771481     -0.0547321374     0.5837754868
H       -4.4688968043     2.1245277327     0.8674200596
H       -3.7103457161     1.6111454092     -0.6864052058
H       -2.6979163407     -0.2698643556     -0.1600386825
9
# Point -2 Energy = 0.004981149999991885
C       -5.5335768223     0.5357046416     -0.0724047252
C       -4.3937916631     1.3548958883     0.0944826706
H       -5.9281792256     0.3306801264     -1.0590296210
H       -6.2519402119     0.5572805413     0.7363481871
H       -4.4529200461     -0.3183295636     0.2482359227
O       -3.2794926335     -0.0413612835     0.5844171439
H       -4.4018088404     2.0733360991     0.9057337716
H       -3.7606061926     1.6428975016     -0.7313617049
H       -2.6784167617     -0.2719666940     -0.1335314815
9
# Point -1 Energy = 0.0012342199999864079
C       -5.5398952055     0.5376195695     -0.0728547014
C       -4.4019713264     1.3604572672     0.0787828625
H       -5.9134926270     0.3222083136     -1.0655159008
H       -6.2749358323     0.5630345541     0.7205545383
H       -4.4598408491     -0.3137429060     0.2690099602
O       -3.2860518213     -0.0293109461     0.5854116721
H       -4.3314704384     2.0188454786     0.9348882034
H       -3.8132937438     1.6763791260     -0.7714399701
H       -2.6597805536     -0.2723531997     -0.1059465009
9
# Point 0 Energy = 0
C       -5.5459913399     0.5399390194     -0.0727273173
C       -4.4103806313     1.3664969448     0.0651493997
H       -5.8979436617     0.3154152234     -1.0713515943
H       -6.2976793455     0.5671285746     0.7047627870
H       -4.4668802586     -0.3090502593     0.2894372849
O       -3.2928934464     -0.0188279386     0.5868749696
H       -4.2587769013     1.9618937208     0.9544735056
H       -3.8681805958     1.7114826198     -0.8063863959
H       -2.6420062168     -0.2713406478     -0.0773424760
9
# Point 1 Energy = 0.0012495700000272336
C       -5.5520067532     0.5426348606     -0.0720927430
C       -4.4186490919     1.3723279128     0.0537048694
H       -5.8816893398     0.3103997297     -1.0766257625
H       -6.3202274294     0.5698705664     0.6889567548
H       -4.4740187795     -0.3041098429     0.3095204637
O       -3.3000215667     -0.0094021134     0.5887906892
H       -4.1843546026     1.9026338034     0.9643532902
H       -3.9246300006     1.7472636992     -0.8358385870
H       -2.6251348336     -0.2684813587     -0.0478788116
9
# Point 2 Energy = 0.004984699999994291
C       -5.5575667329     0.5456671824     -0.0708834459
C       -4.4267520376     1.3784914920     0.0443333836
H       -5.8643946393     0.3071698225     -1.0812618615
H       -6.3422085886     0.5711003953     0.6731781025
H       -4.4812150049     -0.2994830780     0.3292473709
O       -3.3072870811     -0.0019555102     0.5913067170
H       -4.1094573442     1.8426968355     0.9642575581
H       -3.9827184303     1.7843917234     -0.8597417403
H       -2.6091325384     -0.2649416059     -0.0175459213
9
# Point 3 Energy = 0.01111380999998346
C       -5.5625635153     0.5489978704     -0.0691175954
C       -4.4345027338     1.3849022645     0.0369776298
H       -5.8459801343     0.3057474370     -1.0852729498
H       -6.3634719850     0.5709012278     0.6574079058
H       -4.4884379196     -0.2953640746     0.3486071289
O       -3.3146199988     0.0033363068     0.5944617025
H       -4.0349648991     1.7830665166     0.9541939511
H       -4.0421880114     1.8226414329     -0.8779564827
H       -2.5940032001     -0.2610917242     0.0135888732

    This sampling was finished on:   2020-07-28 16:52:12
=------------------------------------------------------------------------------=
Sampling finished.
=------------------------------------------------------------------------------=