9
# Point -3 Energy = 0.013877489999998716
C       -5.5850486056     0.7124123983     -0.1077065368
C       -4.3970424249     1.4098121938     0.0684213364
H       -5.7694239464     0.1502101111     -1.0069721145
H       -6.1809602685     0.3935133083     0.7288313441
H       -4.5930909827     -0.1699874929     0.2345834953
O       -3.3730747685     -0.0227350584     0.5669457079
H       -4.2248135742     1.9785310436     0.9695102171
H       -3.8278446515     1.7282867403     -0.7939408070
H       -2.7294331752     -0.3169059869     -0.0867824792
9
# Point -2 Energy = 0.006544450000006918
C       -5.5717569581     0.6596369244     -0.0964292141
C       -4.3975819513     1.3971874886     0.0678575725
H       -5.8185614667     0.1975789313     -1.0390791631
H       -6.2299014313     0.4459002989     0.7295917111
H       -4.5520279762     -0.2140349480     0.2523416116
O       -3.3453070886     -0.0198787975     0.5737927998
H       -4.2305543585     1.9739589083     0.9654128639
H       -3.8360072706     1.7234379389     -0.7972654795
H       -2.6990338960     -0.3006494877     -0.0833325390
9
# Point -1 Energy = 0.0017684499999859327
C       -5.5589399651     0.6018207588     -0.0847805422
C       -4.4016859857     1.3818486894     0.0668838242
H       -5.8624637640     0.2529833110     -1.0612267720
H       -6.2700252942     0.5043763544     0.7217951289
H       -4.5096612838     -0.2601361299     0.2707289284
O       -3.3183328020     -0.0175860837     0.5803963996
H       -4.2412503115     1.9674197534     0.9605506217
H       -3.8488290156     1.7166842875     -0.8012411721
H       -2.6695439755     -0.2842736839     -0.0802162531
9
# Point 0 Energy = 0
C       -5.5459913399     0.5399390194     -0.0727273173
C       -4.4103806313     1.3664969448     0.0651493997
H       -5.8979436617     0.3154152234     -1.0713515943
H       -6.2976793455     0.5671285746     0.7047627870
H       -4.4668802586     -0.3090502593     0.2894372849
O       -3.2928934464     -0.0188279386     0.5868749696
H       -4.2587769013     1.9618937208     0.9544735056
H       -3.8681805958     1.7114826198     -0.8063863959
H       -2.6420062168     -0.2713406478     -0.0773424760
9
# Point 1 Energy = 0.0021491899999830366
C       -5.5319190109     0.4761179655     -0.0603525884
C       -4.4239595806     1.3538599935     0.0623849794
H       -5.9244703839     0.3829050033     -1.0668438680
H       -6.3113762688     0.6309770433     0.6767375525
H       -4.4243017185     -0.3608262733     0.3080928256
O       -3.2690917856     -0.0259774182     0.5934603013
H       -4.2839169347     1.9600588963     0.9469158173
H       -3.8949446307     1.7109242434     -0.8130483080
H       -2.6167520836     -0.2649021966     -0.0744565485
9
# Point 2 Energy = 0.009306339999994862
C       -5.5162164591     0.4141071742     -0.0481768884
C       -4.4413147474     1.3455572170     0.0586854623
H       -5.9444061847     0.4516738058     -1.0458432410
H       -6.3126163706     0.6916290438     0.6360353353
H       -4.3827514747     -0.4137469295     0.3261334233
O       -3.2469914445     -0.0391354049     0.6001384976
H       -4.3150393879     1.9628170564     0.9382505145
H       -3.9274405204     1.7160140148     -0.8208571763
H       -2.5939558081     -0.2657787205     -0.0714757641
9
# Point 3 Energy = 0.021809619999999086
C       -5.4995674531     0.3583229865     -0.0370086906
C       -4.4594482179     1.3410020654     0.0546523615
H       -5.9629844840     0.5168383658     -1.0088662329
H       -6.3066308829     0.7446080481     0.5822163945
H       -4.3433117229     -0.4642071411     0.3429818914
O       -3.2270742799     -0.0550860630     0.6065390244
H       -4.3470896400     1.9682888793     0.9296284662
H       -3.9606050546     1.7245056609     -0.8286065807
H       -2.5740206618     -0.2711355448     -0.0686464705

    This sampling was finished on:   2020-07-28 16:52:12
=------------------------------------------------------------------------------=
Sampling finished.
=------------------------------------------------------------------------------=