9
# Point 0 Energy = 0
C       -5.5459913399     0.5399390194     -0.0727273173
C       -4.4103806313     1.3664969448     0.0651493997
H       -5.8979436617     0.3154152234     -1.0713515943
H       -6.2976793455     0.5671285746     0.7047627870
H       -4.4668802586     -0.3090502593     0.2894372849
O       -3.2928934464     -0.0188279386     0.5868749696
H       -4.2587769013     1.9618937208     0.9544735056
H       -3.8681805958     1.7114826198     -0.8063863959
H       -2.6420062168     -0.2713406478     -0.0773424760
9
# Point 1 Energy = 0.0030809600000338833
C       -5.5440799003     0.5386182650     -0.0838109910
C       -4.4062804193     1.3649872216     0.0359653143
H       -5.8893551808     0.2831672031     -1.0773207062
H       -6.3015135409     0.5937733306     0.6865896780
H       -4.4711092908     -0.3021926003     0.3139299803
O       -3.2982657653     -0.0068470293     0.6108344523
H       -4.1751129393     1.8640799006     0.9664740306
H       -3.9516371358     1.8107123194     -0.8399338006
H       -2.6433782248     -0.2831613535     -0.0398377944
9
# Point 2 Energy = 0.012486599999988357
C       -5.5427053053     0.5373090963     -0.0949341549
C       -4.4028856245     1.3633231404     0.0067101717
H       -5.8813822355     0.2509178221     -1.0822587182
H       -6.3057324399     0.6199569362     0.6674462740
H       -4.4757920981     -0.2937361539     0.3380632132
O       -3.3041721836     0.0071659353     0.6342184355
H       -4.0871067359     1.7629172362     0.9601180746
H       -4.0355706809     1.9075802125     -0.8543558008
H       -2.6453850936     -0.2922969680     -0.0021173318
9
# Point 3 Energy = 0.02853540999998927
C       -5.5418768998     0.5360138129     -0.1059681304
C       -4.4002178349     1.3615148427     -0.0224079493
H       -5.8740123259     0.2187914593     -1.0860639704
H       -6.3103641407     0.6455696035     0.6474838464
H       -4.4809258298     -0.2837181722     0.3618448876
O       -3.3106157416     0.0231558264     0.6570496528
H       -3.9969159333     1.6600943909     0.9349719161
H       -4.1177938591     2.0004246062     -0.8498145299
H       -2.6480098323     -0.2987091126     0.0357944404
9
# Point 4 Energy = 0.051657070000004524
C       -5.5415863456     0.5347213571     -0.1167898405
C       -4.3982876242     1.3595745939     -0.0511785151
H       -5.8672064328     0.1868978011     -1.0886551352
H       -6.3154244711     0.6704826707     0.6268555141
H       -4.4864880120     -0.2721966377     0.3852834372
O       -3.3175844403     0.0410549251     0.6793601373
H       -3.9067558103     1.5573380235     0.8909809613
H       -4.1961848677     2.0876347640     -0.8268417809
H       -2.6512143934     -0.3023702405     0.0738753851
9
# Point 5 Energy = 0.08204917999998429
C       -5.5418068109     0.5334092985     -0.1272895764
C       -4.3970926891     1.3575176802     -0.0793872888
H       -5.8608935052     0.1553382199     -1.0899825490
H       -6.3209198220     0.6945484094     0.6057057133
H       -4.4924403314     -0.2592524312     0.4083820528
O       -3.3250562567     0.0607782381     0.7011925714
H       -3.8188414880     1.4563984888     0.8284819261
H       -4.2687392976     2.1676661291     -0.7863211860
H       -2.6549421965     -0.3032667756     0.1121084998
9
# Point 6 Energy = 0.1194538800000089
C       -5.5424926824     0.5320471481     -0.1373776087
C       -4.3966148852     1.3553634643     -0.1068163284
H       -5.8549675890     0.1242121530     -1.0900380246
H       -6.3268488835     0.7176037344     0.5841617838
H       -4.4987343160     -0.2449915605     0.4311345177
O       -3.3330052524     0.0822175795     0.7226017304
H       -3.7353268180     1.3590363468     0.7482058814
H       -4.3336183734     2.2390541833     -0.7294661419
H       -2.6591235973     -0.3014057918     0.1504843536
9
# Point 7 Energy = 0.162769830000002
C       -5.5435800576     0.5306007775     -0.1469888692
C       -4.3968165407     1.3531360317     -0.1332460023
H       -5.8492887596     0.0936223398     -1.0888613940
H       -6.3332028735     0.7394783430     0.5623283822
H       -4.5053183269     -0.2295466852     0.4535235235
O       -3.3414079132     0.1052353639     0.7436557957
H       -3.6582415589     1.2670089876     0.6512713689
H       -4.3891924619     2.3004268810     -0.6577958644
H       -2.6636839049     -0.2968247822     0.1890032229
9
# Point 8 Energy = 0.21044860000003496
C       -5.5449882698     0.5290374735     -0.1560849422
C       -4.3976366913     1.3508637268     -0.1584596941
H       -5.8436887547     0.0636776541     -1.0865418607
H       -6.3399640643     0.7600072376     0.5402852512
H       -4.5121449474     -0.2130769997     0.4755221352
O       -3.3502486158     0.1296594323     0.7644371049
H       -3.5894296327     1.1820553911     0.5391673362
H       -4.4340783837     2.3505166943     -0.5731120605
H       -2.6685530376     -0.2896033527     0.2276768932
9
# Point 9 Energy = 0.2600428399999828
C       -5.5466226092     0.5273308692     -0.1646528379
C       -4.3989881322     1.3485769153     -0.1822515186
H       -5.8379815250     0.0344923467     -1.0832125754
H       -6.3471027691     0.7790466049     0.5180884702
H       -4.5191775490     -0.1957655476     0.4970985812
O       -3.3595230289     0.1552805229     0.7850417308
H       -3.5304924203     1.1058757590     0.4137264377
H       -4.4671690273     2.3881745709     -0.4774780714
H       -2.6736753363     -0.2798747840     0.2665299467
9
# Point 10 Energy = 0.2192416700000308
C       -5.5483782011     0.5254647604     -0.1727005592
C       -4.4007562862     1.3463036191     -0.2044367087
H       -5.8319778204     0.0061809801     -1.0790379300
H       -6.3545734242     0.7964908089     0.4957746725
H       -4.5263947261     -0.1778133559     0.5182237407
O       -3.3692384723     0.1818539544     0.8055772462
H       -3.4827416289     1.0401021070     0.2770901337
H       -4.4876541926     2.4123890401     -0.3732006464
H       -2.6790176456     -0.2678346569     0.3056002146
9
# Point 11 Energy = 0.18380917999999724
C       -5.5501447361     0.5234348408     -0.1802502467
C       -4.4028006941     1.3440632478     -0.2248634891
H       -5.8255016912     -0.0211507307     -1.0741948317
H       -6.3623108459     0.8122872684     0.4733669785
H       -4.5337915903     -0.1594304491     0.5388797825
O       -3.3794108892     0.2091065018     0.8261582534
H       -3.4471656516     0.9862565588     0.1316675979
H       -4.4950324604     2.4223136167     -0.2628118864
H       -2.6845738386     -0.2537435974     0.3449380048
9
# Point 12 Energy = 0.1478142299999945
C       -5.5518115057     0.5212477777     -0.1873304327
C       -4.4049593931     1.3418593530     -0.2434245413
H       -5.8184059306     -0.0474177610     -1.0688511279
H       -6.3702279287     0.8264458554     0.4508808834
H       -4.5413776638     -0.1408246468     0.5590677693
O       -3.3900590156     0.2367483113     0.8468997318
H       -3.4244113624     0.9456964241     -0.0199097311
H       -4.4891149241     2.4173040101     -0.1490461881
H       -2.6903646733     -0.2379220667     0.3846037999
9
# Point 13 Energy = 0.11394533999998657
C       -5.5532720988     0.5189177729     -0.1939692604
C       -4.4070557156     1.3396728544     -0.2600659607
H       -5.8105835543     -0.0725678874     -1.0631455066
H       -6.3782157925     0.8390405214     0.4283283533
H       -4.5491720712     -0.1221897486     0.5788120805
O       -3.4011972038     0.2644883677     0.8679088550
H       -3.4147804604     0.9195487636     -0.1748371898
H       -4.4700223789     2.3969635424     -0.0348055831
H       -2.6964331219     -0.2207369294     0.4246643751
9
# Point 14 Energy = 0.08352802999999653
C       -5.5544282335     0.5164615269     -0.2001902032
C       -4.4089064030     1.3374572441     -0.2747920983
H       -5.8019735341     -0.0965913331     -1.0571728946
H       -6.3861467231     0.8502029061     0.4057190622
H       -4.5571974993     -0.1036948909     0.5981603466
O       -3.4128287627     0.2920510528     0.8892763882
H       -3.4182369777     0.9086408397     -0.3301902777
H       -4.4381776621     2.3611915720     0.0768922155
H       -2.7028366018     -0.2025816605     0.4651876246
9
# Point 15 Energy = 0.05791888999999628
C       -5.5551924881     0.5138930081     -0.2060109102
C       -4.4103297012     1.3351368022     -0.2876656989
H       -5.7925607495     -0.1195258103     -1.0509776121
H       -6.3938794435     0.8601098372     0.3830587716
H       -4.5654746003     -0.0854764391     0.6171789151
O       -3.4249413816     0.3191911778     0.9110688670
H       -3.4344215116     0.9134351892     -0.4829842395
H       -4.3942942362     2.3102270651     0.1829854251
H       -2.7096382852     -0.1838535731     0.5062366452
9
# Point 16 Energy = 0.03856256000000258
C       -5.5554900263     0.5112193791     -0.2114447359
C       -4.4111523602     1.3326080631     -0.2988038250
H       -5.7823716932     -0.1414560688     -1.0445541449
H       -6.4012656751     0.8689679362     0.3603458845
H       -4.5740180837     -0.0676329583     0.6359450903
O       -3.4375053604     0.3457055649     0.9333224632
H       -3.4626685080     0.9339781904     -0.6302415776
H       -4.3393611521     2.2446788918     0.2804573108
H       -2.7168995384     -0.1649317413     0.5478636978
9
# Point 17 Energy = 0.02649131000001148
C       -5.5552596432     0.5084389133     -0.2165037390
C       -4.4112150368     1.3297440110     -0.3083707590
H       -5.7714682237     -0.1625084312     -1.0378534387
H       -6.4081568171     0.8769985216     0.3375677527
H       -4.5828349300     -0.0502230136     0.6545380216
O       -3.4504744006     0.3714404106     0.9560389256
H       -3.5020249067     0.9698691051     -0.7690677708
H       -4.2746237310     2.1655361125     0.3664366326
H       -2.7246747083     -0.1461583721     0.5901045383
9
# Point 18 Energy = 0.022243049999985942
C       -5.5544545066     0.5055410000     -0.2212017294
C       -4.4103762073     1.3264000388     -0.3165692202
H       -5.7599414497     -0.1828417573     -1.0307918195
H       -6.4144098533     0.8844248879     0.3146982548
H       -4.5919243675     -0.0332650985     0.6730300302
O       -3.4637880264     0.3962947319     0.9791835128
H       -3.5512705699     1.0202536041     -0.8967331983
H       -4.2015590216     2.0741547086     0.4383009502
H       -2.7330083950     -0.1278248584     0.6329733826
9
# Point 19 Energy = 0.02604113000001007
C       -5.5530428618     0.5025077025     -0.2255562576
C       -4.4085151046     1.3224206520     -0.3236309372
H       -5.7479069518     -0.2026366254     -1.0232600131
H       -6.4198920817     0.8914625051     0.2916976293
H       -4.6012787692     -0.0167389784     0.6914795742
O       -3.4773745030     0.4202208087     1.0026845736
H       -3.6089422776     1.0838427239     -1.0107570128
H       -4.1218453509     1.9722207987     0.4937740171
H       -2.7419344968     -0.1101623299     0.6764585897
9
# Point 20 Energy = 0.037724130000015066
C       -5.5510087821     0.4993159717     -0.2295890457
C       -4.4055343172     1.3176461363     -0.3298071403
H       -5.7355014743     -0.2220843182     -1.0151308248
H       -6.4244847208     0.8983113806     0.2685147992
H       -4.6108845355     -0.0005880380     0.7099263092
O       -3.4911533482     0.4432226131     1.0264344152
H       -3.6733633963     1.1589556687     -1.1089871294
H       -4.0373258882     1.8616935218     0.5310097000
H       -2.7514759347     -0.0933356789     0.7205190800
9
# Point 21 Energy = 0.05685510999998655
C       -5.5483528481     0.4959395884     -0.2333250011
C       -4.4013625737     1.3119187702     -0.3353591128
H       -5.7228803303     -0.2413766925     -1.0062652823
H       -6.4280857453     0.9051491450     0.2450917212
H       -4.6207222622     0.0152773603     0.7283880740
O       -3.5050370208     0.4653528998     1.0502912549
H       -3.7426808075     1.2435829692     -1.1896699030
H       -3.9499667532     1.7447331000     0.5486568410
H       -2.7616440561     -0.0774398832     0.7650815713
9
# Point 22 Energy = 0.08255365000002257
C       -5.5450925004     0.4923501366     -0.2367904543
C       -4.3959579464     1.3050885197     -0.3405486922
H       -5.7102142608     -0.2606974273     -0.9965180299
H       -6.4306123989     0.9121234492     0.2213687621
H       -4.6307659212     0.0309751557     0.7468592565
O       -3.5189319188     0.4867091366     1.0740822644
H       -3.8149097254     1.3354650602     -1.2515034704
H       -3.8618105721     1.6236210799     0.5459016606
H       -2.7724371532     -0.0624978535     0.8100388664
9
# Point 23 Energy = 0.11397682000000486
C       -5.5412617549     0.4885167352     -0.2400115265
C       -4.3893113298     1.2970183904     -0.3456285996
H       -5.6976844473     -0.2802146544     -0.9857432548
H       -6.4320037506     0.9193429248     0.1972898380
H       -4.6409812820     0.0466450143     0.7653099009
O       -3.5327392988     0.5074279970     1.0976078944
H       -3.8879859722     1.4321801559     -1.2936700333
H       -3.7749264117     1.5006804461     0.5224863565
H       -2.7838381501     -0.0484597522     0.8552495878
9
# Point 24 Energy = 0.15051089000002094
C       -5.5369100093     0.4844047633     -0.2430135085
C       -4.3814496397     1.2875896977     -0.3508326631
H       -5.6854748199     -0.3000746783     -0.9738023433
H       -6.4322234373     0.9268670955     0.1728060945
H       -4.6513242779     0.0624395614     0.7836850845
O       -3.5463570009     0.5276778887     1.1206477270
H       -3.9598242905     1.5312343263     -1.3158444438
H       -3.6913567760     1.3782031278     0.4787043663
H       -2.7958121458     -0.0352045253     0.9005398497
9
# Point 25 Energy = 0.19005798000003438
C       -5.5320998306     0.4799743206     -0.2458218131
C       -4.3724378183     1.2767073964     -0.3563663641
H       -5.6737616848     -0.3203964319     -0.9605737953
H       -6.4312624142     0.9346969471     0.1478772764
H       -4.6617403366     0.0785135643     0.8019044549
O       -3.5596828342     0.5476490786     1.1429679937
H       -4.0283804046     1.6301461576     -1.3181791917
H       -3.6130620870     1.2583911649     0.4153742994
H       -2.8083049869     -0.0225449405     0.9457073031
9
# Point 26 Energy = 0.22831045000000927
C       -5.5269038504     0.4751794867     -0.2484644886
C       -4.3623785713     1.2643053195     -0.3623985438
H       -5.6627018531     -0.3412664969     -0.9459647945
H       -6.4291412005     0.9427689441     0.1224706207
H       -4.6721657088     0.0950119506     0.8198622750
O       -3.5726200612     0.5675414777     1.1643305926
H       -4.0917138078     1.7265187460     -1.3012689881
H       -3.5418631755     1.1433152847     0.3337957784
H       -2.8212441687     -0.0102374555     0.9905277115
9
# Point 27 Energy = 0.2620624699999894
C       -5.5214011664     0.4699694503     -0.2509755899
C       -4.3514089425     1.2503507861     -0.3690553991
H       -5.6524215404     -0.3627348550     -0.9299225833
H       -6.4259108644     0.9509555610     0.0965579474
H       -4.6825314219     0.1120583306     0.8374287019
O       -3.5850846579     0.5875509596     1.1845029977
H       -4.1480477441     1.8180935279     -1.2661009828
H       -3.4793830771     1.0348910119     0.2356913357
H       -2.8345429827     0.0020024848     1.0347637357
9
# Point 28 Energy = 0.20792302999998924
C       -5.5156738370     0.4642921339     -0.2533981658
C       -4.3396934442     1.2348477427     -0.3764178553
H       -5.6430087956     -0.3848118720     -0.9124429397
H       -6.4216519896     0.9590744416     0.0701123392
H       -4.6927696766     0.1297461440     0.8544531075
O       -3.5970131366     0.6078559357     1.2032680141
H       -4.1958227487     1.9027837273     -1.2139983711
H       -3.4269908549     0.9348684809     0.1231390118
H       -2.8481079142     0.0144805230     1.0781750226
9
# Point 29 Energy = 0.16191155999999296
C       -5.5098040620     0.4581001533     -0.2557855002
C       -4.3274143689     1.2178375867     -0.3845229099
H       -5.6345117053     -0.4074671498     -0.8935731340
H       -6.4164711902     0.9669061583     0.0431060519
H       -4.7028215389     0.1481343261     0.8707699195
O       -3.6083690823     0.6286063577     1.2204321194
H       -4.2337406029     1.9786894151     -1.1465649678
H       -3.3857517233     0.8448291534     -0.0014996626
H       -2.8618481234     0.0275012562     1.1205282469
9
# Point 30 Energy = 0.11921666999998592
C       -5.5038724256     0.4513580858     -0.2581996796
C       -4.3147607839     1.1993971986     -0.3933686993
H       -5.6269430926     -0.4306307128     -0.8734079276
H       -6.4104953267     0.9742179321     0.0155109128
H       -4.7126441000     0.1672483894     0.8862067768
O       -3.6191465524     0.6499170343     1.2358312889
H       -4.2607966511     2.0440999935     -1.0656360849
H       -3.3563885563     0.7661819442     -0.1356520832
H       -2.8756849087     0.0413473922     1.1616056593
9
# Point 31 Energy = 0.082021879999985
C       -5.4979572184     0.4440494735     -0.2607073989
C       -4.3019181271     1.1796343608     -0.4029221669
H       -5.6202904719     -0.4541965707     -0.8520790565
H       -6.4038642183     0.9807887494     -0.0126984287
H       -4.7222152348     0.1870863756     0.9005940527
O       -3.6293692247     0.6718661465     1.2493337533
H       -4.2762998691     2.0974918820     -0.9732375646
H       -3.3392592040     0.7001532063     -0.2766040862
H       -2.8895588290     0.0562636337     1.2012110591
9
# Point 32 Energy = 0.0516861600000027
C       -5.4921345134     0.4361820052     -0.2633737829
C       -4.2890600864     1.1586813921     -0.4131276934
H       -5.6145284887     -0.4780282398     -0.8297404142
H       -6.3967230467     0.9864309599     -0.0415390128
H       -4.7315347611     0.2076278669     0.9137743569
O       -3.6390853568     0.6944985366     1.2608398508
H       -4.2798814312     2.1375285486     -0.8715514859
H       -3.3343519184     0.6477687060     -0.4215644441
H       -2.9034327946     0.0724474816     1.2391727890
9
# Point 33 Energy = 0.028572139999994306
C       -5.4864784846     0.4277898412     -0.2662555214
C       -4.2763436673     1.1366881832     -0.4239150892
H       -5.6096306041     -0.5019655215     -0.8065520506
H       -6.3892156526     0.9910047153     -0.0710131000
H       -4.7406218574     0.2288436645     0.9256106751
O       -3.6483597252     0.7178322911     1.2702797406
H       -4.2714933955     2.1630673325     -0.7628851379
H       -3.3412983910     0.6098294424     -0.5677234195
H       -2.9172906195     0.0900473086     1.2753440662
9
# Point 34 Energy = 0.012496379999987539
C       -5.4810614733     0.4189328028     -0.2693946364
C       -4.2639074352     1.1138157883     -0.4352058504
H       -5.6055774002     -0.5258318150     -0.7826659284
H       -6.3814795669     0.9944237798     -0.1011020814
H       -4.7495095637     0.2507039811     0.9359922671
O       -3.6572643172     0.7418667189     1.2776100266
H       -4.2513993862     2.1731741087     -0.6496396980
H       -3.3594015313     0.5868854767     -0.7123053881
H       -2.9311317233     0.1091664158     1.3096014524
9
# Point 35 Energy = 0.003077959999984614
C       -5.4759534587     0.4096928017     -0.2728138384
C       -4.2518722071     1.0902313845     -0.4469172605
H       -5.6023601092     -0.5494414313     -0.7582154251
H       -6.3736430932     0.9966533070     -0.1317618014
H       -4.7582377260     0.2731837719     0.9448380544
O       -3.6658695454     0.7665900336     1.2828102810
H       -4.2201588970     2.1671441290     -0.5342761974
H       -3.3876739189     0.5792123689     -0.8526160672
H       -2.9449634417     0.1298708918     1.3418424179
9
# Point 36 Energy = -3.0460000004950416e-05
C       -5.4712207872     0.4001682544     -0.2765139325
C       -4.2403431536     1.0661049771     -0.4589644934
H       -5.5999792066     -0.5726066303     -0.7333094136
H       -6.3658242831     0.9977014810     -0.1629198293
H       -4.7668457977     0.2962647160     0.9520977429
O       -3.6742373251     0.7919856145     1.2858801923
H       -4.1786063098     2.1445260063     -0.4192779352
H       -3.4248829040     0.5867938223     -0.9860850069
H       -2.9587926302     0.1521990159     1.3719828391

    This sampling was finished on:   2020-07-28 16:52:12
=------------------------------------------------------------------------------=
Sampling finished.
=------------------------------------------------------------------------------=