9
# Point -3 Energy = 0.012702569999987645
C       -5.5201488513     0.5155154561     -0.1233930058
C       -4.4106042077     1.3720435586     0.0584567429
H       -5.8871002801     0.3122872674     -1.1196701469
H       -6.2426155335     0.4630799430     0.6811207942
H       -4.3956382614     -0.1672084162     0.3756487331
O       -3.1140602697     0.1250392540     0.6343168663
H       -4.2892275522     1.9271494580     0.9772072501
H       -3.8472862400     1.7573433513     -0.7809154638
H       -2.9740512014     -0.4421126152     -0.1298816067
9
# Point -2 Energy = 0.005782810000027894
C       -5.5307465660     0.5247952483     -0.1057640726
C       -4.4128819585     1.3719117334     0.0632841474
H       -5.8871211348     0.3109812972     -1.1041659943
H       -6.2682459896     0.5014393252     0.6860296673
H       -4.4205676360     -0.2131647700     0.3577099673
O       -3.1752509844     0.0824476467     0.6284693624
H       -4.2858618477     1.9445651746     0.9706860380
H       -3.8520071965     1.7399823985     -0.7858444082
H       -2.8480490839     -0.3998207968     -0.1375145441
9
# Point -1 Energy = 0.0015153299999894898
C       -5.5397300379     0.5330636688     -0.0889520149
C       -4.4127843590     1.3696837977     0.0655536382
H       -5.8911016562     0.3121866710     -1.0880915698
H       -6.2870013837     0.5365884749     0.6936076651
H       -4.4448596975     -0.2610278019     0.3291597823
O       -3.2353797552     0.0336141425     0.6130312773
H       -4.2754812477     1.9557488652     0.9630985483
H       -3.8586779434     1.7239707022     -0.7942544669
H       -2.7357163167     -0.3406912635     -0.1202626964
9
# Point 0 Energy = 0
C       -5.5459913399     0.5399390194     -0.0727273173
C       -4.4103806313     1.3664969448     0.0651493997
H       -5.8979436617     0.3154152234     -1.0713515943
H       -6.2976793455     0.5671285746     0.7047627870
H       -4.4668802586     -0.3090502593     0.2894372849
O       -3.2928934464     -0.0188279386     0.5868749696
H       -4.2587769013     1.9618937208     0.9544735056
H       -3.8681805958     1.7114826198     -0.8063863959
H       -2.6420062168     -0.2713406478     -0.0773424760
9
# Point 1 Energy = 0.0016975199999933466
C       -5.5484965827     0.5450552340     -0.0567072507
C       -4.4058763902     1.3636898521     0.0619730035
H       -5.9062833707     0.3199725604     -1.0536335060
H       -6.2995242218     0.5914897201     0.7201485282
H       -4.4850270374     -0.3552613893     0.2386123938
O       -3.3463144717     -0.0720372135     0.5496467938
H       -4.2367400792     1.9647381604     0.9445711077
H       -3.8814549141     1.7046186811     -0.8223731132
H       -2.5710153295     -0.1991283482     -0.0093477938
9
# Point 2 Energy = 0.0071618899999918995
C       -5.5463086191     0.5479655282     -0.0406794534
C       -4.3997056711     1.3626858073     0.0561242539
H       -5.9146529779     0.3243779272     -1.0345963201
H       -6.2918299810     0.6088633768     0.7401096656
H       -4.4977918874     -0.3976047011     0.1775470597
O       -3.3942540725     -0.1230055218     0.5017113846
H       -4.2110628477     1.9664994435     0.9331281549
H       -3.8992407822     1.7051683996     -0.8418217246
H       -2.5258855584     -0.1318130027     0.0813671426
9
# Point 3 Energy = 0.01671609999999646
C       -5.5386525264     0.5483539670     -0.0244054757
C       -4.3923614333     1.3648433756     0.0477821185
H       -5.9214167002     0.3270023450     -1.0138696549
H       -6.2743789747     0.6186762239     0.7644814144
H       -4.5039112243     -0.4341428810     0.1079695756
O       -3.4355968721     -0.1688965295     0.4445210450
H       -4.1835362547     1.9697044649     0.9197427575
H       -3.9221439471     1.7142449828     -0.8641546602
H       -2.5087344645     -0.0766486916     0.1908230431

    This sampling was finished on:   2020-07-28 16:52:12
=------------------------------------------------------------------------------=
Sampling finished.
=------------------------------------------------------------------------------=