9
# Point -2 Energy = 0.023127660000000105
C       -5.5572333847     0.5450027929     -0.0718262258
C       -4.4219050978     1.3706431182     0.0725606218
H       -5.8969370895     0.3117085698     -1.0725773564
H       -6.3187756546     0.5813822065     0.6958640507
H       -4.4849595851     -0.3003611403     0.3129860788
O       -3.3218751771     -0.0087009435     0.6301900014
H       -4.2800580168     1.9739714661     0.9573167990
H       -3.8670954538     1.7058159553     -0.7958505803
H       -2.5318929379     -0.3163247679     -0.1557732260
9
# Point -1 Energy = 0.0070706600000107755
C       -5.5515883720     0.5424603406     -0.0722871526
C       -4.4161171348     1.3685590744     0.0688712674
H       -5.8973668171     0.3135200142     -1.0720137723
H       -6.3082600677     0.5742802135     0.7002910995
H       -4.4758766212     -0.3047303409     0.3013048088
O       -3.3073092794     -0.0138037761     0.6087166802
H       -4.2694476302     1.9679579915     0.9559212438
H       -3.8675628769     1.7086085034     -0.8011207248
H       -2.5872035980     -0.2937147635     -0.1167932867
9
# Point 0 Energy = 0
C       -5.5459913399     0.5399390194     -0.0727273173
C       -4.4103806313     1.3664969448     0.0651493997
H       -5.8979436617     0.3154152234     -1.0713515943
H       -6.2976793455     0.5671285746     0.7047627870
H       -4.4668802586     -0.3090502593     0.2894372849
O       -3.2928934464     -0.0188279386     0.5868749696
H       -4.2587769013     1.9618937208     0.9544735056
H       -3.8681805958     1.7114826198     -0.8063863959
H       -2.6420062168     -0.2713406478     -0.0773424760
9
# Point 1 Energy = 0.011047099999984766
C       -5.5404428065     0.5374392115     -0.0731496296
C       -4.4046974294     1.3644581343     0.0613931047
H       -5.8986663361     0.3173935899     -1.0705912309
H       -6.2870336935     0.5599270229     0.7092726529
H       -4.4579749677     -0.3133175063     0.2773814123
O       -3.2786366925     -0.0237669738     0.5646631731
H       -4.2480483391     1.9557801962     0.9529690117
H       -3.8689496274     1.7144394981     -0.8116461119
H       -2.6962825051     -0.2492159158     -0.0374022190

    This sampling was finished on:   2020-07-28 16:52:12
=------------------------------------------------------------------------------=
Sampling finished.
=------------------------------------------------------------------------------=