9
# Point -2 Energy = 0.02556723999998667
C       -5.5190265314     0.5527990309     -0.0663714045
C       -4.3873437581     1.3790821585     0.0642520491
H       -5.9244092960     0.2979263000     -1.1862784309
H       -6.3577746138     0.5827477815     0.7923215782
H       -4.4511663565     -0.2995914932     0.2929693410
O       -3.2768657510     -0.0125386184     0.5884954507
H       -4.2448352630     1.9377283967     0.9024459588
H       -3.8919482903     1.6925671218     -0.7386975930
H       -2.6273625372     -0.2675834208     -0.0762467862
9
# Point -1 Energy = 0.006729060000026266
C       -5.5325413761     0.5463734470     -0.0695317033
C       -4.3988980223     1.3728089924     0.0647029636
H       -5.9109568622     0.3067272930     -1.1289104105
H       -6.3276487068     0.5749507347     0.7486723699
H       -4.4590545151     -0.3043333493     0.2912101140
O       -3.2849065576     -0.0156976207     0.5876824855
H       -4.2518490150     1.9498121280     0.9284761323
H       -3.8801615317     1.7019740979     -0.7726092356
H       -2.6347158105     -0.2694784659     -0.0768025526
9
# Point 0 Energy = 0
C       -5.5459913399     0.5399390194     -0.0727273173
C       -4.4103806313     1.3664969448     0.0651493997
H       -5.8979436617     0.3154152234     -1.0713515943
H       -6.2976793455     0.5671285746     0.7047627870
H       -4.4668802586     -0.3090502593     0.2894372849
O       -3.2928934464     -0.0188279386     0.5868749696
H       -4.2587769013     1.9618937208     0.9544735056
H       -3.8681805958     1.7114826198     -0.8063863959
H       -2.6420062168     -0.2713406478     -0.0773424760
9
# Point 1 Energy = 0.007699940000037486
C       -5.5593764471     0.5334961562     -0.0759566007
C       -4.4217917016     1.3601467114     0.0655894771
H       -5.8853731131     0.3239863154     -1.0136019948
H       -6.2678656805     0.5592825715     0.6605970314
H       -4.4746434176     -0.3137414963     0.2876520450
O       -3.3008259599     -0.0219286597     0.5860725222
H       -4.2656164628     1.9739737727     0.9804357691
H       -3.8560055064     1.7210913547     -0.8400305760
H       -2.6492341083     -0.2731694689     -0.0778675099
9
# Point 2 Energy = 0.03358195999999225
C       -5.5726968233     0.5270450942     -0.0792186845
C       -4.4331313057     1.3537584541     0.0660217905
H       -5.8732498237     0.3324354352     -0.9556618245
H       -6.2382060765     0.5514155488     0.6161792812
H       -4.4823437132     -0.3184057911     0.2858558085
O       -3.3087034539     -0.0249977175     0.5852740949
H       -4.2723657739     1.9860522601     1.0063612422
H       -3.8436355755     1.7307982881     -0.8735424554
H       -2.6563998516     -0.2749643148     -0.0783790896

    This sampling was finished on:   2020-07-28 16:52:12
=------------------------------------------------------------------------------=
Sampling finished.
=------------------------------------------------------------------------------=