9
# Point -2 Energy = 0.011676340000008167
C       -5.5330538711     0.5398744983     -0.1600444286
C       -4.4402992001     1.3787449229     0.1202224648
H       -5.9874178877     0.3080094033     -1.1127393474
H       -6.1934328300     0.5774416896     0.6975586841
H       -4.4763340729     -0.3009890431     0.2902976910
O       -3.2982450358     -0.0023570343     0.5674578619
H       -4.2132005828     1.9841687922     0.9868953824
H       -3.9427397072     1.6742760620     -0.7940268896
H       -2.5960092097     -0.2960320339     -0.0227312553
9
# Point -1 Energy = 0.002895899999998619
C       -5.5391908159     0.5388248405     -0.1164086437
C       -4.4246831761     1.3743988173     0.0928139889
H       -5.9439364137     0.3113094778     -1.0931894713
H       -6.2468951425     0.5719305546     0.7019360743
H       -4.4710530487     -0.3069779320     0.2899996716
O       -3.2951899126     -0.0120214904     0.5776872526
H       -4.2363468272     1.9760341133     0.9710909581
H       -3.9056457690     1.6959328858     -0.8009864075
H       -2.6177912917     -0.2862940099     -0.0500532599
9
# Point 0 Energy = 0
C       -5.5459913399     0.5399390194     -0.0727273173
C       -4.4103806313     1.3664969448     0.0651493997
H       -5.8979436617     0.3154152234     -1.0713515943
H       -6.2976793455     0.5671285746     0.7047627870
H       -4.4668802586     -0.3090502593     0.2894372849
O       -3.2928934464     -0.0188279386     0.5868749696
H       -4.2587769013     1.9618937208     0.9544735056
H       -3.8681805958     1.7114826198     -0.8063863959
H       -2.6420062168     -0.2713406478     -0.0773424760
9
# Point 1 Energy = 0.002905550000008361
C       -5.5532726921     0.5431691457     -0.0293254544
C       -4.3976165044     1.3553164493     0.0373428893
H       -5.8497943305     0.3203941672     -1.0470819574
H       -6.3453299693     0.5628736297     0.7063091712
H       -4.4637547897     -0.3074086678     0.2882584246
O       -3.2912997881     -0.0230586286     0.5947937034
H       -4.2811350590     1.9426251224     0.9370380508
H       -3.8299709491     1.7206430841     -0.8098840366
H       -2.6685583150     -0.2514170450     -0.1045606276
9
# Point 2 Energy = 0.011674840000011955
C       -5.5610965424     0.5484705098     0.0134185062
C       -4.3864251601     1.3405980790     0.0095845640
H       -5.8000370473     0.3263515681     -1.0204114592
H       -6.3896454181     0.5591570737     0.7069103660
H       -4.4616270426     -0.3019217765     0.2861127427
O       -3.2904310757     -0.0243529425     0.6011558330
H       -4.3037148098     1.9184760755     0.9188366175
H       -3.7903841961     1.7223914033     -0.8109979861
H       -2.6973711054     -0.2260327332     -0.1317190209

    This sampling was finished on:   2020-07-28 16:52:12
=------------------------------------------------------------------------------=
Sampling finished.
=------------------------------------------------------------------------------=