9
# Point -3 Energy = 0.01586272000002964
C       -5.5825574629     0.4993836266     -0.0919841459
C       -4.4622141438     1.4319049152     0.0174113419
H       -5.9951145720     0.3040755081     -1.0763196613
H       -6.3322155046     0.4936311136     0.6913317888
H       -4.4842520294     -0.2286371897     0.2889716504
O       -3.3214825602     0.0588440907     0.6173187008
H       -4.0639276651     1.8130394224     0.9483929265
H       -3.7856899350     1.6767268201     -0.7923364455
H       -2.6532785242     -0.1858310500     -0.0298959925
9
# Point -2 Energy = 0.007431400000029953
C       -5.5726004674     0.5114592202     -0.0860990048
C       -4.4467868672     1.4097040855     0.0303603185
H       -5.9650478721     0.3051432728     -1.0754276524
H       -6.3226046625     0.5175592154     0.6957446886
H       -4.4786434697     -0.2553186790     0.2896800031
O       -3.3120163861     0.0344357828     0.6064272882
H       -4.1250700853     1.8650813915     0.9571849709
H       -3.8081792199     1.6890244593     -0.7986310893
H       -2.6497833672     -0.2139514914     -0.0463493594
9
# Point -1 Energy = 0.0019663100000002487
C       -5.5605247514     0.5248697486     -0.0797127723
C       -4.4296380829     1.3878830759     0.0462314457
H       -5.9327714140     0.3087516631     -1.0737785304
H       -6.3111903204     0.5419257096     0.7001934082
H       -4.4728745913     -0.2821781656     0.2898739405
O       -3.3025210989     0.0085571734     0.5962537819
H       -4.1898360359     1.9150249848     0.9593264640
H       -3.8353027234     1.7007444409     -0.8032988532
H       -2.6460733790     -0.2424413735     -0.0621987211
9
# Point 0 Energy = 0
C       -5.5459913399     0.5399390194     -0.0727273173
C       -4.4103806313     1.3664969448     0.0651493997
H       -5.8979436617     0.3154152234     -1.0713515943
H       -6.2976793455     0.5671285746     0.7047627870
H       -4.4668802586     -0.3090502593     0.2894372849
O       -3.2928934464     -0.0188279386     0.5868749696
H       -4.2587769013     1.9618937208     0.9544735056
H       -3.8681805958     1.7114826198     -0.8063863959
H       -2.6420062168     -0.2713406478     -0.0773424760
9
# Point 1 Energy = 0.0022178799999892362
C       -5.5286635742     0.5570039278     -0.0649997458
C       -4.3887456186     1.3457162050     0.0872043206
H       -5.8601049047     0.3257485293     -1.0681405339
H       -6.2817747209     0.5935391822     0.7095819201
H       -4.4606379409     -0.3357574160     0.2882255058
O       -3.2830811030     -0.0477745194     0.5783837104
H       -4.3322188152     2.0045370641     0.9418332830
H       -3.9080371227     1.7207810922     -0.8075406104
H       -2.6374685971     -0.3006568080     -0.0916576864
9
# Point 2 Energy = 0.009622589999992215
C       -5.5082389313     0.5765278471     -0.0564708402
C       -4.3644136156     1.3256214025     0.1125271292
H       -5.8190234525     0.3402547858     -1.0640945148
H       -6.2632362266     0.6217107442     0.7146646285
H       -4.4541422389     -0.3618629670     0.2860713812
O       -3.2730632517     -0.0779956145     0.5707873615
H       -4.4102360434     2.0412390412     0.9204103488
H       -3.9560105069     1.7277561283     -0.8059333164
H       -2.6323681303     -0.3301141105     -0.1050720146
9
# Point 3 Energy = 0.023082020000003922
C       -5.4852111433     0.5985087225     -0.0471918835
C       -4.3383372828     1.3065733268     0.1407436467
H       -5.7751141347     0.3586206491     -1.0592306983
H       -6.2425715143     0.6515412049     0.7199657505
H       -4.4476782907     -0.3867496148     0.2828177425
O       -3.2632433639     -0.1083684576     0.5639533641
H       -4.4903794983     2.0700697744     0.8891371954
H       -4.0112529635     1.7313702249     -0.7996768468
H       -2.6269442058     -0.3584285731     -0.1176281073

    This sampling was finished on:   2020-07-28 16:52:12
=------------------------------------------------------------------------------=
Sampling finished.
=------------------------------------------------------------------------------=