9
# Point -2 Energy = 0.012853689999957396
C       -5.5359450382     0.5732017509     -0.0752674157
C       -4.3955591768     1.4081377680     0.0576805594
H       -5.8367345638     0.3007904610     -1.0802553726
H       -6.2629650780     0.6002229213     0.7269328504
H       -4.5113159754     -0.5480228472     0.3040125354
O       -3.3299084694     0.0225977937     0.6046142696
H       -4.2440082135     1.9703444048     0.9693089385
H       -3.8587219501     1.7200541714     -0.8302986992
H       -2.7055739320     -0.1841891669     -0.1038375024
9
# Point -1 Energy = 0.003419640000004165
C       -5.5455995647     0.5580815563     -0.0745659835
C       -4.4058220057     1.3863573875     0.0610642354
H       -5.8717384438     0.3113503949     -1.0774937312
H       -6.2848765840     0.5869842754     0.7154802464
H       -4.4880856776     -0.4276085134     0.2974965983
O       -3.3018128849     -0.0018149323     0.5979022622
H       -4.2531227510     1.9648374447     0.9617794726
H       -3.8655418529     1.7139798421     -0.8187327309
H       -2.6641326328     -0.2290301980     -0.0900402061
9
# Point 0 Energy = 0
C       -5.5459913399     0.5399390194     -0.0727273173
C       -4.4103806313     1.3664969448     0.0651493997
H       -5.8979436617     0.3154152234     -1.0713515943
H       -6.2976793455     0.5671285746     0.7047627870
H       -4.4668802586     -0.3090502593     0.2894372849
O       -3.2928934464     -0.0188279386     0.5868749696
H       -4.2587769013     1.9618937208     0.9544735056
H       -3.8681805958     1.7114826198     -0.8063863959
H       -2.6420062168     -0.2713406478     -0.0773424760
9
# Point 1 Energy = 0.004117710000002717
C       -5.5371877452     0.5192315380     -0.0698119587
C       -4.4091851718     1.3488545818     0.0697594382
H       -5.9157403423     0.3131952360     -1.0618829072
H       -6.3013986443     0.5405246962     0.6947271548
H       -4.4487312841     -0.1936971903     0.2795941372
O       -3.3018413051     -0.0287556086     0.5721683309
H       -4.2608745684     1.9616330300     0.9472669514
H       -3.8669541609     1.7129925928     -0.7935184500
H       -2.6388191752     -0.3108416188     -0.0654125333
9
# Point 2 Energy = 0.018481299999990597
C       -5.5192985598     0.4965180311     -0.0660468595
C       -4.4024083220     1.3339019498     0.0748352328
H       -5.9255530128     0.3045561378     -1.0491505046
H       -6.2959229820     0.5075966176     0.6852526672
H       -4.4343691349     -0.0828992747     0.2679337459
O       -3.3271422883     -0.0322745470     0.5541663896
H       -4.2598700303     1.9643845786     0.9401803828
H       -3.8622188882     1.7191025219     -0.7801295724
H       -2.6539491790     -0.3477487579     -0.0541513185

    This sampling was finished on:   2020-07-28 16:52:12
=------------------------------------------------------------------------------=
Sampling finished.
=------------------------------------------------------------------------------=