9
# Point -2 Energy = 0.01490828999999394
C       -5.5160307680     0.5517070247     -0.0634009454
C       -4.4354726856     1.3360375605     0.0685786848
H       -5.9714107840     0.2792705768     -1.0061436932
H       -6.3522941448     0.5385687070     0.6213591068
H       -4.4830728110     -0.3700205561     0.2845532769
O       -3.2900091576     -0.0092302302     0.5911351875
H       -4.1700378759     2.0080904019     0.8723851428
H       -3.8147147987     1.7699808256     -0.7061101233
H       -2.6476893717     -0.2412670532     -0.0894664736
9
# Point -1 Energy = 0.0036024300000008225
C       -5.5306440458     0.5458487733     -0.0679758601
C       -4.4232725506     1.3522896111     0.0668559288
H       -5.9347878822     0.2964896142     -1.0403090528
H       -6.3261963674     0.5523030323     0.6644105455
H       -4.4747818318     -0.3406780601     0.2873446012
O       -3.2904243013     -0.0164843482     0.5891456412
H       -4.2153834057     1.9887295801     0.9153977353
H       -3.8412253789     1.7436968719     -0.7584934614
H       -2.6440166335     -0.2590578176     -0.0834859144
9
# Point 0 Energy = 0
C       -5.5459913399     0.5399390194     -0.0727273173
C       -4.4103806313     1.3664969448     0.0651493997
H       -5.8979436617     0.3154152234     -1.0713515943
H       -6.2976793455     0.5671285746     0.7047627870
H       -4.4668802586     -0.3090502593     0.2894372849
O       -3.2928934464     -0.0188279386     0.5868749696
H       -4.2587769013     1.9618937208     0.9544735056
H       -3.8681805958     1.7114826198     -0.8063863959
H       -2.6420062168     -0.2713406478     -0.0773424760
9
# Point 1 Energy = 0.0033842500000389464
C       -5.5619780045     0.5339012443     -0.0776443974
C       -4.3966677044     1.3785193576     0.0635496493
H       -5.8610203514     0.3359584827     -1.0991687749
H       -6.2666773249     0.5830656387     0.7422196662
H       -4.4595556407     -0.2752635969     0.2908267038
O       -3.2973775208     -0.0165323795     0.5843028229
H       -4.3002326580     1.9280790240     0.9893705197
H       -3.8955900477     1.6738315217     -0.8495073977
H       -2.6416331449     -0.2784220356     -0.0710586287
9
# Point 2 Energy = 0.01315794999999298
C       -5.5785036291     0.5276886731     -0.0826035248
C       -4.3820125213     1.3882658242     0.0621233630
H       -5.8239326968     0.3581587661     -1.1236279935
H       -6.2332341071     0.5999876827     0.7765978120
H       -4.4529873341     -0.2394889032     0.2915090651
O       -3.3038561450     -0.0099669738     0.5814399818
H       -4.3397523139     1.8878731875     1.0198017231
H       -3.9235564849     1.6312349442     -0.8876851004
H       -2.6428971651     -0.2806159438     -0.0646651630

    This sampling was finished on:   2020-07-28 16:52:12
=------------------------------------------------------------------------------=
Sampling finished.
=------------------------------------------------------------------------------=