9
# Point -2 Energy = 0.01335115999998493
C       -5.6077964487     0.4955306474     -0.0803843717
C       -4.4693380446     1.3274526079     0.0629016508
H       -5.7939672033     0.3058983031     -1.1270189553
H       -6.2353528948     0.5832682987     0.7937363279
H       -4.4982580379     -0.3179976669     0.2830804845
O       -3.3254938253     -0.0252713344     0.5744564174
H       -4.2251418220     2.0047976127     0.8726493834
H       -3.8562736966     1.7626313151     -0.7209837710
H       -2.6691104241     -0.2731725265     -0.0855470028
9
# Point -1 Energy = 0.0033262499999864303
C       -5.5761480471     0.5176548587     -0.0762625471
C       -4.4397704597     1.3478382923     0.0640893363
H       -5.8462247312     0.3097286469     -1.1022360113
H       -6.2679900770     0.5746752369     0.7520131392
H       -4.4822375273     -0.3145942614     0.2862805683
O       -3.3086892886     -0.0239968819     0.5808829558
H       -4.2426973127     1.9865911519     0.9152086637
H       -3.8618032064     1.7395397689     -0.7657653495
H       -2.6551717474     -0.2742995551     -0.0813205921
9
# Point 0 Energy = 0
C       -5.5459913399     0.5399390194     -0.0727273173
C       -4.4103806313     1.3664969448     0.0651493997
H       -5.8979436617     0.3154152234     -1.0713515943
H       -6.2976793455     0.5671285746     0.7047627870
H       -4.4668802586     -0.3090502593     0.2894372849
O       -3.2928934464     -0.0188279386     0.5868749696
H       -4.2587769013     1.9618937208     0.9544735056
H       -3.8681805958     1.7114826198     -0.8063863959
H       -2.6420062168     -0.2713406478     -0.0773424760
9
# Point 1 Energy = 0.0033377000000029966
C       -5.5176023668     0.5623853501     -0.0697398816
C       -4.3810926983     1.3829201796     0.0661584024
H       -5.9487314546     0.3231210341     -1.0347014647
H       -6.3245181502     0.5606625785     0.6523950929
H       -4.4522783632     -0.3013125876     0.2925477174
O       -3.2782179274     -0.0095811428     0.5923983469
H       -4.2732741592     1.9307050259     0.9901822367
H       -3.8753016719     1.6782504147     -0.8426689639
H       -2.6297156057     -0.2640135955     -0.0736813230
9
# Point 2 Energy = 0.013413270000029343
C       -5.4911362634     0.5849723693     -0.0674246101
C       -4.3518368672     1.3966826438     0.0671912447
H       -5.9983875565     0.3328660339     -0.9927089019
H       -6.3482888179     0.5554473258     0.5954064669
H       -4.4384927816     -0.2913695767     0.2956561808
O       -3.2647245630     0.0038404966     0.5973995501
H       -4.2863584461     1.8931123711     1.0221370472
H       -3.8831349345     1.6399303652     -0.8744069710
H       -2.6183721671     -0.2523447720     -0.0703598435

    This sampling was finished on:   2020-07-28 16:52:12
=------------------------------------------------------------------------------=
Sampling finished.
=------------------------------------------------------------------------------=