9
# Point -2 Energy = 0.030441389999992907
C       -5.5366446778     0.5377901957     -0.1091472597
C       -4.4119017924     1.3709512047     0.0782596647
H       -5.8443639652     0.3473811408     -1.0001168036
H       -6.3858317593     0.5559802950     0.7595697067
H       -4.4628697760     -0.3097346198     0.2706996589
O       -3.2938129881     -0.0187369182     0.5864902839
H       -4.2835634049     1.9063577525     0.8933010606
H       -3.8285444948     1.7445691984     -0.8392733593
H       -2.6331995388     -0.2714209919     -0.0668927890
9
# Point -1 Energy = 0.007414710000006153
C       -5.5413902978     0.5387082540     -0.0909394460
C       -4.4110643704     1.3687605514     0.0716911541
H       -5.8710821465     0.3315151744     -1.0358645924
H       -6.3417047895     0.5617491735     0.7323006427
H       -4.4648581432     -0.3094748101     0.2800923780
O       -3.2933150862     -0.0187869888     0.5866990251
H       -4.2713558491     1.9340516979     0.9240171640
H       -3.8484290196     1.7279801998     -0.8229892779
H       -2.6375326949     -0.2713659949     -0.0721168842
9
# Point 0 Energy = 0
C       -5.5459913399     0.5399390194     -0.0727273173
C       -4.4103806313     1.3664969448     0.0651493997
H       -5.8979436617     0.3154152234     -1.0713515943
H       -6.2976793455     0.5671285746     0.7047627870
H       -4.4668802586     -0.3090502593     0.2894372849
O       -3.2928934464     -0.0188279386     0.5868749696
H       -4.2587769013     1.9618937208     0.9544735056
H       -3.8681805958     1.7114826198     -0.8063863959
H       -2.6420062168     -0.2713406478     -0.0773424760
9
# Point 1 Energy = 0.0074106200000017
C       -5.5504468344     0.5414795504     -0.0545195503
C       -4.4098525484     1.3641622521     0.0586412174
H       -5.9249402735     0.2990857431     -1.1065847569
H       -6.2537609206     0.5721160586     0.6769510118
H       -4.4689357094     -0.3084626057     0.2987295098
O       -3.2925492424     -0.0188597509     0.5870198199
H       -4.2458266354     1.9898705133     0.9846793690
H       -3.8878028799     1.6950855788     -0.7894611894
H       -2.6466173534     -0.2713400827     -0.0825652680
9
# Point 2 Energy = 0.03040562999998997
C       -5.5547558972     0.5433264385     -0.0363246656
C       -4.4094819315     1.3617587240     0.0521732508
H       -5.9520632842     0.2825311385     -1.1415713776
H       -6.2099545990     0.5767097435     0.6488607849
H       -4.4710240681     -0.3077137886     0.3079643710
O       -3.2922834828     -0.0188826139     0.5871353795
H       -4.2325059505     2.0179691169     1.0146442523
H       -3.9073000331     1.6787981980     -0.7722108589
H       -2.6513631508     -0.2713596998     -0.0877809731

    This sampling was finished on:   2020-07-28 16:52:12
=------------------------------------------------------------------------------=
Sampling finished.
=------------------------------------------------------------------------------=