9
# Point -2 Energy = 0.012707070000033127
C       -5.5081396676     0.5543369192     -0.0686218850
C       -4.4680876943     1.3514703976     0.0395652226
H       -5.8238414631     0.3709292959     -1.0829472027
H       -6.2191702225     0.5942868756     0.7398046924
H       -4.5051102251     -0.2672808542     0.2887866078
O       -3.2958754456     0.0168814737     0.5901555442
H       -4.2995786733     1.8617543864     0.9714126578
H       -3.9160561776     1.6357553243     -0.8405607040
H       -2.6448728281     -0.2549965614     -0.0647047698
9
# Point -1 Energy = 0.0029517100000191476
C       -5.5269428813     0.5470234109     -0.0706029562
C       -4.4391684931     1.3592426431     0.0520646335
H       -5.8608205496     0.3430014472     -1.0774509401
H       -6.2584163211     0.5803883100     0.7226926914
H       -4.4860930191     -0.2886811831     0.2892112263
O       -3.2944512534     -0.0014571584     0.5885510664
H       -4.2794821750     1.9128900114     0.9635028340
H       -3.8918360855     1.6743915156     -0.8239916971
H       -2.6435216192     -0.2636617395     -0.0710866949
9
# Point 0 Energy = 0
C       -5.5459913399     0.5399390194     -0.0727273173
C       -4.4103806313     1.3664969448     0.0651493997
H       -5.8979436617     0.3154152234     -1.0713515943
H       -6.2976793455     0.5671285746     0.7047627870
H       -4.4668802586     -0.3090502593     0.2894372849
O       -3.2928934464     -0.0188279386     0.5868749696
H       -4.2587769013     1.9618937208     0.9544735056
H       -3.8681805958     1.7114826198     -0.8063863959
H       -2.6420062168     -0.2713406478     -0.0773424760
9
# Point 1 Energy = 0.0025569299999972372
C       -5.5652595964     0.5330194869     -0.0749818335
C       -4.3818208994     1.3733396434     0.0787277429
H       -5.9351809171     0.2882504141     -1.0646672573
H       -6.3368997432     0.5542938995     0.6860530255
H       -4.4474939403     -0.3284813809     0.2895047393
O       -3.2912227761     -0.0353788063     0.5852097943
H       -4.2373412189     2.0089418687     0.9442686606
H       -3.8451799123     1.7473242620     -0.7878421726
H       -2.6403333936     -0.2781721303     -0.0833825358
9
# Point 2 Energy = 0.009602970000003097
C       -5.5847741477     0.5262274324     -0.0773912532
C       -4.3535087466     1.3797068365     0.0928297186
H       -5.9725778546     0.2613607198     -1.0573878539
H       -6.3760991905     0.5419642053     0.6665255225
H       -4.4279370817     -0.3469456920     0.2894277676
O       -3.2894367518     -0.0510405962     0.5835033391
H       -4.2151348809     2.0540474681     0.9329510897
H       -3.8227458099     1.7819256966     -0.7682971239
H       -2.6385179336     -0.2841088134     -0.0892710431
9
# Point 3 Energy = 0.020327589999993734
C       -5.6045323874     0.5195188935     -0.0799600794
C       -4.3255013823     1.3856378147     0.1074229828
H       -6.0101367044     0.2347294781     -1.0495153732
H       -6.4152536327     0.5300719225     0.6461835587
H       -4.4082214429     -0.3644724229     0.2892307641
O       -3.2875438107     -0.0658533435     0.5817721996
H       -4.1920860269     2.0972811927     0.9205189660
H       -3.8008873839     1.8154180125     -0.7477680021
H       -2.6365696261     -0.2891942904     -0.0949948532

    This sampling was finished on:   2020-07-28 16:52:12
=------------------------------------------------------------------------------=
Sampling finished.
=------------------------------------------------------------------------------=