9
# Point -3 Energy = 0.013463729999983798
C       -5.4281258225     0.4869453926     -0.0768535866
C       -4.4003623852     1.4638066261     0.0594204390
H       -5.7835860288     0.2706740876     -1.0759803708
H       -6.1804088917     0.4539051016     0.7012984078
H       -4.4486972925     -0.3111372254     0.3565657435
O       -3.3437789758     0.0100673065     0.6042618252
H       -4.2997724608     2.0667809434     0.9532885308
H       -3.8612097571     1.8511363133     -0.7985536172
H       -2.9347907829     -0.4290412886     -0.1505572085
9
# Point -2 Energy = 0.005765959999990855
C       -5.4687655902     0.5039759986     -0.0757022282
C       -4.4027240901     1.4320413762     0.0617837052
H       -5.8222162189     0.2842367636     -1.0748106496
H       -6.2217566504     0.4918092332     0.7018832569
H       -4.4564206187     -0.3114101024     0.3369046280
O       -3.3289363887     0.0014201801     0.6023090775
H       -4.2857158990     2.0332769788     0.9540174702
H       -3.8611913751     1.8043064606     -0.8005213044
H       -2.8330055662     -0.3765196317     -0.1329737923
9
# Point -1 Energy = 0.0013876200000026984
C       -5.5081067655     0.5216692611     -0.0743580453
C       -4.4060376131     1.3995064037     0.0637080451
H       -5.8604201519     0.2992094951     -1.0732914750
H       -6.2608795653     0.5296420287     0.7030049951
H       -4.4625457320     -0.3107961249     0.3144832126
O       -3.3120241482     -0.0083493547     0.5965116497
H       -4.2719781943     1.9982147771     0.9544342830
H       -3.8634655828     1.7575887746     -0.8031148604
H       -2.7352746441     -0.3235480035     -0.1084876414
9
# Point 0 Energy = 0
C       -5.5459913399     0.5399390194     -0.0727273173
C       -4.4103806313     1.3664969448     0.0651493997
H       -5.8979436617     0.3154152234     -1.0713515943
H       -6.2976793455     0.5671285746     0.7047627870
H       -4.4668802586     -0.3090502593     0.2894372849
O       -3.2928934464     -0.0188279386     0.5868749696
H       -4.2587769013     1.9618937208     0.9544735056
H       -3.8681805958     1.7114826198     -0.8063863959
H       -2.6420062168     -0.2713406478     -0.0773424760
9
# Point 1 Energy = 0.0012930000000039854
C       -5.5822830372     0.5586667899     -0.0707525163
C       -4.4158016461     1.3332986848     0.0660966337
H       -5.9345836272     0.3325298740     -1.0689153090
H       -6.3320918505     0.6040594419     0.7072145336
H       -4.4692501574     -0.3059155278     0.2619554417
O       -3.2714144905     -0.0295426766     0.5734331622
H       -4.2463622358     1.9246387422     0.9540988787
H       -3.8753807573     1.6664559417     -0.8103189617
H       -2.5535645954     -0.2210540130     -0.0399216997
9
# Point 2 Energy = 0.004970560000003843
C       -5.6168926482     0.5777072571     -0.0683207771
C       -4.4223166767     1.3001694856     0.0665033989
H       -5.9700620498     0.3503560405     -1.0659259712
H       -6.3641739966     0.6400866313     0.7104138465
H       -4.4695195897     -0.3011579087     0.2322836558
O       -3.2475121903     -0.0400178339     0.5563515245
H       -4.2348582640     1.8867756278     0.9532145209
H       -3.8851127865     1.6229060366     -0.8149663400
H       -2.4702841954     -0.1736880792     0.0033363049
9
# Point 3 Energy = 0.010719550000004574
C       -5.6497388189     0.5968942545     -0.0653656633
C       -4.4299151063     1.2673724140     0.0663479383
H       -6.0041564426     0.3685757218     -1.0623325011
H       -6.3939893214     0.6749345492     0.7143721744
H       -4.4675755592     -0.2945602093     0.2007234639
O       -3.2211265630     -0.0497759687     0.5358437069
H       -4.2244151910     1.8486637668     0.9517508644
H       -3.8973459113     1.5812217924     -0.8203246567
H       -2.3924694836     -0.1301890636     0.0518748366

    This sampling was finished on:   2020-07-28 16:52:12
=------------------------------------------------------------------------------=
Sampling finished.
=------------------------------------------------------------------------------=