9
# Point -2 Energy = 0.03624522999999158
C       -5.5525204637     0.5485861216     -0.0785274676
C       -4.4000118427     1.3834906793     0.0568614127
H       -5.8750935019     0.3403194774     -1.0067257188
H       -6.2481470620     0.5793311854     0.6473732892
H       -4.4671210161     -0.3023855941     0.2878227864
O       -3.2939381124     -0.0122691984     0.5844218335
H       -4.2673636610     1.9174013412     0.8621877112
H       -3.9330939266     1.6757263534     -0.7007997141
H       -2.6434428109     -0.2670631087     -0.0797239691
9
# Point -1 Energy = 0.00804381000000376
C       -5.5492451440     0.5442817602     -0.0756338141
C       -4.4051984156     1.3750292729     0.0610342186
H       -5.8864257649     0.3279098833     -1.0390816291
H       -6.2728471235     0.5733292337     0.6761206561
H       -4.4669888835     -0.3057054650     0.2886088986
O       -3.2934069546     -0.0155370216     0.5856398977
H       -4.2631922653     1.9395798466     0.9084542016
H       -3.9007171287     1.6934221644     -0.7537075755
H       -2.6427107173     -0.2691724174     -0.0785446906
9
# Point 0 Energy = 0
C       -5.5459913399     0.5399390194     -0.0727273173
C       -4.4103806313     1.3664969448     0.0651493997
H       -5.8979436617     0.3154152234     -1.0713515943
H       -6.2976793455     0.5671285746     0.7047627870
H       -4.4668802586     -0.3090502593     0.2894372849
O       -3.2928934464     -0.0188279386     0.5868749696
H       -4.2587769013     1.9618937208     0.9544735056
H       -3.8681805958     1.7114826198     -0.8063863959
H       -2.6420062168     -0.2713406478     -0.0773424760
9
# Point 1 Energy = 0.006447820000005322
C       -5.5427590168     0.5355584332     -0.0698083472
C       -4.4155588296     1.3578949437     0.0692089994
H       -5.9096474820     0.3028326963     -1.1035344409
H       -6.3226426165     0.5607334766     0.7332988712
H       -4.4667952215     -0.3124199796     0.2903069983
O       -3.2923978376     -0.0221421558     0.5881270491
H       -4.2541160563     1.9843467122     1.0002433447
H       -3.8354861718     1.7299002028     -0.8588348275
H       -2.6413291651     -0.2735670723     -0.0761174838
9
# Point 2 Energy = 0.02323043999999186
C       -5.5395482477     0.5311405300     -0.0668771655
C       -4.4207333289     1.3492243189     0.0732150513
H       -5.9215373482     0.2901598986     -1.1356290607
H       -6.3477361381     0.5541478450     0.7617280688
H       -4.4667338428     -0.3158145563     0.2912170162
O       -3.2919204039     -0.0254797223     0.5893961060
H       -4.2492081147     2.0069420237     1.0457615710
H       -3.8026355526     1.7486675086     -0.9110514750
H       -2.6406794205     -0.2758505890     -0.0748699488

    This sampling was finished on:   2020-07-28 16:52:12
=------------------------------------------------------------------------------=
Sampling finished.
=------------------------------------------------------------------------------=