9
# Point -4 Energy = 0.018731750000000602
C       -5.5077980989     0.5722594232     -0.0666712184
C       -4.5061175038     1.5326901626     0.0296553130
H       -5.8315156262     0.2418375120     -1.0449115319
H       -6.2062934248     0.4409558468     0.7478526720
H       -4.6444698460     -0.1061551494     0.1853189968
O       -3.1934957741     -0.2203427953     0.6152576936
H       -4.2972045280     2.0557046119     0.9481160059
H       -3.9768530757     1.8697024633     -0.8477026542
H       -2.5169845198     -0.5235148180     0.0059748865
9
# Point -3 Energy = 0.009453600000000506
C       -5.5206597869     0.5643711340     -0.0685619857
C       -4.4793833778     1.4883271521     0.0374062178
H       -5.8558300170     0.2627554076     -1.0523130473
H       -6.2348110410     0.4739267011     0.7381678723
H       -4.6059996493     -0.1616203788     0.2073035323
O       -3.2137259733     -0.1644165988     0.6108030389
H       -4.2821825797     2.0263702589     0.9507970490
H       -3.9463003274     1.8263432236     -0.8385494133
H       -2.5418396451     -0.4529196425     -0.0121631007
9
# Point -2 Energy = 0.0038655600000083723
C       -5.5312100363     0.5563157052     -0.0701671046
C       -4.4545323745     1.4454929399     0.0458991900
H       -5.8746069154     0.2819882866     -1.0591321365
H       -6.2593655569     0.5062250903     0.7277712214
H       -4.5637548095     -0.2143206451     0.2321110575
O       -3.2373413683     -0.1116539004     0.6044447879
H       -4.2708234864     2.0008059499     0.9527861583
H       -3.9178298436     1.7850008939     -0.8285681789
H       -2.5712680063     -0.3867170632     -0.0322548318
9
# Point -1 Energy = 0.0008874499999933505
C       -5.5395921787     0.5481441902     -0.0715374613
C       -4.4315387345     1.4047197597     0.0551559842
H       -5.8884269960     0.2995108490     -1.0654569892
H       -6.2802151732     0.5374206395     0.7166297772
H       -4.5174504904     -0.2636596653     0.2595853568
O       -3.2639125304     -0.0628519834     0.5963793460
H       -4.2630471913     1.9792645694     0.9540330643
H       -3.8917020900     1.7464609133     -0.8178146949
H       -2.6048470127     -0.3258720154     -0.0540842198
9
# Point 0 Energy = 0
C       -5.5459913399     0.5399390194     -0.0727273173
C       -4.4103806313     1.3664969448     0.0651493997
H       -5.8979436617     0.3154152234     -1.0713515943
H       -6.2976793455     0.5671285746     0.7047627870
H       -4.4668802586     -0.3090502593     0.2894372849
O       -3.2928934464     -0.0188279386     0.5868749696
H       -4.2587769013     1.9618937208     0.9544735056
H       -3.8681805958     1.7114826198     -0.8063863959
H       -2.6420062168     -0.2713406478     -0.0773424760
9
# Point 1 Energy = 0.0009358499999905234
C       -5.5506595545     0.5318148403     -0.0737309694
C       -4.3910422941     1.3312363022     0.0757627579
H       -5.9038073810     0.3300504800     -1.0768566376
H       -6.3122243179     0.5949031470     0.6922481593
H       -4.4119414867     -0.3499450814     0.3212354798
O       -3.3236398338     0.0196059260     0.5763289333
H       -4.2578239739     1.9487062726     0.9539830512
H       -3.8475677355     1.6807196236     -0.7944969072
H       -2.6820258199     -0.2239542532     -0.1015837039
9
# Point 2 Energy = 0.0037095300000089537
C       -5.5538562108     0.5239006911     -0.0746839687
C       -4.3735125053     1.2992594805     0.0869005223
H       -5.9068719388     0.3436045542     -1.0820111704
H       -6.3241841346     0.6206570544     0.6791981689
H       -4.3526221416     -0.3858213794     0.3544284143
O       -3.3553473950     0.0517385505     0.5651163694
H       -4.2602156702     1.9395942850     0.9525405650
H       -3.8300979005     1.6547744940     -0.7822665349
H       -2.7240245006     -0.1845704730     -0.1263322027
9
# Point 3 Energy = 0.008957969999954685
C       -5.5558976431     0.5163646314     -0.0756653856
C       -4.3578070474     1.2708223429     0.0983824053
H       -5.9079550422     0.3564656699     -1.0868401253
H       -6.3340053289     0.6442484386     0.6657653599
H       -4.2890559627     -0.4162530821     0.3883543460
O       -3.3871226947     0.0769035070     0.5537264478
H       -4.2658684828     1.9343609223     0.9500708928
H       -3.8160393023     1.6341166216     -0.7699122392
H       -2.7669808931     -0.1538917945     -0.1509915384
9
# Point 4 Energy = 0.01819018999998434
C       -5.5571429991     0.5093946710     -0.0767651741
C       -4.3439591805     1.2460745436     0.1099894239
H       -5.9079032471     0.3690806231     -1.0913671759
H       -6.3421610972     0.6656440832     0.6521232805
H       -4.2215205020     -0.4409220921     0.4222713340
O       -3.4179753876     0.0945628084     0.5426960609
H       -4.2746834792     1.9327044919     0.9465078531
H       -3.8056462866     1.6190541909     -0.7576666875
H       -2.8097402178     -0.1324560630     -0.1748987516

    This sampling was finished on:   2020-07-28 16:52:12
=------------------------------------------------------------------------------=
Sampling finished.
=------------------------------------------------------------------------------=