9
# Point 0 Energy = 0
C       -5.5459913399     0.5399390194     -0.0727273173
C       -4.4103806313     1.3664969448     0.0651493997
H       -5.8979436617     0.3154152234     -1.0713515943
H       -6.2976793455     0.5671285746     0.7047627870
H       -4.4668802586     -0.3090502593     0.2894372849
O       -3.2928934464     -0.0188279386     0.5868749696
H       -4.2587769013     1.9618937208     0.9544735056
H       -3.8681805958     1.7114826198     -0.8063863959
H       -2.6420062168     -0.2713406478     -0.0773424760
9
# Point 1 Energy = 0.0009146100000236856
C       -5.5445354282     0.5381634076     -0.0726015813
C       -4.3979057692     1.3491648026     0.0664553742
H       -5.8928679694     0.3105478014     -1.0717949535
H       -6.3010709578     0.5827570569     0.6993636969
H       -4.4804997172     -0.3234658245     0.3040279344
O       -3.3044573625     -0.0479646809     0.6072880650
H       -4.2437080116     1.9496221094     0.9519227375
H       -3.8447289770     1.6789745728     -0.8040568828
H       -2.6709582043     -0.1746619882     -0.1077142272
9
# Point 2 Energy = 0.0038074500000107037
C       -5.5429185634     0.5363783813     -0.0725173899
C       -4.3847410680     1.3308594280     0.0662069064
H       -5.8904429089     0.3074948183     -1.0717025390
H       -6.3019386401     0.5974651767     0.6958717814
H       -4.4936428607     -0.3387362913     0.3142920335
O       -3.3148535569     -0.0790489110     0.6208233509
H       -4.2252049887     1.9347202990     0.9484079407
H       -3.8229723958     1.6465504823     -0.8040377458
H       -2.7040174148     -0.0725461261     -0.1244541748
9
# Point 3 Energy = 0.008769989999990457
C       -5.5411931364     0.5346520836     -0.0724607110
C       -4.3712219588     1.3120348009     0.0641527181
H       -5.8907799250     0.3062920313     -1.0710460014
H       -6.3002603157     0.6110032120     0.6945155041
H       -4.5059312161     -0.3544932099     0.3200697002
O       -3.3237440386     -0.1113429860     0.6270789067
H       -4.2037171792     1.9176286303     0.9436847753
H       -3.8034923993     1.6149318063     -0.8067704638
H       -2.7403922282     0.0324308888     -0.1263342650
9
# Point 4 Energy = 0.01567993000000456
C       -5.5394149765     0.5330450598     -0.0724149537
C       -4.3577091891     1.2932022054     0.0600698401
H       -5.8939119973     0.3069025870     -1.0697730953
H       -6.2960794423     0.6231204710     0.6954459051
H       -4.5170063034     -0.3703268921     0.3213188928
O       -3.3308379023     -0.1440017973     0.6258261712
H       -4.1797976877     1.8989018033     0.9374830107
H       -3.7868315200     1.5848830917     -0.8126223078
H       -2.7791433786     0.1374107282     -0.1124432999
9
# Point 5 Energy = 0.024224290000034898
C       -5.5376410616     0.5316071926     -0.0723644279
C       -4.3445810468     1.2749204138     0.0537820375
H       -5.8997836079     0.3091981042     -1.0678134683
H       -6.2895078658     0.6335829852     0.6987141922
H       -4.5265434932     -0.3857914957     0.3181327860
O       -3.3359076001     -0.1760819071     0.6170496062
H       -4.1540974458     1.8792144926     0.9295234612
H       -3.7734745648     1.5571813403     -0.8218530424
H       -2.8191957114     0.2393061312     -0.0822809814
9
# Point 6 Energy = 0.033846939999989445
C       -5.5359271409     0.5303758367     -0.0722984106
C       -4.3322228747     1.2577784188     0.0451800886
H       -5.9082426662     0.3129443115     -1.0650906848
H       -6.2807281960     0.6421965262     0.7042532706
H       -4.5342656932     -0.4004146288     0.3107553372
O       -3.3388030640     -0.2065633419     0.6009862586
H       -4.1273542438     1.8593568997     0.9195430296
H       -3.7638272880     1.5325745866     -0.8345836073
H       -2.8593612306     0.3348886483     -0.0358551186
9
# Point 7 Energy = 0.04373014000000808
C       -5.5343254903     0.5293755841     -0.0722151618
C       -4.3210135849     1.2423698823     0.0342415224
H       -5.9190361680     0.3177953288     -1.0615398347
H       -6.2699951352     0.6488330783     0.7118671505
H       -4.5399558858     -0.4137125783     0.2995919493
O       -3.3394618151     -0.2343868255     0.5781587593
H       -4.1003752110     1.8402161207     0.9073262607
H       -3.7581932618     1.5117314775     -0.8507716145
H       -2.8983758453     0.4209151894     0.0262311322
9
# Point 8 Energy = 0.05285245000001737
C       -5.5328830297     0.5286198272     -0.0721249965
C       -4.3113093402     1.2292598705     0.0210464886
H       -5.9318115344     0.3233004391     -1.0571284561
H       -6.2576348202     0.6534571641     0.7212320942
H       -4.5434673704     -0.4252114072     0.2852114692
O       -3.3379132638     -0.2585068539     0.5493934046
H       -4.0740116431     1.8227404529     0.8927396562
H       -3.7567507052     1.4951863513     -0.8701989684
H       -2.9349506902     0.4942914131     0.1027194715
9
# Point 9 Energy = 0.06007624000000078
C       -5.5316399769     0.5281138751     -0.0720514639
C       -4.3034252517     1.2189464058     0.0057860459
H       -5.9461252804     0.3289257125     -1.0518768706
H       -6.2440409401     0.6561469440     0.7319120881
H       -4.5447306043     -0.4344727831     0.2683358680
O       -3.3342759974     -0.2779573101     0.5158146720
H       -4.0491260595     1.8078865079     0.8757629733
H       -3.7595320144     1.4832870532     -0.8924760572
H       -2.9678362725     0.5522608518     0.1916829077
9
# Point 10 Energy = 0.0642913300000032
C       -5.5306291013     0.5278589100     -0.0720299350
C       -4.2976166970     1.2118214106     -0.0112402706
H       -5.9614597846     0.3340900798     -1.0458730338
H       -6.2296663438     0.6571045111     0.7433886693
H       -4.5437558558     -0.4411217923     0.2498152389
O       -3.3287479746     -0.2919220990     0.4788097955
H       -4.0265528630     1.7965529866     0.8565107069
H       -3.7664094013     1.4761544414     -0.9170644783
H       -2.9958943758     0.5925988090     0.2905734703
9
# Point 11 Energy = 0.06469600999997738
C       -5.5298755009     0.5278557354     -0.0721034487
C       -4.2940624783     1.2081370164     -0.0296390329
H       -5.9772475431     0.3382119519     -1.0392773264
H       -6.2150092365     0.6566509613     0.7551018136
H       -4.5406314443     -0.4448727264     0.2305882365
O       -3.3215909582     -0.2998000294     0.4399620957
H       -4.0070556902     1.7895092054     0.8352377552
H       -3.7770900069     1.4736621576     -0.9433164928
H       -3.0181695390     0.6137829851     0.3963365633
9
# Point 12 Energy = 0.06120509999999513
C       -5.5293967101     0.5281072354     -0.0723164090
C       -4.2928522179     1.2079832067     -0.0489485445
H       -5.9929007461     0.3407593670     -1.0323146398
H       -6.2005939045     0.6552047201     0.7664955768
H       -4.5355179922     -0.4455485250     0.2116312530
O       -3.3131117507     -0.3012524920     0.4009585951
H       -3.9912859355     1.7873293983     0.8123261763
H       -3.7911228765     1.4754422055     -0.9705254481
H       -3.0339502638     0.6151121412     0.5055836034
9
# Point 13 Energy = 0.054448269999994636
C       -5.5292029078     0.5286188078     -0.0727073678
C       -4.2939799752     1.2112810199     -0.0686718194
H       -6.0078428054     0.3412951855     -1.0252542314
H       -6.1869470647     0.6532455432     0.7770607139
H       -4.5286396405     -0.4430905515     0.1939024399
O       -3.3036433455     -0.2962252134     0.3634838558
H       -3.9797474388     1.7903440211     0.7882542747
H       -3.8079183552     1.4809167433     -0.9979787201
H       -3.0428108640     0.5967517010     0.6148010178
9
# Point 14 Energy = 0.04550968000003763
C       -5.5292970448     0.5293966558     -0.0733024360
C       -4.2973450886     1.2177924565     -0.0883115634
H       -6.0215380482     0.3395097861     -1.0183810516
H       -6.1745720222     0.6512702055     0.7863672875
H       -4.5202734050     -0.4375574470     0.1782880602
O       -3.2935287359     -0.2849409146     0.3291155040
H       -3.9727716253     1.7986162641     0.7635535366
H       -3.8267782698     1.4893508539     -1.0250044391
H       -3.0446281574     0.5596993967     0.7205652650
9
# Point 15 Energy = 0.035553059999983816
C       -5.5296748307     0.5304444731     -0.0741106738
C       -4.3027599937     1.2271448154     -0.1074016696
H       -6.0335163232     0.3352367814     -1.0119643542
H       -6.1639234564     0.6497477884     0.7940830786
H       -4.5107377517     -0.4291142077     0.1655580294
O       -3.2831089710     -0.2678661189     0.2992361421
H       -3.9705056165     1.8119466288     0.7387615800
H       -3.8469333985     1.4999168829     -1.0510054804
H       -3.0395720556     0.5056802137     0.8197335111
9
# Point 16 Energy = 0.025714599999986376
C       -5.5303246408     0.5317594921     -0.0751222454
C       -4.3099636342     1.2388646007     -0.1255311110
H       -6.0433905195     0.3284512999     -1.0062296514
H       -6.1553855934     0.6490820296     0.7999773030
H       -4.5003811456     -0.4180144793     0.1563351379
O       -3.2727156306     -0.2456603316     0.2749717174
H       -3.9729135613     1.8299026185     0.7143794122
H       -3.8675837651     1.5117595750     -1.0754779631
H       -3.0280739066     0.4369924523     0.9095875638
9
# Point 17 Energy = 0.01691496000000825
C       -5.5312274817     0.5333289399     -0.0763093902
C       -4.3186383929     1.2524151061     -0.1423583239
H       -6.0508664936     0.3192539259     -1.0013385812
H       -6.1492558197     0.6495858045     0.8039123471
H       -4.4895709636     -0.4045797974     0.1510793054
O       -3.2626667338     -0.2191178609     0.2571598777
H       -3.9797893858     1.8518662543     0.6908391608
H       -3.8879374286     1.5240527904     -1.0980153153
H       -3.0107796975     0.3563320943     0.9879210829
9
# Point 18 Energy = 0.009801640000006273
C       -5.5323571617     0.5351277074     -0.0776296628
C       -4.3284283390     1.2672323367     -0.1576163878
H       -6.0557461660     0.3078454378     -0.9973788344
H       -6.1457347338     0.6514695529     0.8058280447
H       -4.4786828858     -0.3891791091     0.1500853995
O       -3.2532645378     -0.1891115726     0.2463457759
H       -3.9907778648     1.8770903178     0.6684851661
H       -3.9072444421     1.5360420256     -1.1183016191
H       -2.9884962663     0.2666205606     1.0530722811
9
# Point 19 Energy = 0.004722810000004074
C       -5.5336807641     0.5371176289     -0.0790305606
C       -4.3389569334     1.2827555175     -0.1711108637
H       -6.0579252945     0.2944978187     -0.9943638979
H       -6.1449225826     0.6548425230     0.8057232359
H       -4.4680907568     -0.3722108081     0.1534913745
O       -3.2447937282     -0.1565449518     0.2427988491
H       -4.0054005434     1.9047548584     0.6475681526
H       -3.9248240663     1.5470708341     -1.1360989565
H       -2.9621377280     0.1708538363     1.1039128300
9
# Point 20 Energy = 0.0017896599999858154
C       -5.5351594526     0.5392483664     -0.0804546244
C       -4.3498429121     1.2984503380     -0.1827128264
H       -6.0573876398     0.2795260655     -0.9922407097
H       -6.1468212528     0.6597238048     0.8036384153
H       -4.4581568941     -0.3540882570     0.1612929435
O       -3.2375189378     -0.1223153916     0.2465427257
H       -4.0230834184     1.9340177082     0.6282500140
H       -3.9400846688     1.5565923861     -1.1512330907
H       -2.9326772209     0.0719822366     1.1398073160
9
# Point 21 Energy = 0.0009004099999856408
C       -5.5367495720     0.5414596053     -0.0818442675
C       -4.3607136896     1.3138247125     -0.1923495572
H       -6.0541970438     0.2632637861     -0.9909025816
H       -6.1513405867     0.6660594097     0.7996418444
H       -4.4492228731     -0.3352287531     0.1733613783
O       -3.2316810980     -0.0872887608     0.2573910939
H       -4.0431840795     1.9640554484     0.6106157683
H       -3.9525367396     1.5641692744     -1.1635806396
H       -2.9011067149     -0.0271774653     1.1605571243
9
# Point 22 Energy = 0.0017799499999853197
C       -5.5384039682     0.5436841322     -0.0831458507
C       -4.3712161225     1.3284379264     -0.1999948558
H       -6.0484885560     0.2460440444     -0.9902047848
H       -6.1583077302     0.6737418830     0.7938201117
H       -4.4416008790     -0.3160453064     0.1894619190
O       -3.2274926163     -0.0522835160     0.2749841449
H       -4.0650168937     1.9940936594     0.5946892667
H       -3.9618000105     1.5694653259     -1.1730595388
H       -2.8684056210     -0.1240008919     1.1663397512
9
# Point 23 Energy = 0.004025130000002264
C       -5.5400734378     0.5458513541     -0.0843127777
C       -4.3810248023     1.3419045689     -0.2056602717
H       -6.0404593255     0.2281857383     -0.9899806740
H       -6.1674783699     0.6826296714     0.7862730797
H       -4.4355657607     -0.2969403953     0.2092712454
O       -3.2251317053     -0.0180618846     0.2988222403
H       -4.0878755643     2.0234269716     0.5804498453
H       -3.9676058521     1.5722329610     -1.1796234336
H       -2.8355175796     -0.2160917284     1.1576509095
9
# Point 24 Energy = 0.00715024999999514
C       -5.5417082240     0.5478908869     -0.0853075784
C       -4.3898482114     1.3538947601     -0.2093879647
H       -6.0303596374     0.2099850628     -0.9900568634
H       -6.1785489694     0.6925643676     0.7771125286
H       -4.4313479444     -0.2783009379     0.2323932843
O       -3.2247363550     0.0146743199     0.3282952002
H       -4.1110529219     2.0514303835     0.5678479183
H       -3.9697960609     1.5722989741     -1.1832598390
H       -2.8033340730     -0.3013005601     1.1352534773
9
# Point 25 Energy = 0.010607720000024301
C       -5.5432594919     0.5497359451     -0.0861030759
C       -4.3974331235     1.3641320367     -0.2112454510
H       -6.0184842344     0.1917112544     -0.9902665475
H       -6.1911693665     0.7033847741     0.7664635337
H       -4.4291273704     -0.2604939187     0.2583731991
O       -3.2263984760     0.0452852567     0.3627068438
H       -4.1338581059     2.0775636824     0.5568182665
H       -3.9683189660     1.5695508188     -1.1839914616
H       -2.7726832627     -0.3777325924     1.1001348563
9
# Point 26 Energy = 0.013828560000007428
C       -5.5446807370     0.5513263606     -0.0866827821
C       -4.4035676028     1.3723900030     -0.2113222007
H       -6.0051639398     0.1736057218     -0.9904604967
H       -6.2049553032     0.7149373663     0.7544675778
H       -4.4290286027     -0.2438623372     0.2867097330
O       -3.2301587029     0.0731934219     0.4012951422
H       -4.1556314204     2.1013707977     0.5472903668
H       -3.9632235757     1.5639247511     -1.1818798835
H       -2.7443225128     -0.4437488282     1.0534727065
9
# Point 27 Energy = 0.01626550000000293
C       -5.5459290992     0.5526111455     -0.0870406829
C       -4.4080829000     1.3784885881     -0.2097278923
H       -5.9907575409     0.1558837066     -0.9905155387
H       -6.2195006114     0.7270831734     0.7412864997
H       -4.4311172412     -0.2287213402     0.3168662227
O       -3.2360022637     0.0978837324     0.4432486743
H       -4.1757571641     2.1224757298     0.5391955100
H       -3.9546523004     1.5553966035     -1.1770307833
H       -2.7189332764     -0.4979640820     0.9966081538
9
# Point 28 Energy = 0.01750022999999601
C       -5.5469665657     0.5535505638     -0.0871805496
C       -4.4108544797     1.3822905079     -0.2065920547
H       -5.9756438948     0.1387377142     -0.9903404833
H       -6.2343888656     0.7397013666     0.7271065325
H       -4.4353977362     -0.2153545246     0.3482806109
O       -3.2438562270     0.1189038431     0.4877201409
H       -4.1936746897     2.1405764426     0.5324707013
H       -3.9428326504     1.5439755349     -1.1695999243
H       -2.6971172882     -0.5392441914     0.9310251897
9
# Point 29 Energy = 0.017305569999990666
C       -5.5477610561     0.5541177145     -0.0871148870
C       -4.4118023580     1.3836983474     -0.2020648073
H       -5.9602142282     0.1223420386     -0.9898795102
H       -6.2492043715     0.7526899846     0.7121418433
H       -4.4418126663     -0.2040104567     0.3803747444
O       -3.2535883435     0.1358649769     0.5338376233
H       -4.2088878931     2.1554378653     0.5270594713
H       -3.9280682145     1.5297008087     -1.1597992158
H       -2.6793932662     -0.5667040223     0.8583349014
9
# Point 30 Energy = 0.015715839999984382
C       -5.5482873831     0.5542996312     -0.0868635925
C       -4.4108908932     1.3826525409     -0.1963184070
H       -5.9448646278     0.1068577712     -0.9891130532
H       -6.2635423811     0.7659642772     0.6966371142
H       -4.4502435050     -0.1948994502     0.4125631774
O       -3.2650076139     0.1484434355     0.5807141572
H       -4.2209732793     2.1668849450     0.5229097998
H       -3.9107291676     1.5126414541     -1.1479022279
H       -2.6661935463     -0.5797073476     0.7802631952
9
# Point 31 Energy = 0.013001430000002756
C       -5.5485280808     0.5540979023     -0.0864523831
C       -4.4081281384     1.3791304287     -0.1895493100
H       -5.9299887173     0.0924377021     -0.9880562100
H       -6.2770184500     0.7794531471     0.6808687932
H       -4.4605128614     -0.1881906007     0.4442616461
O       -3.2778666519     0.1563829681     0.6274560944
H       -4.2295867303     2.1747965347     0.5199693935
H       -3.8912425146     1.4928985361     -1.1342485781
H       -2.6578602526     -0.5778693613     0.6986407172
9
# Point 32 Energy = 0.009610049999992043
C       -5.5484740856     0.5535287946     -0.0859110304
C       -4.4035648503     1.3731465013     -0.1819804455
H       -5.9159705080     0.0792305208     -0.9867547157
H       -6.2892768616     0.7930941408     0.6651446826
H       -4.4723881540     -0.1840089936     0.4748953526
O       -3.2918658639     0.1594982390     0.6731706933
H       -4.2344690872     2.1791007840     0.5181786038
H       -3.8700822406     1.4706096672     -1.1192466158
H       -2.6546407462     -0.5610623971     0.6153936384
9
# Point 33 Energy = 0.006079800000009072
C       -5.5481252443     0.5526228443     -0.0852714524
C       -4.3972932275     1.3647538795     -0.1738633565
H       -5.9031773705     0.0673836942     -0.9852785486
H       -6.2999980717     0.8068274062     0.6498015263
H       -4.4855866650     -0.1824329306     0.5039072095
O       -3.3066594509     0.1576797267     0.7169734223
H       -4.2354506692     2.1797726092     0.5174613384
H       -3.8477594885     1.4459553032     -1.1033737846
H       -2.6566822097     -0.5294252755     0.5325338090
9
# Point 34 Energy = 0.00296251999998276
C       -5.5474906155     0.5514238579     -0.0845657295
C       -4.3894454318     1.3540470202     -0.1654797980
H       -5.8919530342     0.0570443677     -0.9837133148
H       -6.3089051491     0.8205890290     0.6352002121
H       -4.4997819194     -0.1834909498     0.5307662409
O       -3.3218632388     0.1509004507     0.7579955966
H       -4.2324548580     2.1768337388     0.5177144296
H       -3.8248128201     1.4191662657     -1.0871739638
H       -2.6640253304     -0.4833765232     0.4521464902
9
# Point 35 Energy = 0.0007751199999859182
C       -5.5465885161     0.5499872589     -0.0838241468
C       -4.3801919112     1.3411655484     -0.1571422820
H       -5.8826104630     0.0483576186     -0.9821496856
H       -6.3157692210     0.8343041912     0.6217181391
H       -4.5146113588     -0.1871583952     0.5549764104
O       -3.3370643629     0.1392249005     0.7953931810
H       -4.2255008720     2.1703557309     0.5187961034
H       -3.8017985272     1.3905317815     -1.0712509768
H       -2.6765971650     -0.4236313777     0.3763734206
9
# Point 36 Energy = -3.8429999960953865e-05
C       -5.5454462587     0.5483777227     -0.0830734125
C       -4.3697394928     1.3262989815     -0.1491929294
H       -5.8754244236     0.0414614208     -0.9806713693
H       -6.3204139680     0.8478806945     0.6097382584
H       -4.5296853039     -0.1933533383     0.5760862314
O       -3.3518328442     0.1228203811     0.8283578490
H       -4.2147058155     2.1604662050     0.5205144539
H       -3.7792808530     1.3604071082     -1.0562573526
H       -2.6942034376     -0.3512219185     0.3073884346

    This sampling was finished on:   2020-07-28 16:52:12
=------------------------------------------------------------------------------=
Sampling finished.
=------------------------------------------------------------------------------=