9
# Point -2 Energy = 0.0329637499999933
C       -5.5546916813     0.5471849378     -0.0277644044
C       -4.4178017121     1.3740338265     0.1181409221
H       -5.9348352673     0.3204789715     -1.1019283755
H       -6.2438062240     0.5622698855     0.6895457356
H       -4.4716188793     -0.3070552452     0.3110773981
O       -3.2959293781     -0.0200718430     0.6050559080
H       -4.2784379176     1.8860984747     0.8920953779
H       -3.8337729007     1.7592511230     -0.8456823953
H       -2.6498384368     -0.2590528738     -0.0676500034
9
# Point -1 Energy = 0.007747680000022683
C       -5.5504203377     0.5436524844     -0.0502783186
C       -4.4141871263     1.3703900523     0.0916055777
H       -5.9164205305     0.3177730786     -1.0866558505
H       -6.2707789905     0.5645705632     0.6971887579
H       -4.4692996366     -0.3080014936     0.3002501764
O       -3.2944620989     -0.0193921929     0.5959651661
H       -4.2684205081     1.9239502324     0.9233239033
H       -3.8507832676     1.7353491859     -0.8259792907
H       -2.6459599010     -0.2651546532     -0.0725299581
9
# Point 0 Energy = 0
C       -5.5459913399     0.5399390194     -0.0727273173
C       -4.4103806313     1.3664969448     0.0651493997
H       -5.8979436617     0.3154152234     -1.0713515943
H       -6.2976793455     0.5671285746     0.7047627870
H       -4.4668802586     -0.3090502593     0.2894372849
O       -3.2928934464     -0.0188279386     0.5868749696
H       -4.2587769013     1.9618937208     0.9544735056
H       -3.8681805958     1.7114826198     -0.8063863959
H       -2.6420062168     -0.2713406478     -0.0773424760
9
# Point 1 Energy = 0.007180939999983593
C       -5.5414062703     0.5360464487     -0.0951072444
C       -4.4063835076     1.3623560746     0.0387775385
H       -5.8794076659     0.3134059491     -1.0560164960
H       -6.3245060195     0.5699428735     0.7122696696
H       -4.4643606445     -0.3102011029     0.2786368269
O       -3.2912226375     -0.0183792064     0.5777817557
H       -4.2495017134     1.9999218288     0.9855481836
H       -3.8859653955     1.6876525781     -0.7869059888
H       -2.6379785432     -0.2776081864     -0.0820940819
9
# Point 2 Energy = 0.02831391000000849
C       -5.5366667139     0.5319764595     -0.1174139492
C       -4.4021979845     1.3579701409     0.0124948173
H       -5.8608140513     0.3117456601     -1.0406519765
H       -6.3512568940     0.5730126419     0.7197121330
H       -4.4617407661     -0.3114541822     0.2678469771
O       -3.2894489191     -0.0180469778     0.5686821708
H       -4.2405901344     2.0380282877     1.0165519720
H       -3.9041389225     1.6638608030     -0.7675408040
H       -2.6338780116     -0.2839555760     -0.0867911771

    This sampling was finished on:   2020-07-28 16:52:12
=------------------------------------------------------------------------------=
Sampling finished.
=------------------------------------------------------------------------------=