9
# Point -2 Energy = 0.010888160000007474
C       -5.5489801489     0.5507300894     -0.0912504070
C       -4.4320793806     1.4059882189     0.0247541527
H       -5.9556566620     0.4504898025     -1.0887869782
H       -6.2520298803     0.4095024829     0.7203304208
H       -4.4896473795     -0.2918478066     0.4333317201
O       -3.2771881674     -0.0144017135     0.4983477591
H       -4.3294392794     2.0130022144     0.9143015411
H       -3.8303039252     1.7356658798     -0.8120086869
H       -2.5654075739     -0.3959919105     -0.0261293584
9
# Point -1 Energy = 0.0028928200000279958
C       -5.5489383770     0.5458582519     -0.0822600662
C       -4.4209012374     1.3845088036     0.0454220269
H       -5.9282015054     0.3841980009     -1.0827838554
H       -6.2784891270     0.4892178883     0.7153134428
H       -4.4797502744     -0.3041810332     0.3603321734
O       -3.2839688492     -0.0076306654     0.5427236268
H       -4.2925727188     1.9852790820     0.9353341712
H       -3.8475409126     1.7204010659     -0.8091047815
H       -2.6003693955     -0.3345141369     -0.0520865748
9
# Point 0 Energy = 0
C       -5.5459913399     0.5399390194     -0.0727273173
C       -4.4103806313     1.3664969448     0.0651493997
H       -5.8979436617     0.3154152234     -1.0713515943
H       -6.2976793455     0.5671285746     0.7047627870
H       -4.4668802586     -0.3090502593     0.2894372849
O       -3.2928934464     -0.0188279386     0.5868749696
H       -4.2587769013     1.9618937208     0.9544735056
H       -3.8681805958     1.7114826198     -0.8063863959
H       -2.6420062168     -0.2713406478     -0.0773424760
9
# Point 1 Energy = 0.003146829999991496
C       -5.5404951503     0.5332434778     -0.0623580212
C       -4.4003152926     1.3517744915     0.0843763933
H       -5.8645288011     0.2442863761     -1.0540975657
H       -6.3110607658     0.6428507979     0.6880882830
H       -4.4517397532     -0.3066282271     0.2221829672
O       -3.3028955432     -0.0469951936     0.6265740045
H       -4.2278937594     1.9433495739     0.9719180110
H       -3.8914465435     1.7074686340     -0.8032575815
H       -2.6903567882     -0.2062126733     -0.1005363272
9
# Point 2 Energy = 0.012681299999997009
C       -5.5324782214     0.5259944629     -0.0507539387
C       -4.3908078047     1.3408992626     0.1034128738
H       -5.8269909048     0.1713715036     -1.0305783126
H       -6.3195759098     0.7157376213     0.6648717179
H       -4.4350838662     -0.2979895869     0.1597757222
O       -3.3127758888     -0.0911196776     0.6580279976
H       -4.2002729606     1.9309096735     0.9877470735
H       -3.9172890774     1.7080049907     -0.7994506970
H       -2.7454577635     -0.1406709930     -0.1201622735

    This sampling was finished on:   2020-07-28 16:52:12
=------------------------------------------------------------------------------=
Sampling finished.
=------------------------------------------------------------------------------=