9
# Point -3 Energy = 0.01727800999998408
C       -5.5583370361     0.5435550303     -0.0017365810
C       -4.4205731455     1.3657560209     0.1650724930
H       -5.7107559053     0.5278950672     -1.0763046438
H       -6.4302167991     0.3686255583     0.6089860751
H       -4.4642326163     -0.3008262210     0.3121708759
O       -3.2909247158     -0.0075432446     0.6225150944
H       -4.0429154729     2.0797530054     0.8837871695
H       -4.0762373867     1.5223556213     -0.8493856977
H       -2.6865393195     -0.2364335807     -0.0922146221
9
# Point -2 Energy = 0.007413200000002007
C       -5.5530966629     0.5423477230     -0.0244398220
C       -4.4170147014     1.3674237722     0.1328399710
H       -5.7726795825     0.4550409459     -1.0827962050
H       -6.3903261701     0.4315738191     0.6483900807
H       -4.4651219204     -0.3057758199     0.3044867209
O       -3.2911616364     -0.0154233316     0.6107731182
H       -4.1161417341     2.0510466218     0.9144450917
H       -4.0038847002     1.5896340012     -0.8430085843
H       -2.6713052894     -0.2527304747     -0.0878002078
9
# Point -1 Energy = 0.0018113699999844357
C       -5.5489612719     0.5411425905     -0.0481959465
C       -4.4136169888     1.3677038128     0.0993979916
H       -5.8352253294     0.3838933480     -1.0811863212
H       -6.3460304297     0.4979365637     0.6804381019
H       -4.4659990663     -0.3085020135     0.2969229407
O       -3.2918257357     -0.0191419416     0.5989287759
H       -4.1881852679     2.0114359276     0.9380661845
H       -3.9344372294     1.6530902913     -0.8287149999
H       -2.6564510782     -0.2644213217     -0.0827665637
9
# Point 0 Energy = 0
C       -5.5459913399     0.5399390194     -0.0727273173
C       -4.4103806313     1.3664969448     0.0651493997
H       -5.8979436617     0.3154152234     -1.0713515943
H       -6.2976793455     0.5671285746     0.7047627870
H       -4.4668802586     -0.3090502593     0.2894372849
O       -3.2928934464     -0.0188279386     0.5868749696
H       -4.2587769013     1.9618937208     0.9544735056
H       -3.8681805958     1.7114826198     -0.8063863959
H       -2.6420062168     -0.2713406478     -0.0773424760
9
# Point 1 Energy = 0.0018149100000073304
C       -5.5438264852     0.5387462105     -0.0976786641
C       -4.4074780879     1.3645535095     0.0303880939
H       -5.9600273595     0.2504705876     -1.0531869954
H       -6.2452493920     0.6382510062     0.7211883105
H       -4.4677381742     -0.3079634911     0.2820075605
O       -3.2942061524     -0.0156328708     0.5746410129
H       -4.3283051102     1.9043841823     0.9633920707
H       -3.8059760877     1.7648690391     -0.7762293448
H       -2.6279255482     -0.2745409163     -0.0716318809
9
# Point 2 Energy = 0.007457170000009228
C       -5.5428204076     0.5375931146     -0.1228225851
C       -4.4046821654     1.3610542428     -0.0043845717
H       -6.0213030487     0.1900405638     -1.0269111876
H       -6.1893974821     0.7108028917     0.7295566296
H       -4.4685802460     -0.3048365960     0.2746509847
O       -3.2958333638     -0.0087716249     0.5620657625
H       -4.3961963490     1.8389895775     0.9648890322
H       -3.7476457321     1.8111555347     -0.7382231538
H       -2.6142736025     -0.2728904471     -0.0659307474
9
# Point 3 Energy = 0.017416260000004513
C       -5.5429198866     0.5365118351     -0.1478287119
C       -4.4019513690     1.3560198692     -0.0387368150
H       -6.0812470731     0.1349684124     -0.9927404596
H       -6.1304168785     0.7839891105     0.7298919783
H       -4.4693657808     -0.2997722035     0.2673787636
O       -3.2976999377     0.0015053961     0.5490847714
H       -4.4626013025     1.7669036997     0.9589029840
H       -3.6934896998     1.8494591440     -0.6925908535
H       -2.6010404691     -0.2664480065     -0.0604714939

    This sampling was finished on:   2020-07-28 16:52:12
=------------------------------------------------------------------------------=
Sampling finished.
=------------------------------------------------------------------------------=