                  Welcome to Q-Chem
     A Quantum Leap Into The Future Of Chemistry


 Q-Chem 5.3 (devel), Q-Chem, Inc., Pleasanton, CA (2020)

 Yihan Shao,  Zhengting Gan,  E. Epifanovsky,  A. T. B. Gilbert,  M. Wormit,  
 J. Kussmann,  A. W. Lange,  A. Behn,  Jia Deng,  Xintian Feng,  D. Ghosh,  
 M. Goldey,  P. R. Horn,  L. D. Jacobson,  I. Kaliman,  T. Kus,  A. Landau,  
 Jie Liu,  E. I. Proynov,  R. M. Richard,  R. P. Steele,  E. J. Sundstrom,  
 H. L. Woodcock III,  P. M. Zimmerman,  D. Zuev,  B. Alam,  B. Albrecht,  
 E. Alguire,  S. A. Baeppler,  D. Barton,  Z. Benda,  Y. A. Bernard,  
 E. J. Berquist,  K. B. Bravaya,  H. Burton,  K. Carter-Fenk,  D. Casanova,  
 Chun-Min Chang,  Yunqing Chen,  A. Chien,  K. D. Closser,  M. P. Coons,  
 S. Coriani,  S. Dasgupta,  A. L. Dempwolff,  M. Diedenhofen,  Hainam Do,  
 R. G. Edgar,  Po-Tung Fang,  S. Faraji,  S. Fatehi,  Qingguo Feng,  
 J. Fosso-Tande,  J. Gayvert,  Qinghui Ge,  A. Ghysels,  G. Gidofalvi,  
 J. Gomes,  J. Gonthier,  A. Gunina,  D. Hait,  M. W. D. Hanson-Heine,  
 P. H. P. Harbach,  A. W. Hauser,  M. F. Herbst,  J. E. Herr,  
 E. G. Hohenstein,  Z. C. Holden,  Kerwin Hui,  B. C. Huynh,  T.-C. Jagau,  
 Hyunjun Ji,  B. Kaduk,  K. Khistyaev,  Jaehoon Kim,  P. Klunzinger,  K. Koh,  
 D. Kosenkov,  L. Koulias,  T. Kowalczyk,  C. M. Krauter,  A. Kunitsa,  
 Ka Un Lao,  A. Laurent,  K. V. Lawler,  Joonho Lee,  D. Lefrancois,  
 S. Lehtola,  D. S. Levine,  Yi-Pei Li,  You-Sheng Lin,  Fenglai Liu,  
 Kuan-Yu Liu,  E. Livshits,  M. Loipersberger,  A. Luenser,  P. Manohar,  
 E. Mansoor,  S. F. Manzer,  Shan-Ping Mao,  Yuezhi Mao,  N. Mardirossian,  
 A. V. Marenich,  T. Markovich,  L. A. Martinez-Martinez,  S. A. Maurer,  
 N. J. Mayhall,  S. C. McKenzie,  J.-M. Mewes,  P. Morgante,  A. F. Morrison,  
 J. W. Mullinax,  K. Nanda,  T. S. Nguyen-Beck,  R. Olivares-Amaya,  
 K. J. Oosterbaan,  J. A. Parkhill,  S. K. Paul,  F. Pavosevic,  Zheng Pei,  
 T. M. Perrine,  F. Plasser,  P. Pokhilko,  S. Prager,  A. Prociuk,  
 E. Ramos,  B. Rana,  D. R. Rehn,  F. Rob,  M. Scheurer,  M. Schneider,  
 N. Sergueev,  S. M. Sharada,  S. Sharma,  D. W. Small,  T. Stauch,  
 C. J. Stein,  T. Stein,  Yu-Chuan Su,  S. P. Veccham,  Zhen Tao,  
 A. J. W. Thom,  A. Tkatchenko,  T. Tsuchimochi,  N. M. Tubman,  L. Vogt,  
 M. L. Vidal,  O. Vydrov,  M. A. Watson,  J. Wenzel,  M. de Wergifosse,  
 T. A. Wesolowski,  A. White,  J. Witte,  A. Yamada,  Jun Yang,  K. Yao,  
 S. Yeganeh,  S. R. Yost,  Zhi-Qiang You,  A. Zech,  Igor Ying Zhang,  
 Xing Zhang,  Yan Zhao,  Ying Zhu,  B. R. Brooks,  G. K. L. Chan,  
 C. J. Cramer,  M. S. Gordon,  W. J. Hehre,  A. Klamt,  M. W. Schmidt,  
 C. D. Sherrill,  D. G. Truhlar,  A. Aspuru-Guzik,  R. Baer,  A. T. Bell,  
 N. A. Besley,  Jeng-Da Chai,  A. E. DePrince, III,  R. A. DiStasio Jr.,  
 A. Dreuw,  B. D. Dunietz,  T. R. Furlani,  Chao-Ping Hsu,  Yousung Jung,  
 Jing Kong,  D. S. Lambrecht,  WanZhen Liang,  C. Ochsenfeld,  
 V. A. Rassolov,  L. V. Slipchenko,  J. E. Subotnik,  T. Van Voorhis,  
 J. M. Herbert,  A. I. Krylov,  P. M. W. Gill,  M. Head-Gordon

 Contributors to earlier versions of Q-Chem not listed above: 
 R. D. Adamson,  B. Austin,  J. Baker,  G. J. O. Beran,  K. Brandhorst,  
 S. T. Brown,  E. F. C. Byrd,  A. K. Chakraborty,  C.-L. Cheng,  
 Siu Hung Chien,  D. M. Chipman,  D. L. Crittenden,  H. Dachsel,  
 R. J. Doerksen,  A. D. Dutoi,  L. Fusti-Molnar,  W. A. Goddard III,  
 A. Golubeva-Zadorozhnaya,  S. R. Gwaltney,  G. Hawkins,  A. Heyden,  
 S. Hirata,  G. Kedziora,  F. J. Keil,  C. Kelley,  Jihan Kim,  R. A. King,  
 R. Z. Khaliullin,  P. P. Korambath,  W. Kurlancheek,  A. M. Lee,  M. S. Lee,  
 S. V. Levchenko,  Ching Yeh Lin,  D. Liotard,  R. C. Lochan,  I. Lotan,  
 P. E. Maslen,  N. Nair,  D. P. O'Neill,  D. Neuhauser,  E. Neuscamman,  
 C. M. Oana,  R. Olson,  B. Peters,  R. Peverati,  P. A. Pieniazek,  
 Y. M. Rhee,  J. Ritchie,  M. A. Rohrdanz,  E. Rosta,  N. J. Russ,  
 H. F. Schaefer III,  N. E. Schultz,  N. Shenvi,  A. C. Simmonett,  A. Sodt,  
 D. Stuck,  K. S. Thanthiriwatte,  V. Vanovschi,  Tao Wang,  A. Warshel,  
 C. F. Williams,  Q. Wu,  X. Xu,  W. Zhang

 Please cite Q-Chem as follows:
 Y. Shao et al., Mol. Phys. 113, 184-215 (2015)
 DOI: 10.1080/00268976.2014.952696

 Q-Chem 5.3.0 for Intel X86 EM64T Linux

 Parts of Q-Chem use Armadillo 9.800.1 (Horizon Scraper).
 http://arma.sourceforge.net/

 Q-Chem begins on Tue Jul  7 01:50:21 2020  

Host: centos77-c4
0

     Scratch files written to /tmp/26963.centos77-h1/qchem104890//
Processing $rem in /opt/qchem-5.3.0-intel2020u1//config/preferences:
Processing $rem in /home/shihchengli/.qchemrc:

Checking the input file for inconsistencies... 	...done.

--------------------------------------------------------------
User input:
--------------------------------------------------------------
$rem
   JOBTYPE  sp
   EXCHANGE   omegaB97X-D
   BASIS   6-311+G(2df,2pd)
   UNRESTRICTED   False
   max_scf_cycles   250
   geom_opt_max_cycles   1500
   basis2 6-31G*
   scf_algorithm rca_diis
   SYM_IGNORE  TRUE
   print_input   true
   geom_opt_dmax   80
   pop_mulliken false
   XC_GRID 000075000302
$end

$molecule
0 1
C       1.2790724060     0.0000009598     0.2497471755
C       0.0120387657     0.0000004990     -0.5868169501
H       1.3084986401     -0.8387968403     0.9499256797
H       1.3084955164     0.8387979705     0.9499265425
H       2.1515651002     -0.0000031282     -0.4009509179
C       -1.2553109182     -0.0000003937     0.2699905935
H       -0.0095479510     -0.8737681823     -1.2424226026
H       -0.0095480808     0.8737688595     -1.2424230663
H       -1.3043569531     -0.9188069422     0.8556907194
H       -2.1765475013     0.0000015950     -0.3173126976
H       -1.3043590846     0.9188062690     0.8556905428
$end
--------------------------------------------------------------
 ----------------------------------------------------------------
             Standard Nuclear Orientation (Angstroms)
    I     Atom           X                Y                Z
 ----------------------------------------------------------------
    1      C       1.2790724060     0.0000009598     0.2497471755
    2      C       0.0120387657     0.0000004990    -0.5868169501
    3      H       1.3084986401    -0.8387968403     0.9499256797
    4      H       1.3084955164     0.8387979705     0.9499265425
    5      H       2.1515651002    -0.0000031282    -0.4009509179
    6      C      -1.2553109182    -0.0000003937     0.2699905935
    7      H      -0.0095479510    -0.8737681823    -1.2424226026
    8      H      -0.0095480808     0.8737688595    -1.2424230663
    9      H      -1.3043569531    -0.9188069422     0.8556907194
   10      H      -2.1765475013     0.0000015950    -0.3173126976
   11      H      -1.3043590846     0.9188062690     0.8556905428
 ----------------------------------------------------------------
 Nuclear Repulsion Energy =          82.73436080 hartrees
 There are       13 alpha and       13 beta electrons
 Requested basis set is 6-311+G(2df,2pd)
 There are 72 shells and 214 basis functions

 Total QAlloc Memory Limit   2000 MB
 Mega-Array Size       188 MB
 MEM_STATIC part       192 MB

                       Distance Matrix (Angstroms)
             C (  1)   C (  2)   H (  3)   H (  4)   H (  5)   C (  6)
   C (  2)  1.518293
   H (  3)  1.093022  2.178524
   H (  4)  1.093022  2.178523  1.677595
   H (  5)  1.088417  2.147584  1.799779  1.799784
   C (  6)  2.534464  1.529802  2.781908  2.781906  3.472314
   H (  7)  2.156522  1.092592  2.558293  3.078395  2.478296  2.145411
   H (  8)  2.156522  1.092592  3.078396  2.558292  2.478298  2.145412
   H (  9)  2.808110  2.158225  2.615778  3.150405  3.790349  1.090713
   H ( 10)  3.501837  2.205117  3.801976  3.801973  4.328921  1.092521
   H ( 11)  2.808111  2.158225  3.150409  2.615777  3.790352  1.090713
             H (  7)   H (  8)   H (  9)   H ( 10)
   H (  8)  1.747537
   H (  9)  2.465895  3.048268
   H ( 10)  2.513004  2.513003  1.726517
   H ( 11)  3.048268  2.465896  1.837613  1.726514
 
 A cutoff of  1.0D-09 yielded   2532 shell pairs
 There are     22578 function pairs (     27759 Cartesian)
 Smallest overlap matrix eigenvalue = 8.63E-05

 Scale SEOQF with 1.000000e-01/1.000000e-01/1.000000e-01

 Standard Electronic Orientation quadrupole field applied
 Nucleus-field energy     =     0.0000000006 hartrees
 Requested basis set is 6-31G(d)
 There are 28 shells and 58 basis functions
 A cutoff of  1.0D-09 yielded    402 shell pairs
 There are      1773 function pairs (      1968 Cartesian)
 Smallest overlap matrix eigenvalue = 6.80E-03
 Guess from superposition of atomic densities
 Warning:  Energy on first SCF cycle will be non-variational
 SAD guess density has 26.000000 electrons
 Long-range K will be added via erf
 Coulomb attenuation parameter = 0.2 bohr**(-1)
 A restricted hybrid HF-DFT SCF calculation will be
 performed using Relaxed Constraint Minimization + Pulay DIIS
 Exchange:     0.2220 Hartree-Fock + 1.0000 wB97X-D + LR-HF
 Correlation:  1.0000 wB97X-D
 Using Euler-Maclaurin-Lebedev (75,302) quadrature formula
 Dispersion:   Grimme D
 SCF converges when DIIS error is below 1.0E-04
 using 3 threads for integral computing
 -------------------------------------------------------
 OpenMP Integral computing Module                
 Release: version 1.0, May 2013, Q-Chem Inc. Pittsburgh 
 -------------------------------------------------------
 using 3 threads for integral computing
 -------------------------------------------------------
 OpenMP Integral computing Module                
 Release: version 1.0, May 2013, Q-Chem Inc. Pittsburgh 
 -------------------------------------------------------
 ---------------------------------------
  Cycle       Energy         DIIS Error
 ---------------------------------------
    1    -119.6199922911      1.00E-01
    2    -119.0631601767      9.02E-03
    3    -119.0843464979      2.47E-03
    4    -119.0983067320      1.69E-03
    5    -119.0990089629      2.68E-04 Done RCA. Switching to DIIS
    6    -119.0995239397      1.98E-04
    7    -119.0995409527      4.74E-06 Convergence criterion met
 ---------------------------------------
 SCF time:  CPU 20.68 s  wall 7.68 s
 SCF   energy in the small basis set = -119.09954095
 Total energy in the small basis set = -119.09954095
 ----------------------------------------------------
  Cycle       Energy    
 ----------------------------------------------------
    1     -16.5388938887     -1.65E+01
 Long-range K will be added via erf
 Coulomb attenuation parameter = 0.2 bohr**(-1)
 A restricted hybrid HF-DFT SCF calculation will be
 performed using Relaxed Constraint Minimization + Pulay DIIS
 Exchange:     0.2220 Hartree-Fock + 1.0000 wB97X-D + LR-HF
 Correlation:  1.0000 wB97X-D
 Using Euler-Maclaurin-Lebedev (75,302) quadrature formula
 Dispersion:   Grimme D
 SCF converges when DIIS error is below 1.0E-05
 Basis2 calculation detected. Using small basis as guess for larger.
 SCFMinFind is unable to tell whether the solution found is close.
 Resetting ReadMinima to 0 and attempting to follow guess.
 SCFMinFind following SCF Guess.
 using 3 threads for integral computing
 -------------------------------------------------------
 OpenMP Integral computing Module                
 Release: version 1.0, May 2013, Q-Chem Inc. Pittsburgh 
 -------------------------------------------------------
 using 3 threads for integral computing
 -------------------------------------------------------
 OpenMP Integral computing Module                
 Release: version 1.0, May 2013, Q-Chem Inc. Pittsburgh 
 -------------------------------------------------------
 ---------------------------------------
  Cycle       Energy         DIIS Error
 ---------------------------------------
    1    -119.1187806459      4.21E-03
    2    -119.1408248938      5.99E-04 Done RCA. Switching to DIIS
    3    -119.1416625302      4.20E-04
    4    -119.1426313738      4.57E-05
    5    -119.1426462092      1.01E-05
    6    -119.1426469029      3.89E-06 Convergence criterion met
 ---------------------------------------
 SCF time:  CPU 50.89 s  wall 17.22 s
 SCF   energy in the final basis set = -119.14264690
 Total energy in the final basis set = -119.14264690
 
 --------------------------------------------------------------
 
                    Orbital Energies (a.u.)
 --------------------------------------------------------------
 
 Alpha MOs
 -- Occupied --
-10.2740 -10.2652 -10.2652  -0.8813  -0.7775  -0.6781  -0.5465  -0.5255
 -0.4837  -0.4634  -0.4191  -0.4148  -0.4059
 -- Virtual --
  0.0691   0.0859   0.0908   0.0989   0.1243   0.1304   0.1335   0.1424
  0.1432   0.1694   0.1732   0.1914   0.2303   0.2408   0.2473   0.2644
  0.2789   0.2858   0.3082   0.3144   0.3338   0.3488   0.4609   0.4648
  0.4726   0.5087   0.5141   0.5198   0.5433   0.5614   0.5784   0.5915
  0.6234   0.6271   0.6428   0.6442   0.6553   0.6575   0.7094   0.7248
  0.7260   0.7667   0.8198   0.8630   0.8691   0.8698   0.8857   0.9562
  0.9999   1.0510   1.0618   1.1277   1.1468   1.1789   1.1792   1.2180
  1.2335   1.2336   1.2691   1.2799   1.2804   1.2943   1.3324   1.3751
  1.3810   1.3935   1.4041   1.4481   1.4623   1.4712   1.4788   1.4842
  1.5171   1.5729   1.6111   1.6269   1.6362   1.6456   1.6832   1.6999
  1.7528   2.3770   2.4669   2.4820   2.5003   2.5463   2.5638   2.5973
  2.6268   2.7159   2.8223   2.8315   2.8344   2.8920   2.9281   2.9347
  2.9358   2.9473   3.0115   3.0153   3.0495   3.0702   3.0715   3.1012
  3.1352   3.1404   3.1788   3.1791   3.2079   3.2179   3.2788   3.2983
  3.3259   3.3327   3.3476   3.3630   3.3886   3.3941   3.4233   3.4438
  3.4685   3.4811   3.4866   3.5304   3.5624   3.5761   3.5921   3.6170
  3.6221   3.6445   3.6764   3.7050   3.7811   3.7885   3.8669   3.8867
  3.9212   3.9324   3.9493   3.9546   3.9575   4.0016   4.0462   4.0617
  4.0844   4.0956   4.1109   4.1218   4.1617   4.1630   4.2019   4.2058
  4.2269   4.2312   4.2735   4.3872   4.3970   4.4035   4.4100   4.4212
  4.4415   4.5842   4.5853   4.6001   4.6774   4.8043   4.8135   4.8831
  4.8864   4.9586   4.9634   5.0023   5.0138   5.0301   5.0871   5.0935
  5.1422   5.2310   5.2332   5.2924   5.3231   5.3282   5.3461   5.3765
  5.4289   5.4294   5.4668   5.5088   5.5665   5.5791   5.6329   5.7555
  5.9561   6.3444   6.3774   6.4047   6.4353   6.4640  25.2042  25.4410
 25.4554
 --------------------------------------------------------------
 
 -----------------------------------------------------------------
                    Cartesian Multipole Moments
 -----------------------------------------------------------------
    Charge (ESU x 10^10)
                -0.0000
    Dipole Moment (Debye)
         X      -0.0378      Y      -0.0000      Z      -0.0851
       Tot       0.0932
    Quadrupole Moments (Debye-Ang)
        XX     -22.1648     XY      -0.0000     YY     -21.3828
        XZ       0.0312     YZ       0.0000     ZZ     -21.8401
    Octopole Moments (Debye-Ang^2)
       XXX      -0.8855    XXY      -0.0000    XYY      -0.8125
       YYY      -0.0000    XXZ      -1.5302    XYZ       0.0000
       YYZ       0.4386    XZZ       0.5345    YZZ      -0.0000
       ZZZ      -0.4076
    Hexadecapole Moments (Debye-Ang^3)
      XXXX    -202.4163   XXXY      -0.0001   XXYY     -42.2524
      XYYY      -0.0000   YYYY     -44.1186   XXXZ      -0.5913
      XXYZ       0.0000   XYYZ      -0.1774   YYYZ       0.0000
      XXZZ     -45.2966   XYZZ       0.0000   YYZZ     -17.1430
      XZZZ       0.9970   YZZZ       0.0000   ZZZZ     -72.1760
 -----------------------------------------------------------------
Archival summary:
1\1\centos77-c4\SP\ProcedureUnspecified\BasisUnspecified\38\shihchen\TueJul701:50:482020TueJul701:50:482020\0\\#,ProcedureUnspecified,BasisUnspecified,\\0,1\C\H,1,1.09259\H,1,1.09259,2,106.207\C,1,1.51829,2,110.31,3,-119.539,0\H,4,1.08842,1,109.85,2,58.5107,0\H,4,1.09302,1,112.05,2,-177.38,0\H,4,1.09302,1,112.051,2,-65.5977,0\C,1,1.5298,2,108.645,3,116.708,0\H,8,1.09071,1,109.756,2,58.9156,0\H,8,1.09071,1,109.756,2,-174.049,0\H,8,1.09252,1,113.421,2,-57.567,0\\\@

 Total job time:  27.79s(wall), 75.13s(cpu) 
 Tue Jul  7 01:50:48 2020

        *************************************************************
        *                                                           *
        *  Thank you very much for using Q-Chem.  Have a nice day.  *
        *                                                           *
        *************************************************************


