                  Welcome to Q-Chem
     A Quantum Leap Into The Future Of Chemistry


 Q-Chem 5.3 (devel), Q-Chem, Inc., Pleasanton, CA (2020)

 Yihan Shao,  Zhengting Gan,  E. Epifanovsky,  A. T. B. Gilbert,  M. Wormit,  
 J. Kussmann,  A. W. Lange,  A. Behn,  Jia Deng,  Xintian Feng,  D. Ghosh,  
 M. Goldey,  P. R. Horn,  L. D. Jacobson,  I. Kaliman,  T. Kus,  A. Landau,  
 Jie Liu,  E. I. Proynov,  R. M. Richard,  R. P. Steele,  E. J. Sundstrom,  
 H. L. Woodcock III,  P. M. Zimmerman,  D. Zuev,  B. Alam,  B. Albrecht,  
 E. Alguire,  S. A. Baeppler,  D. Barton,  Z. Benda,  Y. A. Bernard,  
 E. J. Berquist,  K. B. Bravaya,  H. Burton,  K. Carter-Fenk,  D. Casanova,  
 Chun-Min Chang,  Yunqing Chen,  A. Chien,  K. D. Closser,  M. P. Coons,  
 S. Coriani,  S. Dasgupta,  A. L. Dempwolff,  M. Diedenhofen,  Hainam Do,  
 R. G. Edgar,  Po-Tung Fang,  S. Faraji,  S. Fatehi,  Qingguo Feng,  
 J. Fosso-Tande,  J. Gayvert,  Qinghui Ge,  A. Ghysels,  G. Gidofalvi,  
 J. Gomes,  J. Gonthier,  A. Gunina,  D. Hait,  M. W. D. Hanson-Heine,  
 P. H. P. Harbach,  A. W. Hauser,  M. F. Herbst,  J. E. Herr,  
 E. G. Hohenstein,  Z. C. Holden,  Kerwin Hui,  B. C. Huynh,  T.-C. Jagau,  
 Hyunjun Ji,  B. Kaduk,  K. Khistyaev,  Jaehoon Kim,  P. Klunzinger,  K. Koh,  
 D. Kosenkov,  L. Koulias,  T. Kowalczyk,  C. M. Krauter,  A. Kunitsa,  
 Ka Un Lao,  A. Laurent,  K. V. Lawler,  Joonho Lee,  D. Lefrancois,  
 S. Lehtola,  D. S. Levine,  Yi-Pei Li,  You-Sheng Lin,  Fenglai Liu,  
 Kuan-Yu Liu,  E. Livshits,  M. Loipersberger,  A. Luenser,  P. Manohar,  
 E. Mansoor,  S. F. Manzer,  Shan-Ping Mao,  Yuezhi Mao,  N. Mardirossian,  
 A. V. Marenich,  T. Markovich,  L. A. Martinez-Martinez,  S. A. Maurer,  
 N. J. Mayhall,  S. C. McKenzie,  J.-M. Mewes,  P. Morgante,  A. F. Morrison,  
 J. W. Mullinax,  K. Nanda,  T. S. Nguyen-Beck,  R. Olivares-Amaya,  
 K. J. Oosterbaan,  J. A. Parkhill,  S. K. Paul,  F. Pavosevic,  Zheng Pei,  
 T. M. Perrine,  F. Plasser,  P. Pokhilko,  S. Prager,  A. Prociuk,  
 E. Ramos,  B. Rana,  D. R. Rehn,  F. Rob,  M. Scheurer,  M. Schneider,  
 N. Sergueev,  S. M. Sharada,  S. Sharma,  D. W. Small,  T. Stauch,  
 C. J. Stein,  T. Stein,  Yu-Chuan Su,  S. P. Veccham,  Zhen Tao,  
 A. J. W. Thom,  A. Tkatchenko,  T. Tsuchimochi,  N. M. Tubman,  L. Vogt,  
 M. L. Vidal,  O. Vydrov,  M. A. Watson,  J. Wenzel,  M. de Wergifosse,  
 T. A. Wesolowski,  A. White,  J. Witte,  A. Yamada,  Jun Yang,  K. Yao,  
 S. Yeganeh,  S. R. Yost,  Zhi-Qiang You,  A. Zech,  Igor Ying Zhang,  
 Xing Zhang,  Yan Zhao,  Ying Zhu,  B. R. Brooks,  G. K. L. Chan,  
 C. J. Cramer,  M. S. Gordon,  W. J. Hehre,  A. Klamt,  M. W. Schmidt,  
 C. D. Sherrill,  D. G. Truhlar,  A. Aspuru-Guzik,  R. Baer,  A. T. Bell,  
 N. A. Besley,  Jeng-Da Chai,  A. E. DePrince, III,  R. A. DiStasio Jr.,  
 A. Dreuw,  B. D. Dunietz,  T. R. Furlani,  Chao-Ping Hsu,  Yousung Jung,  
 Jing Kong,  D. S. Lambrecht,  WanZhen Liang,  C. Ochsenfeld,  
 V. A. Rassolov,  L. V. Slipchenko,  J. E. Subotnik,  T. Van Voorhis,  
 J. M. Herbert,  A. I. Krylov,  P. M. W. Gill,  M. Head-Gordon

 Contributors to earlier versions of Q-Chem not listed above: 
 R. D. Adamson,  B. Austin,  J. Baker,  G. J. O. Beran,  K. Brandhorst,  
 S. T. Brown,  E. F. C. Byrd,  A. K. Chakraborty,  C.-L. Cheng,  
 Siu Hung Chien,  D. M. Chipman,  D. L. Crittenden,  H. Dachsel,  
 R. J. Doerksen,  A. D. Dutoi,  L. Fusti-Molnar,  W. A. Goddard III,  
 A. Golubeva-Zadorozhnaya,  S. R. Gwaltney,  G. Hawkins,  A. Heyden,  
 S. Hirata,  G. Kedziora,  F. J. Keil,  C. Kelley,  Jihan Kim,  R. A. King,  
 R. Z. Khaliullin,  P. P. Korambath,  W. Kurlancheek,  A. M. Lee,  M. S. Lee,  
 S. V. Levchenko,  Ching Yeh Lin,  D. Liotard,  R. C. Lochan,  I. Lotan,  
 P. E. Maslen,  N. Nair,  D. P. O'Neill,  D. Neuhauser,  E. Neuscamman,  
 C. M. Oana,  R. Olson,  B. Peters,  R. Peverati,  P. A. Pieniazek,  
 Y. M. Rhee,  J. Ritchie,  M. A. Rohrdanz,  E. Rosta,  N. J. Russ,  
 H. F. Schaefer III,  N. E. Schultz,  N. Shenvi,  A. C. Simmonett,  A. Sodt,  
 D. Stuck,  K. S. Thanthiriwatte,  V. Vanovschi,  Tao Wang,  A. Warshel,  
 C. F. Williams,  Q. Wu,  X. Xu,  W. Zhang

 Please cite Q-Chem as follows:
 Y. Shao et al., Mol. Phys. 113, 184-215 (2015)
 DOI: 10.1080/00268976.2014.952696

 Q-Chem 5.3.0 for Intel X86 EM64T Linux

 Parts of Q-Chem use Armadillo 9.800.1 (Horizon Scraper).
 http://arma.sourceforge.net/

 Q-Chem begins on Thu Jul  2 04:31:39 2020  

Host: centos77-c1
0

     Scratch files written to /tmp/26650.centos77-h1/qchem73948//
Processing $rem in /opt/qchem-5.3.0-intel2020u1//config/preferences:
Processing $rem in /home/shihchengli/.qchemrc:

Checking the input file for inconsistencies... 	...done.

--------------------------------------------------------------
User input:
--------------------------------------------------------------
$rem
   JOBTYPE  sp
   EXCHANGE   omegaB97X-D
   BASIS   6-311+G(2df,2pd)
   max_scf_cycles   250
   geom_opt_max_cycles   1500
   basis2 6-31G*
   scf_algorithm rca_diis
   SYM_IGNORE  TRUE
   print_input   true
   geom_opt_dmax   80
   pop_mulliken false
   XC_GRID 000075000302
$end

$molecule
0 1
C       1.4717693275     -0.0000006604     0.2655098301
C       -0.0000001470     0.0000029734     -0.2234182026
H       1.7953780405     -0.8854702016     0.8136800095
H       1.7953843165     0.8854663223     0.8136804169
H       2.0066933287     -0.0000040030     -0.6887778835
C       -1.4717696843     0.0000008538     0.2655094525
H       0.0000008814     -0.8436514012     -0.9218623109
H       -0.0000003331     0.8436601622     -0.9218589312
H       -1.7953771442     -0.8854654624     0.8136855470
H       -2.0066940808     -0.0000090064     -0.6887777553
H       -1.7953845659     0.8854710893     0.8136748462
$end
--------------------------------------------------------------
 ----------------------------------------------------------------
             Standard Nuclear Orientation (Angstroms)
    I     Atom           X                Y                Z
 ----------------------------------------------------------------
    1      C       1.4717693275    -0.0000006604     0.2655098301
    2      C      -0.0000001470     0.0000029734    -0.2234182026
    3      H       1.7953780405    -0.8854702016     0.8136800095
    4      H       1.7953843165     0.8854663223     0.8136804169
    5      H       2.0066933287    -0.0000040030    -0.6887778835
    6      C      -1.4717696843     0.0000008538     0.2655094525
    7      H       0.0000008814    -0.8436514012    -0.9218623109
    8      H      -0.0000003331     0.8436601622    -0.9218589312
    9      H      -1.7953771442    -0.8854654624     0.8136855470
   10      H      -2.0066940808    -0.0000090064    -0.6887777553
   11      H      -1.7953845659     0.8854710893     0.8136748462
 ----------------------------------------------------------------
 Nuclear Repulsion Energy =          80.42214033 hartrees
 There are       13 alpha and       13 beta electrons
 Requested basis set is 6-311+G(2df,2pd)
 There are 72 shells and 214 basis functions

 Total QAlloc Memory Limit   2000 MB
 Mega-Array Size       188 MB
 MEM_STATIC part       192 MB

                       Distance Matrix (Angstroms)
             C (  1)   C (  2)   H (  3)   H (  4)   H (  5)   C (  6)
   C (  2)  1.550857
   H (  3)  1.090536  2.254555
   H (  4)  1.090536  2.254556  1.770937
   H (  5)  1.093988  2.059946  1.756725  1.756727
   C (  6)  2.943539  1.550856  3.429111  3.429116  3.606989
   H (  7)  2.070677  1.095252  2.497446  3.037327  2.189266  2.070678
   H (  8)  2.070680  1.095252  3.037330  2.497449  2.189273  2.070679
   H (  9)  3.429109  2.254555  3.590755  4.003719  4.182963  1.090536
   H ( 10)  3.606989  2.059947  4.182962  4.182971  4.013387  1.093987
   H ( 11)  3.429116  2.254556  4.003724  3.590769  4.182969  1.090536
             H (  7)   H (  8)   H (  9)   H ( 10)
   H (  8)  1.687312
   H (  9)  2.497450  3.037329
   H ( 10)  2.189266  2.189275  1.756725
   H ( 11)  3.037328  2.497445  1.770937  1.756727
 
 A cutoff of  1.0D-09 yielded   2467 shell pairs
 There are     21824 function pairs (     26811 Cartesian)
 Smallest overlap matrix eigenvalue = 8.45E-05

 Scale SEOQF with 1.000000e-01/1.000000e-01/1.000000e-01

 Standard Electronic Orientation quadrupole field applied
 Nucleus-field energy     =     0.0000000013 hartrees
 Requested basis set is 6-31G(d)
 There are 28 shells and 58 basis functions
 A cutoff of  1.0D-09 yielded    395 shell pairs
 There are      1766 function pairs (      1961 Cartesian)
 Smallest overlap matrix eigenvalue = 8.03E-03
 Guess from superposition of atomic densities
 Warning:  Energy on first SCF cycle will be non-variational
 SAD guess density has 26.000000 electrons
 Long-range K will be added via erf
 Coulomb attenuation parameter = 0.2 bohr**(-1)
 A restricted hybrid HF-DFT SCF calculation will be
 performed using Relaxed Constraint Minimization + Pulay DIIS
 Exchange:     0.2220 Hartree-Fock + 1.0000 wB97X-D + LR-HF
 Correlation:  1.0000 wB97X-D
 Using Euler-Maclaurin-Lebedev (75,302) quadrature formula
 Dispersion:   Grimme D
 SCF converges when DIIS error is below 1.0E-04
 using 3 threads for integral computing
 -------------------------------------------------------
 OpenMP Integral computing Module                
 Release: version 1.0, May 2013, Q-Chem Inc. Pittsburgh 
 -------------------------------------------------------
 using 3 threads for integral computing
 -------------------------------------------------------
 OpenMP Integral computing Module                
 Release: version 1.0, May 2013, Q-Chem Inc. Pittsburgh 
 -------------------------------------------------------
 ---------------------------------------
  Cycle       Energy         DIIS Error
 ---------------------------------------
    1    -119.5676678987      9.88E-02
    2    -119.0397028401      8.39E-03
    3    -119.0587934996      2.63E-03
    4    -119.0702856757      1.81E-03
    5    -119.0711082267      3.09E-04 Done RCA. Switching to DIIS
    6    -119.0716933151      2.32E-04
    7    -119.0717168480      4.17E-06 Convergence criterion met
 ---------------------------------------
 SCF time:  CPU 20.44 s  wall 7.84 s
 SCF   energy in the small basis set = -119.07171685
 Total energy in the small basis set = -119.07171685
 ----------------------------------------------------
  Cycle       Energy    
 ----------------------------------------------------
    1     -16.5156086769     -1.65E+01
 Long-range K will be added via erf
 Coulomb attenuation parameter = 0.2 bohr**(-1)
 A restricted hybrid HF-DFT SCF calculation will be
 performed using Relaxed Constraint Minimization + Pulay DIIS
 Exchange:     0.2220 Hartree-Fock + 1.0000 wB97X-D + LR-HF
 Correlation:  1.0000 wB97X-D
 Using Euler-Maclaurin-Lebedev (75,302) quadrature formula
 Dispersion:   Grimme D
 SCF converges when DIIS error is below 1.0E-05
 Basis2 calculation detected. Using small basis as guess for larger.
 SCFMinFind is unable to tell whether the solution found is close.
 Resetting ReadMinima to 0 and attempting to follow guess.
 SCFMinFind following SCF Guess.
 using 3 threads for integral computing
 -------------------------------------------------------
 OpenMP Integral computing Module                
 Release: version 1.0, May 2013, Q-Chem Inc. Pittsburgh 
 -------------------------------------------------------
 using 3 threads for integral computing
 -------------------------------------------------------
 OpenMP Integral computing Module                
 Release: version 1.0, May 2013, Q-Chem Inc. Pittsburgh 
 -------------------------------------------------------
 ---------------------------------------
  Cycle       Energy         DIIS Error
 ---------------------------------------
    1    -119.0914290731      4.21E-03
    2    -119.1133481895      5.72E-04 Done RCA. Switching to DIIS
    3    -119.1141681942      3.86E-04
    4    -119.1149893692      4.74E-05
    5    -119.1150044834      1.41E-05
    6    -119.1150056749      4.20E-06 Convergence criterion met
 ---------------------------------------
 SCF time:  CPU 46.84 s  wall 15.63 s
 SCF   energy in the final basis set = -119.11500567
 Total energy in the final basis set = -119.11500567
 
 --------------------------------------------------------------
 
                    Orbital Energies (a.u.)
 --------------------------------------------------------------
 
 Alpha MOs
 -- Occupied --
-10.2787 -10.2729 -10.2729  -0.8735  -0.7915  -0.6724  -0.5369  -0.5072
 -0.4995  -0.4755  -0.4285  -0.3984  -0.3916
 -- Virtual --
  0.0632   0.0862   0.0951   0.0992   0.1120   0.1279   0.1318   0.1556
  0.1616   0.1744   0.1959   0.2104   0.2283   0.2292   0.2329   0.2605
  0.2648   0.2693   0.2814   0.3035   0.3212   0.3711   0.4630   0.4765
  0.4835   0.4948   0.5275   0.5315   0.5544   0.5685   0.5763   0.5859
  0.5978   0.5996   0.6302   0.6469   0.6582   0.6758   0.6951   0.7127
  0.7282   0.7759   0.8169   0.8392   0.8631   0.8779   0.9476   0.9636
  0.9731   0.9859   1.0273   1.1065   1.1395   1.1530   1.1578   1.1829
  1.2391   1.2489   1.2605   1.2873   1.2912   1.2962   1.3070   1.3103
  1.3639   1.3825   1.4039   1.4492   1.4509   1.4556   1.4593   1.4705
  1.4850   1.5945   1.6036   1.6332   1.6583   1.6723   1.6932   1.7357
  1.7988   2.4303   2.4413   2.4815   2.5017   2.5400   2.5585   2.6175
  2.6476   2.6649   2.7297   2.8116   2.8581   2.8804   2.9270   2.9331
  2.9542   2.9994   3.0005   3.0032   3.0518   3.0524   3.0924   3.1082
  3.1351   3.1531   3.1599   3.1622   3.1857   3.1862   3.2128   3.2732
  3.2750   3.3059   3.3154   3.3309   3.3337   3.3497   3.3901   3.4204
  3.4224   3.4544   3.5164   3.5560   3.5636   3.5832   3.5990   3.6213
  3.6319   3.6653   3.6897   3.7211   3.7357   3.7598   3.7854   3.7925
  3.8761   3.8867   3.8971   3.9360   3.9583   3.9761   4.0032   4.0505
  4.0903   4.1173   4.1485   4.1498   4.1530   4.1731   4.1775   4.2193
  4.2382   4.2559   4.2588   4.3277   4.3812   4.3942   4.4595   4.4676
  4.5130   4.5151   4.5459   4.6319   4.7517   4.8117   4.8655   4.8908
  4.9037   4.9397   4.9507   4.9755   5.0124   5.0226   5.0945   5.0976
  5.1336   5.1514   5.2141   5.2483   5.2920   5.3002   5.3224   5.3410
  5.3449   5.4012   5.4596   5.4653   5.5897   5.6464   5.6664   5.8848
  5.9149   6.3639   6.3887   6.3891   6.4063   6.4637  25.1999  25.3867
 25.4250
 --------------------------------------------------------------
 
 -----------------------------------------------------------------
                    Cartesian Multipole Moments
 -----------------------------------------------------------------
    Charge (ESU x 10^10)
                -0.0000
    Dipole Moment (Debye)
         X       0.0000      Y      -0.0000      Z      -0.2473
       Tot       0.2473
    Quadrupole Moments (Debye-Ang)
        XX     -21.8110     XY      -0.0000     YY     -21.4935
        XZ       0.0000     YZ       0.0000     ZZ     -21.7981
    Octopole Moments (Debye-Ang^2)
       XXX       0.0000    XXY      -0.0000    XYY       0.0000
       YYY      -0.0000    XXZ      -2.0715    XYZ      -0.0000
       YYZ      -0.8422    XZZ       0.0000    YZZ      -0.0000
       ZZZ      -5.6313
    Hexadecapole Moments (Debye-Ang^3)
      XXXX    -266.3379   XXXY       0.0001   XXYY     -49.3597
      XYYY       0.0000   YYYY     -43.9591   XXXZ       0.0000
      XXYZ       0.0001   XYYZ      -0.0000   YYYZ       0.0000
      XXZZ     -50.2301   XYZZ       0.0000   YYZZ     -15.2206
      XZZZ      -0.0000   YZZZ       0.0000   ZZZZ     -56.1365
 -----------------------------------------------------------------
Archival summary:
1\1\centos77-c1\SP\ProcedureUnspecified\BasisUnspecified\38\shihchen\ThuJul204:32:052020ThuJul204:32:052020\0\\#,ProcedureUnspecified,BasisUnspecified,\\0,1\C\H,1,1.09525\H,1,1.09525,2,100.759\C,1,1.55086,2,101.598,3,104.354,0\H,4,1.09054,1,116.109,2,63.4364,0\H,4,1.09054,1,116.109,2,-167.125,0\H,4,1.09399,1,100.896,2,-51.8442,0\C,1,1.55086,2,101.598,3,-104.354,0\H,8,1.09054,1,116.109,2,167.125,0\H,8,1.09054,1,116.109,2,-63.436,0\H,8,1.09399,1,100.896,2,51.8445,0\\\@

 Total job time:  26.31s(wall), 70.79s(cpu) 
 Thu Jul  2 04:32:05 2020

        *************************************************************
        *                                                           *
        *  Thank you very much for using Q-Chem.  Have a nice day.  *
        *                                                           *
        *************************************************************


