                  Welcome to Q-Chem
     A Quantum Leap Into The Future Of Chemistry


 Q-Chem 5.3 (devel), Q-Chem, Inc., Pleasanton, CA (2020)

 Yihan Shao,  Zhengting Gan,  E. Epifanovsky,  A. T. B. Gilbert,  M. Wormit,  
 J. Kussmann,  A. W. Lange,  A. Behn,  Jia Deng,  Xintian Feng,  D. Ghosh,  
 M. Goldey,  P. R. Horn,  L. D. Jacobson,  I. Kaliman,  T. Kus,  A. Landau,  
 Jie Liu,  E. I. Proynov,  R. M. Richard,  R. P. Steele,  E. J. Sundstrom,  
 H. L. Woodcock III,  P. M. Zimmerman,  D. Zuev,  B. Alam,  B. Albrecht,  
 E. Alguire,  S. A. Baeppler,  D. Barton,  Z. Benda,  Y. A. Bernard,  
 E. J. Berquist,  K. B. Bravaya,  H. Burton,  K. Carter-Fenk,  D. Casanova,  
 Chun-Min Chang,  Yunqing Chen,  A. Chien,  K. D. Closser,  M. P. Coons,  
 S. Coriani,  S. Dasgupta,  A. L. Dempwolff,  M. Diedenhofen,  Hainam Do,  
 R. G. Edgar,  Po-Tung Fang,  S. Faraji,  S. Fatehi,  Qingguo Feng,  
 J. Fosso-Tande,  J. Gayvert,  Qinghui Ge,  A. Ghysels,  G. Gidofalvi,  
 J. Gomes,  J. Gonthier,  A. Gunina,  D. Hait,  M. W. D. Hanson-Heine,  
 P. H. P. Harbach,  A. W. Hauser,  M. F. Herbst,  J. E. Herr,  
 E. G. Hohenstein,  Z. C. Holden,  Kerwin Hui,  B. C. Huynh,  T.-C. Jagau,  
 Hyunjun Ji,  B. Kaduk,  K. Khistyaev,  Jaehoon Kim,  P. Klunzinger,  K. Koh,  
 D. Kosenkov,  L. Koulias,  T. Kowalczyk,  C. M. Krauter,  A. Kunitsa,  
 Ka Un Lao,  A. Laurent,  K. V. Lawler,  Joonho Lee,  D. Lefrancois,  
 S. Lehtola,  D. S. Levine,  Yi-Pei Li,  You-Sheng Lin,  Fenglai Liu,  
 Kuan-Yu Liu,  E. Livshits,  M. Loipersberger,  A. Luenser,  P. Manohar,  
 E. Mansoor,  S. F. Manzer,  Shan-Ping Mao,  Yuezhi Mao,  N. Mardirossian,  
 A. V. Marenich,  T. Markovich,  L. A. Martinez-Martinez,  S. A. Maurer,  
 N. J. Mayhall,  S. C. McKenzie,  J.-M. Mewes,  P. Morgante,  A. F. Morrison,  
 J. W. Mullinax,  K. Nanda,  T. S. Nguyen-Beck,  R. Olivares-Amaya,  
 K. J. Oosterbaan,  J. A. Parkhill,  S. K. Paul,  F. Pavosevic,  Zheng Pei,  
 T. M. Perrine,  F. Plasser,  P. Pokhilko,  S. Prager,  A. Prociuk,  
 E. Ramos,  B. Rana,  D. R. Rehn,  F. Rob,  M. Scheurer,  M. Schneider,  
 N. Sergueev,  S. M. Sharada,  S. Sharma,  D. W. Small,  T. Stauch,  
 C. J. Stein,  T. Stein,  Yu-Chuan Su,  S. P. Veccham,  Zhen Tao,  
 A. J. W. Thom,  A. Tkatchenko,  T. Tsuchimochi,  N. M. Tubman,  L. Vogt,  
 M. L. Vidal,  O. Vydrov,  M. A. Watson,  J. Wenzel,  M. de Wergifosse,  
 T. A. Wesolowski,  A. White,  J. Witte,  A. Yamada,  Jun Yang,  K. Yao,  
 S. Yeganeh,  S. R. Yost,  Zhi-Qiang You,  A. Zech,  Igor Ying Zhang,  
 Xing Zhang,  Yan Zhao,  Ying Zhu,  B. R. Brooks,  G. K. L. Chan,  
 C. J. Cramer,  M. S. Gordon,  W. J. Hehre,  A. Klamt,  M. W. Schmidt,  
 C. D. Sherrill,  D. G. Truhlar,  A. Aspuru-Guzik,  R. Baer,  A. T. Bell,  
 N. A. Besley,  Jeng-Da Chai,  A. E. DePrince, III,  R. A. DiStasio Jr.,  
 A. Dreuw,  B. D. Dunietz,  T. R. Furlani,  Chao-Ping Hsu,  Yousung Jung,  
 Jing Kong,  D. S. Lambrecht,  WanZhen Liang,  C. Ochsenfeld,  
 V. A. Rassolov,  L. V. Slipchenko,  J. E. Subotnik,  T. Van Voorhis,  
 J. M. Herbert,  A. I. Krylov,  P. M. W. Gill,  M. Head-Gordon

 Contributors to earlier versions of Q-Chem not listed above: 
 R. D. Adamson,  B. Austin,  J. Baker,  G. J. O. Beran,  K. Brandhorst,  
 S. T. Brown,  E. F. C. Byrd,  A. K. Chakraborty,  C.-L. Cheng,  
 Siu Hung Chien,  D. M. Chipman,  D. L. Crittenden,  H. Dachsel,  
 R. J. Doerksen,  A. D. Dutoi,  L. Fusti-Molnar,  W. A. Goddard III,  
 A. Golubeva-Zadorozhnaya,  S. R. Gwaltney,  G. Hawkins,  A. Heyden,  
 S. Hirata,  G. Kedziora,  F. J. Keil,  C. Kelley,  Jihan Kim,  R. A. King,  
 R. Z. Khaliullin,  P. P. Korambath,  W. Kurlancheek,  A. M. Lee,  M. S. Lee,  
 S. V. Levchenko,  Ching Yeh Lin,  D. Liotard,  R. C. Lochan,  I. Lotan,  
 P. E. Maslen,  N. Nair,  D. P. O'Neill,  D. Neuhauser,  E. Neuscamman,  
 C. M. Oana,  R. Olson,  B. Peters,  R. Peverati,  P. A. Pieniazek,  
 Y. M. Rhee,  J. Ritchie,  M. A. Rohrdanz,  E. Rosta,  N. J. Russ,  
 H. F. Schaefer III,  N. E. Schultz,  N. Shenvi,  A. C. Simmonett,  A. Sodt,  
 D. Stuck,  K. S. Thanthiriwatte,  V. Vanovschi,  Tao Wang,  A. Warshel,  
 C. F. Williams,  Q. Wu,  X. Xu,  W. Zhang

 Please cite Q-Chem as follows:
 Y. Shao et al., Mol. Phys. 113, 184-215 (2015)
 DOI: 10.1080/00268976.2014.952696

 Q-Chem 5.3.0 for Intel X86 EM64T Linux

 Parts of Q-Chem use Armadillo 9.800.1 (Horizon Scraper).
 http://arma.sourceforge.net/

 Q-Chem begins on Tue Jul  7 02:23:33 2020  

Host: centos77-c4
0

     Scratch files written to /tmp/26963.centos77-h1/qchem111448//
Processing $rem in /opt/qchem-5.3.0-intel2020u1//config/preferences:
Processing $rem in /home/shihchengli/.qchemrc:

Checking the input file for inconsistencies... 	...done.

--------------------------------------------------------------
User input:
--------------------------------------------------------------
$rem
   JOBTYPE  sp
   EXCHANGE   omegaB97X-D
   BASIS   6-311+G(2df,2pd)
   UNRESTRICTED   False
   max_scf_cycles   250
   geom_opt_max_cycles   1500
   basis2 6-31G*
   scf_algorithm rca_diis
   SYM_IGNORE  TRUE
   print_input   true
   geom_opt_dmax   80
   pop_mulliken false
   XC_GRID 000075000302
$end

$molecule
0 1
C       1.2633425148     -0.0000004523     0.2758820351
C       0.0000000412     -0.0000004992     -0.5747237738
H       1.3035938142     -0.8597645411     0.9012813772
H       1.3035937990     0.8597652509     0.9012823830
H       2.2130847427     -0.0000002979     -0.3825525690
C       -1.2633422467     -0.0000005596     0.2758822993
H       0.0000000162     -0.8823888498     -1.2380081732
H       -0.0000000740     0.8823893143     -1.2380090978
H       -1.3035935013     -0.8597639757     0.9012811103
H       -2.2130856331     0.0000003234     -0.3825529972
H       -1.3035935336     0.8597649531     0.9012824251
$end
--------------------------------------------------------------
 ----------------------------------------------------------------
             Standard Nuclear Orientation (Angstroms)
    I     Atom           X                Y                Z
 ----------------------------------------------------------------
    1      C       1.2633425148    -0.0000004523     0.2758820351
    2      C       0.0000000412    -0.0000004992    -0.5747237738
    3      H       1.3035938142    -0.8597645411     0.9012813772
    4      H       1.3035937990     0.8597652509     0.9012823830
    5      H       2.2130847427    -0.0000002979    -0.3825525690
    6      C      -1.2633422467    -0.0000005596     0.2758822993
    7      H       0.0000000162    -0.8823888498    -1.2380081732
    8      H      -0.0000000740     0.8823893143    -1.2380090978
    9      H      -1.3035935013    -0.8597639757     0.9012811103
   10      H      -2.2130856331     0.0000003234    -0.3825529972
   11      H      -1.3035935336     0.8597649531     0.9012824251
 ----------------------------------------------------------------
 Nuclear Repulsion Energy =          82.63708714 hartrees
 There are       13 alpha and       13 beta electrons
 Requested basis set is 6-311+G(2df,2pd)
 There are 72 shells and 214 basis functions

 Total QAlloc Memory Limit   2000 MB
 Mega-Array Size       188 MB
 MEM_STATIC part       192 MB

                       Distance Matrix (Angstroms)
             C (  1)   C (  2)   H (  3)   H (  4)   H (  5)   C (  6)
   C (  2)  1.523012
   H (  3)  1.063926  2.148754
   H (  4)  1.063928  2.148755  1.719530
   H (  5)  1.155658  2.221413  1.792930  1.792931
   C (  6)  2.526685  1.523012  2.778395  2.778396  3.538231
   H (  7)  2.160210  1.103882  2.505280  3.051397  2.531434  2.160210
   H (  8)  2.160211  1.103884  3.051397  2.505282  2.531435  2.160211
   H (  9)  2.778395  2.148753  2.607187  3.123172  3.841152  1.063925
   H ( 10)  3.538233  2.221413  3.841154  3.841154  4.426170  1.155660
   H ( 11)  2.778396  2.148755  3.123173  2.607187  3.841153  1.063928
             H (  7)   H (  8)   H (  9)   H ( 10)
   H (  8)  1.764778
   H (  9)  2.505280  3.051396
   H ( 10)  2.531435  2.531435  1.792931
   H ( 11)  3.051396  2.505282  1.719529  1.792932
 
 A cutoff of  1.0D-09 yielded   2528 shell pairs
 There are     22554 function pairs (     27735 Cartesian)
 Smallest overlap matrix eigenvalue = 8.53E-05

 Scale SEOQF with 1.000000e-01/1.000000e-01/1.000000e-01

 Standard Electronic Orientation quadrupole field applied
 Nucleus-field energy     =     0.0000000006 hartrees
 Requested basis set is 6-31G(d)
 There are 28 shells and 58 basis functions
 A cutoff of  1.0D-09 yielded    402 shell pairs
 There are      1773 function pairs (      1968 Cartesian)
 Smallest overlap matrix eigenvalue = 6.88E-03
 Guess from superposition of atomic densities
 Warning:  Energy on first SCF cycle will be non-variational
 SAD guess density has 26.000000 electrons
 Long-range K will be added via erf
 Coulomb attenuation parameter = 0.2 bohr**(-1)
 A restricted hybrid HF-DFT SCF calculation will be
 performed using Relaxed Constraint Minimization + Pulay DIIS
 Exchange:     0.2220 Hartree-Fock + 1.0000 wB97X-D + LR-HF
 Correlation:  1.0000 wB97X-D
 Using Euler-Maclaurin-Lebedev (75,302) quadrature formula
 Dispersion:   Grimme D
 SCF converges when DIIS error is below 1.0E-04
 using 3 threads for integral computing
 -------------------------------------------------------
 OpenMP Integral computing Module                
 Release: version 1.0, May 2013, Q-Chem Inc. Pittsburgh 
 -------------------------------------------------------
 using 3 threads for integral computing
 -------------------------------------------------------
 OpenMP Integral computing Module                
 Release: version 1.0, May 2013, Q-Chem Inc. Pittsburgh 
 -------------------------------------------------------
 ---------------------------------------
  Cycle       Energy         DIIS Error
 ---------------------------------------
    1    -119.5975222651      9.99E-02
    2    -119.0602673894      8.99E-03
    3    -119.0811969469      2.39E-03
    4    -119.0953825296      1.63E-03
    5    -119.0960331986      2.48E-04 Done RCA. Switching to DIIS
    6    -119.0965197461      1.83E-04
    7    -119.0965344424      4.27E-06 Convergence criterion met
 ---------------------------------------
 SCF time:  CPU 18.86 s  wall 6.77 s
 SCF   energy in the small basis set = -119.09653444
 Total energy in the small basis set = -119.09653444
 ----------------------------------------------------
  Cycle       Energy    
 ----------------------------------------------------
    1     -16.5293050639     -1.65E+01
 Long-range K will be added via erf
 Coulomb attenuation parameter = 0.2 bohr**(-1)
 A restricted hybrid HF-DFT SCF calculation will be
 performed using Relaxed Constraint Minimization + Pulay DIIS
 Exchange:     0.2220 Hartree-Fock + 1.0000 wB97X-D + LR-HF
 Correlation:  1.0000 wB97X-D
 Using Euler-Maclaurin-Lebedev (75,302) quadrature formula
 Dispersion:   Grimme D
 SCF converges when DIIS error is below 1.0E-05
 Basis2 calculation detected. Using small basis as guess for larger.
 SCFMinFind is unable to tell whether the solution found is close.
 Resetting ReadMinima to 0 and attempting to follow guess.
 SCFMinFind following SCF Guess.
 using 3 threads for integral computing
 -------------------------------------------------------
 OpenMP Integral computing Module                
 Release: version 1.0, May 2013, Q-Chem Inc. Pittsburgh 
 -------------------------------------------------------
 using 3 threads for integral computing
 -------------------------------------------------------
 OpenMP Integral computing Module                
 Release: version 1.0, May 2013, Q-Chem Inc. Pittsburgh 
 -------------------------------------------------------
 ---------------------------------------
  Cycle       Energy         DIIS Error
 ---------------------------------------
    1    -119.1156638852      4.21E-03
    2    -119.1376732796      5.92E-04 Done RCA. Switching to DIIS
    3    -119.1384785410      4.18E-04
    4    -119.1394408607      4.65E-05
    5    -119.1394561127      1.01E-05
    6    -119.1394568110      3.79E-06 Convergence criterion met
 ---------------------------------------
 SCF time:  CPU 49.86 s  wall 16.67 s
 SCF   energy in the final basis set = -119.13945681
 Total energy in the final basis set = -119.13945681
 
 --------------------------------------------------------------
 
                    Orbital Energies (a.u.)
 --------------------------------------------------------------
 
 Alpha MOs
 -- Occupied --
-10.2765 -10.2664 -10.2664  -0.8818  -0.7766  -0.6781  -0.5488  -0.5149
 -0.4837  -0.4714  -0.4174  -0.4118  -0.4093
 -- Virtual --
  0.0681   0.0871   0.0905   0.0986   0.1258   0.1295   0.1326   0.1430
  0.1430   0.1673   0.1719   0.1920   0.2305   0.2379   0.2513   0.2622
  0.2698   0.2853   0.3106   0.3143   0.3303   0.3537   0.4620   0.4663
  0.4674   0.5106   0.5106   0.5170   0.5490   0.5578   0.5860   0.5920
  0.6096   0.6221   0.6362   0.6470   0.6497   0.6577   0.7132   0.7199
  0.7342   0.7658   0.8213   0.8677   0.8718   0.8728   0.8754   0.9608
  0.9952   1.0431   1.0607   1.1260   1.1327   1.1754   1.1795   1.2198
  1.2362   1.2372   1.2687   1.2774   1.2827   1.2947   1.3271   1.3656
  1.3782   1.3816   1.3847   1.4498   1.4671   1.4727   1.4752   1.4787
  1.5140   1.5757   1.6011   1.6256   1.6434   1.6474   1.6908   1.6990
  1.7492   2.3534   2.4787   2.4835   2.5397   2.5422   2.5669   2.5869
  2.6216   2.7134   2.8069   2.8198   2.8415   2.9160   2.9193   2.9206
  2.9355   2.9391   3.0024   3.0128   3.0605   3.0647   3.0777   3.0960
  3.1239   3.1392   3.1623   3.1882   3.2092   3.2246   3.2811   3.2975
  3.3085   3.3359   3.3425   3.3626   3.3652   3.3768   3.4087   3.4393
  3.4428   3.4727   3.4828   3.4953   3.5579   3.5635   3.5760   3.6221
  3.6321   3.6640   3.6972   3.7125   3.7758   3.7796   3.8642   3.8794
  3.9353   3.9361   3.9522   3.9570   3.9663   4.0130   4.0466   4.0537
  4.0769   4.1047   4.1166   4.1369   4.1498   4.1550   4.1829   4.1942
  4.2132   4.2303   4.2714   4.3590   4.3765   4.4033   4.4099   4.4280
  4.4434   4.5759   4.5882   4.5899   4.6369   4.7467   4.8049   4.8673
  4.9189   4.9279   4.9745   5.0010   5.0178   5.0264   5.0554   5.0731
  5.0945   5.2128   5.2345   5.2668   5.2996   5.3363   5.3677   5.3909
  5.3933   5.4011   5.4534   5.4814   5.5591   5.5745   5.6318   5.7550
  5.9393   6.3066   6.3445   6.4150   6.4470   6.4662  25.1719  25.4306
 25.4337
 --------------------------------------------------------------
 
 -----------------------------------------------------------------
                    Cartesian Multipole Moments
 -----------------------------------------------------------------
    Charge (ESU x 10^10)
                 0.0000
    Dipole Moment (Debye)
         X       0.0000      Y      -0.0000      Z       0.0266
       Tot       0.0266
    Quadrupole Moments (Debye-Ang)
        XX     -22.4096     XY      -0.0000     YY     -21.3887
        XZ      -0.0000     YZ      -0.0000     ZZ     -21.7934
    Octopole Moments (Debye-Ang^2)
       XXX       0.0000    XXY       0.0000    XYY       0.0000
       YYY       0.0000    XXZ      -1.4987    XYZ       0.0000
       YYZ       0.4436    XZZ      -0.0000    YZZ       0.0000
       ZZZ      -0.4152
    Hexadecapole Moments (Debye-Ang^3)
      XXXX    -206.8690   XXXY      -0.0000   XXYY     -42.8071
      XYYY       0.0000   YYYY     -43.2034   XXXZ      -0.0000
      XXYZ      -0.0000   XYYZ      -0.0000   YYYZ      -0.0000
      XXZZ     -45.6743   XYZZ       0.0000   YYZZ     -16.9214
      XZZZ      -0.0000   YZZZ      -0.0000   ZZZZ     -71.8451
 -----------------------------------------------------------------
Archival summary:
1\1\centos77-c4\SP\ProcedureUnspecified\BasisUnspecified\38\shihchen\TueJul702:24:002020TueJul702:24:002020\0\\#,ProcedureUnspecified,BasisUnspecified,\\0,1\C\H,1,1.10388\H,1,1.10388,2,106.136\C,1,1.52301,2,109.608,3,118.289,0\H,4,1.06393,1,111.081,2,61.9401,0\H,4,1.06393,1,111.081,2,-178.05,0\H,4,1.15566,1,111.315,2,-58.0552,0\C,1,1.52301,2,109.608,3,-118.289,0\H,8,1.06393,1,111.081,2,-61.9401,0\H,8,1.06393,1,111.081,2,178.05,0\H,8,1.15566,1,111.315,2,58.0552,0\\\@

 Total job time:  26.36s(wall), 72.32s(cpu) 
 Tue Jul  7 02:24:00 2020

        *************************************************************
        *                                                           *
        *  Thank you very much for using Q-Chem.  Have a nice day.  *
        *                                                           *
        *************************************************************


