                  Welcome to Q-Chem
     A Quantum Leap Into The Future Of Chemistry


 Q-Chem 5.3 (devel), Q-Chem, Inc., Pleasanton, CA (2020)

 Yihan Shao,  Zhengting Gan,  E. Epifanovsky,  A. T. B. Gilbert,  M. Wormit,  
 J. Kussmann,  A. W. Lange,  A. Behn,  Jia Deng,  Xintian Feng,  D. Ghosh,  
 M. Goldey,  P. R. Horn,  L. D. Jacobson,  I. Kaliman,  T. Kus,  A. Landau,  
 Jie Liu,  E. I. Proynov,  R. M. Richard,  R. P. Steele,  E. J. Sundstrom,  
 H. L. Woodcock III,  P. M. Zimmerman,  D. Zuev,  B. Alam,  B. Albrecht,  
 E. Alguire,  S. A. Baeppler,  D. Barton,  Z. Benda,  Y. A. Bernard,  
 E. J. Berquist,  K. B. Bravaya,  H. Burton,  K. Carter-Fenk,  D. Casanova,  
 Chun-Min Chang,  Yunqing Chen,  A. Chien,  K. D. Closser,  M. P. Coons,  
 S. Coriani,  S. Dasgupta,  A. L. Dempwolff,  M. Diedenhofen,  Hainam Do,  
 R. G. Edgar,  Po-Tung Fang,  S. Faraji,  S. Fatehi,  Qingguo Feng,  
 J. Fosso-Tande,  J. Gayvert,  Qinghui Ge,  A. Ghysels,  G. Gidofalvi,  
 J. Gomes,  J. Gonthier,  A. Gunina,  D. Hait,  M. W. D. Hanson-Heine,  
 P. H. P. Harbach,  A. W. Hauser,  M. F. Herbst,  J. E. Herr,  
 E. G. Hohenstein,  Z. C. Holden,  Kerwin Hui,  B. C. Huynh,  T.-C. Jagau,  
 Hyunjun Ji,  B. Kaduk,  K. Khistyaev,  Jaehoon Kim,  P. Klunzinger,  K. Koh,  
 D. Kosenkov,  L. Koulias,  T. Kowalczyk,  C. M. Krauter,  A. Kunitsa,  
 Ka Un Lao,  A. Laurent,  K. V. Lawler,  Joonho Lee,  D. Lefrancois,  
 S. Lehtola,  D. S. Levine,  Yi-Pei Li,  You-Sheng Lin,  Fenglai Liu,  
 Kuan-Yu Liu,  E. Livshits,  M. Loipersberger,  A. Luenser,  P. Manohar,  
 E. Mansoor,  S. F. Manzer,  Shan-Ping Mao,  Yuezhi Mao,  N. Mardirossian,  
 A. V. Marenich,  T. Markovich,  L. A. Martinez-Martinez,  S. A. Maurer,  
 N. J. Mayhall,  S. C. McKenzie,  J.-M. Mewes,  P. Morgante,  A. F. Morrison,  
 J. W. Mullinax,  K. Nanda,  T. S. Nguyen-Beck,  R. Olivares-Amaya,  
 K. J. Oosterbaan,  J. A. Parkhill,  S. K. Paul,  F. Pavosevic,  Zheng Pei,  
 T. M. Perrine,  F. Plasser,  P. Pokhilko,  S. Prager,  A. Prociuk,  
 E. Ramos,  B. Rana,  D. R. Rehn,  F. Rob,  M. Scheurer,  M. Schneider,  
 N. Sergueev,  S. M. Sharada,  S. Sharma,  D. W. Small,  T. Stauch,  
 C. J. Stein,  T. Stein,  Yu-Chuan Su,  S. P. Veccham,  Zhen Tao,  
 A. J. W. Thom,  A. Tkatchenko,  T. Tsuchimochi,  N. M. Tubman,  L. Vogt,  
 M. L. Vidal,  O. Vydrov,  M. A. Watson,  J. Wenzel,  M. de Wergifosse,  
 T. A. Wesolowski,  A. White,  J. Witte,  A. Yamada,  Jun Yang,  K. Yao,  
 S. Yeganeh,  S. R. Yost,  Zhi-Qiang You,  A. Zech,  Igor Ying Zhang,  
 Xing Zhang,  Yan Zhao,  Ying Zhu,  B. R. Brooks,  G. K. L. Chan,  
 C. J. Cramer,  M. S. Gordon,  W. J. Hehre,  A. Klamt,  M. W. Schmidt,  
 C. D. Sherrill,  D. G. Truhlar,  A. Aspuru-Guzik,  R. Baer,  A. T. Bell,  
 N. A. Besley,  Jeng-Da Chai,  A. E. DePrince, III,  R. A. DiStasio Jr.,  
 A. Dreuw,  B. D. Dunietz,  T. R. Furlani,  Chao-Ping Hsu,  Yousung Jung,  
 Jing Kong,  D. S. Lambrecht,  WanZhen Liang,  C. Ochsenfeld,  
 V. A. Rassolov,  L. V. Slipchenko,  J. E. Subotnik,  T. Van Voorhis,  
 J. M. Herbert,  A. I. Krylov,  P. M. W. Gill,  M. Head-Gordon

 Contributors to earlier versions of Q-Chem not listed above: 
 R. D. Adamson,  B. Austin,  J. Baker,  G. J. O. Beran,  K. Brandhorst,  
 S. T. Brown,  E. F. C. Byrd,  A. K. Chakraborty,  C.-L. Cheng,  
 Siu Hung Chien,  D. M. Chipman,  D. L. Crittenden,  H. Dachsel,  
 R. J. Doerksen,  A. D. Dutoi,  L. Fusti-Molnar,  W. A. Goddard III,  
 A. Golubeva-Zadorozhnaya,  S. R. Gwaltney,  G. Hawkins,  A. Heyden,  
 S. Hirata,  G. Kedziora,  F. J. Keil,  C. Kelley,  Jihan Kim,  R. A. King,  
 R. Z. Khaliullin,  P. P. Korambath,  W. Kurlancheek,  A. M. Lee,  M. S. Lee,  
 S. V. Levchenko,  Ching Yeh Lin,  D. Liotard,  R. C. Lochan,  I. Lotan,  
 P. E. Maslen,  N. Nair,  D. P. O'Neill,  D. Neuhauser,  E. Neuscamman,  
 C. M. Oana,  R. Olson,  B. Peters,  R. Peverati,  P. A. Pieniazek,  
 Y. M. Rhee,  J. Ritchie,  M. A. Rohrdanz,  E. Rosta,  N. J. Russ,  
 H. F. Schaefer III,  N. E. Schultz,  N. Shenvi,  A. C. Simmonett,  A. Sodt,  
 D. Stuck,  K. S. Thanthiriwatte,  V. Vanovschi,  Tao Wang,  A. Warshel,  
 C. F. Williams,  Q. Wu,  X. Xu,  W. Zhang

 Please cite Q-Chem as follows:
 Y. Shao et al., Mol. Phys. 113, 184-215 (2015)
 DOI: 10.1080/00268976.2014.952696

 Q-Chem 5.3.0 for Intel X86 EM64T Linux

 Parts of Q-Chem use Armadillo 9.800.1 (Horizon Scraper).
 http://arma.sourceforge.net/

 Q-Chem begins on Thu Jul  2 04:14:07 2020  

Host: centos77-c1
0

     Scratch files written to /tmp/26650.centos77-h1/qchem72321//
Processing $rem in /opt/qchem-5.3.0-intel2020u1//config/preferences:
Processing $rem in /home/shihchengli/.qchemrc:

Checking the input file for inconsistencies... 	...done.

--------------------------------------------------------------
User input:
--------------------------------------------------------------
$rem
   JOBTYPE  sp
   EXCHANGE   omegaB97X-D
   BASIS   6-311+G(2df,2pd)
   max_scf_cycles   250
   geom_opt_max_cycles   1500
   basis2 6-31G*
   scf_algorithm rca_diis
   SYM_IGNORE  TRUE
   print_input   true
   geom_opt_dmax   80
   pop_mulliken false
   XC_GRID 000075000302
$end

$molecule
0 1
C       1.2660241472     -0.1045249797     0.2229048842
C       -0.0000003966     0.3539385598     -0.4910366546
H       0.9745353818     -0.4918752383     1.2029373983
H       1.9961949112     0.6886025354     0.3862604685
H       1.7611460471     -0.9120712887     -0.3173224042
C       -1.2660234139     -0.1045302372     0.2229045926
H       0.0000006417     -0.1421468188     -1.4641464130
H       -0.0000027835     1.4279725104     -0.6933263936
H       -0.9745336435     -0.4919072985     1.2029259120
H       -1.7611566314     -0.9120584376     -0.3173396489
H       -1.9961843208     0.6886013592     0.3862832777
$end
--------------------------------------------------------------
 ----------------------------------------------------------------
             Standard Nuclear Orientation (Angstroms)
    I     Atom           X                Y                Z
 ----------------------------------------------------------------
    1      C       1.2660241472    -0.1045249797     0.2229048842
    2      C      -0.0000003966     0.3539385598    -0.4910366546
    3      H       0.9745353818    -0.4918752383     1.2029373983
    4      H       1.9961949112     0.6886025354     0.3862604685
    5      H       1.7611460471    -0.9120712887    -0.3173224042
    6      C      -1.2660234139    -0.1045302372     0.2229045926
    7      H       0.0000006417    -0.1421468188    -1.4641464130
    8      H      -0.0000027835     1.4279725104    -0.6933263936
    9      H      -0.9745336435    -0.4919072985     1.2029259120
   10      H      -1.7611566314    -0.9120584376    -0.3173396489
   11      H      -1.9961843208     0.6886013592     0.3862832777
 ----------------------------------------------------------------
 Nuclear Repulsion Energy =          82.88287199 hartrees
 There are       13 alpha and       13 beta electrons
 Requested basis set is 6-311+G(2df,2pd)
 There are 72 shells and 214 basis functions

 Total QAlloc Memory Limit   2000 MB
 Mega-Array Size       188 MB
 MEM_STATIC part       192 MB

                       Distance Matrix (Angstroms)
             C (  1)   C (  2)   H (  3)   H (  4)   H (  5)   C (  6)
   C (  2)  1.524047
   H (  3)  1.093375  2.129476
   H (  4)  1.090360  2.206002  1.761896
   H (  5)  1.090469  2.175912  1.762530  1.764209
   C (  6)  2.532048  1.524047  2.476006  3.361222  3.179264
   H (  7)  2.109591  1.092265  2.861008  2.845864  2.238219  2.109591
   H (  8)  2.188802  1.092918  2.869034  2.386835  2.952766  2.188802
   H (  9)  2.476006  2.129479  1.949069  3.299360  3.157790  1.093375
   H ( 10)  3.179276  2.175911  3.157817  4.144256  3.522303  1.090469
   H ( 11)  3.361212  2.206001  3.299337  3.992379  4.144242  1.090360
             H (  7)   H (  8)   H (  9)   H ( 10)
   H (  8)  1.749125
   H (  9)  2.861001  2.869045
   H ( 10)  2.238215  2.952757  1.762529
   H ( 11)  2.845872  2.386832  1.761896  1.764209
 
 A cutoff of  1.0D-09 yielded   2533 shell pairs
 There are     22571 function pairs (     27769 Cartesian)
 Smallest overlap matrix eigenvalue = 8.13E-05

 Scale SEOQF with 1.000000e-01/1.000000e-01/1.000000e-01

 Standard Electronic Orientation quadrupole field applied
 Nucleus-field energy     =     0.0000000008 hartrees
 Requested basis set is 6-31G(d)
 There are 28 shells and 58 basis functions
 A cutoff of  1.0D-09 yielded    401 shell pairs
 There are      1772 function pairs (      1967 Cartesian)
 Smallest overlap matrix eigenvalue = 6.19E-03
 Guess from superposition of atomic densities
 Warning:  Energy on first SCF cycle will be non-variational
 SAD guess density has 26.000000 electrons
 Long-range K will be added via erf
 Coulomb attenuation parameter = 0.2 bohr**(-1)
 A restricted hybrid HF-DFT SCF calculation will be
 performed using Relaxed Constraint Minimization + Pulay DIIS
 Exchange:     0.2220 Hartree-Fock + 1.0000 wB97X-D + LR-HF
 Correlation:  1.0000 wB97X-D
 Using Euler-Maclaurin-Lebedev (75,302) quadrature formula
 Dispersion:   Grimme D
 SCF converges when DIIS error is below 1.0E-04
 using 3 threads for integral computing
 -------------------------------------------------------
 OpenMP Integral computing Module                
 Release: version 1.0, May 2013, Q-Chem Inc. Pittsburgh 
 -------------------------------------------------------
 using 3 threads for integral computing
 -------------------------------------------------------
 OpenMP Integral computing Module                
 Release: version 1.0, May 2013, Q-Chem Inc. Pittsburgh 
 -------------------------------------------------------
 ---------------------------------------
  Cycle       Energy         DIIS Error
 ---------------------------------------
    1    -119.6380146996      1.01E-01
    2    -119.0529351131      9.06E-03
    3    -119.0741797841      2.45E-03
    4    -119.0881928041      1.69E-03
    5    -119.0888909262      2.63E-04 Done RCA. Switching to DIIS
    6    -119.0894046056      1.97E-04
    7    -119.0894213084      4.13E-06 Convergence criterion met
 ---------------------------------------
 SCF time:  CPU 18.61 s  wall 6.67 s
 SCF   energy in the small basis set = -119.08942131
 Total energy in the small basis set = -119.08942131
 ----------------------------------------------------
  Cycle       Energy    
 ----------------------------------------------------
    1     -16.5482137482     -1.65E+01
 Long-range K will be added via erf
 Coulomb attenuation parameter = 0.2 bohr**(-1)
 A restricted hybrid HF-DFT SCF calculation will be
 performed using Relaxed Constraint Minimization + Pulay DIIS
 Exchange:     0.2220 Hartree-Fock + 1.0000 wB97X-D + LR-HF
 Correlation:  1.0000 wB97X-D
 Using Euler-Maclaurin-Lebedev (75,302) quadrature formula
 Dispersion:   Grimme D
 SCF converges when DIIS error is below 1.0E-05
 Basis2 calculation detected. Using small basis as guess for larger.
 SCFMinFind is unable to tell whether the solution found is close.
 Resetting ReadMinima to 0 and attempting to follow guess.
 SCFMinFind following SCF Guess.
 using 3 threads for integral computing
 -------------------------------------------------------
 OpenMP Integral computing Module                
 Release: version 1.0, May 2013, Q-Chem Inc. Pittsburgh 
 -------------------------------------------------------
 using 3 threads for integral computing
 -------------------------------------------------------
 OpenMP Integral computing Module                
 Release: version 1.0, May 2013, Q-Chem Inc. Pittsburgh 
 -------------------------------------------------------
 ---------------------------------------
  Cycle       Energy         DIIS Error
 ---------------------------------------
    1    -119.1091585808      4.21E-03
    2    -119.1311538349      6.03E-04 Done RCA. Switching to DIIS
    3    -119.1319865129      4.26E-04
    4    -119.1329805254      4.54E-05
    5    -119.1329953395      1.05E-05
    6    -119.1329960649      4.10E-06 Convergence criterion met
 ---------------------------------------
 SCF time:  CPU 50.91 s  wall 17.22 s
 SCF   energy in the final basis set = -119.13299606
 Total energy in the final basis set = -119.13299606
 
 --------------------------------------------------------------
 
                    Orbital Energies (a.u.)
 --------------------------------------------------------------
 
 Alpha MOs
 -- Occupied --
-10.2716 -10.2637 -10.2637  -0.8823  -0.7756  -0.6787  -0.5446  -0.5329
 -0.4715  -0.4681  -0.4185  -0.4179  -0.3985
 -- Virtual --
  0.0727   0.0879   0.0918   0.1032   0.1216   0.1304   0.1307   0.1322
  0.1448   0.1613   0.1759   0.1881   0.1982   0.2360   0.2760   0.2781
  0.2890   0.3103   0.3191   0.3252   0.3377   0.3713   0.4551   0.4765
  0.4994   0.5043   0.5101   0.5111   0.5292   0.5318   0.5405   0.5858
  0.6103   0.6272   0.6375   0.6399   0.6492   0.6536   0.6838   0.7108
  0.7463   0.7477   0.8771   0.8771   0.9217   0.9331   0.9869   0.9905
  1.0046   1.0119   1.0147   1.0699   1.1477   1.1702   1.2110   1.2152
  1.2386   1.2523   1.2622   1.2713   1.3076   1.3297   1.3486   1.3685
  1.3812   1.3871   1.4362   1.4466   1.4579   1.4713   1.4892   1.5024
  1.5248   1.5528   1.5777   1.5807   1.6293   1.6553   1.6842   1.6858
  1.7057   2.2486   2.3418   2.4225   2.5002   2.5196   2.6461   2.7007
  2.7129   2.7264   2.7912   2.8048   2.8238   2.8249   2.9262   2.9311
  2.9683   2.9977   3.0065   3.0210   3.0453   3.0509   3.1028   3.1478
  3.1514   3.1648   3.1676   3.1859   3.1871   3.2493   3.2520   3.2965
  3.3005   3.3206   3.3242   3.3607   3.3672   3.3909   3.4016   3.4218
  3.4762   3.5151   3.5469   3.5505   3.5756   3.5810   3.6165   3.6278
  3.6554   3.6878   3.6897   3.7059   3.7201   3.7427   3.7877   3.8187
  3.8827   3.8846   3.9222   3.9371   3.9872   4.0271   4.0630   4.0866
  4.1170   4.1410   4.1454   4.1629   4.1643   4.2055   4.2103   4.2122
  4.2329   4.3073   4.3077   4.3142   4.3312   4.4226   4.4587   4.4710
  4.5062   4.5102   4.5539   4.6362   4.7558   4.7988   4.8220   4.8407
  4.9267   4.9625   4.9781   5.0008   5.0220   5.0507   5.0819   5.1147
  5.1540   5.1703   5.2022   5.2213   5.2735   5.2923   5.3105   5.3822
  5.3929   5.4098   5.4205   5.4568   5.5673   5.5905   5.6052   5.7453
  5.9897   6.3257   6.3821   6.4008   6.4213   6.5159  25.0676  25.4455
 25.4595
 --------------------------------------------------------------
 
 -----------------------------------------------------------------
                    Cartesian Multipole Moments
 -----------------------------------------------------------------
    Charge (ESU x 10^10)
                 0.0000
    Dipole Moment (Debye)
         X      -0.0000      Y       0.0167      Z      -0.0932
       Tot       0.0947
    Quadrupole Moments (Debye-Ang)
        XX     -22.2310     XY      -0.0000     YY     -21.3446
        XZ      -0.0000     YZ       0.3430     ZZ     -21.8739
    Octopole Moments (Debye-Ang^2)
       XXX       0.0000    XXY       0.2406    XYY       0.0000
       YYY      -0.6662    XXZ      -0.8416    XYZ      -0.0000
       YYZ      -0.8127    XZZ      -0.0000    YZZ      -1.5818
       ZZZ      -0.2157
    Hexadecapole Moments (Debye-Ang^3)
      XXXX    -203.7622   XXXY      -0.0001   XXYY     -39.8662
      XYYY      -0.0002   YYYY     -50.7152   XXXZ      -0.0000
      XXYZ       4.0794   XYYZ      -0.0000   YYYZ       6.0469
      XXZZ     -45.6871   XYZZ      -0.0000   YYZZ     -19.0501
      XZZZ      -0.0000   YZZZ       5.8431   ZZZZ     -62.7720
 -----------------------------------------------------------------
Archival summary:
1\1\centos77-c1\SP\ProcedureUnspecified\BasisUnspecified\38\shihchen\ThuJul204:14:342020ThuJul204:14:342020\0\\#,ProcedureUnspecified,BasisUnspecified,\\0,1\C\H,1,1.09227\H,1,1.09292,2,106.346\C,1,1.52405,2,106.303,3,-120.06,0\H,4,1.09036,1,114.057,2,113.495,0\H,4,1.09047,1,111.584,2,-9.21127,0\H,4,1.09338,1,107.758,2,-127.152,0\C,1,1.52405,2,106.303,3,120.06,0\H,8,1.09036,1,114.057,2,-113.497,0\H,8,1.09047,1,111.584,2,9.20958,0\H,8,1.09338,1,107.758,2,127.151,0\\\@

 Total job time:  26.73s(wall), 73.02s(cpu) 
 Thu Jul  2 04:14:34 2020

        *************************************************************
        *                                                           *
        *  Thank you very much for using Q-Chem.  Have a nice day.  *
        *                                                           *
        *************************************************************


