                  Welcome to Q-Chem
     A Quantum Leap Into The Future Of Chemistry


 Q-Chem 5.3 (devel), Q-Chem, Inc., Pleasanton, CA (2020)

 Yihan Shao,  Zhengting Gan,  E. Epifanovsky,  A. T. B. Gilbert,  M. Wormit,  
 J. Kussmann,  A. W. Lange,  A. Behn,  Jia Deng,  Xintian Feng,  D. Ghosh,  
 M. Goldey,  P. R. Horn,  L. D. Jacobson,  I. Kaliman,  T. Kus,  A. Landau,  
 Jie Liu,  E. I. Proynov,  R. M. Richard,  R. P. Steele,  E. J. Sundstrom,  
 H. L. Woodcock III,  P. M. Zimmerman,  D. Zuev,  B. Alam,  B. Albrecht,  
 E. Alguire,  S. A. Baeppler,  D. Barton,  Z. Benda,  Y. A. Bernard,  
 E. J. Berquist,  K. B. Bravaya,  H. Burton,  K. Carter-Fenk,  D. Casanova,  
 Chun-Min Chang,  Yunqing Chen,  A. Chien,  K. D. Closser,  M. P. Coons,  
 S. Coriani,  S. Dasgupta,  A. L. Dempwolff,  M. Diedenhofen,  Hainam Do,  
 R. G. Edgar,  Po-Tung Fang,  S. Faraji,  S. Fatehi,  Qingguo Feng,  
 J. Fosso-Tande,  J. Gayvert,  Qinghui Ge,  A. Ghysels,  G. Gidofalvi,  
 J. Gomes,  J. Gonthier,  A. Gunina,  D. Hait,  M. W. D. Hanson-Heine,  
 P. H. P. Harbach,  A. W. Hauser,  M. F. Herbst,  J. E. Herr,  
 E. G. Hohenstein,  Z. C. Holden,  Kerwin Hui,  B. C. Huynh,  T.-C. Jagau,  
 Hyunjun Ji,  B. Kaduk,  K. Khistyaev,  Jaehoon Kim,  P. Klunzinger,  K. Koh,  
 D. Kosenkov,  L. Koulias,  T. Kowalczyk,  C. M. Krauter,  A. Kunitsa,  
 Ka Un Lao,  A. Laurent,  K. V. Lawler,  Joonho Lee,  D. Lefrancois,  
 S. Lehtola,  D. S. Levine,  Yi-Pei Li,  You-Sheng Lin,  Fenglai Liu,  
 Kuan-Yu Liu,  E. Livshits,  M. Loipersberger,  A. Luenser,  P. Manohar,  
 E. Mansoor,  S. F. Manzer,  Shan-Ping Mao,  Yuezhi Mao,  N. Mardirossian,  
 A. V. Marenich,  T. Markovich,  L. A. Martinez-Martinez,  S. A. Maurer,  
 N. J. Mayhall,  S. C. McKenzie,  J.-M. Mewes,  P. Morgante,  A. F. Morrison,  
 J. W. Mullinax,  K. Nanda,  T. S. Nguyen-Beck,  R. Olivares-Amaya,  
 K. J. Oosterbaan,  J. A. Parkhill,  S. K. Paul,  F. Pavosevic,  Zheng Pei,  
 T. M. Perrine,  F. Plasser,  P. Pokhilko,  S. Prager,  A. Prociuk,  
 E. Ramos,  B. Rana,  D. R. Rehn,  F. Rob,  M. Scheurer,  M. Schneider,  
 N. Sergueev,  S. M. Sharada,  S. Sharma,  D. W. Small,  T. Stauch,  
 C. J. Stein,  T. Stein,  Yu-Chuan Su,  S. P. Veccham,  Zhen Tao,  
 A. J. W. Thom,  A. Tkatchenko,  T. Tsuchimochi,  N. M. Tubman,  L. Vogt,  
 M. L. Vidal,  O. Vydrov,  M. A. Watson,  J. Wenzel,  M. de Wergifosse,  
 T. A. Wesolowski,  A. White,  J. Witte,  A. Yamada,  Jun Yang,  K. Yao,  
 S. Yeganeh,  S. R. Yost,  Zhi-Qiang You,  A. Zech,  Igor Ying Zhang,  
 Xing Zhang,  Yan Zhao,  Ying Zhu,  B. R. Brooks,  G. K. L. Chan,  
 C. J. Cramer,  M. S. Gordon,  W. J. Hehre,  A. Klamt,  M. W. Schmidt,  
 C. D. Sherrill,  D. G. Truhlar,  A. Aspuru-Guzik,  R. Baer,  A. T. Bell,  
 N. A. Besley,  Jeng-Da Chai,  A. E. DePrince, III,  R. A. DiStasio Jr.,  
 A. Dreuw,  B. D. Dunietz,  T. R. Furlani,  Chao-Ping Hsu,  Yousung Jung,  
 Jing Kong,  D. S. Lambrecht,  WanZhen Liang,  C. Ochsenfeld,  
 V. A. Rassolov,  L. V. Slipchenko,  J. E. Subotnik,  T. Van Voorhis,  
 J. M. Herbert,  A. I. Krylov,  P. M. W. Gill,  M. Head-Gordon

 Contributors to earlier versions of Q-Chem not listed above: 
 R. D. Adamson,  B. Austin,  J. Baker,  G. J. O. Beran,  K. Brandhorst,  
 S. T. Brown,  E. F. C. Byrd,  A. K. Chakraborty,  C.-L. Cheng,  
 Siu Hung Chien,  D. M. Chipman,  D. L. Crittenden,  H. Dachsel,  
 R. J. Doerksen,  A. D. Dutoi,  L. Fusti-Molnar,  W. A. Goddard III,  
 A. Golubeva-Zadorozhnaya,  S. R. Gwaltney,  G. Hawkins,  A. Heyden,  
 S. Hirata,  G. Kedziora,  F. J. Keil,  C. Kelley,  Jihan Kim,  R. A. King,  
 R. Z. Khaliullin,  P. P. Korambath,  W. Kurlancheek,  A. M. Lee,  M. S. Lee,  
 S. V. Levchenko,  Ching Yeh Lin,  D. Liotard,  R. C. Lochan,  I. Lotan,  
 P. E. Maslen,  N. Nair,  D. P. O'Neill,  D. Neuhauser,  E. Neuscamman,  
 C. M. Oana,  R. Olson,  B. Peters,  R. Peverati,  P. A. Pieniazek,  
 Y. M. Rhee,  J. Ritchie,  M. A. Rohrdanz,  E. Rosta,  N. J. Russ,  
 H. F. Schaefer III,  N. E. Schultz,  N. Shenvi,  A. C. Simmonett,  A. Sodt,  
 D. Stuck,  K. S. Thanthiriwatte,  V. Vanovschi,  Tao Wang,  A. Warshel,  
 C. F. Williams,  Q. Wu,  X. Xu,  W. Zhang

 Please cite Q-Chem as follows:
 Y. Shao et al., Mol. Phys. 113, 184-215 (2015)
 DOI: 10.1080/00268976.2014.952696

 Q-Chem 5.3.0 for Intel X86 EM64T Linux

 Parts of Q-Chem use Armadillo 9.800.1 (Horizon Scraper).
 http://arma.sourceforge.net/

 Q-Chem begins on Tue Jul  7 00:37:31 2020  

Host: centos77-c4
0

     Scratch files written to /tmp/26963.centos77-h1/qchem89597//
Processing $rem in /opt/qchem-5.3.0-intel2020u1//config/preferences:
Processing $rem in /home/shihchengli/.qchemrc:

Checking the input file for inconsistencies... 	...done.

--------------------------------------------------------------
User input:
--------------------------------------------------------------
$rem
   JOBTYPE  sp
   EXCHANGE   omegaB97X-D
   BASIS   6-311+G(2df,2pd)
   UNRESTRICTED   False
   max_scf_cycles   250
   geom_opt_max_cycles   1500
   basis2 6-31G*
   scf_algorithm rca_diis
   SYM_IGNORE  TRUE
   print_input   true
   geom_opt_dmax   80
   pop_mulliken false
   XC_GRID 000075000302
$end

$molecule
0 1
C       1.2662980842     -0.0916444186     0.2314190262
C       -0.0000002820     0.3143128213     -0.5131659670
H       0.9716775735     -0.5564749388     1.1759891209
H       1.9228537032     0.7464132848     0.4677809651
H       1.8453091862     -0.8245375870     -0.3313740288
C       -1.2662974486     -0.0916489792     0.2314189048
H       0.0000006796     -0.2366654579     -1.4563002370
H       -0.0000023569     1.3748623508     -0.7771143788
H       -0.9716779144     -0.5565014600     1.1759782267
H       -1.8453176091     -0.8245253587     -0.3313869147
H       -1.9228436763     0.7464104093     0.4678003015
$end
--------------------------------------------------------------
 ----------------------------------------------------------------
             Standard Nuclear Orientation (Angstroms)
    I     Atom           X                Y                Z
 ----------------------------------------------------------------
    1      C       1.2662980842    -0.0916444186     0.2314190262
    2      C      -0.0000002820     0.3143128213    -0.5131659670
    3      H       0.9716775735    -0.5564749388     1.1759891209
    4      H       1.9228537032     0.7464132848     0.4677809651
    5      H       1.8453091862    -0.8245375870    -0.3313740288
    6      C      -1.2662974486    -0.0916489792     0.2314189048
    7      H       0.0000006796    -0.2366654579    -1.4563002370
    8      H      -0.0000023569     1.3748623508    -0.7771143788
    9      H      -0.9716779144    -0.5565014600     1.1759782267
   10      H      -1.8453176091    -0.8245253587    -0.3313869147
   11      H      -1.9228436763     0.7464104093     0.4678003015
 ----------------------------------------------------------------
 Nuclear Repulsion Energy =          82.87053366 hartrees
 There are       13 alpha and       13 beta electrons
 Requested basis set is 6-311+G(2df,2pd)
 There are 72 shells and 214 basis functions

 Total QAlloc Memory Limit   2000 MB
 Mega-Array Size       188 MB
 MEM_STATIC part       192 MB

                       Distance Matrix (Angstroms)
             C (  1)   C (  2)   H (  3)   H (  4)   H (  5)   C (  6)
   C (  2)  1.524047
   H (  3)  1.093198  2.134403
   H (  4)  1.090538  2.201439  1.761764
   H (  5)  1.090469  2.176050  1.762735  1.764242
   C (  6)  2.532596  1.524047  2.473218  3.305889  3.245914
   H (  7)  2.114932  1.092282  2.824072  2.892386  2.239691  2.114932
   H (  8)  2.184330  1.092902  2.913561  2.375308  2.905378  2.184330
   H (  9)  2.473221  2.134405  1.943355  3.252298  3.206146  1.093198
   H ( 10)  3.245923  2.176050  3.206165  4.160004  3.690627  1.090469
   H ( 11)  3.305879  2.201438  3.252275  3.845697  4.159992  1.090538
             H (  7)   H (  8)   H (  9)   H ( 10)
   H (  8)  1.748804
   H (  9)  2.824065  2.913570
   H ( 10)  2.239689  2.905369  1.762734
   H ( 11)  2.892392  2.375307  1.761764  1.764242
 
 A cutoff of  1.0D-09 yielded   2535 shell pairs
 There are     22583 function pairs (     27799 Cartesian)
 Smallest overlap matrix eigenvalue = 8.14E-05

 Scale SEOQF with 1.000000e-01/1.000000e-01/1.000000e-01

 Standard Electronic Orientation quadrupole field applied
 Nucleus-field energy     =     0.0000000008 hartrees
 Requested basis set is 6-31G(d)
 There are 28 shells and 58 basis functions
 A cutoff of  1.0D-09 yielded    399 shell pairs
 There are      1770 function pairs (      1965 Cartesian)
 Smallest overlap matrix eigenvalue = 6.13E-03
 Guess from superposition of atomic densities
 Warning:  Energy on first SCF cycle will be non-variational
 SAD guess density has 26.000000 electrons
 Long-range K will be added via erf
 Coulomb attenuation parameter = 0.2 bohr**(-1)
 A restricted hybrid HF-DFT SCF calculation will be
 performed using Relaxed Constraint Minimization + Pulay DIIS
 Exchange:     0.2220 Hartree-Fock + 1.0000 wB97X-D + LR-HF
 Correlation:  1.0000 wB97X-D
 Using Euler-Maclaurin-Lebedev (75,302) quadrature formula
 Dispersion:   Grimme D
 SCF converges when DIIS error is below 1.0E-04
 using 3 threads for integral computing
 -------------------------------------------------------
 OpenMP Integral computing Module                
 Release: version 1.0, May 2013, Q-Chem Inc. Pittsburgh 
 -------------------------------------------------------
 using 3 threads for integral computing
 -------------------------------------------------------
 OpenMP Integral computing Module                
 Release: version 1.0, May 2013, Q-Chem Inc. Pittsburgh 
 -------------------------------------------------------
 ---------------------------------------
  Cycle       Energy         DIIS Error
 ---------------------------------------
    1    -119.6378736589      1.01E-01
    2    -119.0527534361      9.07E-03
    3    -119.0740395196      2.45E-03
    4    -119.0880904725      1.69E-03
    5    -119.0887876237      2.63E-04 Done RCA. Switching to DIIS
    6    -119.0893006869      1.96E-04
    7    -119.0893173428      4.12E-06 Convergence criterion met
 ---------------------------------------
 SCF time:  CPU 20.52 s  wall 7.62 s
 SCF   energy in the small basis set = -119.08931734
 Total energy in the small basis set = -119.08931734
 ----------------------------------------------------
  Cycle       Energy    
 ----------------------------------------------------
    1     -16.5486774912     -1.65E+01
 Long-range K will be added via erf
 Coulomb attenuation parameter = 0.2 bohr**(-1)
 A restricted hybrid HF-DFT SCF calculation will be
 performed using Relaxed Constraint Minimization + Pulay DIIS
 Exchange:     0.2220 Hartree-Fock + 1.0000 wB97X-D + LR-HF
 Correlation:  1.0000 wB97X-D
 Using Euler-Maclaurin-Lebedev (75,302) quadrature formula
 Dispersion:   Grimme D
 SCF converges when DIIS error is below 1.0E-05
 Basis2 calculation detected. Using small basis as guess for larger.
 SCFMinFind is unable to tell whether the solution found is close.
 Resetting ReadMinima to 0 and attempting to follow guess.
 SCFMinFind following SCF Guess.
 using 3 threads for integral computing
 -------------------------------------------------------
 OpenMP Integral computing Module                
 Release: version 1.0, May 2013, Q-Chem Inc. Pittsburgh 
 -------------------------------------------------------
 using 3 threads for integral computing
 -------------------------------------------------------
 OpenMP Integral computing Module                
 Release: version 1.0, May 2013, Q-Chem Inc. Pittsburgh 
 -------------------------------------------------------
 ---------------------------------------
  Cycle       Energy         DIIS Error
 ---------------------------------------
    1    -119.1090618429      4.21E-03
    2    -119.1310487694      6.02E-04 Done RCA. Switching to DIIS
    3    -119.1318802137      4.26E-04
    4    -119.1328736862      4.53E-05
    5    -119.1328884949      1.04E-05
    6    -119.1328892162      4.08E-06 Convergence criterion met
 ---------------------------------------
 SCF time:  CPU 50.96 s  wall 17.20 s
 SCF   energy in the final basis set = -119.13288922
 Total energy in the final basis set = -119.13288922
 
 --------------------------------------------------------------
 
                    Orbital Energies (a.u.)
 --------------------------------------------------------------
 
 Alpha MOs
 -- Occupied --
-10.2715 -10.2635 -10.2634  -0.8821  -0.7755  -0.6786  -0.5442  -0.5325
 -0.4718  -0.4686  -0.4196  -0.4164  -0.3982
 -- Virtual --
  0.0728   0.0881   0.0917   0.1042   0.1210   0.1299   0.1309   0.1320
  0.1445   0.1610   0.1762   0.1879   0.1979   0.2363   0.2779   0.2786
  0.2889   0.3071   0.3196   0.3278   0.3397   0.3740   0.4552   0.4778
  0.5003   0.5071   0.5089   0.5099   0.5272   0.5352   0.5376   0.5774
  0.6121   0.6305   0.6347   0.6405   0.6491   0.6532   0.6823   0.7104
  0.7450   0.7498   0.8704   0.8821   0.9318   0.9343   0.9869   0.9992
  1.0011   1.0145   1.0196   1.0584   1.1473   1.1646   1.2044   1.2073
  1.2418   1.2572   1.2607   1.2623   1.3127   1.3332   1.3532   1.3706
  1.3804   1.3807   1.4394   1.4496   1.4539   1.4691   1.4909   1.5084
  1.5320   1.5438   1.5802   1.5875   1.6408   1.6489   1.6853   1.6856
  1.7024   2.2345   2.3326   2.4257   2.4926   2.5385   2.6287   2.6905
  2.7092   2.7346   2.8029   2.8056   2.8195   2.8328   2.9309   2.9323
  2.9634   2.9961   3.0002   3.0192   3.0404   3.0495   3.1081   3.1471
  3.1652   3.1659   3.1797   3.1870   3.1903   3.2388   3.2572   3.2963
  3.3021   3.3066   3.3443   3.3500   3.3697   3.3826   3.3863   3.4077
  3.4760   3.5193   3.5500   3.5564   3.5756   3.5766   3.6224   3.6323
  3.6379   3.6877   3.6952   3.7054   3.7276   3.7420   3.7847   3.8382
  3.8654   3.8981   3.9243   3.9360   3.9806   4.0322   4.0612   4.0765
  4.1012   4.1377   4.1388   4.1574   4.1607   4.2089   4.2132   4.2320
  4.2366   4.3042   4.3099   4.3234   4.3294   4.4189   4.4654   4.4737
  4.4946   4.5172   4.5529   4.6438   4.7437   4.7900   4.8210   4.8425
  4.9284   4.9578   4.9773   4.9969   5.0258   5.0566   5.0932   5.1194
  5.1476   5.1703   5.1992   5.2127   5.2880   5.2913   5.3009   5.3811
  5.4000   5.4076   5.4350   5.4462   5.5535   5.5944   5.6047   5.7471
  5.9924   6.3214   6.3816   6.4042   6.4252   6.5141  25.0636  25.4492
 25.4571
 --------------------------------------------------------------
 
 -----------------------------------------------------------------
                    Cartesian Multipole Moments
 -----------------------------------------------------------------
    Charge (ESU x 10^10)
                -0.0000
    Dipole Moment (Debye)
         X      -0.0000      Y       0.0146      Z      -0.0915
       Tot       0.0927
    Quadrupole Moments (Debye-Ang)
        XX     -22.2896     XY      -0.0000     YY     -21.3121
        XZ      -0.0000     YZ       0.3046     ZZ     -21.8560
    Octopole Moments (Debye-Ang^2)
       XXX       0.0000    XXY       0.0587    XYY       0.0000
       YYY      -0.3607    XXZ      -0.9235    XYZ      -0.0000
       YYZ      -0.6371    XZZ      -0.0000    YZZ      -1.5406
       ZZZ      -0.2394
    Hexadecapole Moments (Debye-Ang^3)
      XXXX    -204.8706   XXXY      -0.0001   XXYY     -39.7333
      XYYY      -0.0002   YYYY     -49.3681   XXXZ      -0.0000
      XXYZ       4.2140   XYYZ      -0.0000   YYYZ       5.4486
      XXZZ     -45.6375   XYZZ      -0.0000   YYZZ     -18.6907
      XZZZ      -0.0000   YZZZ       5.2914   ZZZZ     -64.7087
 -----------------------------------------------------------------
Archival summary:
1\1\centos77-c4\SP\ProcedureUnspecified\BasisUnspecified\38\shihchen\TueJul700:37:592020TueJul700:37:592020\0\\#,ProcedureUnspecified,BasisUnspecified,\\0,1\C\H,1,1.09228\H,1,1.0929,2,106.318\C,1,1.52405,2,106.707,3,-119.831,0\H,4,1.09047,1,111.596,2,-0.829307,0\H,4,1.09054,1,113.667,2,121.579,0\H,4,1.0932,1,108.148,2,-119.057,0\C,1,1.52405,2,106.707,3,119.831,0\H,8,1.09047,1,111.596,2,0.827869,0\H,8,1.09054,1,113.667,2,-121.581,0\H,8,1.0932,1,108.148,2,119.055,0\\\@

 Total job time:  27.80s(wall), 75.30s(cpu) 
 Tue Jul  7 00:37:59 2020

        *************************************************************
        *                                                           *
        *  Thank you very much for using Q-Chem.  Have a nice day.  *
        *                                                           *
        *************************************************************


