                  Welcome to Q-Chem
     A Quantum Leap Into The Future Of Chemistry


 Q-Chem 5.3 (devel), Q-Chem, Inc., Pleasanton, CA (2020)

 Yihan Shao,  Zhengting Gan,  E. Epifanovsky,  A. T. B. Gilbert,  M. Wormit,  
 J. Kussmann,  A. W. Lange,  A. Behn,  Jia Deng,  Xintian Feng,  D. Ghosh,  
 M. Goldey,  P. R. Horn,  L. D. Jacobson,  I. Kaliman,  T. Kus,  A. Landau,  
 Jie Liu,  E. I. Proynov,  R. M. Richard,  R. P. Steele,  E. J. Sundstrom,  
 H. L. Woodcock III,  P. M. Zimmerman,  D. Zuev,  B. Alam,  B. Albrecht,  
 E. Alguire,  S. A. Baeppler,  D. Barton,  Z. Benda,  Y. A. Bernard,  
 E. J. Berquist,  K. B. Bravaya,  H. Burton,  K. Carter-Fenk,  D. Casanova,  
 Chun-Min Chang,  Yunqing Chen,  A. Chien,  K. D. Closser,  M. P. Coons,  
 S. Coriani,  S. Dasgupta,  A. L. Dempwolff,  M. Diedenhofen,  Hainam Do,  
 R. G. Edgar,  Po-Tung Fang,  S. Faraji,  S. Fatehi,  Qingguo Feng,  
 J. Fosso-Tande,  J. Gayvert,  Qinghui Ge,  A. Ghysels,  G. Gidofalvi,  
 J. Gomes,  J. Gonthier,  A. Gunina,  D. Hait,  M. W. D. Hanson-Heine,  
 P. H. P. Harbach,  A. W. Hauser,  M. F. Herbst,  J. E. Herr,  
 E. G. Hohenstein,  Z. C. Holden,  Kerwin Hui,  B. C. Huynh,  T.-C. Jagau,  
 Hyunjun Ji,  B. Kaduk,  K. Khistyaev,  Jaehoon Kim,  P. Klunzinger,  K. Koh,  
 D. Kosenkov,  L. Koulias,  T. Kowalczyk,  C. M. Krauter,  A. Kunitsa,  
 Ka Un Lao,  A. Laurent,  K. V. Lawler,  Joonho Lee,  D. Lefrancois,  
 S. Lehtola,  D. S. Levine,  Yi-Pei Li,  You-Sheng Lin,  Fenglai Liu,  
 Kuan-Yu Liu,  E. Livshits,  M. Loipersberger,  A. Luenser,  P. Manohar,  
 E. Mansoor,  S. F. Manzer,  Shan-Ping Mao,  Yuezhi Mao,  N. Mardirossian,  
 A. V. Marenich,  T. Markovich,  L. A. Martinez-Martinez,  S. A. Maurer,  
 N. J. Mayhall,  S. C. McKenzie,  J.-M. Mewes,  P. Morgante,  A. F. Morrison,  
 J. W. Mullinax,  K. Nanda,  T. S. Nguyen-Beck,  R. Olivares-Amaya,  
 K. J. Oosterbaan,  J. A. Parkhill,  S. K. Paul,  F. Pavosevic,  Zheng Pei,  
 T. M. Perrine,  F. Plasser,  P. Pokhilko,  S. Prager,  A. Prociuk,  
 E. Ramos,  B. Rana,  D. R. Rehn,  F. Rob,  M. Scheurer,  M. Schneider,  
 N. Sergueev,  S. M. Sharada,  S. Sharma,  D. W. Small,  T. Stauch,  
 C. J. Stein,  T. Stein,  Yu-Chuan Su,  S. P. Veccham,  Zhen Tao,  
 A. J. W. Thom,  A. Tkatchenko,  T. Tsuchimochi,  N. M. Tubman,  L. Vogt,  
 M. L. Vidal,  O. Vydrov,  M. A. Watson,  J. Wenzel,  M. de Wergifosse,  
 T. A. Wesolowski,  A. White,  J. Witte,  A. Yamada,  Jun Yang,  K. Yao,  
 S. Yeganeh,  S. R. Yost,  Zhi-Qiang You,  A. Zech,  Igor Ying Zhang,  
 Xing Zhang,  Yan Zhao,  Ying Zhu,  B. R. Brooks,  G. K. L. Chan,  
 C. J. Cramer,  M. S. Gordon,  W. J. Hehre,  A. Klamt,  M. W. Schmidt,  
 C. D. Sherrill,  D. G. Truhlar,  A. Aspuru-Guzik,  R. Baer,  A. T. Bell,  
 N. A. Besley,  Jeng-Da Chai,  A. E. DePrince, III,  R. A. DiStasio Jr.,  
 A. Dreuw,  B. D. Dunietz,  T. R. Furlani,  Chao-Ping Hsu,  Yousung Jung,  
 Jing Kong,  D. S. Lambrecht,  WanZhen Liang,  C. Ochsenfeld,  
 V. A. Rassolov,  L. V. Slipchenko,  J. E. Subotnik,  T. Van Voorhis,  
 J. M. Herbert,  A. I. Krylov,  P. M. W. Gill,  M. Head-Gordon

 Contributors to earlier versions of Q-Chem not listed above: 
 R. D. Adamson,  B. Austin,  J. Baker,  G. J. O. Beran,  K. Brandhorst,  
 S. T. Brown,  E. F. C. Byrd,  A. K. Chakraborty,  C.-L. Cheng,  
 Siu Hung Chien,  D. M. Chipman,  D. L. Crittenden,  H. Dachsel,  
 R. J. Doerksen,  A. D. Dutoi,  L. Fusti-Molnar,  W. A. Goddard III,  
 A. Golubeva-Zadorozhnaya,  S. R. Gwaltney,  G. Hawkins,  A. Heyden,  
 S. Hirata,  G. Kedziora,  F. J. Keil,  C. Kelley,  Jihan Kim,  R. A. King,  
 R. Z. Khaliullin,  P. P. Korambath,  W. Kurlancheek,  A. M. Lee,  M. S. Lee,  
 S. V. Levchenko,  Ching Yeh Lin,  D. Liotard,  R. C. Lochan,  I. Lotan,  
 P. E. Maslen,  N. Nair,  D. P. O'Neill,  D. Neuhauser,  E. Neuscamman,  
 C. M. Oana,  R. Olson,  B. Peters,  R. Peverati,  P. A. Pieniazek,  
 Y. M. Rhee,  J. Ritchie,  M. A. Rohrdanz,  E. Rosta,  N. J. Russ,  
 H. F. Schaefer III,  N. E. Schultz,  N. Shenvi,  A. C. Simmonett,  A. Sodt,  
 D. Stuck,  K. S. Thanthiriwatte,  V. Vanovschi,  Tao Wang,  A. Warshel,  
 C. F. Williams,  Q. Wu,  X. Xu,  W. Zhang

 Please cite Q-Chem as follows:
 Y. Shao et al., Mol. Phys. 113, 184-215 (2015)
 DOI: 10.1080/00268976.2014.952696

 Q-Chem 5.3.0 for Intel X86 EM64T Linux

 Parts of Q-Chem use Armadillo 9.800.1 (Horizon Scraper).
 http://arma.sourceforge.net/

 Q-Chem begins on Tue Jul  7 02:05:19 2020  

Host: centos77-c4
0

     Scratch files written to /tmp/26963.centos77-h1/qchem107807//
Processing $rem in /opt/qchem-5.3.0-intel2020u1//config/preferences:
Processing $rem in /home/shihchengli/.qchemrc:

Checking the input file for inconsistencies... 	...done.

--------------------------------------------------------------
User input:
--------------------------------------------------------------
$rem
   JOBTYPE  sp
   EXCHANGE   omegaB97X-D
   BASIS   6-311+G(2df,2pd)
   UNRESTRICTED   False
   max_scf_cycles   250
   geom_opt_max_cycles   1500
   basis2 6-31G*
   scf_algorithm rca_diis
   SYM_IGNORE  TRUE
   print_input   true
   geom_opt_dmax   80
   pop_mulliken false
   XC_GRID 000075000302
$end

$molecule
0 1
C       1.2561667611     -0.0000000473     0.2305151890
C       -0.0000011926     -0.0000001926     -0.6053149669
H       1.3101808415     -1.0244461141     0.9879394197
H       1.3101806753     1.0244458958     0.9879393922
H       2.2871925640     0.0000000294     -0.4658585626
C       -1.2561695770     -0.0000004399     0.2305170446
H       -0.0000014651     -0.8799313647     -1.2673525156
H       -0.0000016419     0.8799314506     -1.2673527778
H       -1.3101815004     -1.0244323139     0.9879302736
H       -2.2871838175     0.0000004191     -0.4658489177
H       -1.3101817081     1.0244333436     0.9879314404
$end
--------------------------------------------------------------
 ----------------------------------------------------------------
             Standard Nuclear Orientation (Angstroms)
    I     Atom           X                Y                Z
 ----------------------------------------------------------------
    1      C       1.2561667611    -0.0000000473     0.2305151890
    2      C      -0.0000011926    -0.0000001926    -0.6053149669
    3      H       1.3101808415    -1.0244461141     0.9879394197
    4      H       1.3101806753     1.0244458958     0.9879393922
    5      H       2.2871925640     0.0000000294    -0.4658585626
    6      C      -1.2561695770    -0.0000004399     0.2305170446
    7      H      -0.0000014651    -0.8799313647    -1.2673525156
    8      H      -0.0000016419     0.8799314506    -1.2673527778
    9      H      -1.3101815004    -1.0244323139     0.9879302736
   10      H      -2.2871838175     0.0000004191    -0.4658489177
   11      H      -1.3101817081     1.0244333436     0.9879314404
 ----------------------------------------------------------------
 Nuclear Repulsion Energy =          79.57368829 hartrees
 There are       13 alpha and       13 beta electrons
 Requested basis set is 6-311+G(2df,2pd)
 There are 72 shells and 214 basis functions

 Total QAlloc Memory Limit   2000 MB
 Mega-Array Size       188 MB
 MEM_STATIC part       192 MB

                       Distance Matrix (Angstroms)
             C (  1)   C (  2)   H (  3)   H (  4)   H (  5)   C (  6)
   C (  2)  1.508831
   H (  3)  1.275186  2.303156
   H (  4)  1.275186  2.303156  2.048892
   H (  5)  1.244167  2.291441  2.029180  2.029180
   C (  6)  2.512336  1.508832  2.865193  2.865193  3.611143
   H (  7)  2.143792  1.101169  2.612241  3.229485  2.578358  2.143793
   H (  8)  2.143793  1.101169  3.229485  2.612241  2.578358  2.143794
   H (  9)  2.865185  2.303142  2.620362  3.326289  4.012987  1.275168
   H ( 10)  3.611130  2.291431  4.012982  4.012981  4.574376  1.244153
   H ( 11)  2.865185  2.303144  3.326290  2.620362  4.012988  1.275170
             H (  7)   H (  8)   H (  9)   H ( 10)
   H (  8)  1.759863
   H (  9)  2.612231  3.229470
   H ( 10)  2.578350  2.578350  2.029155
   H ( 11)  3.229471  2.612233  2.048866  2.029156
 
 A cutoff of  1.0D-09 yielded   2506 shell pairs
 There are     22320 function pairs (     27455 Cartesian)
 Smallest overlap matrix eigenvalue = 7.89E-05

 Scale SEOQF with 1.000000e-01/1.000000e-01/1.000000e-01

 Standard Electronic Orientation quadrupole field applied
 Nucleus-field energy     =     0.0000000006 hartrees
 Requested basis set is 6-31G(d)
 There are 28 shells and 58 basis functions
 A cutoff of  1.0D-09 yielded    402 shell pairs
 There are      1773 function pairs (      1968 Cartesian)
 Smallest overlap matrix eigenvalue = 7.18E-03
 Guess from superposition of atomic densities
 Warning:  Energy on first SCF cycle will be non-variational
 SAD guess density has 26.000000 electrons
 Long-range K will be added via erf
 Coulomb attenuation parameter = 0.2 bohr**(-1)
 A restricted hybrid HF-DFT SCF calculation will be
 performed using Relaxed Constraint Minimization + Pulay DIIS
 Exchange:     0.2220 Hartree-Fock + 1.0000 wB97X-D + LR-HF
 Correlation:  1.0000 wB97X-D
 Using Euler-Maclaurin-Lebedev (75,302) quadrature formula
 Dispersion:   Grimme D
 SCF converges when DIIS error is below 1.0E-04
 using 3 threads for integral computing
 -------------------------------------------------------
 OpenMP Integral computing Module                
 Release: version 1.0, May 2013, Q-Chem Inc. Pittsburgh 
 -------------------------------------------------------
 using 3 threads for integral computing
 -------------------------------------------------------
 OpenMP Integral computing Module                
 Release: version 1.0, May 2013, Q-Chem Inc. Pittsburgh 
 -------------------------------------------------------
 ---------------------------------------
  Cycle       Energy         DIIS Error
 ---------------------------------------
    1    -119.0899317274      8.60E-02
    2    -119.0035548842      6.59E-03
    3    -119.0147470781      1.73E-03
    4    -119.0241008876      1.09E-03
    5    -119.0243893185      1.28E-04 Done RCA. Switching to DIIS
    6    -119.0246520349      7.41E-05 Convergence criterion met
 ---------------------------------------
 SCF time:  CPU 18.91 s  wall 7.03 s
 SCF   energy in the small basis set = -119.02465203
 Total energy in the small basis set = -119.02465203
 ----------------------------------------------------
  Cycle       Energy    
 ----------------------------------------------------
    1     -16.2360000282     -1.62E+01
 Long-range K will be added via erf
 Coulomb attenuation parameter = 0.2 bohr**(-1)
 A restricted hybrid HF-DFT SCF calculation will be
 performed using Relaxed Constraint Minimization + Pulay DIIS
 Exchange:     0.2220 Hartree-Fock + 1.0000 wB97X-D + LR-HF
 Correlation:  1.0000 wB97X-D
 Using Euler-Maclaurin-Lebedev (75,302) quadrature formula
 Dispersion:   Grimme D
 SCF converges when DIIS error is below 1.0E-05
 Basis2 calculation detected. Using small basis as guess for larger.
 SCFMinFind is unable to tell whether the solution found is close.
 Resetting ReadMinima to 0 and attempting to follow guess.
 SCFMinFind following SCF Guess.
 using 3 threads for integral computing
 -------------------------------------------------------
 OpenMP Integral computing Module                
 Release: version 1.0, May 2013, Q-Chem Inc. Pittsburgh 
 -------------------------------------------------------
 using 3 threads for integral computing
 -------------------------------------------------------
 OpenMP Integral computing Module                
 Release: version 1.0, May 2013, Q-Chem Inc. Pittsburgh 
 -------------------------------------------------------
 ---------------------------------------
  Cycle       Energy         DIIS Error
 ---------------------------------------
    1    -119.0417664427      4.17E-03
    2    -119.0632055229      5.03E-04 Done RCA. Switching to DIIS
    3    -119.0637176625      3.95E-04
    4    -119.0646295283      5.02E-05
    5    -119.0646496819      8.94E-06 Convergence criterion met
 ---------------------------------------
 SCF time:  CPU 40.67 s  wall 13.58 s
 SCF   energy in the final basis set = -119.06464968
 Total energy in the final basis set = -119.06464968
 
 --------------------------------------------------------------
 
                    Orbital Energies (a.u.)
 --------------------------------------------------------------
 
 Alpha MOs
 -- Occupied --
-10.3197 -10.3197 -10.2862  -0.8802  -0.7442  -0.6535  -0.5382  -0.5127
 -0.4676  -0.4301  -0.4114  -0.4107  -0.3953
 -- Virtual --
  0.0640   0.0823   0.0882   0.0955   0.1219   0.1281   0.1322   0.1341
  0.1407   0.1577   0.1601   0.1850   0.1899   0.1907   0.2103   0.2449
  0.2491   0.2579   0.2843   0.3113   0.3232   0.3366   0.4541   0.4702
  0.4765   0.5050   0.5110   0.5191   0.5398   0.5405   0.5461   0.5551
  0.5876   0.6083   0.6187   0.6193   0.6222   0.6426   0.6449   0.6509
  0.7124   0.7638   0.7808   0.8278   0.8473   0.8624   0.8936   0.9035
  0.9279   1.0133   1.0207   1.0822   1.0887   1.1226   1.1409   1.1606
  1.1851   1.1935   1.2228   1.2266   1.2294   1.2558   1.2993   1.3140
  1.3211   1.3520   1.3783   1.3967   1.4230   1.4356   1.4378   1.4422
  1.4770   1.5066   1.5271   1.5393   1.5866   1.5990   1.6223   1.6433
  1.7065   2.4783   2.4827   2.4888   2.5326   2.5520   2.6382   2.7102
  2.7295   2.7393   2.7456   2.7592   2.7913   2.8129   2.8225   2.8246
  2.8559   2.8684   2.9036   2.9301   2.9412   2.9521   2.9838   3.0462
  3.0485   3.0793   3.1060   3.1188   3.1223   3.1394   3.1849   3.1987
  3.2005   3.2194   3.2584   3.2723   3.2757   3.3009   3.3217   3.3295
  3.3383   3.3721   3.4259   3.4303   3.4901   3.5337   3.5384   3.5731
  3.5813   3.6098   3.6425   3.7097   3.7170   3.7688   3.7805   3.7816
  3.8141   3.8319   3.8477   3.8752   3.8757   3.9030   3.9424   3.9474
  3.9760   3.9810   3.9920   4.0604   4.0882   4.0954   4.0969   4.1026
  4.1238   4.1363   4.1567   4.1932   4.1944   4.2041   4.2623   4.2827
  4.3604   4.3762   4.3833   4.4056   4.4091   4.4697   4.4701   4.5204
  4.5329   4.6055   4.6142   4.6469   4.6599   4.7823   4.8221   4.8501
  4.8586   4.8721   4.8990   4.9013   4.9297   4.9784   4.9804   5.0820
  5.0941   5.1510   5.2834   5.3417   5.3503   5.3853   5.4532   5.6240
  5.8598   5.8719   5.8749   5.9694   5.9707   6.4165  24.6954  24.7109
 25.1961
 --------------------------------------------------------------
 
 -----------------------------------------------------------------
                    Cartesian Multipole Moments
 -----------------------------------------------------------------
    Charge (ESU x 10^10)
                 0.0000
    Dipole Moment (Debye)
         X      -0.0000      Y      -0.0000      Z      -0.4014
       Tot       0.4014
    Quadrupole Moments (Debye-Ang)
        XX     -23.4591     XY       0.0000     YY     -22.1003
        XZ      -0.0000     YZ      -0.0000     ZZ     -22.5458
    Octopole Moments (Debye-Ang^2)
       XXX      -0.0002    XXY       0.0000    XYY      -0.0001
       YYY      -0.0000    XXZ      -2.6481    XYZ       0.0000
       YYZ       0.8316    XZZ      -0.0001    YZZ      -0.0000
       ZZZ      -1.4004
    Hexadecapole Moments (Debye-Ang^3)
      XXXX    -220.6750   XXXY       0.0000   XXYY     -47.6135
      XYYY       0.0000   YYYY     -53.5942   XXXZ      -0.0002
      XXYZ      -0.0000   XYYZ       0.0000   YYYZ      -0.0000
      XXZZ     -49.7088   XYZZ       0.0000   YYZZ     -18.9568
      XZZZ      -0.0000   YZZZ      -0.0000   ZZZZ     -80.9860
 -----------------------------------------------------------------
Archival summary:
1\1\centos77-c4\SP\ProcedureUnspecified\BasisUnspecified\38\shihchen\TueJul702:05:432020TueJul702:05:432020\0\\#,ProcedureUnspecified,BasisUnspecified,\\0,1\C\H,1,1.10117\H,1,1.10117,2,106.086\C,1,1.50883,2,109.454,3,-118,0\H,4,1.24417,1,112.325,2,57.9376,0\H,4,1.27519,1,111.365,2,178.322,0\H,4,1.27519,1,111.365,2,-62.4469,0\C,1,1.50883,2,109.454,3,118,0\H,8,1.24415,1,112.325,2,-57.9377,0\H,8,1.27517,1,111.365,2,62.4469,0\H,8,1.27517,1,111.365,2,-178.322,0\\\@

 Total job time:  23.51s(wall), 63.15s(cpu) 
 Tue Jul  7 02:05:43 2020

        *************************************************************
        *                                                           *
        *  Thank you very much for using Q-Chem.  Have a nice day.  *
        *                                                           *
        *************************************************************


