                  Welcome to Q-Chem
     A Quantum Leap Into The Future Of Chemistry


 Q-Chem 5.3 (devel), Q-Chem, Inc., Pleasanton, CA (2020)

 Yihan Shao,  Zhengting Gan,  E. Epifanovsky,  A. T. B. Gilbert,  M. Wormit,  
 J. Kussmann,  A. W. Lange,  A. Behn,  Jia Deng,  Xintian Feng,  D. Ghosh,  
 M. Goldey,  P. R. Horn,  L. D. Jacobson,  I. Kaliman,  T. Kus,  A. Landau,  
 Jie Liu,  E. I. Proynov,  R. M. Richard,  R. P. Steele,  E. J. Sundstrom,  
 H. L. Woodcock III,  P. M. Zimmerman,  D. Zuev,  B. Alam,  B. Albrecht,  
 E. Alguire,  S. A. Baeppler,  D. Barton,  Z. Benda,  Y. A. Bernard,  
 E. J. Berquist,  K. B. Bravaya,  H. Burton,  K. Carter-Fenk,  D. Casanova,  
 Chun-Min Chang,  Yunqing Chen,  A. Chien,  K. D. Closser,  M. P. Coons,  
 S. Coriani,  S. Dasgupta,  A. L. Dempwolff,  M. Diedenhofen,  Hainam Do,  
 R. G. Edgar,  Po-Tung Fang,  S. Faraji,  S. Fatehi,  Qingguo Feng,  
 J. Fosso-Tande,  J. Gayvert,  Qinghui Ge,  A. Ghysels,  G. Gidofalvi,  
 J. Gomes,  J. Gonthier,  A. Gunina,  D. Hait,  M. W. D. Hanson-Heine,  
 P. H. P. Harbach,  A. W. Hauser,  M. F. Herbst,  J. E. Herr,  
 E. G. Hohenstein,  Z. C. Holden,  Kerwin Hui,  B. C. Huynh,  T.-C. Jagau,  
 Hyunjun Ji,  B. Kaduk,  K. Khistyaev,  Jaehoon Kim,  P. Klunzinger,  K. Koh,  
 D. Kosenkov,  L. Koulias,  T. Kowalczyk,  C. M. Krauter,  A. Kunitsa,  
 Ka Un Lao,  A. Laurent,  K. V. Lawler,  Joonho Lee,  D. Lefrancois,  
 S. Lehtola,  D. S. Levine,  Yi-Pei Li,  You-Sheng Lin,  Fenglai Liu,  
 Kuan-Yu Liu,  E. Livshits,  M. Loipersberger,  A. Luenser,  P. Manohar,  
 E. Mansoor,  S. F. Manzer,  Shan-Ping Mao,  Yuezhi Mao,  N. Mardirossian,  
 A. V. Marenich,  T. Markovich,  L. A. Martinez-Martinez,  S. A. Maurer,  
 N. J. Mayhall,  S. C. McKenzie,  J.-M. Mewes,  P. Morgante,  A. F. Morrison,  
 J. W. Mullinax,  K. Nanda,  T. S. Nguyen-Beck,  R. Olivares-Amaya,  
 K. J. Oosterbaan,  J. A. Parkhill,  S. K. Paul,  F. Pavosevic,  Zheng Pei,  
 T. M. Perrine,  F. Plasser,  P. Pokhilko,  S. Prager,  A. Prociuk,  
 E. Ramos,  B. Rana,  D. R. Rehn,  F. Rob,  M. Scheurer,  M. Schneider,  
 N. Sergueev,  S. M. Sharada,  S. Sharma,  D. W. Small,  T. Stauch,  
 C. J. Stein,  T. Stein,  Yu-Chuan Su,  S. P. Veccham,  Zhen Tao,  
 A. J. W. Thom,  A. Tkatchenko,  T. Tsuchimochi,  N. M. Tubman,  L. Vogt,  
 M. L. Vidal,  O. Vydrov,  M. A. Watson,  J. Wenzel,  M. de Wergifosse,  
 T. A. Wesolowski,  A. White,  J. Witte,  A. Yamada,  Jun Yang,  K. Yao,  
 S. Yeganeh,  S. R. Yost,  Zhi-Qiang You,  A. Zech,  Igor Ying Zhang,  
 Xing Zhang,  Yan Zhao,  Ying Zhu,  B. R. Brooks,  G. K. L. Chan,  
 C. J. Cramer,  M. S. Gordon,  W. J. Hehre,  A. Klamt,  M. W. Schmidt,  
 C. D. Sherrill,  D. G. Truhlar,  A. Aspuru-Guzik,  R. Baer,  A. T. Bell,  
 N. A. Besley,  Jeng-Da Chai,  A. E. DePrince, III,  R. A. DiStasio Jr.,  
 A. Dreuw,  B. D. Dunietz,  T. R. Furlani,  Chao-Ping Hsu,  Yousung Jung,  
 Jing Kong,  D. S. Lambrecht,  WanZhen Liang,  C. Ochsenfeld,  
 V. A. Rassolov,  L. V. Slipchenko,  J. E. Subotnik,  T. Van Voorhis,  
 J. M. Herbert,  A. I. Krylov,  P. M. W. Gill,  M. Head-Gordon

 Contributors to earlier versions of Q-Chem not listed above: 
 R. D. Adamson,  B. Austin,  J. Baker,  G. J. O. Beran,  K. Brandhorst,  
 S. T. Brown,  E. F. C. Byrd,  A. K. Chakraborty,  C.-L. Cheng,  
 Siu Hung Chien,  D. M. Chipman,  D. L. Crittenden,  H. Dachsel,  
 R. J. Doerksen,  A. D. Dutoi,  L. Fusti-Molnar,  W. A. Goddard III,  
 A. Golubeva-Zadorozhnaya,  S. R. Gwaltney,  G. Hawkins,  A. Heyden,  
 S. Hirata,  G. Kedziora,  F. J. Keil,  C. Kelley,  Jihan Kim,  R. A. King,  
 R. Z. Khaliullin,  P. P. Korambath,  W. Kurlancheek,  A. M. Lee,  M. S. Lee,  
 S. V. Levchenko,  Ching Yeh Lin,  D. Liotard,  R. C. Lochan,  I. Lotan,  
 P. E. Maslen,  N. Nair,  D. P. O'Neill,  D. Neuhauser,  E. Neuscamman,  
 C. M. Oana,  R. Olson,  B. Peters,  R. Peverati,  P. A. Pieniazek,  
 Y. M. Rhee,  J. Ritchie,  M. A. Rohrdanz,  E. Rosta,  N. J. Russ,  
 H. F. Schaefer III,  N. E. Schultz,  N. Shenvi,  A. C. Simmonett,  A. Sodt,  
 D. Stuck,  K. S. Thanthiriwatte,  V. Vanovschi,  Tao Wang,  A. Warshel,  
 C. F. Williams,  Q. Wu,  X. Xu,  W. Zhang

 Please cite Q-Chem as follows:
 Y. Shao et al., Mol. Phys. 113, 184-215 (2015)
 DOI: 10.1080/00268976.2014.952696

 Q-Chem 5.3.0 for Intel X86 EM64T Linux

 Parts of Q-Chem use Armadillo 9.800.1 (Horizon Scraper).
 http://arma.sourceforge.net/

 Q-Chem begins on Tue Jul  7 00:36:35 2020  

Host: centos77-c4
0

     Scratch files written to /tmp/26963.centos77-h1/qchem89327//
Processing $rem in /opt/qchem-5.3.0-intel2020u1//config/preferences:
Processing $rem in /home/shihchengli/.qchemrc:

Checking the input file for inconsistencies... 	...done.

--------------------------------------------------------------
User input:
--------------------------------------------------------------
$rem
   JOBTYPE  sp
   EXCHANGE   omegaB97X-D
   BASIS   6-311+G(2df,2pd)
   UNRESTRICTED   False
   max_scf_cycles   250
   geom_opt_max_cycles   1500
   basis2 6-31G*
   scf_algorithm rca_diis
   SYM_IGNORE  TRUE
   print_input   true
   geom_opt_dmax   80
   pop_mulliken false
   XC_GRID 000075000302
$end

$molecule
0 1
C       1.2667409559     -0.0655586026     0.2451633786
C       -0.0000001294     0.2296838965     -0.5491406246
H       1.0071802088     -0.6790369526     1.1114908055
H       1.7550015458     0.8368847607     0.6157027441
H       1.9931624488     -0.6208647089     -0.3490329273
C       -1.2667405242     -0.0655619920     0.2451634376
H       0.0000006892     -0.4253334631     -1.4233403103
H       -0.0000016681     1.2528165884     -0.9331198003
H       -1.0071829806     -0.6790544751     1.1114816003
H       -1.9931672005     -0.6208542535     -0.3490396193
H       -1.7549934063     0.8368798683     0.6157163346
$end
--------------------------------------------------------------
 ----------------------------------------------------------------
             Standard Nuclear Orientation (Angstroms)
    I     Atom           X                Y                Z
 ----------------------------------------------------------------
    1      C       1.2667409559    -0.0655586026     0.2451633786
    2      C      -0.0000001294     0.2296838965    -0.5491406246
    3      H       1.0071802088    -0.6790369526     1.1114908055
    4      H       1.7550015458     0.8368847607     0.6157027441
    5      H       1.9931624488    -0.6208647089    -0.3490329273
    6      C      -1.2667405242    -0.0655619920     0.2451634376
    7      H       0.0000006892    -0.4253334631    -1.4233403103
    8      H      -0.0000016681     1.2528165884    -0.9331198003
    9      H      -1.0071829806    -0.6790544751     1.1114816003
   10      H      -1.9931672005    -0.6208542535    -0.3490396193
   11      H      -1.7549934063     0.8368798683     0.6157163346
 ----------------------------------------------------------------
 Nuclear Repulsion Energy =          82.82640458 hartrees
 There are       13 alpha and       13 beta electrons
 Requested basis set is 6-311+G(2df,2pd)
 There are 72 shells and 214 basis functions

 Total QAlloc Memory Limit   2000 MB
 Mega-Array Size       188 MB
 MEM_STATIC part       192 MB

                       Distance Matrix (Angstroms)
             C (  1)   C (  2)   H (  3)   H (  4)   H (  5)   C (  6)
   C (  2)  1.524047
   H (  3)  1.092818  2.144267
   H (  4)  1.090918  2.192164  1.761551
   H (  5)  1.090469  2.176275  1.763143  1.764219
   C (  6)  2.533481  1.524047  2.509500  3.175316  3.359821
   H (  7)  2.125552  1.092370  2.739369  2.971686  2.272677  2.125553
   H (  8)  2.175109  1.092813  2.987793  2.377370  2.797238  2.175109
   H (  9)  2.509505  2.144269  2.014363  3.189597  3.337448  1.092818
   H ( 10)  3.359826  2.176274  3.337457  4.135759  3.986330  1.090469
   H ( 11)  3.175308  2.192163  3.189577  3.509995  4.135751  1.090918
             H (  7)   H (  8)   H (  9)   H ( 10)
   H (  8)  1.748286
   H (  9)  2.739364  2.987798
   H ( 10)  2.272679  2.797231  1.763143
   H ( 11)  2.971690  2.377371  1.761551  1.764219
 
 A cutoff of  1.0D-09 yielded   2531 shell pairs
 There are     22553 function pairs (     27751 Cartesian)
 Smallest overlap matrix eigenvalue = 8.14E-05

 Scale SEOQF with 1.000000e-01/1.000000e-01/1.000000e-01

 Standard Electronic Orientation quadrupole field applied
 Nucleus-field energy     =     0.0000000007 hartrees
 Requested basis set is 6-31G(d)
 There are 28 shells and 58 basis functions
 A cutoff of  1.0D-09 yielded    401 shell pairs
 There are      1772 function pairs (      1967 Cartesian)
 Smallest overlap matrix eigenvalue = 6.20E-03
 Guess from superposition of atomic densities
 Warning:  Energy on first SCF cycle will be non-variational
 SAD guess density has 26.000000 electrons
 Long-range K will be added via erf
 Coulomb attenuation parameter = 0.2 bohr**(-1)
 A restricted hybrid HF-DFT SCF calculation will be
 performed using Relaxed Constraint Minimization + Pulay DIIS
 Exchange:     0.2220 Hartree-Fock + 1.0000 wB97X-D + LR-HF
 Correlation:  1.0000 wB97X-D
 Using Euler-Maclaurin-Lebedev (75,302) quadrature formula
 Dispersion:   Grimme D
 SCF converges when DIIS error is below 1.0E-04
 using 3 threads for integral computing
 -------------------------------------------------------
 OpenMP Integral computing Module                
 Release: version 1.0, May 2013, Q-Chem Inc. Pittsburgh 
 -------------------------------------------------------
 using 3 threads for integral computing
 -------------------------------------------------------
 OpenMP Integral computing Module                
 Release: version 1.0, May 2013, Q-Chem Inc. Pittsburgh 
 -------------------------------------------------------
 ---------------------------------------
  Cycle       Energy         DIIS Error
 ---------------------------------------
    1    -119.6328586929      1.01E-01
    2    -119.0559871350      9.06E-03
    3    -119.0772503222      2.45E-03
    4    -119.0912883521      1.69E-03
    5    -119.0919838764      2.63E-04 Done RCA. Switching to DIIS
    6    -119.0924952732      1.96E-04
    7    -119.0925119208      4.19E-06 Convergence criterion met
 ---------------------------------------
 SCF time:  CPU 19.68 s  wall 7.27 s
 SCF   energy in the small basis set = -119.09251192
 Total energy in the small basis set = -119.09251192
 ----------------------------------------------------
  Cycle       Energy    
 ----------------------------------------------------
    1     -16.5468186417     -1.65E+01
 Long-range K will be added via erf
 Coulomb attenuation parameter = 0.2 bohr**(-1)
 A restricted hybrid HF-DFT SCF calculation will be
 performed using Relaxed Constraint Minimization + Pulay DIIS
 Exchange:     0.2220 Hartree-Fock + 1.0000 wB97X-D + LR-HF
 Correlation:  1.0000 wB97X-D
 Using Euler-Maclaurin-Lebedev (75,302) quadrature formula
 Dispersion:   Grimme D
 SCF converges when DIIS error is below 1.0E-05
 Basis2 calculation detected. Using small basis as guess for larger.
 SCFMinFind is unable to tell whether the solution found is close.
 Resetting ReadMinima to 0 and attempting to follow guess.
 SCFMinFind following SCF Guess.
 using 3 threads for integral computing
 -------------------------------------------------------
 OpenMP Integral computing Module                
 Release: version 1.0, May 2013, Q-Chem Inc. Pittsburgh 
 -------------------------------------------------------
 using 3 threads for integral computing
 -------------------------------------------------------
 OpenMP Integral computing Module                
 Release: version 1.0, May 2013, Q-Chem Inc. Pittsburgh 
 -------------------------------------------------------
 ---------------------------------------
  Cycle       Energy         DIIS Error
 ---------------------------------------
    1    -119.1121080360      4.21E-03
    2    -119.1341029715      6.01E-04 Done RCA. Switching to DIIS
    3    -119.1349334003      4.23E-04
    4    -119.1359159875      4.54E-05
    5    -119.1359307753      1.03E-05
    6    -119.1359314804      4.02E-06 Convergence criterion met
 ---------------------------------------
 SCF time:  CPU 51.21 s  wall 17.32 s
 SCF   energy in the final basis set = -119.13593148
 Total energy in the final basis set = -119.13593148
 
 --------------------------------------------------------------
 
                    Orbital Energies (a.u.)
 --------------------------------------------------------------
 
 Alpha MOs
 -- Occupied --
-10.2720 -10.2636 -10.2636  -0.8817  -0.7759  -0.6784  -0.5446  -0.5298
 -0.4761  -0.4662  -0.4206  -0.4158  -0.3996
 -- Virtual --
  0.0721   0.0879   0.0919   0.1034   0.1219   0.1308   0.1316   0.1321
  0.1460   0.1628   0.1757   0.1882   0.1998   0.2367   0.2708   0.2783
  0.2879   0.2999   0.3214   0.3225   0.3427   0.3688   0.4547   0.4735
  0.4930   0.5050   0.5137   0.5167   0.5321   0.5367   0.5503   0.5862
  0.6096   0.6224   0.6328   0.6372   0.6522   0.6553   0.6877   0.7105
  0.7442   0.7449   0.8721   0.8827   0.9134   0.9175   0.9634   0.9727
  0.9978   0.9995   1.0469   1.0968   1.1466   1.1776   1.2156   1.2236
  1.2297   1.2415   1.2663   1.2854   1.2985   1.3222   1.3490   1.3588
  1.3723   1.3851   1.4287   1.4397   1.4482   1.4871   1.4884   1.4953
  1.5315   1.5537   1.5725   1.5781   1.6315   1.6573   1.6727   1.6854
  1.7019   2.2701   2.3601   2.4186   2.5031   2.5246   2.6258   2.6441
  2.7030   2.7370   2.7916   2.8013   2.8218   2.8520   2.9279   2.9309
  2.9647   2.9866   2.9936   3.0173   3.0480   3.0532   3.1050   3.1318
  3.1449   3.1518   3.1694   3.1852   3.2094   3.2410   3.2714   3.2804
  3.3158   3.3281   3.3284   3.3581   3.3667   3.3931   3.4096   3.4220
  3.4548   3.5107   3.5215   3.5392   3.5795   3.5874   3.6109   3.6140
  3.6256   3.6746   3.7053   3.7056   3.7542   3.7871   3.7897   3.8000
  3.8817   3.9165   3.9416   3.9454   3.9769   4.0388   4.0586   4.0761
  4.0872   4.1327   4.1401   4.1516   4.1769   4.1996   4.2087   4.2321
  4.2438   4.2824   4.2953   4.3186   4.3529   4.4030   4.4227   4.4397
  4.5026   4.5085   4.5610   4.6078   4.7441   4.7640   4.8272   4.8907
  4.9327   4.9582   4.9805   5.0073   5.0281   5.0527   5.0931   5.0988
  5.1389   5.1759   5.2083   5.2427   5.2553   5.2786   5.3141   5.3641
  5.3658   5.4057   5.4475   5.4610   5.5309   5.5628   5.6133   5.7458
  5.9738   6.3281   6.3795   6.3994   6.4215   6.5117  25.0796  25.4415
 25.4472
 --------------------------------------------------------------
 
 -----------------------------------------------------------------
                    Cartesian Multipole Moments
 -----------------------------------------------------------------
    Charge (ESU x 10^10)
                 0.0000
    Dipole Moment (Debye)
         X      -0.0000      Y       0.0115      Z      -0.0895
       Tot       0.0902
    Quadrupole Moments (Debye-Ang)
        XX     -22.3117     XY      -0.0000     YY     -21.2877
        XZ      -0.0000     YZ       0.2064     ZZ     -21.8434
    Octopole Moments (Debye-Ang^2)
       XXX       0.0000    XXY      -0.2750    XYY       0.0000
       YYY       0.1108    XXZ      -1.1644    XYZ       0.0000
       YYZ      -0.2176    XZZ      -0.0000    YZZ      -1.2908
       ZZZ      -0.2997
    Hexadecapole Moments (Debye-Ang^3)
      XXXX    -205.2768   XXXY      -0.0001   XXYY     -40.1795
      XYYY      -0.0001   YYYY     -46.9479   XXXZ       0.0000
      XXYZ       3.9125   XYYZ      -0.0000   YYYZ       4.0084
      XXZZ     -45.4969   XYZZ      -0.0000   YYZZ     -18.0086
      XZZZ      -0.0000   YZZZ       3.9360   ZZZZ     -68.1562
 -----------------------------------------------------------------
Archival summary:
1\1\centos77-c4\SP\ProcedureUnspecified\BasisUnspecified\38\shihchen\TueJul700:37:032020TueJul700:37:032020\0\\#,ProcedureUnspecified,BasisUnspecified,\\0,1\C\H,1,1.09237\H,1,1.09281,2,106.272\C,1,1.52405,2,107.513,3,-119.359,0\H,4,1.09047,1,111.614,2,15.9952,0\H,4,1.09092,1,112.878,2,137.797,0\H,4,1.09282,1,108.935,2,-102.82,0\C,1,1.52405,2,107.513,3,119.359,0\H,8,1.09047,1,111.614,2,-15.9962,0\H,8,1.09092,1,112.878,2,-137.798,0\H,8,1.09282,1,108.935,2,102.819,0\\\@

 Total job time:  27.46s(wall), 74.43s(cpu) 
 Tue Jul  7 00:37:03 2020

        *************************************************************
        *                                                           *
        *  Thank you very much for using Q-Chem.  Have a nice day.  *
        *                                                           *
        *************************************************************


