                  Welcome to Q-Chem
     A Quantum Leap Into The Future Of Chemistry


 Q-Chem 5.3 (devel), Q-Chem, Inc., Pleasanton, CA (2020)

 Yihan Shao,  Zhengting Gan,  E. Epifanovsky,  A. T. B. Gilbert,  M. Wormit,  
 J. Kussmann,  A. W. Lange,  A. Behn,  Jia Deng,  Xintian Feng,  D. Ghosh,  
 M. Goldey,  P. R. Horn,  L. D. Jacobson,  I. Kaliman,  T. Kus,  A. Landau,  
 Jie Liu,  E. I. Proynov,  R. M. Richard,  R. P. Steele,  E. J. Sundstrom,  
 H. L. Woodcock III,  P. M. Zimmerman,  D. Zuev,  B. Alam,  B. Albrecht,  
 E. Alguire,  S. A. Baeppler,  D. Barton,  Z. Benda,  Y. A. Bernard,  
 E. J. Berquist,  K. B. Bravaya,  H. Burton,  K. Carter-Fenk,  D. Casanova,  
 Chun-Min Chang,  Yunqing Chen,  A. Chien,  K. D. Closser,  M. P. Coons,  
 S. Coriani,  S. Dasgupta,  A. L. Dempwolff,  M. Diedenhofen,  Hainam Do,  
 R. G. Edgar,  Po-Tung Fang,  S. Faraji,  S. Fatehi,  Qingguo Feng,  
 J. Fosso-Tande,  J. Gayvert,  Qinghui Ge,  A. Ghysels,  G. Gidofalvi,  
 J. Gomes,  J. Gonthier,  A. Gunina,  D. Hait,  M. W. D. Hanson-Heine,  
 P. H. P. Harbach,  A. W. Hauser,  M. F. Herbst,  J. E. Herr,  
 E. G. Hohenstein,  Z. C. Holden,  Kerwin Hui,  B. C. Huynh,  T.-C. Jagau,  
 Hyunjun Ji,  B. Kaduk,  K. Khistyaev,  Jaehoon Kim,  P. Klunzinger,  K. Koh,  
 D. Kosenkov,  L. Koulias,  T. Kowalczyk,  C. M. Krauter,  A. Kunitsa,  
 Ka Un Lao,  A. Laurent,  K. V. Lawler,  Joonho Lee,  D. Lefrancois,  
 S. Lehtola,  D. S. Levine,  Yi-Pei Li,  You-Sheng Lin,  Fenglai Liu,  
 Kuan-Yu Liu,  E. Livshits,  M. Loipersberger,  A. Luenser,  P. Manohar,  
 E. Mansoor,  S. F. Manzer,  Shan-Ping Mao,  Yuezhi Mao,  N. Mardirossian,  
 A. V. Marenich,  T. Markovich,  L. A. Martinez-Martinez,  S. A. Maurer,  
 N. J. Mayhall,  S. C. McKenzie,  J.-M. Mewes,  P. Morgante,  A. F. Morrison,  
 J. W. Mullinax,  K. Nanda,  T. S. Nguyen-Beck,  R. Olivares-Amaya,  
 K. J. Oosterbaan,  J. A. Parkhill,  S. K. Paul,  F. Pavosevic,  Zheng Pei,  
 T. M. Perrine,  F. Plasser,  P. Pokhilko,  S. Prager,  A. Prociuk,  
 E. Ramos,  B. Rana,  D. R. Rehn,  F. Rob,  M. Scheurer,  M. Schneider,  
 N. Sergueev,  S. M. Sharada,  S. Sharma,  D. W. Small,  T. Stauch,  
 C. J. Stein,  T. Stein,  Yu-Chuan Su,  S. P. Veccham,  Zhen Tao,  
 A. J. W. Thom,  A. Tkatchenko,  T. Tsuchimochi,  N. M. Tubman,  L. Vogt,  
 M. L. Vidal,  O. Vydrov,  M. A. Watson,  J. Wenzel,  M. de Wergifosse,  
 T. A. Wesolowski,  A. White,  J. Witte,  A. Yamada,  Jun Yang,  K. Yao,  
 S. Yeganeh,  S. R. Yost,  Zhi-Qiang You,  A. Zech,  Igor Ying Zhang,  
 Xing Zhang,  Yan Zhao,  Ying Zhu,  B. R. Brooks,  G. K. L. Chan,  
 C. J. Cramer,  M. S. Gordon,  W. J. Hehre,  A. Klamt,  M. W. Schmidt,  
 C. D. Sherrill,  D. G. Truhlar,  A. Aspuru-Guzik,  R. Baer,  A. T. Bell,  
 N. A. Besley,  Jeng-Da Chai,  A. E. DePrince, III,  R. A. DiStasio Jr.,  
 A. Dreuw,  B. D. Dunietz,  T. R. Furlani,  Chao-Ping Hsu,  Yousung Jung,  
 Jing Kong,  D. S. Lambrecht,  WanZhen Liang,  C. Ochsenfeld,  
 V. A. Rassolov,  L. V. Slipchenko,  J. E. Subotnik,  T. Van Voorhis,  
 J. M. Herbert,  A. I. Krylov,  P. M. W. Gill,  M. Head-Gordon

 Contributors to earlier versions of Q-Chem not listed above: 
 R. D. Adamson,  B. Austin,  J. Baker,  G. J. O. Beran,  K. Brandhorst,  
 S. T. Brown,  E. F. C. Byrd,  A. K. Chakraborty,  C.-L. Cheng,  
 Siu Hung Chien,  D. M. Chipman,  D. L. Crittenden,  H. Dachsel,  
 R. J. Doerksen,  A. D. Dutoi,  L. Fusti-Molnar,  W. A. Goddard III,  
 A. Golubeva-Zadorozhnaya,  S. R. Gwaltney,  G. Hawkins,  A. Heyden,  
 S. Hirata,  G. Kedziora,  F. J. Keil,  C. Kelley,  Jihan Kim,  R. A. King,  
 R. Z. Khaliullin,  P. P. Korambath,  W. Kurlancheek,  A. M. Lee,  M. S. Lee,  
 S. V. Levchenko,  Ching Yeh Lin,  D. Liotard,  R. C. Lochan,  I. Lotan,  
 P. E. Maslen,  N. Nair,  D. P. O'Neill,  D. Neuhauser,  E. Neuscamman,  
 C. M. Oana,  R. Olson,  B. Peters,  R. Peverati,  P. A. Pieniazek,  
 Y. M. Rhee,  J. Ritchie,  M. A. Rohrdanz,  E. Rosta,  N. J. Russ,  
 H. F. Schaefer III,  N. E. Schultz,  N. Shenvi,  A. C. Simmonett,  A. Sodt,  
 D. Stuck,  K. S. Thanthiriwatte,  V. Vanovschi,  Tao Wang,  A. Warshel,  
 C. F. Williams,  Q. Wu,  X. Xu,  W. Zhang

 Please cite Q-Chem as follows:
 Y. Shao et al., Mol. Phys. 113, 184-215 (2015)
 DOI: 10.1080/00268976.2014.952696

 Q-Chem 5.3.0 for Intel X86 EM64T Linux

 Parts of Q-Chem use Armadillo 9.800.1 (Horizon Scraper).
 http://arma.sourceforge.net/

 Q-Chem begins on Tue Jul  7 01:19:27 2020  

Host: centos77-c4
0

     Scratch files written to /tmp/26963.centos77-h1/qchem99087//
Processing $rem in /opt/qchem-5.3.0-intel2020u1//config/preferences:
Processing $rem in /home/shihchengli/.qchemrc:

Checking the input file for inconsistencies... 	...done.

--------------------------------------------------------------
User input:
--------------------------------------------------------------
$rem
   JOBTYPE  sp
   EXCHANGE   omegaB97X-D
   BASIS   6-311+G(2df,2pd)
   UNRESTRICTED   False
   max_scf_cycles   250
   geom_opt_max_cycles   1500
   basis2 6-31G*
   scf_algorithm rca_diis
   SYM_IGNORE  TRUE
   print_input   true
   geom_opt_dmax   80
   pop_mulliken false
   XC_GRID 000075000302
$end

$molecule
0 1
C       1.2663178080     -0.0265460323     0.2591428010
C       0.0000000111     0.0283037708     -0.5871144374
H       1.3358697877     -0.8921638404     0.9188648632
H       1.2727089048     0.8685880601     0.8865846221
H       2.1630853387     0.0304518153     -0.3586610690
C       -1.2663178106     -0.0265460294     0.2591428137
H       -0.0000000368     -0.8683690206     -1.2122125414
H       -0.0000000239     0.8794051207     -1.2714904745
H       -1.3358696677     -0.8921638053     0.9188648821
H       -2.1630853011     0.0304525288     -0.3586610514
H       -1.2727090708     0.8685880986     0.8865846105
$end
--------------------------------------------------------------
 ----------------------------------------------------------------
             Standard Nuclear Orientation (Angstroms)
    I     Atom           X                Y                Z
 ----------------------------------------------------------------
    1      C       1.2663178080    -0.0265460323     0.2591428010
    2      C       0.0000000111     0.0283037708    -0.5871144374
    3      H       1.3358697877    -0.8921638404     0.9188648632
    4      H       1.2727089048     0.8685880601     0.8865846221
    5      H       2.1630853387     0.0304518153    -0.3586610690
    6      C      -1.2663178106    -0.0265460294     0.2591428137
    7      H      -0.0000000368    -0.8683690206    -1.2122125414
    8      H      -0.0000000239     0.8794051207    -1.2714904745
    9      H      -1.3358696677    -0.8921638053     0.9188648821
   10      H      -2.1630853011     0.0304525288    -0.3586610514
   11      H      -1.2727090708     0.8685880986     0.8865846105
 ----------------------------------------------------------------
 Nuclear Repulsion Energy =          82.75713271 hartrees
 There are       13 alpha and       13 beta electrons
 Requested basis set is 6-311+G(2df,2pd)
 There are 72 shells and 214 basis functions

 Total QAlloc Memory Limit   2000 MB
 Mega-Array Size       188 MB
 MEM_STATIC part       192 MB

                       Distance Matrix (Angstroms)
             C (  1)   C (  2)   H (  3)   H (  4)   H (  5)   C (  6)
   C (  2)  1.524047
   H (  3)  1.090580  2.213545
   H (  4)  1.093156  2.120767  1.762180
   H (  5)  1.090469  2.175117  1.779769  1.745245
   C (  6)  2.532636  1.524047  2.820622  2.764345  3.485073
   H (  7)  2.115919  1.093055  2.515274  3.006952  2.493064  2.115919
   H (  8)  2.183380  1.092128  3.117797  2.505433  2.496581  2.183380
   H (  9)  2.820622  2.213545  2.671739  3.147375  3.837444  1.090580
   H ( 10)  3.485073  2.175117  3.837444  3.749372  4.326171  1.090469
   H ( 11)  2.764345  2.120768  3.147376  2.545418  3.749372  1.093156
             H (  7)   H (  8)   H (  9)   H ( 10)
   H (  8)  1.748779
   H (  9)  2.515274  3.117797
   H ( 10)  2.493064  2.496581  1.779769
   H ( 11)  3.006952  2.505433  1.762180  1.745244
 
 A cutoff of  1.0D-09 yielded   2534 shell pairs
 There are     22588 function pairs (     27769 Cartesian)
 Smallest overlap matrix eigenvalue = 8.73E-05

 Scale SEOQF with 1.000000e-01/1.000000e-01/1.000000e-01

 Standard Electronic Orientation quadrupole field applied
 Nucleus-field energy     =     0.0000000006 hartrees
 Requested basis set is 6-31G(d)
 There are 28 shells and 58 basis functions
 A cutoff of  1.0D-09 yielded    402 shell pairs
 There are      1773 function pairs (      1968 Cartesian)
 Smallest overlap matrix eigenvalue = 6.76E-03
 Guess from superposition of atomic densities
 Warning:  Energy on first SCF cycle will be non-variational
 SAD guess density has 26.000000 electrons
 Long-range K will be added via erf
 Coulomb attenuation parameter = 0.2 bohr**(-1)
 A restricted hybrid HF-DFT SCF calculation will be
 performed using Relaxed Constraint Minimization + Pulay DIIS
 Exchange:     0.2220 Hartree-Fock + 1.0000 wB97X-D + LR-HF
 Correlation:  1.0000 wB97X-D
 Using Euler-Maclaurin-Lebedev (75,302) quadrature formula
 Dispersion:   Grimme D
 SCF converges when DIIS error is below 1.0E-04
 using 3 threads for integral computing
 -------------------------------------------------------
 OpenMP Integral computing Module                
 Release: version 1.0, May 2013, Q-Chem Inc. Pittsburgh 
 -------------------------------------------------------
 using 3 threads for integral computing
 -------------------------------------------------------
 OpenMP Integral computing Module                
 Release: version 1.0, May 2013, Q-Chem Inc. Pittsburgh 
 -------------------------------------------------------
 ---------------------------------------
  Cycle       Energy         DIIS Error
 ---------------------------------------
    1    -119.6207520824      1.00E-01
    2    -119.0640665584      9.00E-03
    3    -119.0851604358      2.47E-03
    4    -119.0990320822      1.69E-03
    5    -119.0997333963      2.68E-04 Done RCA. Switching to DIIS
    6    -119.1002467412      1.98E-04
    7    -119.1002637689      4.62E-06 Convergence criterion met
 ---------------------------------------
 SCF time:  CPU 19.51 s  wall 7.12 s
 SCF   energy in the small basis set = -119.10026377
 Total energy in the small basis set = -119.10026377
 ----------------------------------------------------
  Cycle       Energy    
 ----------------------------------------------------
    1     -16.5394428675     -1.65E+01
 Long-range K will be added via erf
 Coulomb attenuation parameter = 0.2 bohr**(-1)
 A restricted hybrid HF-DFT SCF calculation will be
 performed using Relaxed Constraint Minimization + Pulay DIIS
 Exchange:     0.2220 Hartree-Fock + 1.0000 wB97X-D + LR-HF
 Correlation:  1.0000 wB97X-D
 Using Euler-Maclaurin-Lebedev (75,302) quadrature formula
 Dispersion:   Grimme D
 SCF converges when DIIS error is below 1.0E-05
 Basis2 calculation detected. Using small basis as guess for larger.
 SCFMinFind is unable to tell whether the solution found is close.
 Resetting ReadMinima to 0 and attempting to follow guess.
 SCFMinFind following SCF Guess.
 using 3 threads for integral computing
 -------------------------------------------------------
 OpenMP Integral computing Module                
 Release: version 1.0, May 2013, Q-Chem Inc. Pittsburgh 
 -------------------------------------------------------
 using 3 threads for integral computing
 -------------------------------------------------------
 OpenMP Integral computing Module                
 Release: version 1.0, May 2013, Q-Chem Inc. Pittsburgh 
 -------------------------------------------------------
 ---------------------------------------
  Cycle       Energy         DIIS Error
 ---------------------------------------
    1    -119.1194102178      4.21E-03
    2    -119.1414638329      5.99E-04 Done RCA. Switching to DIIS
    3    -119.1422998593      4.20E-04
    4    -119.1432646126      4.56E-05
    5    -119.1432793547      1.01E-05
    6    -119.1432800381      3.88E-06 Convergence criterion met
 ---------------------------------------
 SCF time:  CPU 50.57 s  wall 17.10 s
 SCF   energy in the final basis set = -119.14328004
 Total energy in the final basis set = -119.14328004
 
 --------------------------------------------------------------
 
                    Orbital Energies (a.u.)
 --------------------------------------------------------------
 
 Alpha MOs
 -- Occupied --
-10.2742 -10.2652 -10.2652  -0.8816  -0.7773  -0.6777  -0.5462  -0.5242
 -0.4847  -0.4614  -0.4249  -0.4182  -0.3996
 -- Virtual --
  0.0691   0.0859   0.0909   0.0989   0.1250   0.1298   0.1335   0.1420
  0.1431   0.1707   0.1720   0.1911   0.2326   0.2405   0.2442   0.2648
  0.2816   0.2848   0.3113   0.3133   0.3337   0.3493   0.4574   0.4674
  0.4702   0.5083   0.5139   0.5176   0.5452   0.5615   0.5852   0.5854
  0.6249   0.6274   0.6403   0.6444   0.6578   0.6581   0.7083   0.7252
  0.7266   0.7659   0.8228   0.8567   0.8694   0.8740   0.8876   0.9583
  1.0021   1.0507   1.0581   1.1387   1.1404   1.1744   1.1829   1.2135
  1.2168   1.2469   1.2744   1.2796   1.2899   1.2914   1.3311   1.3736
  1.3861   1.3960   1.4002   1.4456   1.4643   1.4712   1.4795   1.4798
  1.5206   1.5760   1.6071   1.6233   1.6346   1.6580   1.6726   1.7051
  1.7458   2.3751   2.4655   2.4810   2.5024   2.5383   2.5624   2.5951
  2.6341   2.7134   2.8180   2.8312   2.8367   2.9063   2.9312   2.9321
  2.9340   2.9461   3.0074   3.0121   3.0683   3.0716   3.0757   3.1032
  3.1203   3.1497   3.1770   3.1847   3.2208   3.2242   3.2726   3.3149
  3.3291   3.3367   3.3454   3.3591   3.3662   3.3775   3.4028   3.4402
  3.4710   3.4856   3.4905   3.5235   3.5522   3.5772   3.5948   3.6057
  3.6222   3.6880   3.6969   3.7065   3.7796   3.7811   3.8726   3.8885
  3.9163   3.9301   3.9447   3.9663   3.9733   3.9999   4.0436   4.0627
  4.0892   4.0926   4.1132   4.1446   4.1498   4.1642   4.2007   4.2186
  4.2224   4.2572   4.2578   4.3734   4.3781   4.4192   4.4215   4.4318
  4.4424   4.5448   4.5898   4.6471   4.6705   4.7948   4.8301   4.8719
  4.8988   4.9324   4.9664   4.9721   5.0371   5.0636   5.0926   5.1142
  5.1447   5.2488   5.2678   5.2731   5.2832   5.3423   5.3546   5.3789
  5.3857   5.3919   5.4589   5.5064   5.5535   5.5542   5.6230   5.7526
  5.9611   6.3808   6.3812   6.3999   6.4200   6.4620  25.2031  25.4432
 25.4532
 --------------------------------------------------------------
 
 -----------------------------------------------------------------
                    Cartesian Multipole Moments
 -----------------------------------------------------------------
    Charge (ESU x 10^10)
                 0.0000
    Dipole Moment (Debye)
         X      -0.0000      Y       0.0121      Z      -0.0869
       Tot       0.0877
    Quadrupole Moments (Debye-Ang)
        XX     -22.1799     XY      -0.0000     YY     -21.3535
        XZ      -0.0000     YZ      -0.3630     ZZ     -21.8568
    Octopole Moments (Debye-Ang^2)
       XXX       0.0000    XXY      -0.0448    XYY      -0.0000
       YYY       0.2452    XXZ      -1.5178    XYZ       0.0000
       YYZ       0.4831    XZZ      -0.0000    YZZ       0.0926
       ZZZ      -0.4152
    Hexadecapole Moments (Debye-Ang^3)
      XXXX    -202.1461   XXXY      -0.0000   XXYY     -42.1620
      XYYY       0.0000   YYYY     -44.1822   XXXZ      -0.0000
      XXYZ      -0.6249   XYYZ       0.0000   YYYZ       0.3938
      XXZZ     -45.2747   XYZZ       0.0000   YYZZ     -17.0715
      XZZZ       0.0000   YZZZ      -0.2456   ZZZZ     -72.1528
 -----------------------------------------------------------------
Archival summary:
1\1\centos77-c4\SP\ProcedureUnspecified\BasisUnspecified\38\shihchen\TueJul701:19:542020TueJul701:19:542020\0\\#,ProcedureUnspecified,BasisUnspecified,\\0,1\C\H,1,1.09213\H,1,1.09306,2,106.315\C,1,1.52405,2,112.086,3,116.273,0\H,4,1.09047,1,111.52,2,-51.7487,0\H,4,1.09058,1,114.674,2,-176.751,0\H,4,1.09316,1,107.103,2,63.9422,0\C,1,1.52405,2,112.086,3,-116.273,0\H,8,1.09047,1,111.52,2,51.7487,0\H,8,1.09058,1,114.674,2,176.751,0\H,8,1.09316,1,107.103,2,-63.9422,0\\\@

 Total job time:  27.10s(wall), 73.63s(cpu) 
 Tue Jul  7 01:19:54 2020

        *************************************************************
        *                                                           *
        *  Thank you very much for using Q-Chem.  Have a nice day.  *
        *                                                           *
        *************************************************************


