                  Welcome to Q-Chem
     A Quantum Leap Into The Future Of Chemistry


 Q-Chem 5.3 (devel), Q-Chem, Inc., Pleasanton, CA (2020)

 Yihan Shao,  Zhengting Gan,  E. Epifanovsky,  A. T. B. Gilbert,  M. Wormit,  
 J. Kussmann,  A. W. Lange,  A. Behn,  Jia Deng,  Xintian Feng,  D. Ghosh,  
 M. Goldey,  P. R. Horn,  L. D. Jacobson,  I. Kaliman,  T. Kus,  A. Landau,  
 Jie Liu,  E. I. Proynov,  R. M. Richard,  R. P. Steele,  E. J. Sundstrom,  
 H. L. Woodcock III,  P. M. Zimmerman,  D. Zuev,  B. Alam,  B. Albrecht,  
 E. Alguire,  S. A. Baeppler,  D. Barton,  Z. Benda,  Y. A. Bernard,  
 E. J. Berquist,  K. B. Bravaya,  H. Burton,  K. Carter-Fenk,  D. Casanova,  
 Chun-Min Chang,  Yunqing Chen,  A. Chien,  K. D. Closser,  M. P. Coons,  
 S. Coriani,  S. Dasgupta,  A. L. Dempwolff,  M. Diedenhofen,  Hainam Do,  
 R. G. Edgar,  Po-Tung Fang,  S. Faraji,  S. Fatehi,  Qingguo Feng,  
 J. Fosso-Tande,  J. Gayvert,  Qinghui Ge,  A. Ghysels,  G. Gidofalvi,  
 J. Gomes,  J. Gonthier,  A. Gunina,  D. Hait,  M. W. D. Hanson-Heine,  
 P. H. P. Harbach,  A. W. Hauser,  M. F. Herbst,  J. E. Herr,  
 E. G. Hohenstein,  Z. C. Holden,  Kerwin Hui,  B. C. Huynh,  T.-C. Jagau,  
 Hyunjun Ji,  B. Kaduk,  K. Khistyaev,  Jaehoon Kim,  P. Klunzinger,  K. Koh,  
 D. Kosenkov,  L. Koulias,  T. Kowalczyk,  C. M. Krauter,  A. Kunitsa,  
 Ka Un Lao,  A. Laurent,  K. V. Lawler,  Joonho Lee,  D. Lefrancois,  
 S. Lehtola,  D. S. Levine,  Yi-Pei Li,  You-Sheng Lin,  Fenglai Liu,  
 Kuan-Yu Liu,  E. Livshits,  M. Loipersberger,  A. Luenser,  P. Manohar,  
 E. Mansoor,  S. F. Manzer,  Shan-Ping Mao,  Yuezhi Mao,  N. Mardirossian,  
 A. V. Marenich,  T. Markovich,  L. A. Martinez-Martinez,  S. A. Maurer,  
 N. J. Mayhall,  S. C. McKenzie,  J.-M. Mewes,  P. Morgante,  A. F. Morrison,  
 J. W. Mullinax,  K. Nanda,  T. S. Nguyen-Beck,  R. Olivares-Amaya,  
 K. J. Oosterbaan,  J. A. Parkhill,  S. K. Paul,  F. Pavosevic,  Zheng Pei,  
 T. M. Perrine,  F. Plasser,  P. Pokhilko,  S. Prager,  A. Prociuk,  
 E. Ramos,  B. Rana,  D. R. Rehn,  F. Rob,  M. Scheurer,  M. Schneider,  
 N. Sergueev,  S. M. Sharada,  S. Sharma,  D. W. Small,  T. Stauch,  
 C. J. Stein,  T. Stein,  Yu-Chuan Su,  S. P. Veccham,  Zhen Tao,  
 A. J. W. Thom,  A. Tkatchenko,  T. Tsuchimochi,  N. M. Tubman,  L. Vogt,  
 M. L. Vidal,  O. Vydrov,  M. A. Watson,  J. Wenzel,  M. de Wergifosse,  
 T. A. Wesolowski,  A. White,  J. Witte,  A. Yamada,  Jun Yang,  K. Yao,  
 S. Yeganeh,  S. R. Yost,  Zhi-Qiang You,  A. Zech,  Igor Ying Zhang,  
 Xing Zhang,  Yan Zhao,  Ying Zhu,  B. R. Brooks,  G. K. L. Chan,  
 C. J. Cramer,  M. S. Gordon,  W. J. Hehre,  A. Klamt,  M. W. Schmidt,  
 C. D. Sherrill,  D. G. Truhlar,  A. Aspuru-Guzik,  R. Baer,  A. T. Bell,  
 N. A. Besley,  Jeng-Da Chai,  A. E. DePrince, III,  R. A. DiStasio Jr.,  
 A. Dreuw,  B. D. Dunietz,  T. R. Furlani,  Chao-Ping Hsu,  Yousung Jung,  
 Jing Kong,  D. S. Lambrecht,  WanZhen Liang,  C. Ochsenfeld,  
 V. A. Rassolov,  L. V. Slipchenko,  J. E. Subotnik,  T. Van Voorhis,  
 J. M. Herbert,  A. I. Krylov,  P. M. W. Gill,  M. Head-Gordon

 Contributors to earlier versions of Q-Chem not listed above: 
 R. D. Adamson,  B. Austin,  J. Baker,  G. J. O. Beran,  K. Brandhorst,  
 S. T. Brown,  E. F. C. Byrd,  A. K. Chakraborty,  C.-L. Cheng,  
 Siu Hung Chien,  D. M. Chipman,  D. L. Crittenden,  H. Dachsel,  
 R. J. Doerksen,  A. D. Dutoi,  L. Fusti-Molnar,  W. A. Goddard III,  
 A. Golubeva-Zadorozhnaya,  S. R. Gwaltney,  G. Hawkins,  A. Heyden,  
 S. Hirata,  G. Kedziora,  F. J. Keil,  C. Kelley,  Jihan Kim,  R. A. King,  
 R. Z. Khaliullin,  P. P. Korambath,  W. Kurlancheek,  A. M. Lee,  M. S. Lee,  
 S. V. Levchenko,  Ching Yeh Lin,  D. Liotard,  R. C. Lochan,  I. Lotan,  
 P. E. Maslen,  N. Nair,  D. P. O'Neill,  D. Neuhauser,  E. Neuscamman,  
 C. M. Oana,  R. Olson,  B. Peters,  R. Peverati,  P. A. Pieniazek,  
 Y. M. Rhee,  J. Ritchie,  M. A. Rohrdanz,  E. Rosta,  N. J. Russ,  
 H. F. Schaefer III,  N. E. Schultz,  N. Shenvi,  A. C. Simmonett,  A. Sodt,  
 D. Stuck,  K. S. Thanthiriwatte,  V. Vanovschi,  Tao Wang,  A. Warshel,  
 C. F. Williams,  Q. Wu,  X. Xu,  W. Zhang

 Please cite Q-Chem as follows:
 Y. Shao et al., Mol. Phys. 113, 184-215 (2015)
 DOI: 10.1080/00268976.2014.952696

 Q-Chem 5.3.0 for Intel X86 EM64T Linux

 Parts of Q-Chem use Armadillo 9.800.1 (Horizon Scraper).
 http://arma.sourceforge.net/

 Q-Chem begins on Tue Jul  7 01:45:45 2020  

Host: centos77-c4
0

     Scratch files written to /tmp/26963.centos77-h1/qchem103856//
Processing $rem in /opt/qchem-5.3.0-intel2020u1//config/preferences:
Processing $rem in /home/shihchengli/.qchemrc:

Checking the input file for inconsistencies... 	...done.

--------------------------------------------------------------
User input:
--------------------------------------------------------------
$rem
   JOBTYPE  sp
   EXCHANGE   omegaB97X-D
   BASIS   6-311+G(2df,2pd)
   UNRESTRICTED   False
   max_scf_cycles   250
   geom_opt_max_cycles   1500
   basis2 6-31G*
   scf_algorithm rca_diis
   SYM_IGNORE  TRUE
   print_input   true
   geom_opt_dmax   80
   pop_mulliken false
   XC_GRID 000075000302
$end

$molecule
0 1
C       1.2488400124     0.0000026122     0.2574843512
C       -0.0000016835     0.0000007750     -0.6391348668
H       1.3290429396     -0.9708087005     0.7436052193
H       1.3290322940     0.9708130664     0.7436076788
H       2.2154002869     -0.0000094909     -0.2621427743
C       -1.2488438321     -0.0000018640     0.2574805898
H       0.0000013842     -1.0237111021     -0.9924703122
H       0.0000012681     1.0237123814     -0.9924712383
H       -1.3290331081     -0.9708037596     0.7436223295
H       -2.2153978012     0.0000064813     -0.2621570222
H       -1.3290418208     0.9708002669     0.7436210642
$end
--------------------------------------------------------------
 ----------------------------------------------------------------
             Standard Nuclear Orientation (Angstroms)
    I     Atom           X                Y                Z
 ----------------------------------------------------------------
    1      C       1.2488400124     0.0000026122     0.2574843512
    2      C      -0.0000016835     0.0000007750    -0.6391348668
    3      H       1.3290429396    -0.9708087005     0.7436052193
    4      H       1.3290322940     0.9708130664     0.7436076788
    5      H       2.2154002869    -0.0000094909    -0.2621427743
    6      C      -1.2488438321    -0.0000018640     0.2574805898
    7      H       0.0000013842    -1.0237111021    -0.9924703122
    8      H       0.0000012681     1.0237123814    -0.9924712383
    9      H      -1.3290331081    -0.9708037596     0.7436223295
   10      H      -2.2153978012     0.0000064813    -0.2621570222
   11      H      -1.3290418208     0.9708002669     0.7436210642
 ----------------------------------------------------------------
 Nuclear Repulsion Energy =          83.01958103 hartrees
 There are       13 alpha and       13 beta electrons
 Requested basis set is 6-311+G(2df,2pd)
 There are 72 shells and 214 basis functions

 Total QAlloc Memory Limit   2000 MB
 Mega-Array Size       188 MB
 MEM_STATIC part       192 MB

                       Distance Matrix (Angstroms)
             C (  1)   C (  2)   H (  3)   H (  4)   H (  5)   C (  6)
   C (  2)  1.537378
   H (  3)  1.088678  2.149605
   H (  4)  1.088678  2.149601  1.941622
   H (  5)  1.097384  2.247249  1.655177  1.655197
   C (  6)  2.497684  1.537376  2.797192  2.797185  3.502998
   H (  7)  2.042052  1.082974  2.187032  2.959462  2.547417  2.042051
   H (  8)  2.042050  1.082974  2.959464  2.187028  2.547426  2.042054
   H (  9)  2.797182  2.149605  2.658076  3.291685  3.810120  1.088678
   H ( 10)  3.502995  2.247241  3.810131  3.810120  4.430798  1.097383
   H ( 11)  2.797186  2.149608  3.291696  2.658074  3.810132  1.088679
             H (  7)   H (  8)   H (  9)   H ( 10)
   H (  8)  2.047423
   H (  9)  2.187041  2.959468
   H ( 10)  2.547420  2.547415  1.655206
   H ( 11)  2.959467  2.187046  1.941604  1.655191
 
 A cutoff of  1.0D-09 yielded   2532 shell pairs
 There are     22518 function pairs (     27687 Cartesian)
 Smallest overlap matrix eigenvalue = 8.45E-05

 Scale SEOQF with 1.000000e-01/1.000000e-01/1.000000e-01

 Standard Electronic Orientation quadrupole field applied
 Nucleus-field energy     =     0.0000000009 hartrees
 Requested basis set is 6-31G(d)
 There are 28 shells and 58 basis functions
 A cutoff of  1.0D-09 yielded    402 shell pairs
 There are      1773 function pairs (      1968 Cartesian)
 Smallest overlap matrix eigenvalue = 6.44E-03
 Guess from superposition of atomic densities
 Warning:  Energy on first SCF cycle will be non-variational
 SAD guess density has 26.000000 electrons
 Long-range K will be added via erf
 Coulomb attenuation parameter = 0.2 bohr**(-1)
 A restricted hybrid HF-DFT SCF calculation will be
 performed using Relaxed Constraint Minimization + Pulay DIIS
 Exchange:     0.2220 Hartree-Fock + 1.0000 wB97X-D + LR-HF
 Correlation:  1.0000 wB97X-D
 Using Euler-Maclaurin-Lebedev (75,302) quadrature formula
 Dispersion:   Grimme D
 SCF converges when DIIS error is below 1.0E-04
 using 3 threads for integral computing
 -------------------------------------------------------
 OpenMP Integral computing Module                
 Release: version 1.0, May 2013, Q-Chem Inc. Pittsburgh 
 -------------------------------------------------------
 using 3 threads for integral computing
 -------------------------------------------------------
 OpenMP Integral computing Module                
 Release: version 1.0, May 2013, Q-Chem Inc. Pittsburgh 
 -------------------------------------------------------
 ---------------------------------------
  Cycle       Energy         DIIS Error
 ---------------------------------------
    1    -119.6425476144      1.01E-01
    2    -119.0072037720      9.47E-03
    3    -119.0307271148      2.59E-03
    4    -119.0463262016      1.78E-03
    5    -119.0471137693      2.96E-04 Done RCA. Switching to DIIS
    6    -119.0476901972      2.13E-04
    7    -119.0477103281      9.00E-06 Convergence criterion met
 ---------------------------------------
 SCF time:  CPU 19.63 s  wall 7.18 s
 SCF   energy in the small basis set = -119.04771033
 Total energy in the small basis set = -119.04771033
 ----------------------------------------------------
  Cycle       Energy    
 ----------------------------------------------------
    1     -16.5353820035     -1.65E+01
 Long-range K will be added via erf
 Coulomb attenuation parameter = 0.2 bohr**(-1)
 A restricted hybrid HF-DFT SCF calculation will be
 performed using Relaxed Constraint Minimization + Pulay DIIS
 Exchange:     0.2220 Hartree-Fock + 1.0000 wB97X-D + LR-HF
 Correlation:  1.0000 wB97X-D
 Using Euler-Maclaurin-Lebedev (75,302) quadrature formula
 Dispersion:   Grimme D
 SCF converges when DIIS error is below 1.0E-05
 Basis2 calculation detected. Using small basis as guess for larger.
 SCFMinFind is unable to tell whether the solution found is close.
 Resetting ReadMinima to 0 and attempting to follow guess.
 SCFMinFind following SCF Guess.
 using 3 threads for integral computing
 -------------------------------------------------------
 OpenMP Integral computing Module                
 Release: version 1.0, May 2013, Q-Chem Inc. Pittsburgh 
 -------------------------------------------------------
 using 3 threads for integral computing
 -------------------------------------------------------
 OpenMP Integral computing Module                
 Release: version 1.0, May 2013, Q-Chem Inc. Pittsburgh 
 -------------------------------------------------------
 ---------------------------------------
  Cycle       Energy         DIIS Error
 ---------------------------------------
    1    -119.0688270118      4.22E-03
    2    -119.0909187056      6.59E-04 Done RCA. Switching to DIIS
    3    -119.0918845709      4.74E-04
    4    -119.0931225811      4.53E-05
    5    -119.0931388472      9.14E-06 Convergence criterion met
 ---------------------------------------
 SCF time:  CPU 45.16 s  wall 15.33 s
 SCF   energy in the final basis set = -119.09313885
 Total energy in the final basis set = -119.09313885
 
 --------------------------------------------------------------
 
                    Orbital Energies (a.u.)
 --------------------------------------------------------------
 
 Alpha MOs
 -- Occupied --
-10.2776 -10.2646 -10.2646  -0.8885  -0.7790  -0.6703  -0.5923  -0.5024
 -0.4949  -0.4487  -0.4407  -0.4137  -0.3664
 -- Virtual --
  0.0712   0.0839   0.0879   0.0953   0.1181   0.1284   0.1320   0.1348
  0.1366   0.1730   0.1780   0.1850   0.2208   0.2525   0.2574   0.2598
  0.2798   0.2808   0.2956   0.3133   0.3262   0.3312   0.4590   0.4670
  0.4723   0.4947   0.5158   0.5160   0.5571   0.5711   0.5898   0.6172
  0.6208   0.6269   0.6306   0.6318   0.6531   0.6930   0.7023   0.7145
  0.7221   0.7936   0.8207   0.8397   0.8607   0.8708   0.8807   0.8904
  1.0121   1.0415   1.0765   1.1198   1.1633   1.1799   1.1886   1.2017
  1.2078   1.2144   1.2260   1.2919   1.3010   1.3399   1.3521   1.3670
  1.3703   1.3759   1.4063   1.4447   1.4575   1.4771   1.4779   1.4973
  1.5282   1.5594   1.5720   1.6250   1.6672   1.6700   1.6851   1.7167
  1.7776   2.3447   2.4356   2.5269   2.5328   2.5767   2.6235   2.6379
  2.6796   2.6908   2.7229   2.8433   2.8436   2.8976   2.8996   2.9124
  2.9176   2.9220   2.9523   3.0243   3.0424   3.0485   3.0750   3.1322
  3.1493   3.1634   3.1718   3.1885   3.2280   3.2480   3.2554   3.2810
  3.3150   3.3452   3.3586   3.3795   3.3881   3.4035   3.4262   3.4717
  3.4734   3.4844   3.5006   3.5291   3.5770   3.5916   3.5945   3.5963
  3.6433   3.6603   3.6615   3.6714   3.6822   3.7621   3.7961   3.8028
  3.8534   3.8640   3.9158   3.9534   3.9565   3.9742   4.0101   4.0234
  4.0259   4.0450   4.0813   4.1167   4.1310   4.1888   4.2064   4.2281
  4.2547   4.3157   4.3439   4.3596   4.3693   4.3985   4.4643   4.5105
  4.5268   4.5428   4.6245   4.6458   4.6748   4.7318   4.7863   4.7876
  4.8014   4.8782   4.9061   4.9192   4.9305   4.9931   5.0599   5.0892
  5.0943   5.1315   5.1996   5.2429   5.3091   5.3495   5.4268   5.4329
  5.5022   5.5846   5.6452   5.6798   5.7184   5.7267   5.7984   5.9136
  6.1934   6.2857   6.2968   6.4831   6.5116   6.7714  25.1676  25.4205
 25.4385
 --------------------------------------------------------------
 
 -----------------------------------------------------------------
                    Cartesian Multipole Moments
 -----------------------------------------------------------------
    Charge (ESU x 10^10)
                -0.0000
    Dipole Moment (Debye)
         X       0.0000      Y      -0.0000      Z      -0.0857
       Tot       0.0857
    Quadrupole Moments (Debye-Ang)
        XX     -21.9869     XY      -0.0001     YY     -19.7876
        XZ      -0.0000     YZ       0.0000     ZZ     -24.2442
    Octopole Moments (Debye-Ang^2)
       XXX       0.0001    XXY      -0.0000    XYY       0.0001
       YYY      -0.0000    XXZ      -0.4292    XYZ       0.0000
       YYZ       0.4072    XZZ      -0.0001    YZZ      -0.0000
       ZZZ       0.7262
    Hexadecapole Moments (Debye-Ang^3)
      XXXX    -200.7448   XXXY      -0.0004   XXYY     -41.1103
      XYYY      -0.0000   YYYY     -45.2901   XXXZ       0.0001
      XXYZ       0.0000   XYYZ      -0.0000   YYYZ       0.0000
      XXZZ     -47.1530   XYZZ       0.0000   YYZZ     -17.9647
      XZZZ      -0.0001   YZZZ       0.0000   ZZZZ     -71.2862
 -----------------------------------------------------------------
Archival summary:
1\1\centos77-c4\SP\ProcedureUnspecified\BasisUnspecified\38\shihchen\TueJul701:46:102020TueJul701:46:102020\0\\#,ProcedureUnspecified,BasisUnspecified,\\0,1\C\H,1,1.08297\H,1,1.08297,2,141.916\C,1,1.53738,2,100.969,3,124.164,0\H,4,1.08868,1,108.679,2,35.3901,0\H,4,1.08868,1,108.679,2,175.934,0\H,4,1.09738,1,116.06,2,-74.3385,0\C,1,1.53738,2,100.969,3,-124.163,0\H,8,1.08868,1,108.678,2,-175.935,0\H,8,1.08868,1,108.679,2,-35.3888,0\H,8,1.09738,1,116.06,2,74.3371,0\\\@

 Total job time:  25.42s(wall), 68.35s(cpu) 
 Tue Jul  7 01:46:10 2020

        *************************************************************
        *                                                           *
        *  Thank you very much for using Q-Chem.  Have a nice day.  *
        *                                                           *
        *************************************************************


