                  Welcome to Q-Chem
     A Quantum Leap Into The Future Of Chemistry


 Q-Chem 5.3 (devel), Q-Chem, Inc., Pleasanton, CA (2020)

 Yihan Shao,  Zhengting Gan,  E. Epifanovsky,  A. T. B. Gilbert,  M. Wormit,  
 J. Kussmann,  A. W. Lange,  A. Behn,  Jia Deng,  Xintian Feng,  D. Ghosh,  
 M. Goldey,  P. R. Horn,  L. D. Jacobson,  I. Kaliman,  T. Kus,  A. Landau,  
 Jie Liu,  E. I. Proynov,  R. M. Richard,  R. P. Steele,  E. J. Sundstrom,  
 H. L. Woodcock III,  P. M. Zimmerman,  D. Zuev,  B. Alam,  B. Albrecht,  
 E. Alguire,  S. A. Baeppler,  D. Barton,  Z. Benda,  Y. A. Bernard,  
 E. J. Berquist,  K. B. Bravaya,  H. Burton,  K. Carter-Fenk,  D. Casanova,  
 Chun-Min Chang,  Yunqing Chen,  A. Chien,  K. D. Closser,  M. P. Coons,  
 S. Coriani,  S. Dasgupta,  A. L. Dempwolff,  M. Diedenhofen,  Hainam Do,  
 R. G. Edgar,  Po-Tung Fang,  S. Faraji,  S. Fatehi,  Qingguo Feng,  
 J. Fosso-Tande,  J. Gayvert,  Qinghui Ge,  A. Ghysels,  G. Gidofalvi,  
 J. Gomes,  J. Gonthier,  A. Gunina,  D. Hait,  M. W. D. Hanson-Heine,  
 P. H. P. Harbach,  A. W. Hauser,  M. F. Herbst,  J. E. Herr,  
 E. G. Hohenstein,  Z. C. Holden,  Kerwin Hui,  B. C. Huynh,  T.-C. Jagau,  
 Hyunjun Ji,  B. Kaduk,  K. Khistyaev,  Jaehoon Kim,  P. Klunzinger,  K. Koh,  
 D. Kosenkov,  L. Koulias,  T. Kowalczyk,  C. M. Krauter,  A. Kunitsa,  
 Ka Un Lao,  A. Laurent,  K. V. Lawler,  Joonho Lee,  D. Lefrancois,  
 S. Lehtola,  D. S. Levine,  Yi-Pei Li,  You-Sheng Lin,  Fenglai Liu,  
 Kuan-Yu Liu,  E. Livshits,  M. Loipersberger,  A. Luenser,  P. Manohar,  
 E. Mansoor,  S. F. Manzer,  Shan-Ping Mao,  Yuezhi Mao,  N. Mardirossian,  
 A. V. Marenich,  T. Markovich,  L. A. Martinez-Martinez,  S. A. Maurer,  
 N. J. Mayhall,  S. C. McKenzie,  J.-M. Mewes,  P. Morgante,  A. F. Morrison,  
 J. W. Mullinax,  K. Nanda,  T. S. Nguyen-Beck,  R. Olivares-Amaya,  
 K. J. Oosterbaan,  J. A. Parkhill,  S. K. Paul,  F. Pavosevic,  Zheng Pei,  
 T. M. Perrine,  F. Plasser,  P. Pokhilko,  S. Prager,  A. Prociuk,  
 E. Ramos,  B. Rana,  D. R. Rehn,  F. Rob,  M. Scheurer,  M. Schneider,  
 N. Sergueev,  S. M. Sharada,  S. Sharma,  D. W. Small,  T. Stauch,  
 C. J. Stein,  T. Stein,  Yu-Chuan Su,  S. P. Veccham,  Zhen Tao,  
 A. J. W. Thom,  A. Tkatchenko,  T. Tsuchimochi,  N. M. Tubman,  L. Vogt,  
 M. L. Vidal,  O. Vydrov,  M. A. Watson,  J. Wenzel,  M. de Wergifosse,  
 T. A. Wesolowski,  A. White,  J. Witte,  A. Yamada,  Jun Yang,  K. Yao,  
 S. Yeganeh,  S. R. Yost,  Zhi-Qiang You,  A. Zech,  Igor Ying Zhang,  
 Xing Zhang,  Yan Zhao,  Ying Zhu,  B. R. Brooks,  G. K. L. Chan,  
 C. J. Cramer,  M. S. Gordon,  W. J. Hehre,  A. Klamt,  M. W. Schmidt,  
 C. D. Sherrill,  D. G. Truhlar,  A. Aspuru-Guzik,  R. Baer,  A. T. Bell,  
 N. A. Besley,  Jeng-Da Chai,  A. E. DePrince, III,  R. A. DiStasio Jr.,  
 A. Dreuw,  B. D. Dunietz,  T. R. Furlani,  Chao-Ping Hsu,  Yousung Jung,  
 Jing Kong,  D. S. Lambrecht,  WanZhen Liang,  C. Ochsenfeld,  
 V. A. Rassolov,  L. V. Slipchenko,  J. E. Subotnik,  T. Van Voorhis,  
 J. M. Herbert,  A. I. Krylov,  P. M. W. Gill,  M. Head-Gordon

 Contributors to earlier versions of Q-Chem not listed above: 
 R. D. Adamson,  B. Austin,  J. Baker,  G. J. O. Beran,  K. Brandhorst,  
 S. T. Brown,  E. F. C. Byrd,  A. K. Chakraborty,  C.-L. Cheng,  
 Siu Hung Chien,  D. M. Chipman,  D. L. Crittenden,  H. Dachsel,  
 R. J. Doerksen,  A. D. Dutoi,  L. Fusti-Molnar,  W. A. Goddard III,  
 A. Golubeva-Zadorozhnaya,  S. R. Gwaltney,  G. Hawkins,  A. Heyden,  
 S. Hirata,  G. Kedziora,  F. J. Keil,  C. Kelley,  Jihan Kim,  R. A. King,  
 R. Z. Khaliullin,  P. P. Korambath,  W. Kurlancheek,  A. M. Lee,  M. S. Lee,  
 S. V. Levchenko,  Ching Yeh Lin,  D. Liotard,  R. C. Lochan,  I. Lotan,  
 P. E. Maslen,  N. Nair,  D. P. O'Neill,  D. Neuhauser,  E. Neuscamman,  
 C. M. Oana,  R. Olson,  B. Peters,  R. Peverati,  P. A. Pieniazek,  
 Y. M. Rhee,  J. Ritchie,  M. A. Rohrdanz,  E. Rosta,  N. J. Russ,  
 H. F. Schaefer III,  N. E. Schultz,  N. Shenvi,  A. C. Simmonett,  A. Sodt,  
 D. Stuck,  K. S. Thanthiriwatte,  V. Vanovschi,  Tao Wang,  A. Warshel,  
 C. F. Williams,  Q. Wu,  X. Xu,  W. Zhang

 Please cite Q-Chem as follows:
 Y. Shao et al., Mol. Phys. 113, 184-215 (2015)
 DOI: 10.1080/00268976.2014.952696

 Q-Chem 5.3.0 for Intel X86 EM64T Linux

 Parts of Q-Chem use Armadillo 9.800.1 (Horizon Scraper).
 http://arma.sourceforge.net/

 Q-Chem begins on Thu Jul  2 04:40:34 2020  

Host: centos77-c1
0

     Scratch files written to /tmp/26650.centos77-h1/qchem74768//
Processing $rem in /opt/qchem-5.3.0-intel2020u1//config/preferences:
Processing $rem in /home/shihchengli/.qchemrc:

Checking the input file for inconsistencies... 	...done.

--------------------------------------------------------------
User input:
--------------------------------------------------------------
$rem
   JOBTYPE  sp
   EXCHANGE   omegaB97X-D
   BASIS   6-311+G(2df,2pd)
   max_scf_cycles   250
   geom_opt_max_cycles   1500
   basis2 6-31G*
   scf_algorithm rca_diis
   SYM_IGNORE  TRUE
   print_input   true
   geom_opt_dmax   80
   pop_mulliken false
   XC_GRID 000075000302
$end

$molecule
0 1
C       1.3927729759     0.0000001957     0.2560828764
C       -0.0000000023     -0.0000000054     -0.7559405499
H       1.2929236475     -0.8630788188     0.9199303738
H       1.2929242994     0.8630786891     0.9199311261
H       2.4104836650     -0.0000001817     -0.1386617131
C       -1.3927731541     -0.0000002871     0.2560827812
H       0.0000009424     -0.8758379211     -1.4087901566
H       -0.0000004419     0.8758380751     -1.4087899348
H       -1.2929242753     -0.8630784575     0.9199314085
H       -2.4104839818     0.0000006675     -0.1386614303
H       -1.2929237354     0.8630787102     0.9199302376
$end
--------------------------------------------------------------
 ----------------------------------------------------------------
             Standard Nuclear Orientation (Angstroms)
    I     Atom           X                Y                Z
 ----------------------------------------------------------------
    1      C       1.3927729759     0.0000001957     0.2560828764
    2      C      -0.0000000023    -0.0000000054    -0.7559405499
    3      H       1.2929236475    -0.8630788188     0.9199303738
    4      H       1.2929242994     0.8630786891     0.9199311261
    5      H       2.4104836650    -0.0000001817    -0.1386617131
    6      C      -1.3927731541    -0.0000002871     0.2560827812
    7      H       0.0000009424    -0.8758379211    -1.4087901566
    8      H      -0.0000004419     0.8758380751    -1.4087899348
    9      H      -1.2929242753    -0.8630784575     0.9199314085
   10      H      -2.4104839818     0.0000006675    -0.1386614303
   11      H      -1.2929237354     0.8630787102     0.9199302376
 ----------------------------------------------------------------
 Nuclear Repulsion Energy =          77.49847640 hartrees
 There are       13 alpha and       13 beta electrons
 Requested basis set is 6-311+G(2df,2pd)
 There are 72 shells and 214 basis functions

 Total QAlloc Memory Limit   2000 MB
 Mega-Array Size       188 MB
 MEM_STATIC part       192 MB

                       Distance Matrix (Angstroms)
             C (  1)   C (  2)   H (  3)   H (  4)   H (  5)   C (  6)
   C (  2)  1.721629
   H (  3)  1.093421  2.285848
   H (  4)  1.093421  2.285849  1.726158
   H (  5)  1.091585  2.488265  1.764784  1.764784
   C (  6)  2.785546  1.721630  2.898028  2.898029  3.823687
   H (  7)  2.340664  1.092385  2.663597  3.180947  2.861948  2.340665
   H (  8)  2.340665  1.092385  3.180947  2.663599  2.861949  2.340664
   H (  9)  2.898029  2.285849  2.585848  3.109056  3.947246  1.093421
   H ( 10)  3.823688  2.488266  3.947246  3.947246  4.820968  1.091585
   H ( 11)  2.898028  2.285848  3.109056  2.585848  3.947246  1.093421
             H (  7)   H (  8)   H (  9)   H ( 10)
   H (  8)  1.751676
   H (  9)  2.663600  3.180947
   H ( 10)  2.861950  2.861948  1.764784
   H ( 11)  3.180947  2.663597  1.726157  1.764784
 
 A cutoff of  1.0D-09 yielded   2510 shell pairs
 There are     22414 function pairs (     27535 Cartesian)
 Smallest overlap matrix eigenvalue = 1.82E-04

 Scale SEOQF with 1.000000e-01/1.000000e-01/1.000000e-01

 Standard Electronic Orientation quadrupole field applied
 Nucleus-field energy     =     0.0000000006 hartrees
 Requested basis set is 6-31G(d)
 There are 28 shells and 58 basis functions
 A cutoff of  1.0D-09 yielded    402 shell pairs
 There are      1773 function pairs (      1968 Cartesian)
 Smallest overlap matrix eigenvalue = 1.12E-02
 Guess from superposition of atomic densities
 Warning:  Energy on first SCF cycle will be non-variational
 SAD guess density has 26.000000 electrons
 Long-range K will be added via erf
 Coulomb attenuation parameter = 0.2 bohr**(-1)
 A restricted hybrid HF-DFT SCF calculation will be
 performed using Relaxed Constraint Minimization + Pulay DIIS
 Exchange:     0.2220 Hartree-Fock + 1.0000 wB97X-D + LR-HF
 Correlation:  1.0000 wB97X-D
 Using Euler-Maclaurin-Lebedev (75,302) quadrature formula
 Dispersion:   Grimme D
 SCF converges when DIIS error is below 1.0E-04
 using 3 threads for integral computing
 -------------------------------------------------------
 OpenMP Integral computing Module                
 Release: version 1.0, May 2013, Q-Chem Inc. Pittsburgh 
 -------------------------------------------------------
 using 3 threads for integral computing
 -------------------------------------------------------
 OpenMP Integral computing Module                
 Release: version 1.0, May 2013, Q-Chem Inc. Pittsburgh 
 -------------------------------------------------------
 ---------------------------------------
  Cycle       Energy         DIIS Error
 ---------------------------------------
    1    -119.1701693480      8.71E-02
    2    -119.0405919299      7.50E-03
    3    -119.0558924179      2.45E-03
    4    -119.0646517360      1.71E-03
    5    -119.0653773144      2.90E-04 Done RCA. Switching to DIIS
    6    -119.0658949691      2.31E-04
    7    -119.0659179286      4.09E-06 Convergence criterion met
 ---------------------------------------
 SCF time:  CPU 16.61 s  wall 5.56 s
 SCF   energy in the small basis set = -119.06591793
 Total energy in the small basis set = -119.06591793
 ----------------------------------------------------
  Cycle       Energy    
 ----------------------------------------------------
    1     -16.3989529569     -1.64E+01
 Long-range K will be added via erf
 Coulomb attenuation parameter = 0.2 bohr**(-1)
 A restricted hybrid HF-DFT SCF calculation will be
 performed using Relaxed Constraint Minimization + Pulay DIIS
 Exchange:     0.2220 Hartree-Fock + 1.0000 wB97X-D + LR-HF
 Correlation:  1.0000 wB97X-D
 Using Euler-Maclaurin-Lebedev (75,302) quadrature formula
 Dispersion:   Grimme D
 SCF converges when DIIS error is below 1.0E-05
 Basis2 calculation detected. Using small basis as guess for larger.
 SCFMinFind is unable to tell whether the solution found is close.
 Resetting ReadMinima to 0 and attempting to follow guess.
 SCFMinFind following SCF Guess.
 using 3 threads for integral computing
 -------------------------------------------------------
 OpenMP Integral computing Module                
 Release: version 1.0, May 2013, Q-Chem Inc. Pittsburgh 
 -------------------------------------------------------
 using 3 threads for integral computing
 -------------------------------------------------------
 OpenMP Integral computing Module                
 Release: version 1.0, May 2013, Q-Chem Inc. Pittsburgh 
 -------------------------------------------------------
 ---------------------------------------
  Cycle       Energy         DIIS Error
 ---------------------------------------
    1    -119.0844723498      4.22E-03
    2    -119.1066949642      5.81E-04 Done RCA. Switching to DIIS
    3    -119.1075881655      3.84E-04
    4    -119.1084134735      4.15E-05
    5    -119.1084265339      8.84E-06 Convergence criterion met
 ---------------------------------------
 SCF time:  CPU 39.95 s  wall 13.34 s

 Q-Chem warning in module 0, line  198:

 OriOrb: Failure to resolve orbital degeneracies.


 Q-Chem warning in module 0, line  198:

 OriOrb: Failure to resolve orbital degeneracies.

 SCF   energy in the final basis set = -119.10842653
 Total energy in the final basis set = -119.10842653
 
 --------------------------------------------------------------
 
                    Orbital Energies (a.u.)
 --------------------------------------------------------------
 
 Alpha MOs
 -- Occupied --
-10.3057 -10.2812 -10.2812  -0.8386  -0.7684  -0.6956  -0.5214  -0.5112
 -0.4650  -0.4584  -0.4250  -0.4125  -0.4089
 -- Virtual --
  0.0700   0.0814   0.0867   0.1040   0.1224   0.1298   0.1334   0.1426
  0.1458   0.1656   0.1723   0.1926   0.2178   0.2180   0.2477   0.2520
  0.2570   0.2642   0.2820   0.2885   0.3308   0.3342   0.4466   0.4571
  0.4716   0.5065   0.5196   0.5339   0.5616   0.5628   0.5777   0.5861
  0.5899   0.5902   0.6195   0.6245   0.6442   0.6465   0.7060   0.7098
  0.7220   0.7530   0.7835   0.8078   0.8509   0.8693   0.9058   0.9437
  1.0092   1.0112   1.0181   1.0740   1.1106   1.1687   1.1924   1.1956
  1.1959   1.2021   1.2314   1.2339   1.2543   1.2864   1.2894   1.2958
  1.3023   1.3645   1.3798   1.4311   1.4527   1.4603   1.4634   1.4810
  1.5009   1.5253   1.5932   1.6133   1.6167   1.6539   1.6724   1.6738
  1.7350   2.3686   2.3840   2.4535   2.4646   2.4830   2.4953   2.5495
  2.5609   2.6003   2.6960   2.7197   2.8061   2.8489   2.8511   2.9304
  2.9322   2.9337   2.9732   3.0231   3.0367   3.0697   3.0828   3.1050
  3.1056   3.1419   3.1506   3.1643   3.1666   3.2085   3.2546   3.2556
  3.2931   3.3096   3.3360   3.3400   3.3445   3.3470   3.3532   3.3709
  3.3806   3.3918   3.4403   3.5063   3.5569   3.5572   3.5584   3.5850
  3.6113   3.6155   3.6431   3.6773   3.6828   3.6874   3.7181   3.7888
  3.7891   3.8243   3.8713   3.8872   3.8954   3.9271   3.9912   3.9986
  4.0171   4.0272   4.0624   4.0701   4.0979   4.1087   4.1452   4.1901
  4.2009   4.2122   4.2510   4.2615   4.2914   4.3043   4.3191   4.3695
  4.3855   4.4378   4.4773   4.5361   4.5810   4.6764   4.8118   4.8359
  4.8438   4.8824   4.9174   4.9260   4.9803   5.0035   5.0144   5.0656
  5.0985   5.1365   5.1759   5.1916   5.1965   5.2009   5.2363   5.2850
  5.2905   5.3184   5.3315   5.3547   5.3760   5.4062   5.4493   5.5399
  5.6763   6.3531   6.3737   6.3936   6.4246   6.4250  24.9636  25.3224
 25.3649
 --------------------------------------------------------------
 
 -----------------------------------------------------------------
                    Cartesian Multipole Moments
 -----------------------------------------------------------------
    Charge (ESU x 10^10)
                -0.0000
    Dipole Moment (Debye)
         X       0.0000      Y       0.0000      Z       0.0636
       Tot       0.0636
    Quadrupole Moments (Debye-Ang)
        XX     -21.2508     XY      -0.0000     YY     -21.8200
        XZ      -0.0000     YZ      -0.0000     ZZ     -21.9045
    Octopole Moments (Debye-Ang^2)
       XXX      -0.0000    XXY       0.0000    XYY       0.0000
       YYY       0.0000    XXZ       0.2262    XYZ       0.0000
       YYZ       1.0710    XZZ       0.0000    YZZ      -0.0000
       ZZZ       1.6911
    Hexadecapole Moments (Debye-Ang^3)
      XXXX    -217.4234   XXXY      -0.0000   XXYY     -48.4539
      XYYY      -0.0000   YYYY     -44.3203   XXXZ      -0.0000
      XXYZ      -0.0000   XYYZ       0.0000   YYYZ       0.0000
      XXZZ     -54.3562   XYZZ       0.0000   YYZZ     -18.2685
      XZZZ      -0.0000   YZZZ       0.0000   ZZZZ     -82.2527
 -----------------------------------------------------------------
Archival summary:
1\1\centos77-c1\SP\ProcedureUnspecified\BasisUnspecified\38\shihchen\ThuJul204:40:562020ThuJul204:40:562020\0\\#,ProcedureUnspecified,BasisUnspecified,\\0,1\C\H,1,1.09238\H,1,1.09238,2,106.598\C,1,1.72163,2,110.567,3,120.224,0\H,4,1.09159,1,122.797,2,-58.9093,0\H,4,1.09342,1,106.44,2,65.706,0\H,4,1.09342,1,106.44,2,176.475,0\C,1,1.72163,2,110.567,3,-120.224,0\H,8,1.09159,1,122.797,2,58.9092,0\H,8,1.09342,1,106.44,2,-65.706,0\H,8,1.09342,1,106.44,2,-176.475,0\\\@

 Total job time:  22.32s(wall), 61.83s(cpu) 
 Thu Jul  2 04:40:56 2020

        *************************************************************
        *                                                           *
        *  Thank you very much for using Q-Chem.  Have a nice day.  *
        *                                                           *
        *************************************************************


