                  Welcome to Q-Chem
     A Quantum Leap Into The Future Of Chemistry


 Q-Chem 5.3 (devel), Q-Chem, Inc., Pleasanton, CA (2020)

 Yihan Shao,  Zhengting Gan,  E. Epifanovsky,  A. T. B. Gilbert,  M. Wormit,  
 J. Kussmann,  A. W. Lange,  A. Behn,  Jia Deng,  Xintian Feng,  D. Ghosh,  
 M. Goldey,  P. R. Horn,  L. D. Jacobson,  I. Kaliman,  T. Kus,  A. Landau,  
 Jie Liu,  E. I. Proynov,  R. M. Richard,  R. P. Steele,  E. J. Sundstrom,  
 H. L. Woodcock III,  P. M. Zimmerman,  D. Zuev,  B. Alam,  B. Albrecht,  
 E. Alguire,  S. A. Baeppler,  D. Barton,  Z. Benda,  Y. A. Bernard,  
 E. J. Berquist,  K. B. Bravaya,  H. Burton,  K. Carter-Fenk,  D. Casanova,  
 Chun-Min Chang,  Yunqing Chen,  A. Chien,  K. D. Closser,  M. P. Coons,  
 S. Coriani,  S. Dasgupta,  A. L. Dempwolff,  M. Diedenhofen,  Hainam Do,  
 R. G. Edgar,  Po-Tung Fang,  S. Faraji,  S. Fatehi,  Qingguo Feng,  
 J. Fosso-Tande,  J. Gayvert,  Qinghui Ge,  A. Ghysels,  G. Gidofalvi,  
 J. Gomes,  J. Gonthier,  A. Gunina,  D. Hait,  M. W. D. Hanson-Heine,  
 P. H. P. Harbach,  A. W. Hauser,  M. F. Herbst,  J. E. Herr,  
 E. G. Hohenstein,  Z. C. Holden,  Kerwin Hui,  B. C. Huynh,  T.-C. Jagau,  
 Hyunjun Ji,  B. Kaduk,  K. Khistyaev,  Jaehoon Kim,  P. Klunzinger,  K. Koh,  
 D. Kosenkov,  L. Koulias,  T. Kowalczyk,  C. M. Krauter,  A. Kunitsa,  
 Ka Un Lao,  A. Laurent,  K. V. Lawler,  Joonho Lee,  D. Lefrancois,  
 S. Lehtola,  D. S. Levine,  Yi-Pei Li,  You-Sheng Lin,  Fenglai Liu,  
 Kuan-Yu Liu,  E. Livshits,  M. Loipersberger,  A. Luenser,  P. Manohar,  
 E. Mansoor,  S. F. Manzer,  Shan-Ping Mao,  Yuezhi Mao,  N. Mardirossian,  
 A. V. Marenich,  T. Markovich,  L. A. Martinez-Martinez,  S. A. Maurer,  
 N. J. Mayhall,  S. C. McKenzie,  J.-M. Mewes,  P. Morgante,  A. F. Morrison,  
 J. W. Mullinax,  K. Nanda,  T. S. Nguyen-Beck,  R. Olivares-Amaya,  
 K. J. Oosterbaan,  J. A. Parkhill,  S. K. Paul,  F. Pavosevic,  Zheng Pei,  
 T. M. Perrine,  F. Plasser,  P. Pokhilko,  S. Prager,  A. Prociuk,  
 E. Ramos,  B. Rana,  D. R. Rehn,  F. Rob,  M. Scheurer,  M. Schneider,  
 N. Sergueev,  S. M. Sharada,  S. Sharma,  D. W. Small,  T. Stauch,  
 C. J. Stein,  T. Stein,  Yu-Chuan Su,  S. P. Veccham,  Zhen Tao,  
 A. J. W. Thom,  A. Tkatchenko,  T. Tsuchimochi,  N. M. Tubman,  L. Vogt,  
 M. L. Vidal,  O. Vydrov,  M. A. Watson,  J. Wenzel,  M. de Wergifosse,  
 T. A. Wesolowski,  A. White,  J. Witte,  A. Yamada,  Jun Yang,  K. Yao,  
 S. Yeganeh,  S. R. Yost,  Zhi-Qiang You,  A. Zech,  Igor Ying Zhang,  
 Xing Zhang,  Yan Zhao,  Ying Zhu,  B. R. Brooks,  G. K. L. Chan,  
 C. J. Cramer,  M. S. Gordon,  W. J. Hehre,  A. Klamt,  M. W. Schmidt,  
 C. D. Sherrill,  D. G. Truhlar,  A. Aspuru-Guzik,  R. Baer,  A. T. Bell,  
 N. A. Besley,  Jeng-Da Chai,  A. E. DePrince, III,  R. A. DiStasio Jr.,  
 A. Dreuw,  B. D. Dunietz,  T. R. Furlani,  Chao-Ping Hsu,  Yousung Jung,  
 Jing Kong,  D. S. Lambrecht,  WanZhen Liang,  C. Ochsenfeld,  
 V. A. Rassolov,  L. V. Slipchenko,  J. E. Subotnik,  T. Van Voorhis,  
 J. M. Herbert,  A. I. Krylov,  P. M. W. Gill,  M. Head-Gordon

 Contributors to earlier versions of Q-Chem not listed above: 
 R. D. Adamson,  B. Austin,  J. Baker,  G. J. O. Beran,  K. Brandhorst,  
 S. T. Brown,  E. F. C. Byrd,  A. K. Chakraborty,  C.-L. Cheng,  
 Siu Hung Chien,  D. M. Chipman,  D. L. Crittenden,  H. Dachsel,  
 R. J. Doerksen,  A. D. Dutoi,  L. Fusti-Molnar,  W. A. Goddard III,  
 A. Golubeva-Zadorozhnaya,  S. R. Gwaltney,  G. Hawkins,  A. Heyden,  
 S. Hirata,  G. Kedziora,  F. J. Keil,  C. Kelley,  Jihan Kim,  R. A. King,  
 R. Z. Khaliullin,  P. P. Korambath,  W. Kurlancheek,  A. M. Lee,  M. S. Lee,  
 S. V. Levchenko,  Ching Yeh Lin,  D. Liotard,  R. C. Lochan,  I. Lotan,  
 P. E. Maslen,  N. Nair,  D. P. O'Neill,  D. Neuhauser,  E. Neuscamman,  
 C. M. Oana,  R. Olson,  B. Peters,  R. Peverati,  P. A. Pieniazek,  
 Y. M. Rhee,  J. Ritchie,  M. A. Rohrdanz,  E. Rosta,  N. J. Russ,  
 H. F. Schaefer III,  N. E. Schultz,  N. Shenvi,  A. C. Simmonett,  A. Sodt,  
 D. Stuck,  K. S. Thanthiriwatte,  V. Vanovschi,  Tao Wang,  A. Warshel,  
 C. F. Williams,  Q. Wu,  X. Xu,  W. Zhang

 Please cite Q-Chem as follows:
 Y. Shao et al., Mol. Phys. 113, 184-215 (2015)
 DOI: 10.1080/00268976.2014.952696

 Q-Chem 5.3.0 for Intel X86 EM64T Linux

 Parts of Q-Chem use Armadillo 9.800.1 (Horizon Scraper).
 http://arma.sourceforge.net/

 Q-Chem begins on Thu Jul  2 05:59:06 2020  

Host: centos77-c1
0

     Scratch files written to /tmp/26650.centos77-h1/qchem81970//
Processing $rem in /opt/qchem-5.3.0-intel2020u1//config/preferences:
Processing $rem in /home/shihchengli/.qchemrc:

Checking the input file for inconsistencies... 	...done.

--------------------------------------------------------------
User input:
--------------------------------------------------------------
$rem
   JOBTYPE  sp
   EXCHANGE   omegaB97X-D
   BASIS   6-311+G(2df,2pd)
   max_scf_cycles   250
   geom_opt_max_cycles   1500
   basis2 6-31G*
   scf_algorithm rca_diis
   SYM_IGNORE  TRUE
   print_input   true
   geom_opt_dmax   80
   pop_mulliken false
   XC_GRID 000075000302
$end

$molecule
0 1
C       1.2670966311     -0.0045200255     0.2593010706
C       0.0000000020     0.0280041477     -0.5869429890
H       1.3041768902     -0.8492366714     0.8655409787
H       1.3062206324     0.9115078269     0.9423540078
H       2.1644979986     0.0073532134     -0.3600955646
C       -1.2670966256     -0.0045196368     0.2593011061
H       -0.0000000340     -0.9527129745     -1.3288276749
H       -0.0000000381     0.7945005111     -1.1573852444
H       -1.3041770047     -0.8492371113     0.8655415675
H       -2.1644980165     0.0073541698     -0.3600955339
H       -1.3062204961     0.9115072166     0.9423532951
$end
--------------------------------------------------------------
 ----------------------------------------------------------------
             Standard Nuclear Orientation (Angstroms)
    I     Atom           X                Y                Z
 ----------------------------------------------------------------
    1      C       1.2670966311    -0.0045200255     0.2593010706
    2      C       0.0000000020     0.0280041477    -0.5869429890
    3      H       1.3041768902    -0.8492366714     0.8655409787
    4      H       1.3062206324     0.9115078269     0.9423540078
    5      H       2.1644979986     0.0073532134    -0.3600955646
    6      C      -1.2670966256    -0.0045196368     0.2593011061
    7      H      -0.0000000340    -0.9527129745    -1.3288276749
    8      H      -0.0000000381     0.7945005111    -1.1573852444
    9      H      -1.3041770047    -0.8492371113     0.8655415675
   10      H      -2.1644980165     0.0073541698    -0.3600955339
   11      H      -1.3062204961     0.9115072166     0.9423532951
 ----------------------------------------------------------------
 Nuclear Repulsion Energy =          82.85825581 hartrees
 There are       13 alpha and       13 beta electrons
 Requested basis set is 6-311+G(2df,2pd)
 There are 72 shells and 214 basis functions

 Total QAlloc Memory Limit   2000 MB
 Mega-Array Size       188 MB
 MEM_STATIC part       192 MB

                       Distance Matrix (Angstroms)
             C (  1)   C (  2)   H (  3)   H (  4)   H (  5)   C (  6)
   C (  2)  1.524047
   H (  3)  1.040408  2.140126
   H (  4)  1.143328  2.196711  1.762420
   H (  5)  1.090469  2.176451  1.725133  1.802917
   C (  6)  2.534193  1.524047  2.773539  2.815605  3.487067
   H (  7)  2.242043  1.229715  2.554768  3.215556  2.558363  2.242043
   H (  8)  2.061788  0.955469  2.914615  2.475643  2.437278  2.061787
   H (  9)  2.773540  2.140126  2.608354  3.149651  3.777253  1.040409
   H ( 10)  3.487067  2.176451  3.777253  3.815725  4.328996  1.090469
   H ( 11)  2.815604  2.196710  3.149650  2.612441  3.815725  1.143327
             H (  7)   H (  8)   H (  9)   H ( 10)
   H (  8)  1.755605
   H (  9)  2.554768  2.914616
   H ( 10)  2.558363  2.437278  1.725134
   H ( 11)  3.215555  2.475642  1.762420  1.802916
 
 A cutoff of  1.0D-09 yielded   2530 shell pairs
 There are     22528 function pairs (     27697 Cartesian)
 Smallest overlap matrix eigenvalue = 8.63E-05

 Scale SEOQF with 1.000000e-01/1.000000e-01/1.000000e-01

 Standard Electronic Orientation quadrupole field applied
 Nucleus-field energy     =     0.0000000006 hartrees
 Requested basis set is 6-31G(d)
 There are 28 shells and 58 basis functions
 A cutoff of  1.0D-09 yielded    402 shell pairs
 There are      1773 function pairs (      1968 Cartesian)
 Smallest overlap matrix eigenvalue = 6.73E-03
 Guess from superposition of atomic densities
 Warning:  Energy on first SCF cycle will be non-variational
 SAD guess density has 26.000000 electrons
 Long-range K will be added via erf
 Coulomb attenuation parameter = 0.2 bohr**(-1)
 A restricted hybrid HF-DFT SCF calculation will be
 performed using Relaxed Constraint Minimization + Pulay DIIS
 Exchange:     0.2220 Hartree-Fock + 1.0000 wB97X-D + LR-HF
 Correlation:  1.0000 wB97X-D
 Using Euler-Maclaurin-Lebedev (75,302) quadrature formula
 Dispersion:   Grimme D
 SCF converges when DIIS error is below 1.0E-04
 using 3 threads for integral computing
 -------------------------------------------------------
 OpenMP Integral computing Module                
 Release: version 1.0, May 2013, Q-Chem Inc. Pittsburgh 
 -------------------------------------------------------
 using 3 threads for integral computing
 -------------------------------------------------------
 OpenMP Integral computing Module                
 Release: version 1.0, May 2013, Q-Chem Inc. Pittsburgh 
 -------------------------------------------------------
 ---------------------------------------
  Cycle       Energy         DIIS Error
 ---------------------------------------
    1    -119.6145498265      1.01E-01
    2    -119.0349679890      9.14E-03
    3    -119.0569253383      2.53E-03
    4    -119.0714530400      1.73E-03
    5    -119.0721906772      2.71E-04 Done RCA. Switching to DIIS
    6    -119.0727371375      2.00E-04
    7    -119.0727545957      5.18E-06 Convergence criterion met
 ---------------------------------------
 SCF time:  CPU 19.87 s  wall 7.32 s
 SCF   energy in the small basis set = -119.07275460
 Total energy in the small basis set = -119.07275460
 ----------------------------------------------------
  Cycle       Energy    
 ----------------------------------------------------
    1     -16.5511005416     -1.66E+01
 Long-range K will be added via erf
 Coulomb attenuation parameter = 0.2 bohr**(-1)
 A restricted hybrid HF-DFT SCF calculation will be
 performed using Relaxed Constraint Minimization + Pulay DIIS
 Exchange:     0.2220 Hartree-Fock + 1.0000 wB97X-D + LR-HF
 Correlation:  1.0000 wB97X-D
 Using Euler-Maclaurin-Lebedev (75,302) quadrature formula
 Dispersion:   Grimme D
 SCF converges when DIIS error is below 1.0E-05
 Basis2 calculation detected. Using small basis as guess for larger.
 SCFMinFind is unable to tell whether the solution found is close.
 Resetting ReadMinima to 0 and attempting to follow guess.
 SCFMinFind following SCF Guess.
 using 3 threads for integral computing
 -------------------------------------------------------
 OpenMP Integral computing Module                
 Release: version 1.0, May 2013, Q-Chem Inc. Pittsburgh 
 -------------------------------------------------------
 using 3 threads for integral computing
 -------------------------------------------------------
 OpenMP Integral computing Module                
 Release: version 1.0, May 2013, Q-Chem Inc. Pittsburgh 
 -------------------------------------------------------
 ---------------------------------------
  Cycle       Energy         DIIS Error
 ---------------------------------------
    1    -119.0931533891      4.21E-03
    2    -119.1151660214      5.87E-04 Done RCA. Switching to DIIS
    3    -119.1159795688      4.10E-04
    4    -119.1169040692      4.59E-05
    5    -119.1169190141      1.06E-05
    6    -119.1169197493      4.03E-06 Convergence criterion met
 ---------------------------------------
 SCF time:  CPU 49.15 s  wall 16.42 s
 SCF   energy in the final basis set = -119.11691975
 Total energy in the final basis set = -119.11691975
 
 --------------------------------------------------------------
 
                    Orbital Energies (a.u.)
 --------------------------------------------------------------
 
 Alpha MOs
 -- Occupied --
-10.2729 -10.2655 -10.2655  -0.8840  -0.7785  -0.6861  -0.5448  -0.5231
 -0.4881  -0.4595  -0.4317  -0.4195  -0.3952
 -- Virtual --
  0.0691   0.0858   0.0901   0.0982   0.1248   0.1297   0.1334   0.1419
  0.1431   0.1692   0.1717   0.1906   0.2207   0.2406   0.2432   0.2636
  0.2842   0.2854   0.3129   0.3132   0.3365   0.3502   0.4584   0.4677
  0.4707   0.5060   0.5140   0.5169   0.5447   0.5616   0.5831   0.5835
  0.6236   0.6247   0.6348   0.6410   0.6587   0.6600   0.7127   0.7293
  0.7380   0.7679   0.8292   0.8581   0.8706   0.8773   0.8869   0.9576
  1.0012   1.0461   1.0621   1.1387   1.1401   1.1714   1.1828   1.2032
  1.2134   1.2476   1.2704   1.2736   1.2924   1.2945   1.3266   1.3773
  1.3806   1.3945   1.3981   1.4364   1.4662   1.4677   1.4733   1.4786
  1.5277   1.5822   1.6098   1.6210   1.6483   1.6571   1.6881   1.6942
  1.7818   2.3624   2.3859   2.4759   2.5029   2.5739   2.5798   2.6144
  2.6506   2.7146   2.8182   2.8321   2.8340   2.8660   2.9239   2.9252
  2.9369   2.9403   2.9950   3.0239   3.0411   3.0588   3.0858   3.1143
  3.1364   3.1576   3.1632   3.1740   3.2180   3.2259   3.2509   3.2963
  3.3341   3.3358   3.3380   3.3634   3.3697   3.3796   3.4193   3.4321
  3.4411   3.4907   3.4932   3.4966   3.5590   3.5691   3.5937   3.6162
  3.6215   3.6892   3.6894   3.7092   3.7648   3.7679   3.8529   3.8847
  3.9200   3.9206   3.9450   3.9653   3.9753   3.9880   4.0569   4.0670
  4.0922   4.1015   4.1099   4.1129   4.1537   4.1651   4.1940   4.2094
  4.2319   4.2505   4.2632   4.3663   4.3721   4.4041   4.4188   4.4240
  4.4572   4.4628   4.5744   4.6260   4.7399   4.8003   4.8197   4.8680
  4.8824   4.9140   4.9477   4.9647   5.0003   5.0050   5.0852   5.1503
  5.1897   5.2373   5.2409   5.2729   5.3143   5.3451   5.3677   5.3901
  5.4106   5.4387   5.4803   5.5523   5.6860   5.7037   5.7541   5.8460
  5.8894   6.3237   6.3317   6.4540   6.4795   6.5589  25.1180  25.4322
 25.4440
 --------------------------------------------------------------
 
 -----------------------------------------------------------------
                    Cartesian Multipole Moments
 -----------------------------------------------------------------
    Charge (ESU x 10^10)
                -0.0000
    Dipole Moment (Debye)
         X      -0.0000      Y       0.0456      Z      -0.0480
       Tot       0.0662
    Quadrupole Moments (Debye-Ang)
        XX     -22.1160     XY      -0.0000     YY     -21.3787
        XZ      -0.0000     YZ      -0.2559     ZZ     -21.9194
    Octopole Moments (Debye-Ang^2)
       XXX      -0.0000    XXY      -0.3732    XYY      -0.0000
       YYY      -0.0860    XXZ      -1.5288    XYZ       0.0000
       YYZ       0.5433    XZZ      -0.0000    YZZ       0.1319
       ZZZ      -0.2056
    Hexadecapole Moments (Debye-Ang^3)
      XXXX    -201.9388   XXXY      -0.0000   XXYY     -42.2480
      XYYY       0.0000   YYYY     -44.4694   XXXZ      -0.0000
      XXYZ      -1.1439   XYYZ      -0.0000   YYYZ      -2.3866
      XXZZ     -45.4014   XYZZ       0.0000   YYZZ     -17.2369
      XZZZ      -0.0000   YZZZ      -2.6273   ZZZZ     -73.0219
 -----------------------------------------------------------------
Archival summary:
1\1\centos77-c1\SP\ProcedureUnspecified\BasisUnspecified\38\shihchen\ThuJul205:59:332020ThuJul205:59:332020\0\\#,ProcedureUnspecified,BasisUnspecified,\\0,1\C\H,1,0.955469\H,1,1.22971,2,106.236\C,1,1.52405,2,110.403,3,117.495,0\H,4,1.04041,1,111.747,2,-178.039,0\H,4,1.09047,1,111.628,2,-56.8574,0\H,4,1.14333,1,110.065,2,62.5625,0\C,1,1.52405,2,110.403,3,-117.495,0\H,8,1.04041,1,111.747,2,178.039,0\H,8,1.09047,1,111.628,2,56.8574,0\H,8,1.14333,1,110.065,2,-62.5625,0\\\@

 Total job time:  26.65s(wall), 72.62s(cpu) 
 Thu Jul  2 05:59:33 2020

        *************************************************************
        *                                                           *
        *  Thank you very much for using Q-Chem.  Have a nice day.  *
        *                                                           *
        *************************************************************


