                  Welcome to Q-Chem
     A Quantum Leap Into The Future Of Chemistry


 Q-Chem 5.3 (devel), Q-Chem, Inc., Pleasanton, CA (2020)

 Yihan Shao,  Zhengting Gan,  E. Epifanovsky,  A. T. B. Gilbert,  M. Wormit,  
 J. Kussmann,  A. W. Lange,  A. Behn,  Jia Deng,  Xintian Feng,  D. Ghosh,  
 M. Goldey,  P. R. Horn,  L. D. Jacobson,  I. Kaliman,  T. Kus,  A. Landau,  
 Jie Liu,  E. I. Proynov,  R. M. Richard,  R. P. Steele,  E. J. Sundstrom,  
 H. L. Woodcock III,  P. M. Zimmerman,  D. Zuev,  B. Alam,  B. Albrecht,  
 E. Alguire,  S. A. Baeppler,  D. Barton,  Z. Benda,  Y. A. Bernard,  
 E. J. Berquist,  K. B. Bravaya,  H. Burton,  K. Carter-Fenk,  D. Casanova,  
 Chun-Min Chang,  Yunqing Chen,  A. Chien,  K. D. Closser,  M. P. Coons,  
 S. Coriani,  S. Dasgupta,  A. L. Dempwolff,  M. Diedenhofen,  Hainam Do,  
 R. G. Edgar,  Po-Tung Fang,  S. Faraji,  S. Fatehi,  Qingguo Feng,  
 J. Fosso-Tande,  J. Gayvert,  Qinghui Ge,  A. Ghysels,  G. Gidofalvi,  
 J. Gomes,  J. Gonthier,  A. Gunina,  D. Hait,  M. W. D. Hanson-Heine,  
 P. H. P. Harbach,  A. W. Hauser,  M. F. Herbst,  J. E. Herr,  
 E. G. Hohenstein,  Z. C. Holden,  Kerwin Hui,  B. C. Huynh,  T.-C. Jagau,  
 Hyunjun Ji,  B. Kaduk,  K. Khistyaev,  Jaehoon Kim,  P. Klunzinger,  K. Koh,  
 D. Kosenkov,  L. Koulias,  T. Kowalczyk,  C. M. Krauter,  A. Kunitsa,  
 Ka Un Lao,  A. Laurent,  K. V. Lawler,  Joonho Lee,  D. Lefrancois,  
 S. Lehtola,  D. S. Levine,  Yi-Pei Li,  You-Sheng Lin,  Fenglai Liu,  
 Kuan-Yu Liu,  E. Livshits,  M. Loipersberger,  A. Luenser,  P. Manohar,  
 E. Mansoor,  S. F. Manzer,  Shan-Ping Mao,  Yuezhi Mao,  N. Mardirossian,  
 A. V. Marenich,  T. Markovich,  L. A. Martinez-Martinez,  S. A. Maurer,  
 N. J. Mayhall,  S. C. McKenzie,  J.-M. Mewes,  P. Morgante,  A. F. Morrison,  
 J. W. Mullinax,  K. Nanda,  T. S. Nguyen-Beck,  R. Olivares-Amaya,  
 K. J. Oosterbaan,  J. A. Parkhill,  S. K. Paul,  F. Pavosevic,  Zheng Pei,  
 T. M. Perrine,  F. Plasser,  P. Pokhilko,  S. Prager,  A. Prociuk,  
 E. Ramos,  B. Rana,  D. R. Rehn,  F. Rob,  M. Scheurer,  M. Schneider,  
 N. Sergueev,  S. M. Sharada,  S. Sharma,  D. W. Small,  T. Stauch,  
 C. J. Stein,  T. Stein,  Yu-Chuan Su,  S. P. Veccham,  Zhen Tao,  
 A. J. W. Thom,  A. Tkatchenko,  T. Tsuchimochi,  N. M. Tubman,  L. Vogt,  
 M. L. Vidal,  O. Vydrov,  M. A. Watson,  J. Wenzel,  M. de Wergifosse,  
 T. A. Wesolowski,  A. White,  J. Witte,  A. Yamada,  Jun Yang,  K. Yao,  
 S. Yeganeh,  S. R. Yost,  Zhi-Qiang You,  A. Zech,  Igor Ying Zhang,  
 Xing Zhang,  Yan Zhao,  Ying Zhu,  B. R. Brooks,  G. K. L. Chan,  
 C. J. Cramer,  M. S. Gordon,  W. J. Hehre,  A. Klamt,  M. W. Schmidt,  
 C. D. Sherrill,  D. G. Truhlar,  A. Aspuru-Guzik,  R. Baer,  A. T. Bell,  
 N. A. Besley,  Jeng-Da Chai,  A. E. DePrince, III,  R. A. DiStasio Jr.,  
 A. Dreuw,  B. D. Dunietz,  T. R. Furlani,  Chao-Ping Hsu,  Yousung Jung,  
 Jing Kong,  D. S. Lambrecht,  WanZhen Liang,  C. Ochsenfeld,  
 V. A. Rassolov,  L. V. Slipchenko,  J. E. Subotnik,  T. Van Voorhis,  
 J. M. Herbert,  A. I. Krylov,  P. M. W. Gill,  M. Head-Gordon

 Contributors to earlier versions of Q-Chem not listed above: 
 R. D. Adamson,  B. Austin,  J. Baker,  G. J. O. Beran,  K. Brandhorst,  
 S. T. Brown,  E. F. C. Byrd,  A. K. Chakraborty,  C.-L. Cheng,  
 Siu Hung Chien,  D. M. Chipman,  D. L. Crittenden,  H. Dachsel,  
 R. J. Doerksen,  A. D. Dutoi,  L. Fusti-Molnar,  W. A. Goddard III,  
 A. Golubeva-Zadorozhnaya,  S. R. Gwaltney,  G. Hawkins,  A. Heyden,  
 S. Hirata,  G. Kedziora,  F. J. Keil,  C. Kelley,  Jihan Kim,  R. A. King,  
 R. Z. Khaliullin,  P. P. Korambath,  W. Kurlancheek,  A. M. Lee,  M. S. Lee,  
 S. V. Levchenko,  Ching Yeh Lin,  D. Liotard,  R. C. Lochan,  I. Lotan,  
 P. E. Maslen,  N. Nair,  D. P. O'Neill,  D. Neuhauser,  E. Neuscamman,  
 C. M. Oana,  R. Olson,  B. Peters,  R. Peverati,  P. A. Pieniazek,  
 Y. M. Rhee,  J. Ritchie,  M. A. Rohrdanz,  E. Rosta,  N. J. Russ,  
 H. F. Schaefer III,  N. E. Schultz,  N. Shenvi,  A. C. Simmonett,  A. Sodt,  
 D. Stuck,  K. S. Thanthiriwatte,  V. Vanovschi,  Tao Wang,  A. Warshel,  
 C. F. Williams,  Q. Wu,  X. Xu,  W. Zhang

 Please cite Q-Chem as follows:
 Y. Shao et al., Mol. Phys. 113, 184-215 (2015)
 DOI: 10.1080/00268976.2014.952696

 Q-Chem 5.3.0 for Intel X86 EM64T Linux

 Parts of Q-Chem use Armadillo 9.800.1 (Horizon Scraper).
 http://arma.sourceforge.net/

 Q-Chem begins on Tue Jul  7 00:30:01 2020  

Host: centos77-c4
0

     Scratch files written to /tmp/26963.centos77-h1/qchem87164//
Processing $rem in /opt/qchem-5.3.0-intel2020u1//config/preferences:
Processing $rem in /home/shihchengli/.qchemrc:

Checking the input file for inconsistencies... 	...done.

--------------------------------------------------------------
User input:
--------------------------------------------------------------
$rem
   JOBTYPE  sp
   EXCHANGE   omegaB97X-D
   BASIS   6-311+G(2df,2pd)
   UNRESTRICTED   False
   max_scf_cycles   250
   geom_opt_max_cycles   1500
   basis2 6-31G*
   scf_algorithm rca_diis
   SYM_IGNORE  TRUE
   print_input   true
   geom_opt_dmax   80
   pop_mulliken false
   XC_GRID 000075000302
$end

$molecule
0 1
C       1.2486985409     -0.2157286565     0.2632680905
C       0.0000003699     0.0000046590     -0.5834501651
H       1.7706074680     -1.1181182045     -0.0571391955
H       1.0009837495     -0.3367522414     1.3210903798
H       1.9440610818     0.6195213354     0.1741014363
C       -1.2486983432     0.2157251701     0.2632706398
H       -0.1081954647     -0.8672866891     -1.2390839445
H       0.1081963053     0.8673063801     -1.2390705503
H       -1.0009827909     0.3367686399     1.3210901268
H       -1.9440449454     -0.6195393440     0.1741154993
H       -1.7706260317     1.1180996171     -0.0571472982
$end
--------------------------------------------------------------
 ----------------------------------------------------------------
             Standard Nuclear Orientation (Angstroms)
    I     Atom           X                Y                Z
 ----------------------------------------------------------------
    1      C       1.2486985409    -0.2157286565     0.2632680905
    2      C       0.0000003699     0.0000046590    -0.5834501651
    3      H       1.7706074680    -1.1181182045    -0.0571391955
    4      H       1.0009837495    -0.3367522414     1.3210903798
    5      H       1.9440610818     0.6195213354     0.1741014363
    6      C      -1.2486983432     0.2157251701     0.2632706398
    7      H      -0.1081954647    -0.8672866891    -1.2390839445
    8      H       0.1081963053     0.8673063801    -1.2390705503
    9      H      -1.0009827909     0.3367686399     1.3210901268
   10      H      -1.9440449454    -0.6195393440     0.1741154993
   11      H      -1.7706260317     1.1180996171    -0.0571472982
 ----------------------------------------------------------------
 Nuclear Repulsion Energy =          82.76947546 hartrees
 There are       13 alpha and       13 beta electrons
 Requested basis set is 6-311+G(2df,2pd)
 There are 72 shells and 214 basis functions

 Total QAlloc Memory Limit   2000 MB
 Mega-Array Size       188 MB
 MEM_STATIC part       192 MB

                       Distance Matrix (Angstroms)
             C (  1)   C (  2)   H (  3)   H (  4)   H (  5)   C (  6)
   C (  2)  1.524047
   H (  3)  1.090576  2.159225
   H (  4)  1.093159  2.177762  1.761355
   H (  5)  1.090469  2.176478  1.761519  1.766193
   C (  6)  2.534392  1.524047  3.316325  2.546622  3.219428
   H (  7)  2.126676  1.092592  2.233788  2.840112  2.901629  2.175024
   H (  8)  2.175025  1.092592  2.846486  2.966690  2.329990  2.126676
   H (  9)  2.546627  2.177763  3.420223  2.112226  3.173140  1.093159
   H ( 10)  3.219413  2.176477  3.755090  3.173124  4.080765  1.090469
   H ( 11)  3.316336  2.159224  4.188198  3.420227  3.755124  1.090576
             H (  7)   H (  8)   H (  9)   H ( 10)
   H (  8)  1.748038
   H (  9)  2.966700  2.840101
   H ( 10)  2.329990  2.901637  1.766194
   H ( 11)  2.846473  2.233789  1.761354  1.761518
 
 A cutoff of  1.0D-09 yielded   2531 shell pairs
 There are     22563 function pairs (     27775 Cartesian)
 Smallest overlap matrix eigenvalue = 8.21E-05

 Scale SEOQF with 1.000000e-01/1.000000e-01/1.000000e-01

 Standard Electronic Orientation quadrupole field applied
 Nucleus-field energy     =     0.0000000006 hartrees
 Requested basis set is 6-31G(d)
 There are 28 shells and 58 basis functions
 A cutoff of  1.0D-09 yielded    399 shell pairs
 There are      1770 function pairs (      1965 Cartesian)
 Smallest overlap matrix eigenvalue = 6.28E-03
 Guess from superposition of atomic densities
 Warning:  Energy on first SCF cycle will be non-variational
 SAD guess density has 26.000000 electrons
 Long-range K will be added via erf
 Coulomb attenuation parameter = 0.2 bohr**(-1)
 A restricted hybrid HF-DFT SCF calculation will be
 performed using Relaxed Constraint Minimization + Pulay DIIS
 Exchange:     0.2220 Hartree-Fock + 1.0000 wB97X-D + LR-HF
 Correlation:  1.0000 wB97X-D
 Using Euler-Maclaurin-Lebedev (75,302) quadrature formula
 Dispersion:   Grimme D
 SCF converges when DIIS error is below 1.0E-04
 using 3 threads for integral computing
 -------------------------------------------------------
 OpenMP Integral computing Module                
 Release: version 1.0, May 2013, Q-Chem Inc. Pittsburgh 
 -------------------------------------------------------
 using 3 threads for integral computing
 -------------------------------------------------------
 OpenMP Integral computing Module                
 Release: version 1.0, May 2013, Q-Chem Inc. Pittsburgh 
 -------------------------------------------------------
 ---------------------------------------
  Cycle       Energy         DIIS Error
 ---------------------------------------
    1    -119.6298227154      1.00E-01
    2    -119.0545028208      9.10E-03
    3    -119.0758718907      2.44E-03
    4    -119.0900507494      1.68E-03
    5    -119.0907379255      2.61E-04 Done RCA. Switching to DIIS
    6    -119.0912442157      1.94E-04
    7    -119.0912605017      4.21E-06 Convergence criterion met
 ---------------------------------------
 SCF time:  CPU 19.40 s  wall 7.13 s
 SCF   energy in the small basis set = -119.09126050
 Total energy in the small basis set = -119.09126050
 ----------------------------------------------------
  Cycle       Energy    
 ----------------------------------------------------
    1     -16.5473751930     -1.65E+01
 Long-range K will be added via erf
 Coulomb attenuation parameter = 0.2 bohr**(-1)
 A restricted hybrid HF-DFT SCF calculation will be
 performed using Relaxed Constraint Minimization + Pulay DIIS
 Exchange:     0.2220 Hartree-Fock + 1.0000 wB97X-D + LR-HF
 Correlation:  1.0000 wB97X-D
 Using Euler-Maclaurin-Lebedev (75,302) quadrature formula
 Dispersion:   Grimme D
 SCF converges when DIIS error is below 1.0E-05
 Basis2 calculation detected. Using small basis as guess for larger.
 SCFMinFind is unable to tell whether the solution found is close.
 Resetting ReadMinima to 0 and attempting to follow guess.
 SCFMinFind following SCF Guess.
 using 3 threads for integral computing
 -------------------------------------------------------
 OpenMP Integral computing Module                
 Release: version 1.0, May 2013, Q-Chem Inc. Pittsburgh 
 -------------------------------------------------------
 using 3 threads for integral computing
 -------------------------------------------------------
 OpenMP Integral computing Module                
 Release: version 1.0, May 2013, Q-Chem Inc. Pittsburgh 
 -------------------------------------------------------
 ---------------------------------------
  Cycle       Energy         DIIS Error
 ---------------------------------------
    1    -119.1108285061      4.21E-03
    2    -119.1328101420      6.03E-04 Done RCA. Switching to DIIS
    3    -119.1336408288      4.26E-04
    4    -119.1346356982      4.53E-05
    5    -119.1346504718      1.01E-05
    6    -119.1346511646      3.94E-06 Convergence criterion met
 ---------------------------------------
 SCF time:  CPU 51.91 s  wall 17.64 s
 SCF   energy in the final basis set = -119.13465116
 Total energy in the final basis set = -119.13465116
 
 --------------------------------------------------------------
 
                    Orbital Energies (a.u.)
 --------------------------------------------------------------
 
 Alpha MOs
 -- Occupied --
-10.2714 -10.2632 -10.2632  -0.8809  -0.7763  -0.6775  -0.5445  -0.5271
 -0.4763  -0.4706  -0.4222  -0.4114  -0.3979
 -- Virtual --
  0.0722   0.0879   0.0917   0.1042   0.1214   0.1305   0.1313   0.1315
  0.1450   0.1625   0.1755   0.1885   0.1991   0.2423   0.2690   0.2715
  0.2902   0.3104   0.3213   0.3265   0.3362   0.3654   0.4577   0.4811
  0.4963   0.5029   0.5155   0.5175   0.5259   0.5270   0.5437   0.5747
  0.6190   0.6255   0.6359   0.6386   0.6438   0.6529   0.6870   0.7114
  0.7423   0.7466   0.8493   0.9081   0.9172   0.9379   0.9759   0.9998
  1.0021   1.0142   1.0324   1.0660   1.1444   1.1601   1.2147   1.2236
  1.2299   1.2407   1.2536   1.2794   1.3115   1.3213   1.3552   1.3654
  1.3718   1.3801   1.3905   1.4447   1.4526   1.4733   1.4851   1.5111
  1.5447   1.5490   1.5758   1.5897   1.6431   1.6432   1.6632   1.6853
  1.6883   2.2427   2.3401   2.4151   2.5065   2.5628   2.6065   2.6782
  2.7096   2.7228   2.7921   2.8047   2.8254   2.8496   2.9312   2.9356
  2.9786   2.9830   2.9876   3.0215   3.0429   3.0633   3.1147   3.1466
  3.1504   3.1652   3.1750   3.1831   3.1964   3.2434   3.2482   3.2716
  3.3017   3.3019   3.3467   3.3542   3.3645   3.3758   3.3947   3.4053
  3.4669   3.5183   3.5304   3.5383   3.5723   3.5804   3.6127   3.6314
  3.6638   3.6672   3.6989   3.7017   3.7457   3.7514   3.7682   3.8416
  3.8587   3.9070   3.9215   3.9467   3.9570   4.0157   4.0367   4.0916
  4.1014   4.1171   4.1258   4.1534   4.1581   4.1913   4.2160   4.2345
  4.2369   4.2566   4.3024   4.3255   4.3584   4.4108   4.4483   4.4537
  4.4678   4.5104   4.5929   4.6466   4.6955   4.7687   4.8308   4.8490
  4.9189   4.9462   4.9892   4.9899   5.0268   5.0674   5.0954   5.1373
  5.1508   5.1641   5.2021   5.2487   5.2735   5.2867   5.3214   5.3783
  5.3783   5.3978   5.4221   5.4577   5.5259   5.5965   5.5975   5.7461
  5.9906   6.3214   6.3727   6.4061   6.4224   6.5131  25.0646  25.4294
 25.4622
 --------------------------------------------------------------
 
 -----------------------------------------------------------------
                    Cartesian Multipole Moments
 -----------------------------------------------------------------
    Charge (ESU x 10^10)
                -0.0000
    Dipole Moment (Debye)
         X      -0.0000      Y       0.0000      Z      -0.0957
       Tot       0.0957
    Quadrupole Moments (Debye-Ang)
        XX     -22.4252     XY       0.1476     YY     -21.2200
        XZ       0.0000     YZ       0.0000     ZZ     -21.8048
    Octopole Moments (Debye-Ang^2)
       XXX       0.0000    XXY       0.0000    XYY      -0.0000
       YYY      -0.0000    XXZ      -1.0554    XYZ       0.2626
       YYZ      -1.4346    XZZ      -0.0000    YZZ       0.0000
       ZZZ       0.7425
    Hexadecapole Moments (Debye-Ang^3)
      XXXX    -202.5029   XXXY      15.4279   XXYY     -38.4136
      XYYY      12.7972   YYYY     -48.1833   XXXZ       0.0001
      XXYZ      -0.0000   XYYZ       0.0000   YYYZ       0.0001
      XXZZ     -46.7395   XYZZ       4.3345   YYZZ     -19.6448
      XZZZ       0.0001   YZZZ       0.0001   ZZZZ     -69.3630
 -----------------------------------------------------------------
Archival summary:
1\1\centos77-c4\SP\ProcedureUnspecified\BasisUnspecified\38\shihchen\TueJul700:30:292020TueJul700:30:292020\0\\#,ProcedureUnspecified,BasisUnspecified,\\0,1\C\H,1,1.09259\H,1,1.09259,2,106.251\C,1,1.52405,2,107.587,3,-119.393,0\H,4,1.09047,1,111.63,2,125.193,0\H,4,1.09058,1,110.243,2,5.49227,0\H,4,1.09316,1,111.569,2,-113.908,0\C,1,1.52405,2,111.383,3,116.881,0\H,8,1.09047,1,111.63,2,9.13092,0\H,8,1.09058,1,110.243,2,-110.57,0\H,8,1.09316,1,111.569,2,130.03,0\\\@

 Total job time:  27.68s(wall), 74.89s(cpu) 
 Tue Jul  7 00:30:29 2020

        *************************************************************
        *                                                           *
        *  Thank you very much for using Q-Chem.  Have a nice day.  *
        *                                                           *
        *************************************************************


