                  Welcome to Q-Chem
     A Quantum Leap Into The Future Of Chemistry


 Q-Chem 5.3 (devel), Q-Chem, Inc., Pleasanton, CA (2020)

 Yihan Shao,  Zhengting Gan,  E. Epifanovsky,  A. T. B. Gilbert,  M. Wormit,  
 J. Kussmann,  A. W. Lange,  A. Behn,  Jia Deng,  Xintian Feng,  D. Ghosh,  
 M. Goldey,  P. R. Horn,  L. D. Jacobson,  I. Kaliman,  T. Kus,  A. Landau,  
 Jie Liu,  E. I. Proynov,  R. M. Richard,  R. P. Steele,  E. J. Sundstrom,  
 H. L. Woodcock III,  P. M. Zimmerman,  D. Zuev,  B. Alam,  B. Albrecht,  
 E. Alguire,  S. A. Baeppler,  D. Barton,  Z. Benda,  Y. A. Bernard,  
 E. J. Berquist,  K. B. Bravaya,  H. Burton,  K. Carter-Fenk,  D. Casanova,  
 Chun-Min Chang,  Yunqing Chen,  A. Chien,  K. D. Closser,  M. P. Coons,  
 S. Coriani,  S. Dasgupta,  A. L. Dempwolff,  M. Diedenhofen,  Hainam Do,  
 R. G. Edgar,  Po-Tung Fang,  S. Faraji,  S. Fatehi,  Qingguo Feng,  
 J. Fosso-Tande,  J. Gayvert,  Qinghui Ge,  A. Ghysels,  G. Gidofalvi,  
 J. Gomes,  J. Gonthier,  A. Gunina,  D. Hait,  M. W. D. Hanson-Heine,  
 P. H. P. Harbach,  A. W. Hauser,  M. F. Herbst,  J. E. Herr,  
 E. G. Hohenstein,  Z. C. Holden,  Kerwin Hui,  B. C. Huynh,  T.-C. Jagau,  
 Hyunjun Ji,  B. Kaduk,  K. Khistyaev,  Jaehoon Kim,  P. Klunzinger,  K. Koh,  
 D. Kosenkov,  L. Koulias,  T. Kowalczyk,  C. M. Krauter,  A. Kunitsa,  
 Ka Un Lao,  A. Laurent,  K. V. Lawler,  Joonho Lee,  D. Lefrancois,  
 S. Lehtola,  D. S. Levine,  Yi-Pei Li,  You-Sheng Lin,  Fenglai Liu,  
 Kuan-Yu Liu,  E. Livshits,  M. Loipersberger,  A. Luenser,  P. Manohar,  
 E. Mansoor,  S. F. Manzer,  Shan-Ping Mao,  Yuezhi Mao,  N. Mardirossian,  
 A. V. Marenich,  T. Markovich,  L. A. Martinez-Martinez,  S. A. Maurer,  
 N. J. Mayhall,  S. C. McKenzie,  J.-M. Mewes,  P. Morgante,  A. F. Morrison,  
 J. W. Mullinax,  K. Nanda,  T. S. Nguyen-Beck,  R. Olivares-Amaya,  
 K. J. Oosterbaan,  J. A. Parkhill,  S. K. Paul,  F. Pavosevic,  Zheng Pei,  
 T. M. Perrine,  F. Plasser,  P. Pokhilko,  S. Prager,  A. Prociuk,  
 E. Ramos,  B. Rana,  D. R. Rehn,  F. Rob,  M. Scheurer,  M. Schneider,  
 N. Sergueev,  S. M. Sharada,  S. Sharma,  D. W. Small,  T. Stauch,  
 C. J. Stein,  T. Stein,  Yu-Chuan Su,  S. P. Veccham,  Zhen Tao,  
 A. J. W. Thom,  A. Tkatchenko,  T. Tsuchimochi,  N. M. Tubman,  L. Vogt,  
 M. L. Vidal,  O. Vydrov,  M. A. Watson,  J. Wenzel,  M. de Wergifosse,  
 T. A. Wesolowski,  A. White,  J. Witte,  A. Yamada,  Jun Yang,  K. Yao,  
 S. Yeganeh,  S. R. Yost,  Zhi-Qiang You,  A. Zech,  Igor Ying Zhang,  
 Xing Zhang,  Yan Zhao,  Ying Zhu,  B. R. Brooks,  G. K. L. Chan,  
 C. J. Cramer,  M. S. Gordon,  W. J. Hehre,  A. Klamt,  M. W. Schmidt,  
 C. D. Sherrill,  D. G. Truhlar,  A. Aspuru-Guzik,  R. Baer,  A. T. Bell,  
 N. A. Besley,  Jeng-Da Chai,  A. E. DePrince, III,  R. A. DiStasio Jr.,  
 A. Dreuw,  B. D. Dunietz,  T. R. Furlani,  Chao-Ping Hsu,  Yousung Jung,  
 Jing Kong,  D. S. Lambrecht,  WanZhen Liang,  C. Ochsenfeld,  
 V. A. Rassolov,  L. V. Slipchenko,  J. E. Subotnik,  T. Van Voorhis,  
 J. M. Herbert,  A. I. Krylov,  P. M. W. Gill,  M. Head-Gordon

 Contributors to earlier versions of Q-Chem not listed above: 
 R. D. Adamson,  B. Austin,  J. Baker,  G. J. O. Beran,  K. Brandhorst,  
 S. T. Brown,  E. F. C. Byrd,  A. K. Chakraborty,  C.-L. Cheng,  
 Siu Hung Chien,  D. M. Chipman,  D. L. Crittenden,  H. Dachsel,  
 R. J. Doerksen,  A. D. Dutoi,  L. Fusti-Molnar,  W. A. Goddard III,  
 A. Golubeva-Zadorozhnaya,  S. R. Gwaltney,  G. Hawkins,  A. Heyden,  
 S. Hirata,  G. Kedziora,  F. J. Keil,  C. Kelley,  Jihan Kim,  R. A. King,  
 R. Z. Khaliullin,  P. P. Korambath,  W. Kurlancheek,  A. M. Lee,  M. S. Lee,  
 S. V. Levchenko,  Ching Yeh Lin,  D. Liotard,  R. C. Lochan,  I. Lotan,  
 P. E. Maslen,  N. Nair,  D. P. O'Neill,  D. Neuhauser,  E. Neuscamman,  
 C. M. Oana,  R. Olson,  B. Peters,  R. Peverati,  P. A. Pieniazek,  
 Y. M. Rhee,  J. Ritchie,  M. A. Rohrdanz,  E. Rosta,  N. J. Russ,  
 H. F. Schaefer III,  N. E. Schultz,  N. Shenvi,  A. C. Simmonett,  A. Sodt,  
 D. Stuck,  K. S. Thanthiriwatte,  V. Vanovschi,  Tao Wang,  A. Warshel,  
 C. F. Williams,  Q. Wu,  X. Xu,  W. Zhang

 Please cite Q-Chem as follows:
 Y. Shao et al., Mol. Phys. 113, 184-215 (2015)
 DOI: 10.1080/00268976.2014.952696

 Q-Chem 5.3.0 for Intel X86 EM64T Linux

 Parts of Q-Chem use Armadillo 9.800.1 (Horizon Scraper).
 http://arma.sourceforge.net/

 Q-Chem begins on Tue Jul  7 00:40:13 2020  

Host: centos77-c4
0

     Scratch files written to /tmp/26963.centos77-h1/qchem90422//
Processing $rem in /opt/qchem-5.3.0-intel2020u1//config/preferences:
Processing $rem in /home/shihchengli/.qchemrc:

Checking the input file for inconsistencies... 	...done.

--------------------------------------------------------------
User input:
--------------------------------------------------------------
$rem
   JOBTYPE  sp
   EXCHANGE   omegaB97X-D
   BASIS   6-311+G(2df,2pd)
   UNRESTRICTED   False
   max_scf_cycles   250
   geom_opt_max_cycles   1500
   basis2 6-31G*
   scf_algorithm rca_diis
   SYM_IGNORE  TRUE
   print_input   true
   geom_opt_dmax   80
   pop_mulliken false
   XC_GRID 000075000302
$end

$molecule
0 1
C       1.1100763717     0.0000006780     0.2595073399
C       0.0000000882     -0.0000023728     -0.7622513966
H       0.9696828945     -0.8739024472     0.9001479761
H       0.9696778633     0.8739039786     0.9001466452
H       2.1364014542     0.0000040285     -0.1029814628
C       -1.1100760899     -0.0000002577     0.2595075041
H       -0.0000004758     -0.8815297144     -1.4051718993
H       0.0000001831     0.8815241443     -1.4051730171
H       -0.9696847324     -0.8739056549     0.9001454835
H       -2.1364011735     0.0000074159     -0.1029817208
H       -0.9696764442     0.8739008677     0.9001495667
$end
--------------------------------------------------------------
 ----------------------------------------------------------------
             Standard Nuclear Orientation (Angstroms)
    I     Atom           X                Y                Z
 ----------------------------------------------------------------
    1      C       1.1100763717     0.0000006780     0.2595073399
    2      C       0.0000000882    -0.0000023728    -0.7622513966
    3      H       0.9696828945    -0.8739024472     0.9001479761
    4      H       0.9696778633     0.8739039786     0.9001466452
    5      H       2.1364014542     0.0000040285    -0.1029814628
    6      C      -1.1100760899    -0.0000002577     0.2595075041
    7      H      -0.0000004758    -0.8815297144    -1.4051718993
    8      H       0.0000001831     0.8815241443    -1.4051730171
    9      H      -0.9696847324    -0.8739056549     0.9001454835
   10      H      -2.1364011735     0.0000074159    -0.1029817208
   11      H      -0.9696764442     0.8739008677     0.9001495667
 ----------------------------------------------------------------
 Nuclear Repulsion Energy =          85.26549285 hartrees
 There are       13 alpha and       13 beta electrons
 Requested basis set is 6-311+G(2df,2pd)
 There are 72 shells and 214 basis functions

 Total QAlloc Memory Limit   2000 MB
 Mega-Array Size       188 MB
 MEM_STATIC part       192 MB

                       Distance Matrix (Angstroms)
             C (  1)   C (  2)   H (  3)   H (  4)   H (  5)   C (  6)
   C (  2)  1.508728
   H (  3)  1.092629  2.113660
   H (  4)  1.092629  2.113659  1.747806
   H (  5)  1.088458  2.235810  1.769523  1.769523
   C (  6)  2.220152  1.508728  2.345106  2.345102  3.266652
   H (  7)  2.186441  1.091072  2.500969  3.055539  2.652737  2.186440
   H (  8)  2.186439  1.091072  3.055538  2.500966  2.652733  2.186439
   H (  9)  2.345109  2.113660  1.939368  2.610740  3.379017  1.092629
   H ( 10)  3.266652  2.235810  3.379016  3.379007  4.272803  1.088458
   H ( 11)  2.345100  2.113659  2.610734  1.939354  3.379007  1.092629
             H (  7)   H (  8)   H (  9)   H ( 10)
   H (  8)  1.763054
   H (  9)  2.500967  3.055539
   H ( 10)  2.652737  2.652732  1.769524
   H ( 11)  3.055538  2.500968  1.747807  1.769522
 
 A cutoff of  1.0D-09 yielded   2559 shell pairs
 There are     22833 function pairs (     28104 Cartesian)
 Smallest overlap matrix eigenvalue = 7.54E-05

 Scale SEOQF with 1.000000e-01/1.000000e-01/1.000000e-01

 Standard Electronic Orientation quadrupole field applied
 Requested basis set is 6-31G(d)
 There are 28 shells and 58 basis functions
 A cutoff of  1.0D-09 yielded    402 shell pairs
 There are      1773 function pairs (      1968 Cartesian)
 Smallest overlap matrix eigenvalue = 6.79E-03
 Guess from superposition of atomic densities
 Warning:  Energy on first SCF cycle will be non-variational
 SAD guess density has 26.000000 electrons
 Long-range K will be added via erf
 Coulomb attenuation parameter = 0.2 bohr**(-1)
 A restricted hybrid HF-DFT SCF calculation will be
 performed using Relaxed Constraint Minimization + Pulay DIIS
 Exchange:     0.2220 Hartree-Fock + 1.0000 wB97X-D + LR-HF
 Correlation:  1.0000 wB97X-D
 Using Euler-Maclaurin-Lebedev (75,302) quadrature formula
 Dispersion:   Grimme D
 SCF converges when DIIS error is below 1.0E-04
 using 3 threads for integral computing
 -------------------------------------------------------
 OpenMP Integral computing Module                
 Release: version 1.0, May 2013, Q-Chem Inc. Pittsburgh 
 -------------------------------------------------------
 using 3 threads for integral computing
 -------------------------------------------------------
 OpenMP Integral computing Module                
 Release: version 1.0, May 2013, Q-Chem Inc. Pittsburgh 
 -------------------------------------------------------
 ---------------------------------------
  Cycle       Energy         DIIS Error
 ---------------------------------------
    1    -119.7486847429      1.04E-01
    2    -119.0442184504      9.26E-03
    3    -119.0658322721      2.40E-03
    4    -119.0810796210      1.65E-03
    5    -119.0817207937      2.28E-04 Done RCA. Switching to DIIS
    6    -119.0822181000      1.68E-04
    7    -119.0822302538      5.44E-06 Convergence criterion met
 ---------------------------------------
 SCF time:  CPU 21.42 s  wall 8.07 s
 SCF   energy in the small basis set = -119.08223025
 Total energy in the small basis set = -119.08223025
 ----------------------------------------------------
  Cycle       Energy    
 ----------------------------------------------------
    1     -16.5710688822     -1.66E+01
 Long-range K will be added via erf
 Coulomb attenuation parameter = 0.2 bohr**(-1)
 A restricted hybrid HF-DFT SCF calculation will be
 performed using Relaxed Constraint Minimization + Pulay DIIS
 Exchange:     0.2220 Hartree-Fock + 1.0000 wB97X-D + LR-HF
 Correlation:  1.0000 wB97X-D
 Using Euler-Maclaurin-Lebedev (75,302) quadrature formula
 Dispersion:   Grimme D
 SCF converges when DIIS error is below 1.0E-05
 Basis2 calculation detected. Using small basis as guess for larger.
 SCFMinFind is unable to tell whether the solution found is close.
 Resetting ReadMinima to 0 and attempting to follow guess.
 SCFMinFind following SCF Guess.
 using 3 threads for integral computing
 -------------------------------------------------------
 OpenMP Integral computing Module                
 Release: version 1.0, May 2013, Q-Chem Inc. Pittsburgh 
 -------------------------------------------------------
 using 3 threads for integral computing
 -------------------------------------------------------
 OpenMP Integral computing Module                
 Release: version 1.0, May 2013, Q-Chem Inc. Pittsburgh 
 -------------------------------------------------------
 ---------------------------------------
  Cycle       Energy         DIIS Error
 ---------------------------------------
    1    -119.1023881704      4.21E-03
    2    -119.1242299978      6.10E-04 Done RCA. Switching to DIIS
    3    -119.1250010240      4.49E-04
    4    -119.1260952120      4.62E-05
    5    -119.1261103720      7.27E-06 Convergence criterion met
 ---------------------------------------
 SCF time:  CPU 46.80 s  wall 15.76 s
 SCF   energy in the final basis set = -119.12611037
 Total energy in the final basis set = -119.12611037
 
 --------------------------------------------------------------
 
                    Orbital Energies (a.u.)
 --------------------------------------------------------------
 
 Alpha MOs
 -- Occupied --
-10.2734 -10.2629 -10.2628  -0.9015  -0.7595  -0.6884  -0.5596  -0.5397
 -0.4618  -0.4434  -0.4403  -0.4197  -0.4012
 -- Virtual --
  0.0722   0.0836   0.0867   0.0984   0.1257   0.1335   0.1352   0.1365
  0.1367   0.1686   0.1714   0.1967   0.2100   0.2503   0.2668   0.2702
  0.2811   0.2905   0.3181   0.3228   0.3370   0.3571   0.4644   0.4654
  0.4807   0.4907   0.4955   0.5149   0.5334   0.5651   0.5999   0.6081
  0.6288   0.6323   0.6341   0.6598   0.6611   0.6720   0.7054   0.7259
  0.7404   0.7854   0.8253   0.8377   0.9096   0.9102   0.9174   0.9249
  1.0046   1.0488   1.0808   1.1111   1.1778   1.1899   1.2176   1.2378
  1.2490   1.2529   1.2623   1.2884   1.3013   1.3192   1.3659   1.3948
  1.4148   1.4184   1.4247   1.4291   1.4327   1.4529   1.4843   1.5145
  1.5154   1.5714   1.5783   1.6079   1.6517   1.6841   1.7329   1.7687
  1.7843   2.4288   2.4322   2.5074   2.5232   2.5389   2.5477   2.6431
  2.6670   2.7406   2.7956   2.8244   2.8682   2.9037   2.9119   2.9204
  2.9552   2.9576   2.9661   3.0027   3.0374   3.0593   3.0912   3.1221
  3.1468   3.1588   3.1614   3.2306   3.2416   3.2722   3.3080   3.3106
  3.3392   3.3426   3.3611   3.3960   3.3972   3.4027   3.4215   3.4460
  3.4956   3.5136   3.5382   3.5532   3.5695   3.5916   3.6098   3.6187
  3.6285   3.6445   3.7063   3.7697   3.8085   3.8174   3.8633   3.8739
  3.9591   3.9712   3.9826   3.9847   4.0198   4.0514   4.0517   4.0953
  4.1035   4.1558   4.1576   4.1806   4.1949   4.2008   4.2153   4.2305
  4.2728   4.3383   4.3557   4.3950   4.3998   4.4570   4.4648   4.4673
  4.4831   4.5815   4.6101   4.6665   4.6731   4.8349   4.8520   4.9200
  4.9464   4.9471   4.9600   5.0372   5.0564   5.0798   5.0910   5.1303
  5.1561   5.2894   5.3041   5.3129   5.3195   5.3618   5.3742   5.3934
  5.4211   5.4382   5.4857   5.4978   5.6002   5.6912   5.7352   5.7441
  5.9874   6.4054   6.4147   6.4464   6.4669   6.5322  25.1818  25.4357
 25.5123
 --------------------------------------------------------------
 
 -----------------------------------------------------------------
                    Cartesian Multipole Moments
 -----------------------------------------------------------------
    Charge (ESU x 10^10)
                -0.0000
    Dipole Moment (Debye)
         X      -0.0000      Y       0.0000      Z      -0.0281
       Tot       0.0281
    Quadrupole Moments (Debye-Ang)
        XX     -22.6988     XY      -0.0000     YY     -21.2490
        XZ      -0.0000     YZ       0.0000     ZZ     -21.7292
    Octopole Moments (Debye-Ang^2)
       XXX      -0.0000    XXY       0.0000    XYY      -0.0000
       YYY       0.0000    XXZ      -0.3284    XYZ       0.0000
       YYZ       0.9521    XZZ      -0.0000    YZZ       0.0000
       ZZZ       1.3879
    Hexadecapole Moments (Debye-Ang^3)
      XXXX    -161.3729   XXXY      -0.0000   XXYY     -36.6030
      XYYY      -0.0000   YYYY     -43.5163   XXXZ       0.0000
      XXYZ      -0.0000   XYYZ       0.0000   YYYZ      -0.0000
      XXZZ     -42.2011   XYZZ      -0.0000   YYZZ     -18.2775
      XZZZ       0.0000   YZZZ      -0.0000   ZZZZ     -80.8897
 -----------------------------------------------------------------
Archival summary:
1\1\centos77-c4\SP\ProcedureUnspecified\BasisUnspecified\38\shihchen\TueJul700:40:402020TueJul700:40:402020\0\\#,ProcedureUnspecified,BasisUnspecified,\\0,1\C\H,1,1.09107\H,1,1.09107,2,107.791\C,1,1.50873,2,113.52,3,126.637,0\H,4,1.08846,1,117.92,2,-61.7811,0\H,4,1.09263,1,107.61,2,175.268,0\H,4,1.09263,1,107.61,2,61.1692,0\C,1,1.50873,2,113.52,3,-126.637,0\H,8,1.08846,1,117.919,2,61.7808,0\H,8,1.09263,1,107.61,2,-175.269,0\H,8,1.09263,1,107.61,2,-61.1694,0\\\@

 Total job time:  26.86s(wall), 72.01s(cpu) 
 Tue Jul  7 00:40:40 2020

        *************************************************************
        *                                                           *
        *  Thank you very much for using Q-Chem.  Have a nice day.  *
        *                                                           *
        *************************************************************


