                  Welcome to Q-Chem
     A Quantum Leap Into The Future Of Chemistry


 Q-Chem 5.3 (devel), Q-Chem, Inc., Pleasanton, CA (2020)

 Yihan Shao,  Zhengting Gan,  E. Epifanovsky,  A. T. B. Gilbert,  M. Wormit,  
 J. Kussmann,  A. W. Lange,  A. Behn,  Jia Deng,  Xintian Feng,  D. Ghosh,  
 M. Goldey,  P. R. Horn,  L. D. Jacobson,  I. Kaliman,  T. Kus,  A. Landau,  
 Jie Liu,  E. I. Proynov,  R. M. Richard,  R. P. Steele,  E. J. Sundstrom,  
 H. L. Woodcock III,  P. M. Zimmerman,  D. Zuev,  B. Alam,  B. Albrecht,  
 E. Alguire,  S. A. Baeppler,  D. Barton,  Z. Benda,  Y. A. Bernard,  
 E. J. Berquist,  K. B. Bravaya,  H. Burton,  K. Carter-Fenk,  D. Casanova,  
 Chun-Min Chang,  Yunqing Chen,  A. Chien,  K. D. Closser,  M. P. Coons,  
 S. Coriani,  S. Dasgupta,  A. L. Dempwolff,  M. Diedenhofen,  Hainam Do,  
 R. G. Edgar,  Po-Tung Fang,  S. Faraji,  S. Fatehi,  Qingguo Feng,  
 J. Fosso-Tande,  J. Gayvert,  Qinghui Ge,  A. Ghysels,  G. Gidofalvi,  
 J. Gomes,  J. Gonthier,  A. Gunina,  D. Hait,  M. W. D. Hanson-Heine,  
 P. H. P. Harbach,  A. W. Hauser,  M. F. Herbst,  J. E. Herr,  
 E. G. Hohenstein,  Z. C. Holden,  Kerwin Hui,  B. C. Huynh,  T.-C. Jagau,  
 Hyunjun Ji,  B. Kaduk,  K. Khistyaev,  Jaehoon Kim,  P. Klunzinger,  K. Koh,  
 D. Kosenkov,  L. Koulias,  T. Kowalczyk,  C. M. Krauter,  A. Kunitsa,  
 Ka Un Lao,  A. Laurent,  K. V. Lawler,  Joonho Lee,  D. Lefrancois,  
 S. Lehtola,  D. S. Levine,  Yi-Pei Li,  You-Sheng Lin,  Fenglai Liu,  
 Kuan-Yu Liu,  E. Livshits,  M. Loipersberger,  A. Luenser,  P. Manohar,  
 E. Mansoor,  S. F. Manzer,  Shan-Ping Mao,  Yuezhi Mao,  N. Mardirossian,  
 A. V. Marenich,  T. Markovich,  L. A. Martinez-Martinez,  S. A. Maurer,  
 N. J. Mayhall,  S. C. McKenzie,  J.-M. Mewes,  P. Morgante,  A. F. Morrison,  
 J. W. Mullinax,  K. Nanda,  T. S. Nguyen-Beck,  R. Olivares-Amaya,  
 K. J. Oosterbaan,  J. A. Parkhill,  S. K. Paul,  F. Pavosevic,  Zheng Pei,  
 T. M. Perrine,  F. Plasser,  P. Pokhilko,  S. Prager,  A. Prociuk,  
 E. Ramos,  B. Rana,  D. R. Rehn,  F. Rob,  M. Scheurer,  M. Schneider,  
 N. Sergueev,  S. M. Sharada,  S. Sharma,  D. W. Small,  T. Stauch,  
 C. J. Stein,  T. Stein,  Yu-Chuan Su,  S. P. Veccham,  Zhen Tao,  
 A. J. W. Thom,  A. Tkatchenko,  T. Tsuchimochi,  N. M. Tubman,  L. Vogt,  
 M. L. Vidal,  O. Vydrov,  M. A. Watson,  J. Wenzel,  M. de Wergifosse,  
 T. A. Wesolowski,  A. White,  J. Witte,  A. Yamada,  Jun Yang,  K. Yao,  
 S. Yeganeh,  S. R. Yost,  Zhi-Qiang You,  A. Zech,  Igor Ying Zhang,  
 Xing Zhang,  Yan Zhao,  Ying Zhu,  B. R. Brooks,  G. K. L. Chan,  
 C. J. Cramer,  M. S. Gordon,  W. J. Hehre,  A. Klamt,  M. W. Schmidt,  
 C. D. Sherrill,  D. G. Truhlar,  A. Aspuru-Guzik,  R. Baer,  A. T. Bell,  
 N. A. Besley,  Jeng-Da Chai,  A. E. DePrince, III,  R. A. DiStasio Jr.,  
 A. Dreuw,  B. D. Dunietz,  T. R. Furlani,  Chao-Ping Hsu,  Yousung Jung,  
 Jing Kong,  D. S. Lambrecht,  WanZhen Liang,  C. Ochsenfeld,  
 V. A. Rassolov,  L. V. Slipchenko,  J. E. Subotnik,  T. Van Voorhis,  
 J. M. Herbert,  A. I. Krylov,  P. M. W. Gill,  M. Head-Gordon

 Contributors to earlier versions of Q-Chem not listed above: 
 R. D. Adamson,  B. Austin,  J. Baker,  G. J. O. Beran,  K. Brandhorst,  
 S. T. Brown,  E. F. C. Byrd,  A. K. Chakraborty,  C.-L. Cheng,  
 Siu Hung Chien,  D. M. Chipman,  D. L. Crittenden,  H. Dachsel,  
 R. J. Doerksen,  A. D. Dutoi,  L. Fusti-Molnar,  W. A. Goddard III,  
 A. Golubeva-Zadorozhnaya,  S. R. Gwaltney,  G. Hawkins,  A. Heyden,  
 S. Hirata,  G. Kedziora,  F. J. Keil,  C. Kelley,  Jihan Kim,  R. A. King,  
 R. Z. Khaliullin,  P. P. Korambath,  W. Kurlancheek,  A. M. Lee,  M. S. Lee,  
 S. V. Levchenko,  Ching Yeh Lin,  D. Liotard,  R. C. Lochan,  I. Lotan,  
 P. E. Maslen,  N. Nair,  D. P. O'Neill,  D. Neuhauser,  E. Neuscamman,  
 C. M. Oana,  R. Olson,  B. Peters,  R. Peverati,  P. A. Pieniazek,  
 Y. M. Rhee,  J. Ritchie,  M. A. Rohrdanz,  E. Rosta,  N. J. Russ,  
 H. F. Schaefer III,  N. E. Schultz,  N. Shenvi,  A. C. Simmonett,  A. Sodt,  
 D. Stuck,  K. S. Thanthiriwatte,  V. Vanovschi,  Tao Wang,  A. Warshel,  
 C. F. Williams,  Q. Wu,  X. Xu,  W. Zhang

 Please cite Q-Chem as follows:
 Y. Shao et al., Mol. Phys. 113, 184-215 (2015)
 DOI: 10.1080/00268976.2014.952696

 Q-Chem 5.3.0 for Intel X86 EM64T Linux

 Parts of Q-Chem use Armadillo 9.800.1 (Horizon Scraper).
 http://arma.sourceforge.net/

 Q-Chem begins on Tue Jul  7 01:38:05 2020  

Host: centos77-c4
0

     Scratch files written to /tmp/26963.centos77-h1/qchem102247//
Processing $rem in /opt/qchem-5.3.0-intel2020u1//config/preferences:
Processing $rem in /home/shihchengli/.qchemrc:

Checking the input file for inconsistencies... 	...done.

--------------------------------------------------------------
User input:
--------------------------------------------------------------
$rem
   JOBTYPE  sp
   EXCHANGE   omegaB97X-D
   BASIS   6-311+G(2df,2pd)
   UNRESTRICTED   False
   max_scf_cycles   250
   geom_opt_max_cycles   1500
   basis2 6-31G*
   scf_algorithm rca_diis
   SYM_IGNORE  TRUE
   print_input   true
   geom_opt_dmax   80
   pop_mulliken false
   XC_GRID 000075000302
$end

$molecule
0 1
C       1.2444065129     -0.0000000505     0.2158318540
C       -0.0000003548     -0.0000000847     -0.6121841451
H       1.3940599689     -0.8334519537     0.9094022840
H       1.3940598837     0.8334518968     0.9094022398
H       2.2112556881     -0.0000000735     -0.2942773287
C       -1.2444074913     0.0000000039     0.2158322049
H       -0.0000001233     -0.8753968589     -1.2637442631
H       -0.0000005244     0.8753967947     -1.2637441011
H       -1.3940587435     -0.8334521662     0.9094026987
H       -2.2112554770     0.0000009827     -0.2942789525
H       -1.3940593998     0.8334521754     0.9094025278
$end
--------------------------------------------------------------
 ----------------------------------------------------------------
             Standard Nuclear Orientation (Angstroms)
    I     Atom           X                Y                Z
 ----------------------------------------------------------------
    1      C       1.2444065129    -0.0000000505     0.2158318540
    2      C      -0.0000003548    -0.0000000847    -0.6121841451
    3      H       1.3940599689    -0.8334519537     0.9094022840
    4      H       1.3940598837     0.8334518968     0.9094022398
    5      H       2.2112556881    -0.0000000735    -0.2942773287
    6      C      -1.2444074913     0.0000000039     0.2158322049
    7      H      -0.0000001233    -0.8753968589    -1.2637442631
    8      H      -0.0000005244     0.8753967947    -1.2637441011
    9      H      -1.3940587435    -0.8334521662     0.9094026987
   10      H      -2.2112554770     0.0000009827    -0.2942789525
   11      H      -1.3940593998     0.8334521754     0.9094025278
 ----------------------------------------------------------------
 Nuclear Repulsion Energy =          83.07160548 hartrees
 There are       13 alpha and       13 beta electrons
 Requested basis set is 6-311+G(2df,2pd)
 There are 72 shells and 214 basis functions

 Total QAlloc Memory Limit   2000 MB
 Mega-Array Size       188 MB
 MEM_STATIC part       192 MB

                       Distance Matrix (Angstroms)
             C (  1)   C (  2)   H (  3)   H (  4)   H (  5)   C (  6)
   C (  2)  1.494710
   H (  3)  1.094568  2.225595
   H (  4)  1.094568  2.225595  1.666904
   H (  5)  1.093165  2.233992  1.676692  1.676692
   C (  6)  2.488814  1.494711  2.852576  2.852576  3.493110
   H (  7)  2.122266  1.091261  2.582195  3.096148  2.568236  2.122267
   H (  8)  2.122266  1.091261  3.096148  2.582195  2.568237  2.122266
   H (  9)  2.852575  2.225594  2.788119  3.248411  3.891244  1.094568
   H ( 10)  3.493109  2.233990  3.891246  3.891245  4.422511  1.093164
   H ( 11)  2.852575  2.225594  3.248412  2.788119  3.891245  1.094567
             H (  7)   H (  8)   H (  9)   H ( 10)
   H (  8)  1.750794
   H (  9)  2.582194  3.096148
   H ( 10)  2.568236  2.568235  1.676694
   H ( 11)  3.096148  2.582194  1.666904  1.676693
 
 A cutoff of  1.0D-09 yielded   2524 shell pairs
 There are     22494 function pairs (     27663 Cartesian)
 Smallest overlap matrix eigenvalue = 8.29E-05

 Scale SEOQF with 1.000000e-01/1.000000e-01/1.000000e-01

 Standard Electronic Orientation quadrupole field applied
 Nucleus-field energy     =     0.0000000006 hartrees
 Requested basis set is 6-31G(d)
 There are 28 shells and 58 basis functions
 A cutoff of  1.0D-09 yielded    402 shell pairs
 There are      1773 function pairs (      1968 Cartesian)
 Smallest overlap matrix eigenvalue = 6.98E-03
 Guess from superposition of atomic densities
 Warning:  Energy on first SCF cycle will be non-variational
 SAD guess density has 26.000000 electrons
 Long-range K will be added via erf
 Coulomb attenuation parameter = 0.2 bohr**(-1)
 A restricted hybrid HF-DFT SCF calculation will be
 performed using Relaxed Constraint Minimization + Pulay DIIS
 Exchange:     0.2220 Hartree-Fock + 1.0000 wB97X-D + LR-HF
 Correlation:  1.0000 wB97X-D
 Using Euler-Maclaurin-Lebedev (75,302) quadrature formula
 Dispersion:   Grimme D
 SCF converges when DIIS error is below 1.0E-04
 using 3 threads for integral computing
 -------------------------------------------------------
 OpenMP Integral computing Module                
 Release: version 1.0, May 2013, Q-Chem Inc. Pittsburgh 
 -------------------------------------------------------
 using 3 threads for integral computing
 -------------------------------------------------------
 OpenMP Integral computing Module                
 Release: version 1.0, May 2013, Q-Chem Inc. Pittsburgh 
 -------------------------------------------------------
 ---------------------------------------
  Cycle       Energy         DIIS Error
 ---------------------------------------
    1    -119.6865957857      1.03E-01
    2    -119.0527801672      9.13E-03
    3    -119.0739004659      2.37E-03
    4    -119.0887809607      1.61E-03
    5    -119.0894051996      2.26E-04 Done RCA. Switching to DIIS
    6    -119.0898912307      1.66E-04
    7    -119.0899033537      4.53E-06 Convergence criterion met
 ---------------------------------------
 SCF time:  CPU 21.26 s  wall 7.99 s
 SCF   energy in the small basis set = -119.08990335
 Total energy in the small basis set = -119.08990335
 ----------------------------------------------------
  Cycle       Energy    
 ----------------------------------------------------
    1     -16.5513961862     -1.66E+01
 Long-range K will be added via erf
 Coulomb attenuation parameter = 0.2 bohr**(-1)
 A restricted hybrid HF-DFT SCF calculation will be
 performed using Relaxed Constraint Minimization + Pulay DIIS
 Exchange:     0.2220 Hartree-Fock + 1.0000 wB97X-D + LR-HF
 Correlation:  1.0000 wB97X-D
 Using Euler-Maclaurin-Lebedev (75,302) quadrature formula
 Dispersion:   Grimme D
 SCF converges when DIIS error is below 1.0E-05
 Basis2 calculation detected. Using small basis as guess for larger.
 SCFMinFind is unable to tell whether the solution found is close.
 Resetting ReadMinima to 0 and attempting to follow guess.
 SCFMinFind following SCF Guess.
 using 3 threads for integral computing
 -------------------------------------------------------
 OpenMP Integral computing Module                
 Release: version 1.0, May 2013, Q-Chem Inc. Pittsburgh 
 -------------------------------------------------------
 using 3 threads for integral computing
 -------------------------------------------------------
 OpenMP Integral computing Module                
 Release: version 1.0, May 2013, Q-Chem Inc. Pittsburgh 
 -------------------------------------------------------
 ---------------------------------------
  Cycle       Energy         DIIS Error
 ---------------------------------------
    1    -119.1100987506      4.21E-03
    2    -119.1321055730      5.82E-04 Done RCA. Switching to DIIS
    3    -119.1328752089      4.11E-04
    4    -119.1337932216      4.94E-05
    5    -119.1338100126      9.87E-06 Convergence criterion met
 ---------------------------------------
 SCF time:  CPU 43.15 s  wall 14.55 s
 SCF   energy in the final basis set = -119.13381001
 Total energy in the final basis set = -119.13381001
 
 --------------------------------------------------------------
 
                    Orbital Energies (a.u.)
 --------------------------------------------------------------
 
 Alpha MOs
 -- Occupied --
-10.2791 -10.2638 -10.2638  -0.8870  -0.7821  -0.6909  -0.5421  -0.5263
 -0.4921  -0.4495  -0.4236  -0.4202  -0.4010
 -- Virtual --
  0.0674   0.0829   0.0907   0.1013   0.1265   0.1280   0.1352   0.1421
  0.1472   0.1718   0.1720   0.1938   0.2358   0.2371   0.2376   0.2695
  0.2821   0.2862   0.3019   0.3168   0.3317   0.3710   0.4589   0.4643
  0.4796   0.5152   0.5158   0.5304   0.5650   0.5662   0.5743   0.5772
  0.6313   0.6332   0.6483   0.6523   0.6532   0.6545   0.7125   0.7255
  0.7314   0.7679   0.8235   0.8421   0.8527   0.8800   0.8959   0.9845
  1.0162   1.0389   1.0544   1.1260   1.1341   1.1908   1.2170   1.2203
  1.2417   1.2520   1.2539   1.2847   1.2886   1.3290   1.3346   1.3402
  1.3650   1.3992   1.4046   1.4545   1.4659   1.4739   1.4796   1.5026
  1.5364   1.5903   1.6139   1.6284   1.6556   1.6856   1.7068   1.7556
  1.7989   2.3710   2.4160   2.4607   2.4647   2.5312   2.5431   2.5802
  2.5831   2.7206   2.7997   2.8123   2.8198   2.8780   2.8836   2.9266
  2.9344   2.9349   2.9809   3.0387   3.0945   3.1044   3.1350   3.1451
  3.1451   3.1501   3.1893   3.2191   3.2382   3.2535   3.2575   3.3038
  3.3420   3.3540   3.3998   3.4008   3.4178   3.4212   3.4332   3.4352
  3.4749   3.4769   3.5027   3.5438   3.5525   3.5727   3.5778   3.5996
  3.6125   3.6246   3.6396   3.6422   3.7472   3.7492   3.8010   3.8524
  3.8847   3.9013   3.9117   3.9593   3.9814   4.0334   4.0728   4.0777
  4.0892   4.0975   4.1800   4.1902   4.1967   4.2187   4.2314   4.2600
  4.2711   4.3059   4.3459   4.3717   4.4049   4.4200   4.4223   4.4229
  4.5167   4.5712   4.5808   4.6091   4.6558   4.7340   4.7672   4.8208
  4.8423   4.9207   4.9709   4.9975   5.0023   5.0428   5.0614   5.0656
  5.1641   5.1750   5.2098   5.2608   5.2927   5.3018   5.3949   5.4888
  5.4925   5.5053   5.5347   5.5420   5.5638   5.6471   5.6707   5.7920
  5.9787   6.4167   6.4465   6.4477   6.4721   6.4744  25.2397  25.4423
 25.4573
 --------------------------------------------------------------
 
 -----------------------------------------------------------------
                    Cartesian Multipole Moments
 -----------------------------------------------------------------
    Charge (ESU x 10^10)
                 0.0000
    Dipole Moment (Debye)
         X       0.0000      Y       0.0000      Z      -0.0111
       Tot       0.0111
    Quadrupole Moments (Debye-Ang)
        XX     -21.3670     XY      -0.0000     YY     -21.7882
        XZ       0.0000     YZ      -0.0000     ZZ     -21.6953
    Octopole Moments (Debye-Ang^2)
       XXX       0.0000    XXY       0.0000    XYY       0.0000
       YYY       0.0000    XXZ       1.0374    XYZ       0.0000
       YYZ       0.4365    XZZ       0.0000    YZZ      -0.0000
       ZZZ       1.1442
    Hexadecapole Moments (Debye-Ang^3)
      XXXX    -198.5142   XXXY      -0.0000   XXYY     -42.7338
      XYYY       0.0000   YYYY     -43.9177   XXXZ       0.0000
      XXYZ      -0.0000   XYYZ      -0.0000   YYYZ      -0.0000
      XXZZ     -45.0674   XYZZ       0.0000   YYZZ     -16.9572
      XZZZ      -0.0000   YZZZ      -0.0000   ZZZZ     -71.2524
 -----------------------------------------------------------------
Archival summary:
1\1\centos77-c4\SP\ProcedureUnspecified\BasisUnspecified\38\shihchen\TueJul701:38:302020TueJul701:38:302020\0\\#,ProcedureUnspecified,BasisUnspecified,\\0,1\C\H,1,1.09126\H,1,1.09126,2,106.679\C,1,1.49471,2,109.315,3,118.092,0\H,4,1.09316,1,118.544,2,-58.2151,0\H,4,1.09457,1,117.7,2,62.4674,0\H,4,1.09457,1,117.7,2,-178.898,0\C,1,1.49471,2,109.315,3,-118.092,0\H,8,1.09316,1,118.544,2,58.215,0\H,8,1.09457,1,117.7,2,-62.4674,0\H,8,1.09457,1,117.7,2,178.898,0\\\@

 Total job time:  25.39s(wall), 67.94s(cpu) 
 Tue Jul  7 01:38:30 2020

        *************************************************************
        *                                                           *
        *  Thank you very much for using Q-Chem.  Have a nice day.  *
        *                                                           *
        *************************************************************


