                  Welcome to Q-Chem
     A Quantum Leap Into The Future Of Chemistry


 Q-Chem 5.3 (devel), Q-Chem, Inc., Pleasanton, CA (2020)

 Yihan Shao,  Zhengting Gan,  E. Epifanovsky,  A. T. B. Gilbert,  M. Wormit,  
 J. Kussmann,  A. W. Lange,  A. Behn,  Jia Deng,  Xintian Feng,  D. Ghosh,  
 M. Goldey,  P. R. Horn,  L. D. Jacobson,  I. Kaliman,  T. Kus,  A. Landau,  
 Jie Liu,  E. I. Proynov,  R. M. Richard,  R. P. Steele,  E. J. Sundstrom,  
 H. L. Woodcock III,  P. M. Zimmerman,  D. Zuev,  B. Alam,  B. Albrecht,  
 E. Alguire,  S. A. Baeppler,  D. Barton,  Z. Benda,  Y. A. Bernard,  
 E. J. Berquist,  K. B. Bravaya,  H. Burton,  K. Carter-Fenk,  D. Casanova,  
 Chun-Min Chang,  Yunqing Chen,  A. Chien,  K. D. Closser,  M. P. Coons,  
 S. Coriani,  S. Dasgupta,  A. L. Dempwolff,  M. Diedenhofen,  Hainam Do,  
 R. G. Edgar,  Po-Tung Fang,  S. Faraji,  S. Fatehi,  Qingguo Feng,  
 J. Fosso-Tande,  J. Gayvert,  Qinghui Ge,  A. Ghysels,  G. Gidofalvi,  
 J. Gomes,  J. Gonthier,  A. Gunina,  D. Hait,  M. W. D. Hanson-Heine,  
 P. H. P. Harbach,  A. W. Hauser,  M. F. Herbst,  J. E. Herr,  
 E. G. Hohenstein,  Z. C. Holden,  Kerwin Hui,  B. C. Huynh,  T.-C. Jagau,  
 Hyunjun Ji,  B. Kaduk,  K. Khistyaev,  Jaehoon Kim,  P. Klunzinger,  K. Koh,  
 D. Kosenkov,  L. Koulias,  T. Kowalczyk,  C. M. Krauter,  A. Kunitsa,  
 Ka Un Lao,  A. Laurent,  K. V. Lawler,  Joonho Lee,  D. Lefrancois,  
 S. Lehtola,  D. S. Levine,  Yi-Pei Li,  You-Sheng Lin,  Fenglai Liu,  
 Kuan-Yu Liu,  E. Livshits,  M. Loipersberger,  A. Luenser,  P. Manohar,  
 E. Mansoor,  S. F. Manzer,  Shan-Ping Mao,  Yuezhi Mao,  N. Mardirossian,  
 A. V. Marenich,  T. Markovich,  L. A. Martinez-Martinez,  S. A. Maurer,  
 N. J. Mayhall,  S. C. McKenzie,  J.-M. Mewes,  P. Morgante,  A. F. Morrison,  
 J. W. Mullinax,  K. Nanda,  T. S. Nguyen-Beck,  R. Olivares-Amaya,  
 K. J. Oosterbaan,  J. A. Parkhill,  S. K. Paul,  F. Pavosevic,  Zheng Pei,  
 T. M. Perrine,  F. Plasser,  P. Pokhilko,  S. Prager,  A. Prociuk,  
 E. Ramos,  B. Rana,  D. R. Rehn,  F. Rob,  M. Scheurer,  M. Schneider,  
 N. Sergueev,  S. M. Sharada,  S. Sharma,  D. W. Small,  T. Stauch,  
 C. J. Stein,  T. Stein,  Yu-Chuan Su,  S. P. Veccham,  Zhen Tao,  
 A. J. W. Thom,  A. Tkatchenko,  T. Tsuchimochi,  N. M. Tubman,  L. Vogt,  
 M. L. Vidal,  O. Vydrov,  M. A. Watson,  J. Wenzel,  M. de Wergifosse,  
 T. A. Wesolowski,  A. White,  J. Witte,  A. Yamada,  Jun Yang,  K. Yao,  
 S. Yeganeh,  S. R. Yost,  Zhi-Qiang You,  A. Zech,  Igor Ying Zhang,  
 Xing Zhang,  Yan Zhao,  Ying Zhu,  B. R. Brooks,  G. K. L. Chan,  
 C. J. Cramer,  M. S. Gordon,  W. J. Hehre,  A. Klamt,  M. W. Schmidt,  
 C. D. Sherrill,  D. G. Truhlar,  A. Aspuru-Guzik,  R. Baer,  A. T. Bell,  
 N. A. Besley,  Jeng-Da Chai,  A. E. DePrince, III,  R. A. DiStasio Jr.,  
 A. Dreuw,  B. D. Dunietz,  T. R. Furlani,  Chao-Ping Hsu,  Yousung Jung,  
 Jing Kong,  D. S. Lambrecht,  WanZhen Liang,  C. Ochsenfeld,  
 V. A. Rassolov,  L. V. Slipchenko,  J. E. Subotnik,  T. Van Voorhis,  
 J. M. Herbert,  A. I. Krylov,  P. M. W. Gill,  M. Head-Gordon

 Contributors to earlier versions of Q-Chem not listed above: 
 R. D. Adamson,  B. Austin,  J. Baker,  G. J. O. Beran,  K. Brandhorst,  
 S. T. Brown,  E. F. C. Byrd,  A. K. Chakraborty,  C.-L. Cheng,  
 Siu Hung Chien,  D. M. Chipman,  D. L. Crittenden,  H. Dachsel,  
 R. J. Doerksen,  A. D. Dutoi,  L. Fusti-Molnar,  W. A. Goddard III,  
 A. Golubeva-Zadorozhnaya,  S. R. Gwaltney,  G. Hawkins,  A. Heyden,  
 S. Hirata,  G. Kedziora,  F. J. Keil,  C. Kelley,  Jihan Kim,  R. A. King,  
 R. Z. Khaliullin,  P. P. Korambath,  W. Kurlancheek,  A. M. Lee,  M. S. Lee,  
 S. V. Levchenko,  Ching Yeh Lin,  D. Liotard,  R. C. Lochan,  I. Lotan,  
 P. E. Maslen,  N. Nair,  D. P. O'Neill,  D. Neuhauser,  E. Neuscamman,  
 C. M. Oana,  R. Olson,  B. Peters,  R. Peverati,  P. A. Pieniazek,  
 Y. M. Rhee,  J. Ritchie,  M. A. Rohrdanz,  E. Rosta,  N. J. Russ,  
 H. F. Schaefer III,  N. E. Schultz,  N. Shenvi,  A. C. Simmonett,  A. Sodt,  
 D. Stuck,  K. S. Thanthiriwatte,  V. Vanovschi,  Tao Wang,  A. Warshel,  
 C. F. Williams,  Q. Wu,  X. Xu,  W. Zhang

 Please cite Q-Chem as follows:
 Y. Shao et al., Mol. Phys. 113, 184-215 (2015)
 DOI: 10.1080/00268976.2014.952696

 Q-Chem 5.3.0 for Intel X86 EM64T Linux

 Parts of Q-Chem use Armadillo 9.800.1 (Horizon Scraper).
 http://arma.sourceforge.net/

 Q-Chem begins on Tue Jul  7 00:28:38 2020  

Host: centos77-c4
0

     Scratch files written to /tmp/26963.centos77-h1/qchem86440//
Processing $rem in /opt/qchem-5.3.0-intel2020u1//config/preferences:
Processing $rem in /home/shihchengli/.qchemrc:

Checking the input file for inconsistencies... 	...done.

--------------------------------------------------------------
User input:
--------------------------------------------------------------
$rem
   JOBTYPE  sp
   EXCHANGE   omegaB97X-D
   BASIS   6-311+G(2df,2pd)
   UNRESTRICTED   False
   max_scf_cycles   250
   geom_opt_max_cycles   1500
   basis2 6-31G*
   scf_algorithm rca_diis
   SYM_IGNORE  TRUE
   print_input   true
   geom_opt_dmax   80
   pop_mulliken false
   XC_GRID 000075000302
$end

$molecule
0 1
C       1.2600296839     -0.1346229479     0.2611701140
C       0.0000001317     0.0000028819     -0.5855420936
H       1.5942534163     -1.1729298341     0.2862015636
H       1.0808662211     0.1783091083     1.2926315366
H       2.0772143548     0.4687386805     -0.1354232468
C       -1.2600295402     0.1346205521     0.2611712873
H       -0.0672969298     -0.8713289885     -1.2412922804
H       0.0672970414     0.8713412972     -1.2412838146
H       -1.0808612019     -0.1782999366     1.2926351430
H       -2.0772074236     -0.4687535109     -0.1354171731
H       -1.5942658142     1.1729233640     0.2861939829
$end
--------------------------------------------------------------
 ----------------------------------------------------------------
             Standard Nuclear Orientation (Angstroms)
    I     Atom           X                Y                Z
 ----------------------------------------------------------------
    1      C       1.2600296839    -0.1346229479     0.2611701140
    2      C       0.0000001317     0.0000028819    -0.5855420936
    3      H       1.5942534163    -1.1729298341     0.2862015636
    4      H       1.0808662211     0.1783091083     1.2926315366
    5      H       2.0772143548     0.4687386805    -0.1354232468
    6      C      -1.2600295402     0.1346205521     0.2611712873
    7      H      -0.0672969298    -0.8713289885    -1.2412922804
    8      H       0.0672970414     0.8713412972    -1.2412838146
    9      H      -1.0808612019    -0.1782999366     1.2926351430
   10      H      -2.0772074236    -0.4687535109    -0.1354171731
   11      H      -1.5942658142     1.1729233640     0.2861939829
 ----------------------------------------------------------------
 Nuclear Repulsion Energy =          82.76818325 hartrees
 There are       13 alpha and       13 beta electrons
 Requested basis set is 6-311+G(2df,2pd)
 There are 72 shells and 214 basis functions

 Total QAlloc Memory Limit   2000 MB
 Mega-Array Size       188 MB
 MEM_STATIC part       192 MB

                       Distance Matrix (Angstroms)
             C (  1)   C (  2)   H (  3)   H (  4)   H (  5)   C (  6)
   C (  2)  1.524047
   H (  3)  1.091061  2.162719
   H (  4)  1.092675  2.174305  1.761339
   H (  5)  1.090469  2.176497  1.762411  1.765333
   C (  6)  2.534401  1.524047  3.139625  2.558439  3.377295
   H (  7)  2.135866  1.092592  2.277049  2.973346  2.760010  2.166089
   H (  8)  2.166089  1.092592  2.973861  2.815731  2.329117  2.135866
   H (  9)  2.558437  2.174305  3.026291  2.190944  3.525826  1.092675
   H ( 10)  3.377288  2.176496  3.762081  3.525825  4.258886  1.090469
   H ( 11)  3.139635  2.162718  3.958495  3.026302  3.762101  1.091060
             H (  7)   H (  8)   H (  9)   H ( 10)
   H (  8)  1.747860
   H (  9)  2.815740  2.973341
   H ( 10)  2.329113  2.760017  1.765334
   H ( 11)  2.973855  2.277044  1.761338  1.762411
 
 A cutoff of  1.0D-09 yielded   2533 shell pairs
 There are     22515 function pairs (     27693 Cartesian)
 Smallest overlap matrix eigenvalue = 8.06E-05

 Scale SEOQF with 1.000000e-01/1.000000e-01/1.000000e-01

 Standard Electronic Orientation quadrupole field applied
 Nucleus-field energy     =     0.0000000006 hartrees
 Requested basis set is 6-31G(d)
 There are 28 shells and 58 basis functions
 A cutoff of  1.0D-09 yielded    402 shell pairs
 There are      1773 function pairs (      1968 Cartesian)
 Smallest overlap matrix eigenvalue = 6.30E-03
 Guess from superposition of atomic densities
 Warning:  Energy on first SCF cycle will be non-variational
 SAD guess density has 26.000000 electrons
 Long-range K will be added via erf
 Coulomb attenuation parameter = 0.2 bohr**(-1)
 A restricted hybrid HF-DFT SCF calculation will be
 performed using Relaxed Constraint Minimization + Pulay DIIS
 Exchange:     0.2220 Hartree-Fock + 1.0000 wB97X-D + LR-HF
 Correlation:  1.0000 wB97X-D
 Using Euler-Maclaurin-Lebedev (75,302) quadrature formula
 Dispersion:   Grimme D
 SCF converges when DIIS error is below 1.0E-04
 using 3 threads for integral computing
 -------------------------------------------------------
 OpenMP Integral computing Module                
 Release: version 1.0, May 2013, Q-Chem Inc. Pittsburgh 
 -------------------------------------------------------
 using 3 threads for integral computing
 -------------------------------------------------------
 OpenMP Integral computing Module                
 Release: version 1.0, May 2013, Q-Chem Inc. Pittsburgh 
 -------------------------------------------------------
 ---------------------------------------
  Cycle       Energy         DIIS Error
 ---------------------------------------
    1    -119.6272294082      1.00E-01
    2    -119.0571575350      9.07E-03
    3    -119.0784260097      2.44E-03
    4    -119.0924960713      1.68E-03
    5    -119.0931867421      2.63E-04 Done RCA. Switching to DIIS
    6    -119.0936947939      1.95E-04
    7    -119.0937112684      4.27E-06 Convergence criterion met
 ---------------------------------------
 SCF time:  CPU 21.80 s  wall 8.32 s
 SCF   energy in the small basis set = -119.09371127
 Total energy in the small basis set = -119.09371127
 ----------------------------------------------------
  Cycle       Energy    
 ----------------------------------------------------
    1     -16.5458149005     -1.65E+01
 Long-range K will be added via erf
 Coulomb attenuation parameter = 0.2 bohr**(-1)
 A restricted hybrid HF-DFT SCF calculation will be
 performed using Relaxed Constraint Minimization + Pulay DIIS
 Exchange:     0.2220 Hartree-Fock + 1.0000 wB97X-D + LR-HF
 Correlation:  1.0000 wB97X-D
 Using Euler-Maclaurin-Lebedev (75,302) quadrature formula
 Dispersion:   Grimme D
 SCF converges when DIIS error is below 1.0E-05
 Basis2 calculation detected. Using small basis as guess for larger.
 SCFMinFind is unable to tell whether the solution found is close.
 Resetting ReadMinima to 0 and attempting to follow guess.
 SCFMinFind following SCF Guess.
 using 3 threads for integral computing
 -------------------------------------------------------
 OpenMP Integral computing Module                
 Release: version 1.0, May 2013, Q-Chem Inc. Pittsburgh 
 -------------------------------------------------------
 using 3 threads for integral computing
 -------------------------------------------------------
 OpenMP Integral computing Module                
 Release: version 1.0, May 2013, Q-Chem Inc. Pittsburgh 
 -------------------------------------------------------
 ---------------------------------------
  Cycle       Energy         DIIS Error
 ---------------------------------------
    1    -119.1131479294      4.21E-03
    2    -119.1351382320      6.02E-04 Done RCA. Switching to DIIS
    3    -119.1359699171      4.25E-04
    4    -119.1369587078      4.53E-05
    5    -119.1369734231      1.01E-05
    6    -119.1369741201      3.96E-06 Convergence criterion met
 ---------------------------------------
 SCF time:  CPU 49.08 s  wall 16.39 s
 SCF   energy in the final basis set = -119.13697412
 Total energy in the final basis set = -119.13697412
 
 --------------------------------------------------------------
 
                    Orbital Energies (a.u.)
 --------------------------------------------------------------
 
 Alpha MOs
 -- Occupied --
-10.2718 -10.2637 -10.2637  -0.8810  -0.7764  -0.6776  -0.5444  -0.5268
 -0.4771  -0.4700  -0.4209  -0.4137  -0.3991
 -- Virtual --
  0.0714   0.0876   0.0914   0.1029   0.1216   0.1304   0.1315   0.1344
  0.1451   0.1636   0.1754   0.1894   0.2039   0.2448   0.2629   0.2652
  0.2939   0.3096   0.3216   0.3227   0.3315   0.3576   0.4583   0.4847
  0.4896   0.4929   0.5137   0.5220   0.5230   0.5397   0.5620   0.5828
  0.6163   0.6231   0.6299   0.6413   0.6422   0.6573   0.6948   0.7114
  0.7335   0.7554   0.8232   0.8840   0.8980   0.9452   0.9554   0.9942
  1.0220   1.0381   1.0635   1.0757   1.1181   1.1740   1.2101   1.2102
  1.2312   1.2579   1.2655   1.2819   1.2899   1.3168   1.3362   1.3662
  1.3665   1.3777   1.4091   1.4464   1.4535   1.4598   1.4835   1.5129
  1.5346   1.5401   1.5697   1.5840   1.6304   1.6453   1.6644   1.6794
  1.7001   2.2880   2.3451   2.4253   2.5267   2.5487   2.5845   2.6686
  2.6938   2.7019   2.8032   2.8068   2.8335   2.8346   2.9310   2.9330
  2.9686   2.9815   3.0051   3.0236   3.0504   3.0809   3.1042   3.1414
  3.1474   3.1512   3.1646   3.1708   3.1973   3.2461   3.2568   3.2835
  3.2992   3.3005   3.3410   3.3464   3.3719   3.3910   3.3957   3.4123
  3.4666   3.5025   3.5100   3.5400   3.5720   3.5938   3.6120   3.6404
  3.6509   3.6842   3.6852   3.7104   3.7396   3.7635   3.7880   3.8371
  3.8451   3.9041   3.9255   3.9617   3.9769   4.0110   4.0200   4.0590
  4.0795   4.1345   4.1443   4.1467   4.1538   4.1862   4.2200   4.2359
  4.2493   4.2785   4.2953   4.3106   4.3402   4.4071   4.4372   4.4418
  4.4640   4.4893   4.6021   4.6215   4.6601   4.8018   4.8336   4.8744
  4.9287   4.9369   4.9869   4.9870   5.0261   5.0540   5.0685   5.1433
  5.1611   5.1707   5.2288   5.2458   5.2580   5.2885   5.3107   5.3756
  5.3811   5.3855   5.4377   5.4385   5.5280   5.5697   5.5977   5.7365
  5.9777   6.3258   6.3721   6.4044   6.4262   6.5101  25.0804  25.4028
 25.4630
 --------------------------------------------------------------
 
 -----------------------------------------------------------------
                    Cartesian Multipole Moments
 -----------------------------------------------------------------
    Charge (ESU x 10^10)
                 0.0000
    Dipole Moment (Debye)
         X      -0.0000      Y       0.0000      Z      -0.0896
       Tot       0.0896
    Quadrupole Moments (Debye-Ang)
        XX     -22.3484     XY       0.0875     YY     -21.2363
        XZ       0.0000     YZ       0.0000     ZZ     -21.8427
    Octopole Moments (Debye-Ang^2)
       XXX       0.0000    XXY       0.0000    XYY      -0.0000
       YYY      -0.0000    XXZ      -1.2710    XYZ      -0.2998
       YYZ      -1.0005    XZZ       0.0000    YZZ       0.0000
       ZZZ       0.6446
    Hexadecapole Moments (Debye-Ang^3)
      XXXX    -203.5803   XXXY      11.1190   XXYY     -39.5421
      XYYY       6.4228   YYYY     -44.5454   XXXZ       0.0000
      XXYZ       0.0000   XYYZ       0.0000   YYYZ       0.0000
      XXZZ     -46.7285   XYZZ       3.5719   YYZZ     -19.2074
      XZZZ       0.0000   YZZZ       0.0001   ZZZZ     -69.8528
 -----------------------------------------------------------------
Archival summary:
1\1\centos77-c4\SP\ProcedureUnspecified\BasisUnspecified\38\shihchen\TueJul700:29:062020TueJul700:29:062020\0\\#,ProcedureUnspecified,BasisUnspecified,\\0,1\C\H,1,1.09259\H,1,1.09259,2,106.235\C,1,1.52405,2,108.296,3,-118.912,0\H,4,1.09047,1,111.632,2,100.01,0\H,4,1.09106,1,110.492,2,-19.9147,0\H,4,1.09268,1,111.32,2,-139.317,0\C,1,1.52405,2,110.668,3,117.342,0\H,8,1.09047,1,111.632,2,-16.0574,0\H,8,1.09106,1,110.492,2,-135.982,0\H,8,1.09267,1,111.32,2,104.616,0\\\@

 Total job time:  27.58s(wall), 74.42s(cpu) 
 Tue Jul  7 00:29:06 2020

        *************************************************************
        *                                                           *
        *  Thank you very much for using Q-Chem.  Have a nice day.  *
        *                                                           *
        *************************************************************


