                  Welcome to Q-Chem
     A Quantum Leap Into The Future Of Chemistry


 Q-Chem 5.3 (devel), Q-Chem, Inc., Pleasanton, CA (2020)

 Yihan Shao,  Zhengting Gan,  E. Epifanovsky,  A. T. B. Gilbert,  M. Wormit,  
 J. Kussmann,  A. W. Lange,  A. Behn,  Jia Deng,  Xintian Feng,  D. Ghosh,  
 M. Goldey,  P. R. Horn,  L. D. Jacobson,  I. Kaliman,  T. Kus,  A. Landau,  
 Jie Liu,  E. I. Proynov,  R. M. Richard,  R. P. Steele,  E. J. Sundstrom,  
 H. L. Woodcock III,  P. M. Zimmerman,  D. Zuev,  B. Alam,  B. Albrecht,  
 E. Alguire,  S. A. Baeppler,  D. Barton,  Z. Benda,  Y. A. Bernard,  
 E. J. Berquist,  K. B. Bravaya,  H. Burton,  K. Carter-Fenk,  D. Casanova,  
 Chun-Min Chang,  Yunqing Chen,  A. Chien,  K. D. Closser,  M. P. Coons,  
 S. Coriani,  S. Dasgupta,  A. L. Dempwolff,  M. Diedenhofen,  Hainam Do,  
 R. G. Edgar,  Po-Tung Fang,  S. Faraji,  S. Fatehi,  Qingguo Feng,  
 J. Fosso-Tande,  J. Gayvert,  Qinghui Ge,  A. Ghysels,  G. Gidofalvi,  
 J. Gomes,  J. Gonthier,  A. Gunina,  D. Hait,  M. W. D. Hanson-Heine,  
 P. H. P. Harbach,  A. W. Hauser,  M. F. Herbst,  J. E. Herr,  
 E. G. Hohenstein,  Z. C. Holden,  Kerwin Hui,  B. C. Huynh,  T.-C. Jagau,  
 Hyunjun Ji,  B. Kaduk,  K. Khistyaev,  Jaehoon Kim,  P. Klunzinger,  K. Koh,  
 D. Kosenkov,  L. Koulias,  T. Kowalczyk,  C. M. Krauter,  A. Kunitsa,  
 Ka Un Lao,  A. Laurent,  K. V. Lawler,  Joonho Lee,  D. Lefrancois,  
 S. Lehtola,  D. S. Levine,  Yi-Pei Li,  You-Sheng Lin,  Fenglai Liu,  
 Kuan-Yu Liu,  E. Livshits,  M. Loipersberger,  A. Luenser,  P. Manohar,  
 E. Mansoor,  S. F. Manzer,  Shan-Ping Mao,  Yuezhi Mao,  N. Mardirossian,  
 A. V. Marenich,  T. Markovich,  L. A. Martinez-Martinez,  S. A. Maurer,  
 N. J. Mayhall,  S. C. McKenzie,  J.-M. Mewes,  P. Morgante,  A. F. Morrison,  
 J. W. Mullinax,  K. Nanda,  T. S. Nguyen-Beck,  R. Olivares-Amaya,  
 K. J. Oosterbaan,  J. A. Parkhill,  S. K. Paul,  F. Pavosevic,  Zheng Pei,  
 T. M. Perrine,  F. Plasser,  P. Pokhilko,  S. Prager,  A. Prociuk,  
 E. Ramos,  B. Rana,  D. R. Rehn,  F. Rob,  M. Scheurer,  M. Schneider,  
 N. Sergueev,  S. M. Sharada,  S. Sharma,  D. W. Small,  T. Stauch,  
 C. J. Stein,  T. Stein,  Yu-Chuan Su,  S. P. Veccham,  Zhen Tao,  
 A. J. W. Thom,  A. Tkatchenko,  T. Tsuchimochi,  N. M. Tubman,  L. Vogt,  
 M. L. Vidal,  O. Vydrov,  M. A. Watson,  J. Wenzel,  M. de Wergifosse,  
 T. A. Wesolowski,  A. White,  J. Witte,  A. Yamada,  Jun Yang,  K. Yao,  
 S. Yeganeh,  S. R. Yost,  Zhi-Qiang You,  A. Zech,  Igor Ying Zhang,  
 Xing Zhang,  Yan Zhao,  Ying Zhu,  B. R. Brooks,  G. K. L. Chan,  
 C. J. Cramer,  M. S. Gordon,  W. J. Hehre,  A. Klamt,  M. W. Schmidt,  
 C. D. Sherrill,  D. G. Truhlar,  A. Aspuru-Guzik,  R. Baer,  A. T. Bell,  
 N. A. Besley,  Jeng-Da Chai,  A. E. DePrince, III,  R. A. DiStasio Jr.,  
 A. Dreuw,  B. D. Dunietz,  T. R. Furlani,  Chao-Ping Hsu,  Yousung Jung,  
 Jing Kong,  D. S. Lambrecht,  WanZhen Liang,  C. Ochsenfeld,  
 V. A. Rassolov,  L. V. Slipchenko,  J. E. Subotnik,  T. Van Voorhis,  
 J. M. Herbert,  A. I. Krylov,  P. M. W. Gill,  M. Head-Gordon

 Contributors to earlier versions of Q-Chem not listed above: 
 R. D. Adamson,  B. Austin,  J. Baker,  G. J. O. Beran,  K. Brandhorst,  
 S. T. Brown,  E. F. C. Byrd,  A. K. Chakraborty,  C.-L. Cheng,  
 Siu Hung Chien,  D. M. Chipman,  D. L. Crittenden,  H. Dachsel,  
 R. J. Doerksen,  A. D. Dutoi,  L. Fusti-Molnar,  W. A. Goddard III,  
 A. Golubeva-Zadorozhnaya,  S. R. Gwaltney,  G. Hawkins,  A. Heyden,  
 S. Hirata,  G. Kedziora,  F. J. Keil,  C. Kelley,  Jihan Kim,  R. A. King,  
 R. Z. Khaliullin,  P. P. Korambath,  W. Kurlancheek,  A. M. Lee,  M. S. Lee,  
 S. V. Levchenko,  Ching Yeh Lin,  D. Liotard,  R. C. Lochan,  I. Lotan,  
 P. E. Maslen,  N. Nair,  D. P. O'Neill,  D. Neuhauser,  E. Neuscamman,  
 C. M. Oana,  R. Olson,  B. Peters,  R. Peverati,  P. A. Pieniazek,  
 Y. M. Rhee,  J. Ritchie,  M. A. Rohrdanz,  E. Rosta,  N. J. Russ,  
 H. F. Schaefer III,  N. E. Schultz,  N. Shenvi,  A. C. Simmonett,  A. Sodt,  
 D. Stuck,  K. S. Thanthiriwatte,  V. Vanovschi,  Tao Wang,  A. Warshel,  
 C. F. Williams,  Q. Wu,  X. Xu,  W. Zhang

 Please cite Q-Chem as follows:
 Y. Shao et al., Mol. Phys. 113, 184-215 (2015)
 DOI: 10.1080/00268976.2014.952696

 Q-Chem 5.3.0 for Intel X86 EM64T Linux

 Parts of Q-Chem use Armadillo 9.800.1 (Horizon Scraper).
 http://arma.sourceforge.net/

 Q-Chem begins on Tue Jul  7 01:45:19 2020  

Host: centos77-c4
0

     Scratch files written to /tmp/26963.centos77-h1/qchem103783//
Processing $rem in /opt/qchem-5.3.0-intel2020u1//config/preferences:
Processing $rem in /home/shihchengli/.qchemrc:

Checking the input file for inconsistencies... 	...done.

--------------------------------------------------------------
User input:
--------------------------------------------------------------
$rem
   JOBTYPE  sp
   EXCHANGE   omegaB97X-D
   BASIS   6-311+G(2df,2pd)
   UNRESTRICTED   False
   max_scf_cycles   250
   geom_opt_max_cycles   1500
   basis2 6-31G*
   scf_algorithm rca_diis
   SYM_IGNORE  TRUE
   print_input   true
   geom_opt_dmax   80
   pop_mulliken false
   XC_GRID 000075000302
$end

$molecule
0 1
C       1.2551697579     0.0000020231     0.2582930039
C       -0.0000012748     0.0000005982     -0.6236600832
H       1.3241280215     -0.9509294031     0.7854851566
H       1.3241200217     0.9509325834     0.7854870649
H       2.2043717124     -0.0000071193     -0.2889506491
C       -1.2551725277     -0.0000014388     0.2582903086
H       0.0000011153     -0.9946972481     -1.0579664045
H       0.0000009571     0.9946981874     -1.0579670797
H       -1.3241208269     -0.9509250023     0.7854978101
H       -2.2043696181     0.0000050168     -0.2889608981
H       -1.3241273989     0.9509224687     0.7854967894
$end
--------------------------------------------------------------
 ----------------------------------------------------------------
             Standard Nuclear Orientation (Angstroms)
    I     Atom           X                Y                Z
 ----------------------------------------------------------------
    1      C       1.2551697579     0.0000020231     0.2582930039
    2      C      -0.0000012748     0.0000005982    -0.6236600832
    3      H       1.3241280215    -0.9509294031     0.7854851566
    4      H       1.3241200217     0.9509325834     0.7854870649
    5      H       2.2043717124    -0.0000071193    -0.2889506491
    6      C      -1.2551725277    -0.0000014388     0.2582903086
    7      H       0.0000011153    -0.9946972481    -1.0579664045
    8      H       0.0000009571     0.9946981874    -1.0579670797
    9      H      -1.3241208269    -0.9509250023     0.7854978101
   10      H      -2.2043696181     0.0000050168    -0.2889608981
   11      H      -1.3241273989     0.9509224687     0.7854967894
 ----------------------------------------------------------------
 Nuclear Repulsion Energy =          82.89817797 hartrees
 There are       13 alpha and       13 beta electrons
 Requested basis set is 6-311+G(2df,2pd)
 There are 72 shells and 214 basis functions

 Total QAlloc Memory Limit   2000 MB
 Mega-Array Size       188 MB
 MEM_STATIC part       192 MB

                       Distance Matrix (Angstroms)
             C (  1)   C (  2)   H (  3)   H (  4)   H (  5)   C (  6)
   C (  2)  1.534045
   H (  3)  1.089476  2.154826
   H (  4)  1.089475  2.154824  1.901862
   H (  5)  1.095655  2.229639  1.683299  1.683314
   C (  6)  2.510342  1.534044  2.799105  2.799100  3.502559
   H (  7)  2.073020  1.085378  2.270141  2.989496  2.537724  2.073020
   H (  8)  2.073019  1.085378  2.989498  2.270139  2.537730  2.073022
   H (  9)  2.799098  2.154827  2.648249  3.260405  3.809061  1.089476
   H ( 10)  3.502556  2.229633  3.809069  3.809060  4.408741  1.095655
   H ( 11)  2.799101  2.154828  3.260414  2.648247  3.809069  1.089476
             H (  7)   H (  8)   H (  9)   H ( 10)
   H (  8)  1.989395
   H (  9)  2.270149  2.989500
   H ( 10)  2.537726  2.537722  1.683320
   H ( 11)  2.989500  2.270152  1.901847  1.683309
 
 A cutoff of  1.0D-09 yielded   2532 shell pairs
 There are     22518 function pairs (     27687 Cartesian)
 Smallest overlap matrix eigenvalue = 8.52E-05

 Scale SEOQF with 1.000000e-01/1.000000e-01/1.000000e-01

 Standard Electronic Orientation quadrupole field applied
 Nucleus-field energy     =     0.0000000008 hartrees
 Requested basis set is 6-31G(d)
 There are 28 shells and 58 basis functions
 A cutoff of  1.0D-09 yielded    402 shell pairs
 There are      1773 function pairs (      1968 Cartesian)
 Smallest overlap matrix eigenvalue = 6.57E-03
 Guess from superposition of atomic densities
 Warning:  Energy on first SCF cycle will be non-variational
 SAD guess density has 26.000000 electrons
 Long-range K will be added via erf
 Coulomb attenuation parameter = 0.2 bohr**(-1)
 A restricted hybrid HF-DFT SCF calculation will be
 performed using Relaxed Constraint Minimization + Pulay DIIS
 Exchange:     0.2220 Hartree-Fock + 1.0000 wB97X-D + LR-HF
 Correlation:  1.0000 wB97X-D
 Using Euler-Maclaurin-Lebedev (75,302) quadrature formula
 Dispersion:   Grimme D
 SCF converges when DIIS error is below 1.0E-04
 using 3 threads for integral computing
 -------------------------------------------------------
 OpenMP Integral computing Module                
 Release: version 1.0, May 2013, Q-Chem Inc. Pittsburgh 
 -------------------------------------------------------
 using 3 threads for integral computing
 -------------------------------------------------------
 OpenMP Integral computing Module                
 Release: version 1.0, May 2013, Q-Chem Inc. Pittsburgh 
 -------------------------------------------------------
 ---------------------------------------
  Cycle       Energy         DIIS Error
 ---------------------------------------
    1    -119.6293113336      1.01E-01
    2    -119.0328850113      9.30E-03
    3    -119.0555119465      2.54E-03
    4    -119.0704197387      1.75E-03
    5    -119.0711726653      2.88E-04 Done RCA. Switching to DIIS
    6    -119.0717202182      2.09E-04
    7    -119.0717394060      7.54E-06 Convergence criterion met
 ---------------------------------------
 SCF time:  CPU 20.62 s  wall 7.60 s
 SCF   energy in the small basis set = -119.07173941
 Total energy in the small basis set = -119.07173941
 ----------------------------------------------------
  Cycle       Energy    
 ----------------------------------------------------
    1     -16.5373804408     -1.65E+01
 Long-range K will be added via erf
 Coulomb attenuation parameter = 0.2 bohr**(-1)
 A restricted hybrid HF-DFT SCF calculation will be
 performed using Relaxed Constraint Minimization + Pulay DIIS
 Exchange:     0.2220 Hartree-Fock + 1.0000 wB97X-D + LR-HF
 Correlation:  1.0000 wB97X-D
 Using Euler-Maclaurin-Lebedev (75,302) quadrature formula
 Dispersion:   Grimme D
 SCF converges when DIIS error is below 1.0E-05
 Basis2 calculation detected. Using small basis as guess for larger.
 SCFMinFind is unable to tell whether the solution found is close.
 Resetting ReadMinima to 0 and attempting to follow guess.
 SCFMinFind following SCF Guess.
 using 3 threads for integral computing
 -------------------------------------------------------
 OpenMP Integral computing Module                
 Release: version 1.0, May 2013, Q-Chem Inc. Pittsburgh 
 -------------------------------------------------------
 using 3 threads for integral computing
 -------------------------------------------------------
 OpenMP Integral computing Module                
 Release: version 1.0, May 2013, Q-Chem Inc. Pittsburgh 
 -------------------------------------------------------
 ---------------------------------------
  Cycle       Energy         DIIS Error
 ---------------------------------------
    1    -119.0919147718      4.22E-03
    2    -119.1139958227      6.36E-04 Done RCA. Switching to DIIS
    3    -119.1149159195      4.52E-04
    4    -119.1160397691      4.48E-05
    5    -119.1160550893      9.21E-06 Convergence criterion met
 ---------------------------------------
 SCF time:  CPU 43.48 s  wall 14.58 s
 SCF   energy in the final basis set = -119.11605509
 Total energy in the final basis set = -119.11605509
 
 --------------------------------------------------------------
 
                    Orbital Energies (a.u.)
 --------------------------------------------------------------
 
 Alpha MOs
 -- Occupied --
-10.2765 -10.2642 -10.2642  -0.8854  -0.7778  -0.6707  -0.5808  -0.5083
 -0.4874  -0.4554  -0.4345  -0.4165  -0.3787
 -- Virtual --
  0.0710   0.0846   0.0908   0.0948   0.1254   0.1297   0.1306   0.1354
  0.1365   0.1732   0.1760   0.1865   0.2291   0.2475   0.2556   0.2711
  0.2824   0.2832   0.2870   0.3150   0.3285   0.3349   0.4591   0.4675
  0.4713   0.4913   0.5102   0.5165   0.5571   0.5641   0.5904   0.6205
  0.6228   0.6235   0.6300   0.6322   0.6612   0.6780   0.7056   0.7148
  0.7247   0.7835   0.8352   0.8461   0.8657   0.8726   0.8826   0.9154
  1.0108   1.0446   1.0512   1.1305   1.1676   1.1692   1.1901   1.1995
  1.2074   1.2272   1.2333   1.2798   1.3045   1.3264   1.3506   1.3578
  1.3742   1.3758   1.4086   1.4512   1.4585   1.4639   1.4934   1.4937
  1.5199   1.5631   1.5700   1.6191   1.6542   1.6614   1.6846   1.7245
  1.7527   2.3649   2.4438   2.5167   2.5374   2.5816   2.6103   2.6525
  2.6527   2.6838   2.7742   2.8435   2.8714   2.8877   2.9077   2.9171
  2.9243   2.9424   2.9744   3.0254   3.0356   3.0685   3.0805   3.1202
  3.1244   3.1349   3.1520   3.1854   3.2187   3.2530   3.2636   3.2710
  3.3187   3.3301   3.3589   3.3774   3.3887   3.3921   3.4270   3.4376
  3.4607   3.4918   3.5165   3.5196   3.5756   3.5770   3.6006   3.6025
  3.6441   3.6606   3.6811   3.7328   3.7507   3.7789   3.7808   3.8546
  3.8600   3.9303   3.9323   3.9538   3.9613   3.9837   4.0039   4.0211
  4.0402   4.0585   4.0600   4.1266   4.1371   4.1627   4.2015   4.2142
  4.2323   4.2841   4.2945   4.3564   4.3626   4.4073   4.4421   4.4741
  4.4950   4.5755   4.6430   4.6730   4.7163   4.7172   4.7698   4.8285
  4.8597   4.9142   4.9371   4.9457   4.9901   4.9916   4.9948   5.1205
  5.1456   5.1495   5.1870   5.2125   5.3161   5.3389   5.3994   5.4245
  5.4713   5.5637   5.6041   5.6130   5.6340   5.6644   5.8127   5.8215
  6.1117   6.2927   6.2939   6.4678   6.4795   6.5571  25.1936  25.4325
 25.4463
 --------------------------------------------------------------
 
 -----------------------------------------------------------------
                    Cartesian Multipole Moments
 -----------------------------------------------------------------
    Charge (ESU x 10^10)
                -0.0000
    Dipole Moment (Debye)
         X       0.0000      Y      -0.0000      Z      -0.0943
       Tot       0.0943
    Quadrupole Moments (Debye-Ang)
        XX     -22.0523     XY      -0.0000     YY     -20.0864
        XZ      -0.0000     YZ       0.0000     ZZ     -23.6502
    Octopole Moments (Debye-Ang^2)
       XXX       0.0001    XXY      -0.0000    XYY       0.0001
       YYY      -0.0000    XXZ      -0.7572    XYZ       0.0000
       YYZ       0.3713    XZZ      -0.0001    YZZ      -0.0000
       ZZZ       0.4048
    Hexadecapole Moments (Debye-Ang^3)
      XXXX    -201.5379   XXXY      -0.0003   XXYY     -41.4136
      XYYY      -0.0000   YYYY     -44.8749   XXXZ       0.0001
      XXYZ       0.0000   XYYZ      -0.0000   YYYZ       0.0000
      XXZZ     -46.7365   XYZZ       0.0000   YYZZ     -17.4540
      XZZZ      -0.0001   YZZZ       0.0000   ZZZZ     -71.5025
 -----------------------------------------------------------------
Archival summary:
1\1\centos77-c4\SP\ProcedureUnspecified\BasisUnspecified\38\shihchen\TueJul701:45:442020TueJul701:45:442020\0\\#,ProcedureUnspecified,BasisUnspecified,\\0,1\C\H,1,1.08538\H,1,1.08538,2,132.826\C,1,1.53404,2,103.3,3,122.78,0\H,4,1.08948,1,109.268,2,42.048,0\H,4,1.08948,1,109.268,2,177.27,0\H,4,1.09565,1,114.941,2,-70.3413,0\C,1,1.53405,2,103.3,3,-122.779,0\H,8,1.08948,1,109.268,2,-177.271,0\H,8,1.08948,1,109.268,2,-42.047,0\H,8,1.09566,1,114.941,2,70.3402,0\\\@

 Total job time:  25.12s(wall), 67.79s(cpu) 
 Tue Jul  7 01:45:44 2020

        *************************************************************
        *                                                           *
        *  Thank you very much for using Q-Chem.  Have a nice day.  *
        *                                                           *
        *************************************************************


