                  Welcome to Q-Chem
     A Quantum Leap Into The Future Of Chemistry


 Q-Chem 5.3 (devel), Q-Chem, Inc., Pleasanton, CA (2020)

 Yihan Shao,  Zhengting Gan,  E. Epifanovsky,  A. T. B. Gilbert,  M. Wormit,  
 J. Kussmann,  A. W. Lange,  A. Behn,  Jia Deng,  Xintian Feng,  D. Ghosh,  
 M. Goldey,  P. R. Horn,  L. D. Jacobson,  I. Kaliman,  T. Kus,  A. Landau,  
 Jie Liu,  E. I. Proynov,  R. M. Richard,  R. P. Steele,  E. J. Sundstrom,  
 H. L. Woodcock III,  P. M. Zimmerman,  D. Zuev,  B. Alam,  B. Albrecht,  
 E. Alguire,  S. A. Baeppler,  D. Barton,  Z. Benda,  Y. A. Bernard,  
 E. J. Berquist,  K. B. Bravaya,  H. Burton,  K. Carter-Fenk,  D. Casanova,  
 Chun-Min Chang,  Yunqing Chen,  A. Chien,  K. D. Closser,  M. P. Coons,  
 S. Coriani,  S. Dasgupta,  A. L. Dempwolff,  M. Diedenhofen,  Hainam Do,  
 R. G. Edgar,  Po-Tung Fang,  S. Faraji,  S. Fatehi,  Qingguo Feng,  
 J. Fosso-Tande,  J. Gayvert,  Qinghui Ge,  A. Ghysels,  G. Gidofalvi,  
 J. Gomes,  J. Gonthier,  A. Gunina,  D. Hait,  M. W. D. Hanson-Heine,  
 P. H. P. Harbach,  A. W. Hauser,  M. F. Herbst,  J. E. Herr,  
 E. G. Hohenstein,  Z. C. Holden,  Kerwin Hui,  B. C. Huynh,  T.-C. Jagau,  
 Hyunjun Ji,  B. Kaduk,  K. Khistyaev,  Jaehoon Kim,  P. Klunzinger,  K. Koh,  
 D. Kosenkov,  L. Koulias,  T. Kowalczyk,  C. M. Krauter,  A. Kunitsa,  
 Ka Un Lao,  A. Laurent,  K. V. Lawler,  Joonho Lee,  D. Lefrancois,  
 S. Lehtola,  D. S. Levine,  Yi-Pei Li,  You-Sheng Lin,  Fenglai Liu,  
 Kuan-Yu Liu,  E. Livshits,  M. Loipersberger,  A. Luenser,  P. Manohar,  
 E. Mansoor,  S. F. Manzer,  Shan-Ping Mao,  Yuezhi Mao,  N. Mardirossian,  
 A. V. Marenich,  T. Markovich,  L. A. Martinez-Martinez,  S. A. Maurer,  
 N. J. Mayhall,  S. C. McKenzie,  J.-M. Mewes,  P. Morgante,  A. F. Morrison,  
 J. W. Mullinax,  K. Nanda,  T. S. Nguyen-Beck,  R. Olivares-Amaya,  
 K. J. Oosterbaan,  J. A. Parkhill,  S. K. Paul,  F. Pavosevic,  Zheng Pei,  
 T. M. Perrine,  F. Plasser,  P. Pokhilko,  S. Prager,  A. Prociuk,  
 E. Ramos,  B. Rana,  D. R. Rehn,  F. Rob,  M. Scheurer,  M. Schneider,  
 N. Sergueev,  S. M. Sharada,  S. Sharma,  D. W. Small,  T. Stauch,  
 C. J. Stein,  T. Stein,  Yu-Chuan Su,  S. P. Veccham,  Zhen Tao,  
 A. J. W. Thom,  A. Tkatchenko,  T. Tsuchimochi,  N. M. Tubman,  L. Vogt,  
 M. L. Vidal,  O. Vydrov,  M. A. Watson,  J. Wenzel,  M. de Wergifosse,  
 T. A. Wesolowski,  A. White,  J. Witte,  A. Yamada,  Jun Yang,  K. Yao,  
 S. Yeganeh,  S. R. Yost,  Zhi-Qiang You,  A. Zech,  Igor Ying Zhang,  
 Xing Zhang,  Yan Zhao,  Ying Zhu,  B. R. Brooks,  G. K. L. Chan,  
 C. J. Cramer,  M. S. Gordon,  W. J. Hehre,  A. Klamt,  M. W. Schmidt,  
 C. D. Sherrill,  D. G. Truhlar,  A. Aspuru-Guzik,  R. Baer,  A. T. Bell,  
 N. A. Besley,  Jeng-Da Chai,  A. E. DePrince, III,  R. A. DiStasio Jr.,  
 A. Dreuw,  B. D. Dunietz,  T. R. Furlani,  Chao-Ping Hsu,  Yousung Jung,  
 Jing Kong,  D. S. Lambrecht,  WanZhen Liang,  C. Ochsenfeld,  
 V. A. Rassolov,  L. V. Slipchenko,  J. E. Subotnik,  T. Van Voorhis,  
 J. M. Herbert,  A. I. Krylov,  P. M. W. Gill,  M. Head-Gordon

 Contributors to earlier versions of Q-Chem not listed above: 
 R. D. Adamson,  B. Austin,  J. Baker,  G. J. O. Beran,  K. Brandhorst,  
 S. T. Brown,  E. F. C. Byrd,  A. K. Chakraborty,  C.-L. Cheng,  
 Siu Hung Chien,  D. M. Chipman,  D. L. Crittenden,  H. Dachsel,  
 R. J. Doerksen,  A. D. Dutoi,  L. Fusti-Molnar,  W. A. Goddard III,  
 A. Golubeva-Zadorozhnaya,  S. R. Gwaltney,  G. Hawkins,  A. Heyden,  
 S. Hirata,  G. Kedziora,  F. J. Keil,  C. Kelley,  Jihan Kim,  R. A. King,  
 R. Z. Khaliullin,  P. P. Korambath,  W. Kurlancheek,  A. M. Lee,  M. S. Lee,  
 S. V. Levchenko,  Ching Yeh Lin,  D. Liotard,  R. C. Lochan,  I. Lotan,  
 P. E. Maslen,  N. Nair,  D. P. O'Neill,  D. Neuhauser,  E. Neuscamman,  
 C. M. Oana,  R. Olson,  B. Peters,  R. Peverati,  P. A. Pieniazek,  
 Y. M. Rhee,  J. Ritchie,  M. A. Rohrdanz,  E. Rosta,  N. J. Russ,  
 H. F. Schaefer III,  N. E. Schultz,  N. Shenvi,  A. C. Simmonett,  A. Sodt,  
 D. Stuck,  K. S. Thanthiriwatte,  V. Vanovschi,  Tao Wang,  A. Warshel,  
 C. F. Williams,  Q. Wu,  X. Xu,  W. Zhang

 Please cite Q-Chem as follows:
 Y. Shao et al., Mol. Phys. 113, 184-215 (2015)
 DOI: 10.1080/00268976.2014.952696

 Q-Chem 5.3.0 for Intel X86 EM64T Linux

 Parts of Q-Chem use Armadillo 9.800.1 (Horizon Scraper).
 http://arma.sourceforge.net/

 Q-Chem begins on Tue Jul  7 00:26:46 2020  

Host: centos77-c4
0

     Scratch files written to /tmp/26963.centos77-h1/qchem85475//
Processing $rem in /opt/qchem-5.3.0-intel2020u1//config/preferences:
Processing $rem in /home/shihchengli/.qchemrc:

Checking the input file for inconsistencies... 	...done.

--------------------------------------------------------------
User input:
--------------------------------------------------------------
$rem
   JOBTYPE  sp
   EXCHANGE   omegaB97X-D
   BASIS   6-311+G(2df,2pd)
   UNRESTRICTED   False
   max_scf_cycles   250
   geom_opt_max_cycles   1500
   basis2 6-31G*
   scf_algorithm rca_diis
   SYM_IGNORE  TRUE
   print_input   true
   geom_opt_dmax   80
   pop_mulliken false
   XC_GRID 000075000302
$end

$molecule
0 1
C       1.2669186136     -0.0268905622     0.2595717705
C       0.0000000001     0.0000006166     -0.5871363958
H       1.3599034497     -0.9772020745     0.7888020269
H       1.2532684661     0.7670174361     1.0092728189
H       2.1610915347     0.1045133672     -0.3506004752
C       -1.2669185903     0.0268900489     0.2595718713
H       -0.0134137988     -0.8737710361     -1.2429563470
H       0.0134136781     0.8737735518     -1.2429546837
H       -1.2532664669     -0.7670165057     1.0092743324
H       -2.1610911760     -0.1045164155     -0.3506003240
H       -1.3599057709     0.9772022395     0.7888004246
$end
--------------------------------------------------------------
 ----------------------------------------------------------------
             Standard Nuclear Orientation (Angstroms)
    I     Atom           X                Y                Z
 ----------------------------------------------------------------
    1      C       1.2669186136    -0.0268905622     0.2595717705
    2      C       0.0000000001     0.0000006166    -0.5871363958
    3      H       1.3599034497    -0.9772020745     0.7888020269
    4      H       1.2532684661     0.7670174361     1.0092728189
    5      H       2.1610915347     0.1045133672    -0.3506004752
    6      C      -1.2669185903     0.0268900489     0.2595718713
    7      H      -0.0134137988    -0.8737710361    -1.2429563470
    8      H       0.0134136781     0.8737735518    -1.2429546837
    9      H      -1.2532664669    -0.7670165057     1.0092743324
   10      H      -2.1610911760    -0.1045164155    -0.3506003240
   11      H      -1.3599057709     0.9772022395     0.7888004246
 ----------------------------------------------------------------
 Nuclear Repulsion Energy =          82.73167820 hartrees
 There are       13 alpha and       13 beta electrons
 Requested basis set is 6-311+G(2df,2pd)
 There are 72 shells and 214 basis functions

 Total QAlloc Memory Limit   2000 MB
 Mega-Array Size       188 MB
 MEM_STATIC part       192 MB

                       Distance Matrix (Angstroms)
             C (  1)   C (  2)   H (  3)   H (  4)   H (  5)   C (  6)
   C (  2)  1.524047
   H (  3)  1.091706  2.167365
   H (  4)  1.092029  2.169682  1.761329
   H (  5)  1.090469  2.176508  1.763590  1.764174
   C (  6)  2.534408  1.524047  2.861552  2.731517  3.482756
   H (  7)  2.148034  1.092592  2.454535  3.060916  2.545940  2.154079
   H (  8)  2.154079  1.092592  3.060585  2.573163  2.449608  2.148034
   H (  9)  2.731515  2.169682  2.630864  2.938703  3.777124  1.092029
   H ( 10)  3.482756  2.176508  3.802265  3.777126  4.327234  1.090469
   H ( 11)  2.861554  2.167364  3.349188  2.630868  3.802268  1.091706
             H (  7)   H (  8)   H (  9)   H ( 10)
   H (  8)  1.747750
   H (  9)  2.573164  3.060916
   H ( 10)  2.449606  2.545942  1.764174
   H ( 11)  3.060585  2.454533  1.761329  1.763589
 
 A cutoff of  1.0D-09 yielded   2533 shell pairs
 There are     22547 function pairs (     27720 Cartesian)
 Smallest overlap matrix eigenvalue = 8.62E-05

 Scale SEOQF with 1.000000e-01/1.000000e-01/1.000000e-01

 Standard Electronic Orientation quadrupole field applied
 Nucleus-field energy     =     0.0000000006 hartrees
 Requested basis set is 6-31G(d)
 There are 28 shells and 58 basis functions
 A cutoff of  1.0D-09 yielded    402 shell pairs
 There are      1773 function pairs (      1968 Cartesian)
 Smallest overlap matrix eigenvalue = 6.75E-03
 Guess from superposition of atomic densities
 Warning:  Energy on first SCF cycle will be non-variational
 SAD guess density has 26.000000 electrons
 Long-range K will be added via erf
 Coulomb attenuation parameter = 0.2 bohr**(-1)
 A restricted hybrid HF-DFT SCF calculation will be
 performed using Relaxed Constraint Minimization + Pulay DIIS
 Exchange:     0.2220 Hartree-Fock + 1.0000 wB97X-D + LR-HF
 Correlation:  1.0000 wB97X-D
 Using Euler-Maclaurin-Lebedev (75,302) quadrature formula
 Dispersion:   Grimme D
 SCF converges when DIIS error is below 1.0E-04
 using 3 threads for integral computing
 -------------------------------------------------------
 OpenMP Integral computing Module                
 Release: version 1.0, May 2013, Q-Chem Inc. Pittsburgh 
 -------------------------------------------------------
 using 3 threads for integral computing
 -------------------------------------------------------
 OpenMP Integral computing Module                
 Release: version 1.0, May 2013, Q-Chem Inc. Pittsburgh 
 -------------------------------------------------------
 ---------------------------------------
  Cycle       Energy         DIIS Error
 ---------------------------------------
    1    -119.6184551806      1.00E-01
    2    -119.0665094912      9.00E-03
    3    -119.0875777805      2.46E-03
    4    -119.1014326116      1.69E-03
    5    -119.1021309773      2.68E-04 Done RCA. Switching to DIIS
    6    -119.1026422171      1.98E-04
    7    -119.1026591654      4.50E-06 Convergence criterion met
 ---------------------------------------
 SCF time:  CPU 20.50 s  wall 7.58 s
 SCF   energy in the small basis set = -119.10265917
 Total energy in the small basis set = -119.10265917
 ----------------------------------------------------
  Cycle       Energy    
 ----------------------------------------------------
    1     -16.5396245910     -1.65E+01
 Long-range K will be added via erf
 Coulomb attenuation parameter = 0.2 bohr**(-1)
 A restricted hybrid HF-DFT SCF calculation will be
 performed using Relaxed Constraint Minimization + Pulay DIIS
 Exchange:     0.2220 Hartree-Fock + 1.0000 wB97X-D + LR-HF
 Correlation:  1.0000 wB97X-D
 Using Euler-Maclaurin-Lebedev (75,302) quadrature formula
 Dispersion:   Grimme D
 SCF converges when DIIS error is below 1.0E-05
 Basis2 calculation detected. Using small basis as guess for larger.
 SCFMinFind is unable to tell whether the solution found is close.
 Resetting ReadMinima to 0 and attempting to follow guess.
 SCFMinFind following SCF Guess.
 using 3 threads for integral computing
 -------------------------------------------------------
 OpenMP Integral computing Module                
 Release: version 1.0, May 2013, Q-Chem Inc. Pittsburgh 
 -------------------------------------------------------
 using 3 threads for integral computing
 -------------------------------------------------------
 OpenMP Integral computing Module                
 Release: version 1.0, May 2013, Q-Chem Inc. Pittsburgh 
 -------------------------------------------------------
 ---------------------------------------
  Cycle       Energy         DIIS Error
 ---------------------------------------
    1    -119.1217327951      4.21E-03
    2    -119.1437757304      5.97E-04 Done RCA. Switching to DIIS
    3    -119.1446086009      4.18E-04
    4    -119.1455662908      4.55E-05
    5    -119.1455809912      1.01E-05
    6    -119.1455816754      3.88E-06 Convergence criterion met
 ---------------------------------------
 SCF time:  CPU 50.93 s  wall 17.22 s
 SCF   energy in the final basis set = -119.14558168
 Total energy in the final basis set = -119.14558168
 
 --------------------------------------------------------------
 
                    Orbital Energies (a.u.)
 --------------------------------------------------------------
 
 Alpha MOs
 -- Occupied --
-10.2739 -10.2651 -10.2651  -0.8811  -0.7771  -0.6777  -0.5456  -0.5243
 -0.4824  -0.4641  -0.4185  -0.4178  -0.4069
 -- Virtual --
  0.0691   0.0861   0.0910   0.0989   0.1248   0.1304   0.1333   0.1427
  0.1430   0.1703   0.1725   0.1914   0.2331   0.2408   0.2461   0.2560
  0.2829   0.2911   0.3116   0.3152   0.3343   0.3471   0.4597   0.4654
  0.4719   0.5095   0.5106   0.5168   0.5439   0.5617   0.5852   0.5862
  0.6228   0.6236   0.6401   0.6467   0.6499   0.6601   0.7083   0.7246
  0.7254   0.7675   0.8081   0.8607   0.8727   0.8822   0.8940   0.9580
  1.0056   1.0573   1.0592   1.1306   1.1391   1.1728   1.1971   1.1977
  1.2447   1.2506   1.2525   1.2742   1.2767   1.3014   1.3400   1.3739
  1.3765   1.3792   1.4105   1.4540   1.4589   1.4670   1.4725   1.4951
  1.5278   1.5693   1.6080   1.6081   1.6418   1.6420   1.6797   1.6910
  1.7434   2.3705   2.4542   2.4706   2.4995   2.5520   2.5529   2.6178
  2.6360   2.6979   2.8166   2.8324   2.8402   2.9045   2.9301   2.9329
  2.9362   2.9420   2.9998   3.0264   3.0547   3.0718   3.0777   3.1041
  3.1317   3.1336   3.1821   3.1932   3.1937   3.2302   3.2816   3.2926
  3.3296   3.3318   3.3455   3.3625   3.3658   3.3856   3.3996   3.4406
  3.4493   3.4882   3.4956   3.5154   3.5716   3.5791   3.6003   3.6146
  3.6268   3.6703   3.6819   3.7040   3.7759   3.8023   3.8681   3.8884
  3.9202   3.9522   3.9567   3.9640   3.9695   4.0126   4.0488   4.0648
  4.0773   4.0859   4.1170   4.1420   4.1582   4.1655   4.1760   4.2074
  4.2142   4.2458   4.2912   4.3649   4.3741   4.4110   4.4145   4.4259
  4.4404   4.5687   4.5837   4.6125   4.6519   4.8124   4.8306   4.9112
  4.9388   4.9523   4.9630   4.9675   5.0349   5.0481   5.0508   5.1018
  5.1390   5.2323   5.2388   5.2756   5.3120   5.3474   5.3539   5.3650
  5.3789   5.3913   5.4374   5.4997   5.5461   5.5584   5.6335   5.7291
  5.9525   6.3835   6.3849   6.3966   6.4168   6.4699  25.1974  25.4302
 25.4586
 --------------------------------------------------------------
 
 -----------------------------------------------------------------
                    Cartesian Multipole Moments
 -----------------------------------------------------------------
    Charge (ESU x 10^10)
                -0.0000
    Dipole Moment (Debye)
         X      -0.0000      Y       0.0000      Z      -0.0856
       Tot       0.0856
    Quadrupole Moments (Debye-Ang)
        XX     -22.1720     XY       0.0217     YY     -21.3533
        XZ       0.0000     YZ      -0.0000     ZZ     -21.8463
    Octopole Moments (Debye-Ang^2)
       XXX       0.0000    XXY       0.0000    XYY      -0.0000
       YYY       0.0000    XXZ      -1.5337    XYZ      -0.1743
       YYZ       0.4004    XZZ      -0.0000    YZZ      -0.0000
       ZZZ      -0.3443
    Hexadecapole Moments (Debye-Ang^3)
      XXXX    -202.3327   XXXY       2.5090   XXYY     -42.0551
      XYYY       0.9285   YYYY     -44.0736   XXXZ       0.0000
      XXYZ       0.0000   XYYZ       0.0000   YYYZ       0.0000
      XXZZ     -45.3971   XYZZ       0.9506   YYZZ     -17.2067
      XZZZ       0.0000   YZZZ       0.0000   ZZZZ     -72.0690
 -----------------------------------------------------------------
Archival summary:
1\1\centos77-c4\SP\ProcedureUnspecified\BasisUnspecified\38\shihchen\TueJul700:27:132020TueJul700:27:132020\0\\#,ProcedureUnspecified,BasisUnspecified,\\0,1\C\H,1,1.09259\H,1,1.09259,2,106.226\C,1,1.52405,2,109.243,3,-118.278,0\H,4,1.09047,1,111.633,2,66.4309,0\H,4,1.09171,1,110.823,2,-53.7929,0\H,4,1.09203,1,110.989,2,-173.196,0\C,1,1.52405,2,109.717,3,117.964,0\H,8,1.09047,1,111.633,2,-49.6403,0\H,8,1.09171,1,110.823,2,-169.864,0\H,8,1.09203,1,110.989,2,70.7331,0\\\@

 Total job time:  27.77s(wall), 75.11s(cpu) 
 Tue Jul  7 00:27:13 2020

        *************************************************************
        *                                                           *
        *  Thank you very much for using Q-Chem.  Have a nice day.  *
        *                                                           *
        *************************************************************


