                  Welcome to Q-Chem
     A Quantum Leap Into The Future Of Chemistry


 Q-Chem 5.3 (devel), Q-Chem, Inc., Pleasanton, CA (2020)

 Yihan Shao,  Zhengting Gan,  E. Epifanovsky,  A. T. B. Gilbert,  M. Wormit,  
 J. Kussmann,  A. W. Lange,  A. Behn,  Jia Deng,  Xintian Feng,  D. Ghosh,  
 M. Goldey,  P. R. Horn,  L. D. Jacobson,  I. Kaliman,  T. Kus,  A. Landau,  
 Jie Liu,  E. I. Proynov,  R. M. Richard,  R. P. Steele,  E. J. Sundstrom,  
 H. L. Woodcock III,  P. M. Zimmerman,  D. Zuev,  B. Alam,  B. Albrecht,  
 E. Alguire,  S. A. Baeppler,  D. Barton,  Z. Benda,  Y. A. Bernard,  
 E. J. Berquist,  K. B. Bravaya,  H. Burton,  K. Carter-Fenk,  D. Casanova,  
 Chun-Min Chang,  Yunqing Chen,  A. Chien,  K. D. Closser,  M. P. Coons,  
 S. Coriani,  S. Dasgupta,  A. L. Dempwolff,  M. Diedenhofen,  Hainam Do,  
 R. G. Edgar,  Po-Tung Fang,  S. Faraji,  S. Fatehi,  Qingguo Feng,  
 J. Fosso-Tande,  J. Gayvert,  Qinghui Ge,  A. Ghysels,  G. Gidofalvi,  
 J. Gomes,  J. Gonthier,  A. Gunina,  D. Hait,  M. W. D. Hanson-Heine,  
 P. H. P. Harbach,  A. W. Hauser,  M. F. Herbst,  J. E. Herr,  
 E. G. Hohenstein,  Z. C. Holden,  Kerwin Hui,  B. C. Huynh,  T.-C. Jagau,  
 Hyunjun Ji,  B. Kaduk,  K. Khistyaev,  Jaehoon Kim,  P. Klunzinger,  K. Koh,  
 D. Kosenkov,  L. Koulias,  T. Kowalczyk,  C. M. Krauter,  A. Kunitsa,  
 Ka Un Lao,  A. Laurent,  K. V. Lawler,  Joonho Lee,  D. Lefrancois,  
 S. Lehtola,  D. S. Levine,  Yi-Pei Li,  You-Sheng Lin,  Fenglai Liu,  
 Kuan-Yu Liu,  E. Livshits,  M. Loipersberger,  A. Luenser,  P. Manohar,  
 E. Mansoor,  S. F. Manzer,  Shan-Ping Mao,  Yuezhi Mao,  N. Mardirossian,  
 A. V. Marenich,  T. Markovich,  L. A. Martinez-Martinez,  S. A. Maurer,  
 N. J. Mayhall,  S. C. McKenzie,  J.-M. Mewes,  P. Morgante,  A. F. Morrison,  
 J. W. Mullinax,  K. Nanda,  T. S. Nguyen-Beck,  R. Olivares-Amaya,  
 K. J. Oosterbaan,  J. A. Parkhill,  S. K. Paul,  F. Pavosevic,  Zheng Pei,  
 T. M. Perrine,  F. Plasser,  P. Pokhilko,  S. Prager,  A. Prociuk,  
 E. Ramos,  B. Rana,  D. R. Rehn,  F. Rob,  M. Scheurer,  M. Schneider,  
 N. Sergueev,  S. M. Sharada,  S. Sharma,  D. W. Small,  T. Stauch,  
 C. J. Stein,  T. Stein,  Yu-Chuan Su,  S. P. Veccham,  Zhen Tao,  
 A. J. W. Thom,  A. Tkatchenko,  T. Tsuchimochi,  N. M. Tubman,  L. Vogt,  
 M. L. Vidal,  O. Vydrov,  M. A. Watson,  J. Wenzel,  M. de Wergifosse,  
 T. A. Wesolowski,  A. White,  J. Witte,  A. Yamada,  Jun Yang,  K. Yao,  
 S. Yeganeh,  S. R. Yost,  Zhi-Qiang You,  A. Zech,  Igor Ying Zhang,  
 Xing Zhang,  Yan Zhao,  Ying Zhu,  B. R. Brooks,  G. K. L. Chan,  
 C. J. Cramer,  M. S. Gordon,  W. J. Hehre,  A. Klamt,  M. W. Schmidt,  
 C. D. Sherrill,  D. G. Truhlar,  A. Aspuru-Guzik,  R. Baer,  A. T. Bell,  
 N. A. Besley,  Jeng-Da Chai,  A. E. DePrince, III,  R. A. DiStasio Jr.,  
 A. Dreuw,  B. D. Dunietz,  T. R. Furlani,  Chao-Ping Hsu,  Yousung Jung,  
 Jing Kong,  D. S. Lambrecht,  WanZhen Liang,  C. Ochsenfeld,  
 V. A. Rassolov,  L. V. Slipchenko,  J. E. Subotnik,  T. Van Voorhis,  
 J. M. Herbert,  A. I. Krylov,  P. M. W. Gill,  M. Head-Gordon

 Contributors to earlier versions of Q-Chem not listed above: 
 R. D. Adamson,  B. Austin,  J. Baker,  G. J. O. Beran,  K. Brandhorst,  
 S. T. Brown,  E. F. C. Byrd,  A. K. Chakraborty,  C.-L. Cheng,  
 Siu Hung Chien,  D. M. Chipman,  D. L. Crittenden,  H. Dachsel,  
 R. J. Doerksen,  A. D. Dutoi,  L. Fusti-Molnar,  W. A. Goddard III,  
 A. Golubeva-Zadorozhnaya,  S. R. Gwaltney,  G. Hawkins,  A. Heyden,  
 S. Hirata,  G. Kedziora,  F. J. Keil,  C. Kelley,  Jihan Kim,  R. A. King,  
 R. Z. Khaliullin,  P. P. Korambath,  W. Kurlancheek,  A. M. Lee,  M. S. Lee,  
 S. V. Levchenko,  Ching Yeh Lin,  D. Liotard,  R. C. Lochan,  I. Lotan,  
 P. E. Maslen,  N. Nair,  D. P. O'Neill,  D. Neuhauser,  E. Neuscamman,  
 C. M. Oana,  R. Olson,  B. Peters,  R. Peverati,  P. A. Pieniazek,  
 Y. M. Rhee,  J. Ritchie,  M. A. Rohrdanz,  E. Rosta,  N. J. Russ,  
 H. F. Schaefer III,  N. E. Schultz,  N. Shenvi,  A. C. Simmonett,  A. Sodt,  
 D. Stuck,  K. S. Thanthiriwatte,  V. Vanovschi,  Tao Wang,  A. Warshel,  
 C. F. Williams,  Q. Wu,  X. Xu,  W. Zhang

 Please cite Q-Chem as follows:
 Y. Shao et al., Mol. Phys. 113, 184-215 (2015)
 DOI: 10.1080/00268976.2014.952696

 Q-Chem 5.3.0 for Intel X86 EM64T Linux

 Parts of Q-Chem use Armadillo 9.800.1 (Horizon Scraper).
 http://arma.sourceforge.net/

 Q-Chem begins on Thu Jul  2 04:11:20 2020  

Host: centos77-c1
0

     Scratch files written to /tmp/26650.centos77-h1/qchem72077//
Processing $rem in /opt/qchem-5.3.0-intel2020u1//config/preferences:
Processing $rem in /home/shihchengli/.qchemrc:

Checking the input file for inconsistencies... 	...done.

--------------------------------------------------------------
User input:
--------------------------------------------------------------
$rem
   JOBTYPE  sp
   EXCHANGE   omegaB97X-D
   BASIS   6-311+G(2df,2pd)
   max_scf_cycles   250
   geom_opt_max_cycles   1500
   basis2 6-31G*
   scf_algorithm rca_diis
   SYM_IGNORE  TRUE
   print_input   true
   geom_opt_dmax   80
   pop_mulliken false
   XC_GRID 000075000302
$end

$molecule
0 1
C       1.2671298557     -0.0262153336     0.2572097285
C       -0.0000000125     0.0936621411     -0.5810812231
H       1.1557385402     -0.8243637838     0.9944678326
H       1.4800271896     0.8960247453     0.8008092561
H       2.1359713584     -0.2602401149     -0.3588009847
C       -1.2671297291     -0.0262167654     0.2572098333
H       0.0000004221     -0.7003365771     -1.3315106737
H       -0.0000007013     1.0362699106     -1.1337344670
H       -1.1557410158     -0.8243696827     0.9944633780
H       -2.1359721389     -0.2602348413     -0.3588022042
H       -1.4800238288     0.8960209679     0.8008145431
$end
--------------------------------------------------------------
 ----------------------------------------------------------------
             Standard Nuclear Orientation (Angstroms)
    I     Atom           X                Y                Z
 ----------------------------------------------------------------
    1      C       1.2671298557    -0.0262153336     0.2572097285
    2      C      -0.0000000125     0.0936621411    -0.5810812231
    3      H       1.1557385402    -0.8243637838     0.9944678326
    4      H       1.4800271896     0.8960247453     0.8008092561
    5      H       2.1359713584    -0.2602401149    -0.3588009847
    6      C      -1.2671297291    -0.0262167654     0.2572098333
    7      H       0.0000004221    -0.7003365771    -1.3315106737
    8      H      -0.0000007013     1.0362699106    -1.1337344670
    9      H      -1.1557410158    -0.8243696827     0.9944633780
   10      H      -2.1359721389    -0.2602348413    -0.3588022042
   11      H      -1.4800238288     0.8960209679     0.8008145431
 ----------------------------------------------------------------
 Nuclear Repulsion Energy =          82.74983380 hartrees
 There are       13 alpha and       13 beta electrons
 Requested basis set is 6-311+G(2df,2pd)
 There are 72 shells and 214 basis functions

 Total QAlloc Memory Limit   2000 MB
 Mega-Array Size       188 MB
 MEM_STATIC part       192 MB

                       Distance Matrix (Angstroms)
             C (  1)   C (  2)   H (  3)   H (  4)   H (  5)   C (  6)
   C (  2)  1.524047
   H (  3)  1.092245  2.158902
   H (  4)  1.091491  2.178047  1.761364
   H (  5)  1.090469  2.176472  1.763641  1.764060
   C (  6)  2.534260  1.524047  2.655349  2.948373  3.466314
   H (  7)  2.141049  1.092510  2.600248  3.047234  2.387932  2.141049
   H (  8)  2.160838  1.092673  3.054003  2.439797  2.616073  2.160838
   H (  9)  2.655352  2.158903  2.311480  3.153495  3.603462  1.092245
   H ( 10)  3.466315  2.176471  3.603462  3.969520  4.271943  1.090469
   H ( 11)  2.948369  2.178046  3.153485  2.960051  3.969517  1.091491
             H (  7)   H (  8)   H (  9)   H ( 10)
   H (  8)  1.747832
   H (  9)  2.600246  3.054004
   H ( 10)  2.387934  2.616069  1.763641
   H ( 11)  3.047235  2.439799  1.761364  1.764060
 
 A cutoff of  1.0D-09 yielded   2529 shell pairs
 There are     22537 function pairs (     27716 Cartesian)
 Smallest overlap matrix eigenvalue = 8.51E-05

 Scale SEOQF with 1.000000e-01/1.000000e-01/1.000000e-01

 Standard Electronic Orientation quadrupole field applied
 Nucleus-field energy     =     0.0000000006 hartrees
 Requested basis set is 6-31G(d)
 There are 28 shells and 58 basis functions
 A cutoff of  1.0D-09 yielded    402 shell pairs
 There are      1773 function pairs (      1968 Cartesian)
 Smallest overlap matrix eigenvalue = 6.64E-03
 Guess from superposition of atomic densities
 Warning:  Energy on first SCF cycle will be non-variational
 SAD guess density has 26.000000 electrons
 Long-range K will be added via erf
 Coulomb attenuation parameter = 0.2 bohr**(-1)
 A restricted hybrid HF-DFT SCF calculation will be
 performed using Relaxed Constraint Minimization + Pulay DIIS
 Exchange:     0.2220 Hartree-Fock + 1.0000 wB97X-D + LR-HF
 Correlation:  1.0000 wB97X-D
 Using Euler-Maclaurin-Lebedev (75,302) quadrature formula
 Dispersion:   Grimme D
 SCF converges when DIIS error is below 1.0E-04
 using 3 threads for integral computing
 -------------------------------------------------------
 OpenMP Integral computing Module                
 Release: version 1.0, May 2013, Q-Chem Inc. Pittsburgh 
 -------------------------------------------------------
 using 3 threads for integral computing
 -------------------------------------------------------
 OpenMP Integral computing Module                
 Release: version 1.0, May 2013, Q-Chem Inc. Pittsburgh 
 -------------------------------------------------------
 ---------------------------------------
  Cycle       Energy         DIIS Error
 ---------------------------------------
    1    -119.6212545398      1.00E-01
    2    -119.0645351746      9.01E-03
    3    -119.0856378560      2.46E-03
    4    -119.0995339345      1.68E-03
    5    -119.1002300838      2.66E-04 Done RCA. Switching to DIIS
    6    -119.1007402320      1.97E-04
    7    -119.1007570655      4.42E-06 Convergence criterion met
 ---------------------------------------
 SCF time:  CPU 18.29 s  wall 6.53 s
 SCF   energy in the small basis set = -119.10075707
 Total energy in the small basis set = -119.10075707
 ----------------------------------------------------
  Cycle       Energy    
 ----------------------------------------------------
    1     -16.5410040783     -1.65E+01
 Long-range K will be added via erf
 Coulomb attenuation parameter = 0.2 bohr**(-1)
 A restricted hybrid HF-DFT SCF calculation will be
 performed using Relaxed Constraint Minimization + Pulay DIIS
 Exchange:     0.2220 Hartree-Fock + 1.0000 wB97X-D + LR-HF
 Correlation:  1.0000 wB97X-D
 Using Euler-Maclaurin-Lebedev (75,302) quadrature formula
 Dispersion:   Grimme D
 SCF converges when DIIS error is below 1.0E-05
 Basis2 calculation detected. Using small basis as guess for larger.
 SCFMinFind is unable to tell whether the solution found is close.
 Resetting ReadMinima to 0 and attempting to follow guess.
 SCFMinFind following SCF Guess.
 using 3 threads for integral computing
 -------------------------------------------------------
 OpenMP Integral computing Module                
 Release: version 1.0, May 2013, Q-Chem Inc. Pittsburgh 
 -------------------------------------------------------
 using 3 threads for integral computing
 -------------------------------------------------------
 OpenMP Integral computing Module                
 Release: version 1.0, May 2013, Q-Chem Inc. Pittsburgh 
 -------------------------------------------------------
 ---------------------------------------
  Cycle       Energy         DIIS Error
 ---------------------------------------
    1    -119.1199404693      4.21E-03
    2    -119.1419699382      5.97E-04 Done RCA. Switching to DIIS
    3    -119.1428015188      4.19E-04
    4    -119.1437623570      4.55E-05
    5    -119.1437770750      1.01E-05
    6    -119.1437777602      3.90E-06 Convergence criterion met
 ---------------------------------------
 SCF time:  CPU 50.94 s  wall 17.24 s
 SCF   energy in the final basis set = -119.14377776
 Total energy in the final basis set = -119.14377776
 
 --------------------------------------------------------------
 
                    Orbital Energies (a.u.)
 --------------------------------------------------------------
 
 Alpha MOs
 -- Occupied --
-10.2736 -10.2648 -10.2648  -0.8812  -0.7768  -0.6778  -0.5456  -0.5253
 -0.4814  -0.4639  -0.4189  -0.4179  -0.4053
 -- Virtual --
  0.0699   0.0865   0.0914   0.0997   0.1246   0.1301   0.1331   0.1385
  0.1460   0.1693   0.1730   0.1904   0.2172   0.2386   0.2496   0.2717
  0.2852   0.2915   0.3134   0.3134   0.3392   0.3538   0.4549   0.4715
  0.4740   0.5031   0.5115   0.5174   0.5402   0.5597   0.5867   0.5924
  0.6169   0.6250   0.6294   0.6345   0.6573   0.6582   0.7097   0.7147
  0.7306   0.7583   0.8429   0.8715   0.8734   0.8755   0.9083   0.9644
  0.9858   1.0083   1.0885   1.1190   1.1516   1.1981   1.2058   1.2142
  1.2406   1.2465   1.2598   1.2702   1.2922   1.3048   1.3280   1.3413
  1.3787   1.3960   1.4315   1.4450   1.4533   1.4537   1.4710   1.4968
  1.5197   1.5667   1.5937   1.6076   1.6297   1.6393   1.6729   1.7158
  1.7338   2.3854   2.3952   2.4706   2.4944   2.5687   2.5801   2.5822
  2.6458   2.7141   2.7921   2.8177   2.8440   2.8995   2.9245   2.9312
  2.9442   2.9534   3.0142   3.0156   3.0504   3.0550   3.0826   3.1011
  3.1437   3.1450   3.1520   3.1846   3.2031   3.2444   3.2796   3.2979
  3.3181   3.3202   3.3437   3.3453   3.3931   3.3938   3.4109   3.4403
  3.4677   3.4739   3.4930   3.5235   3.5660   3.5856   3.5997   3.6254
  3.6384   3.6794   3.6881   3.6984   3.7715   3.7845   3.8360   3.8946
  3.8986   3.9179   3.9368   3.9559   4.0048   4.0167   4.0553   4.0846
  4.0943   4.0949   4.1082   4.1357   4.1478   4.1740   4.2112   4.2133
  4.2214   4.2602   4.2631   4.3523   4.3748   4.4093   4.4238   4.4270
  4.4760   4.5355   4.5578   4.6082   4.6519   4.8194   4.8244   4.9186
  4.9349   4.9369   4.9780   5.0063   5.0290   5.0392   5.0751   5.0943
  5.1037   5.2340   5.2458   5.2500   5.2720   5.3316   5.3561   5.3661
  5.3789   5.3875   5.4442   5.4973   5.5207   5.5420   5.6283   5.7459
  5.9501   6.3708   6.3837   6.3867   6.4111   6.4848  25.1662  25.4425
 25.4429
 --------------------------------------------------------------
 
 -----------------------------------------------------------------
                    Cartesian Multipole Moments
 -----------------------------------------------------------------
    Charge (ESU x 10^10)
                -0.0000
    Dipole Moment (Debye)
         X      -0.0000      Y       0.0059      Z      -0.0870
       Tot       0.0872
    Quadrupole Moments (Debye-Ang)
        XX     -22.2037     XY      -0.0000     YY     -21.3392
        XZ      -0.0000     YZ       0.0680     ZZ     -21.8422
    Octopole Moments (Debye-Ang^2)
       XXX      -0.0000    XXY      -0.3022    XYY       0.0000
       YYY       0.2431    XXZ      -1.4769    XYZ       0.0000
       YYZ       0.3488    XZZ      -0.0000    YZZ      -0.5883
       ZZZ      -0.3868
    Hexadecapole Moments (Debye-Ang^3)
      XXXX    -203.0747   XXXY      -0.0001   XXYY     -41.7273
      XYYY      -0.0000   YYYY     -44.5868   XXXZ       0.0000
      XXYZ       1.9748   XYYZ      -0.0000   YYYZ       1.6021
      XXZZ     -45.3388   XYZZ      -0.0000   YYZZ     -17.2427
      XZZZ      -0.0000   YZZZ       1.6026   ZZZZ     -71.5146
 -----------------------------------------------------------------
Archival summary:
1\1\centos77-c1\SP\ProcedureUnspecified\BasisUnspecified\38\shihchen\ThuJul204:11:472020ThuJul204:11:472020\0\\#,ProcedureUnspecified,BasisUnspecified,\\0,1\C\H,1,1.09251\H,1,1.09267,2,106.233\C,1,1.52405,2,108.702,3,-118.625,0\H,4,1.09047,1,111.63,2,41.231,0\H,4,1.09149,1,111.694,2,162.127,0\H,4,1.09224,1,110.118,2,-78.4732,0\C,1,1.52405,2,108.702,3,118.625,0\H,8,1.09047,1,111.63,2,-41.2315,0\H,8,1.09149,1,111.694,2,-162.127,0\H,8,1.09224,1,110.118,2,78.4728,0\\\@

 Total job time:  26.71s(wall), 72.88s(cpu) 
 Thu Jul  2 04:11:47 2020

        *************************************************************
        *                                                           *
        *  Thank you very much for using Q-Chem.  Have a nice day.  *
        *                                                           *
        *************************************************************


