                  Welcome to Q-Chem
     A Quantum Leap Into The Future Of Chemistry


 Q-Chem 5.3 (devel), Q-Chem, Inc., Pleasanton, CA (2020)

 Yihan Shao,  Zhengting Gan,  E. Epifanovsky,  A. T. B. Gilbert,  M. Wormit,  
 J. Kussmann,  A. W. Lange,  A. Behn,  Jia Deng,  Xintian Feng,  D. Ghosh,  
 M. Goldey,  P. R. Horn,  L. D. Jacobson,  I. Kaliman,  T. Kus,  A. Landau,  
 Jie Liu,  E. I. Proynov,  R. M. Richard,  R. P. Steele,  E. J. Sundstrom,  
 H. L. Woodcock III,  P. M. Zimmerman,  D. Zuev,  B. Alam,  B. Albrecht,  
 E. Alguire,  S. A. Baeppler,  D. Barton,  Z. Benda,  Y. A. Bernard,  
 E. J. Berquist,  K. B. Bravaya,  H. Burton,  K. Carter-Fenk,  D. Casanova,  
 Chun-Min Chang,  Yunqing Chen,  A. Chien,  K. D. Closser,  M. P. Coons,  
 S. Coriani,  S. Dasgupta,  A. L. Dempwolff,  M. Diedenhofen,  Hainam Do,  
 R. G. Edgar,  Po-Tung Fang,  S. Faraji,  S. Fatehi,  Qingguo Feng,  
 J. Fosso-Tande,  J. Gayvert,  Qinghui Ge,  A. Ghysels,  G. Gidofalvi,  
 J. Gomes,  J. Gonthier,  A. Gunina,  D. Hait,  M. W. D. Hanson-Heine,  
 P. H. P. Harbach,  A. W. Hauser,  M. F. Herbst,  J. E. Herr,  
 E. G. Hohenstein,  Z. C. Holden,  Kerwin Hui,  B. C. Huynh,  T.-C. Jagau,  
 Hyunjun Ji,  B. Kaduk,  K. Khistyaev,  Jaehoon Kim,  P. Klunzinger,  K. Koh,  
 D. Kosenkov,  L. Koulias,  T. Kowalczyk,  C. M. Krauter,  A. Kunitsa,  
 Ka Un Lao,  A. Laurent,  K. V. Lawler,  Joonho Lee,  D. Lefrancois,  
 S. Lehtola,  D. S. Levine,  Yi-Pei Li,  You-Sheng Lin,  Fenglai Liu,  
 Kuan-Yu Liu,  E. Livshits,  M. Loipersberger,  A. Luenser,  P. Manohar,  
 E. Mansoor,  S. F. Manzer,  Shan-Ping Mao,  Yuezhi Mao,  N. Mardirossian,  
 A. V. Marenich,  T. Markovich,  L. A. Martinez-Martinez,  S. A. Maurer,  
 N. J. Mayhall,  S. C. McKenzie,  J.-M. Mewes,  P. Morgante,  A. F. Morrison,  
 J. W. Mullinax,  K. Nanda,  T. S. Nguyen-Beck,  R. Olivares-Amaya,  
 K. J. Oosterbaan,  J. A. Parkhill,  S. K. Paul,  F. Pavosevic,  Zheng Pei,  
 T. M. Perrine,  F. Plasser,  P. Pokhilko,  S. Prager,  A. Prociuk,  
 E. Ramos,  B. Rana,  D. R. Rehn,  F. Rob,  M. Scheurer,  M. Schneider,  
 N. Sergueev,  S. M. Sharada,  S. Sharma,  D. W. Small,  T. Stauch,  
 C. J. Stein,  T. Stein,  Yu-Chuan Su,  S. P. Veccham,  Zhen Tao,  
 A. J. W. Thom,  A. Tkatchenko,  T. Tsuchimochi,  N. M. Tubman,  L. Vogt,  
 M. L. Vidal,  O. Vydrov,  M. A. Watson,  J. Wenzel,  M. de Wergifosse,  
 T. A. Wesolowski,  A. White,  J. Witte,  A. Yamada,  Jun Yang,  K. Yao,  
 S. Yeganeh,  S. R. Yost,  Zhi-Qiang You,  A. Zech,  Igor Ying Zhang,  
 Xing Zhang,  Yan Zhao,  Ying Zhu,  B. R. Brooks,  G. K. L. Chan,  
 C. J. Cramer,  M. S. Gordon,  W. J. Hehre,  A. Klamt,  M. W. Schmidt,  
 C. D. Sherrill,  D. G. Truhlar,  A. Aspuru-Guzik,  R. Baer,  A. T. Bell,  
 N. A. Besley,  Jeng-Da Chai,  A. E. DePrince, III,  R. A. DiStasio Jr.,  
 A. Dreuw,  B. D. Dunietz,  T. R. Furlani,  Chao-Ping Hsu,  Yousung Jung,  
 Jing Kong,  D. S. Lambrecht,  WanZhen Liang,  C. Ochsenfeld,  
 V. A. Rassolov,  L. V. Slipchenko,  J. E. Subotnik,  T. Van Voorhis,  
 J. M. Herbert,  A. I. Krylov,  P. M. W. Gill,  M. Head-Gordon

 Contributors to earlier versions of Q-Chem not listed above: 
 R. D. Adamson,  B. Austin,  J. Baker,  G. J. O. Beran,  K. Brandhorst,  
 S. T. Brown,  E. F. C. Byrd,  A. K. Chakraborty,  C.-L. Cheng,  
 Siu Hung Chien,  D. M. Chipman,  D. L. Crittenden,  H. Dachsel,  
 R. J. Doerksen,  A. D. Dutoi,  L. Fusti-Molnar,  W. A. Goddard III,  
 A. Golubeva-Zadorozhnaya,  S. R. Gwaltney,  G. Hawkins,  A. Heyden,  
 S. Hirata,  G. Kedziora,  F. J. Keil,  C. Kelley,  Jihan Kim,  R. A. King,  
 R. Z. Khaliullin,  P. P. Korambath,  W. Kurlancheek,  A. M. Lee,  M. S. Lee,  
 S. V. Levchenko,  Ching Yeh Lin,  D. Liotard,  R. C. Lochan,  I. Lotan,  
 P. E. Maslen,  N. Nair,  D. P. O'Neill,  D. Neuhauser,  E. Neuscamman,  
 C. M. Oana,  R. Olson,  B. Peters,  R. Peverati,  P. A. Pieniazek,  
 Y. M. Rhee,  J. Ritchie,  M. A. Rohrdanz,  E. Rosta,  N. J. Russ,  
 H. F. Schaefer III,  N. E. Schultz,  N. Shenvi,  A. C. Simmonett,  A. Sodt,  
 D. Stuck,  K. S. Thanthiriwatte,  V. Vanovschi,  Tao Wang,  A. Warshel,  
 C. F. Williams,  Q. Wu,  X. Xu,  W. Zhang

 Please cite Q-Chem as follows:
 Y. Shao et al., Mol. Phys. 113, 184-215 (2015)
 DOI: 10.1080/00268976.2014.952696

 Q-Chem 5.3.0 for Intel X86 EM64T Linux

 Parts of Q-Chem use Armadillo 9.800.1 (Horizon Scraper).
 http://arma.sourceforge.net/

 Q-Chem begins on Tue Jul  7 01:13:33 2020  

Host: centos77-c4
0

     Scratch files written to /tmp/26963.centos77-h1/qchem98095//
Processing $rem in /opt/qchem-5.3.0-intel2020u1//config/preferences:
Processing $rem in /home/shihchengli/.qchemrc:

Checking the input file for inconsistencies... 	...done.

--------------------------------------------------------------
User input:
--------------------------------------------------------------
$rem
   JOBTYPE  sp
   EXCHANGE   omegaB97X-D
   BASIS   6-311+G(2df,2pd)
   UNRESTRICTED   False
   max_scf_cycles   250
   geom_opt_max_cycles   1500
   basis2 6-31G*
   scf_algorithm rca_diis
   SYM_IGNORE  TRUE
   print_input   true
   geom_opt_dmax   80
   pop_mulliken false
   XC_GRID 000075000302
$end

$molecule
0 1
C       1.2390094118     -0.0000002175     0.3605003608
C       0.0000000603     0.0000002986     -0.6468543227
H       1.4588054577     -0.8987977827     0.9349949292
H       1.4588051119     0.8987975748     0.9349947417
H       1.9892524970     0.0000002167     -0.4393485799
C       -1.2390095681     -0.0000001970     0.3605006147
H       -0.0000002930     -0.8798803368     -1.2971916773
H       0.0000000851     0.8798805362     -1.2971922171
H       -1.4588054236     -0.8987978201     0.9349951181
H       -1.9892520479     0.0000007273     -0.4393487773
H       -1.4588053519     0.8987976666     0.9349948288
$end
--------------------------------------------------------------
 ----------------------------------------------------------------
             Standard Nuclear Orientation (Angstroms)
    I     Atom           X                Y                Z
 ----------------------------------------------------------------
    1      C       1.2390094118    -0.0000002175     0.3605003608
    2      C       0.0000000603     0.0000002986    -0.6468543227
    3      H       1.4588054577    -0.8987977827     0.9349949292
    4      H       1.4588051119     0.8987975748     0.9349947417
    5      H       1.9892524970     0.0000002167    -0.4393485799
    6      C      -1.2390095681    -0.0000001970     0.3605006147
    7      H      -0.0000002930    -0.8798803368    -1.2971916773
    8      H       0.0000000851     0.8798805362    -1.2971922171
    9      H      -1.4588054236    -0.8987978201     0.9349951181
   10      H      -1.9892520479     0.0000007273    -0.4393487773
   11      H      -1.4588053519     0.8987976666     0.9349948288
 ----------------------------------------------------------------
 Nuclear Repulsion Energy =          81.18911902 hartrees
 There are       13 alpha and       13 beta electrons
 Requested basis set is 6-311+G(2df,2pd)
 There are 72 shells and 214 basis functions

 Total QAlloc Memory Limit   2000 MB
 Mega-Array Size       188 MB
 MEM_STATIC part       192 MB

                       Distance Matrix (Angstroms)
             C (  1)   C (  2)   H (  3)   H (  4)   H (  5)   C (  6)
   C (  2)  1.596843
   H (  3)  1.089124  2.331994
   H (  4)  1.089124  2.331994  1.797595
   H (  5)  1.096642  2.000046  1.725698  1.725697
   C (  6)  2.478019  1.596843  2.901049  2.901049  3.325874
   H (  7)  2.248839  1.094134  2.666670  3.205381  2.338207  2.248839
   H (  8)  2.248839  1.094134  3.205381  2.666670  2.338207  2.248840
   H (  9)  2.901049  2.331995  2.917611  3.426923  3.819131  1.089124
   H ( 10)  3.325873  2.000046  3.819131  3.819130  3.978505  1.096642
   H ( 11)  2.901049  2.331994  3.426923  2.917610  3.819131  1.089124
             H (  7)   H (  8)   H (  9)   H ( 10)
   H (  8)  1.759761
   H (  9)  2.666670  3.205381
   H ( 10)  2.338206  2.338206  1.725698
   H ( 11)  3.205381  2.666670  1.797595  1.725697
 
 A cutoff of  1.0D-09 yielded   2520 shell pairs
 There are     22534 function pairs (     27745 Cartesian)
 Smallest overlap matrix eigenvalue = 1.06E-04

 Scale SEOQF with 1.000000e-01/1.000000e-01/1.000000e-01

 Standard Electronic Orientation quadrupole field applied
 Nucleus-field energy     =     0.0000000004 hartrees
 Requested basis set is 6-31G(d)
 There are 28 shells and 58 basis functions
 A cutoff of  1.0D-09 yielded    403 shell pairs
 There are      1774 function pairs (      1969 Cartesian)
 Smallest overlap matrix eigenvalue = 7.31E-03
 Guess from superposition of atomic densities
 Warning:  Energy on first SCF cycle will be non-variational
 SAD guess density has 26.000000 electrons
 Long-range K will be added via erf
 Coulomb attenuation parameter = 0.2 bohr**(-1)
 A restricted hybrid HF-DFT SCF calculation will be
 performed using Relaxed Constraint Minimization + Pulay DIIS
 Exchange:     0.2220 Hartree-Fock + 1.0000 wB97X-D + LR-HF
 Correlation:  1.0000 wB97X-D
 Using Euler-Maclaurin-Lebedev (75,302) quadrature formula
 Dispersion:   Grimme D
 SCF converges when DIIS error is below 1.0E-04
 using 3 threads for integral computing
 -------------------------------------------------------
 OpenMP Integral computing Module                
 Release: version 1.0, May 2013, Q-Chem Inc. Pittsburgh 
 -------------------------------------------------------
 using 3 threads for integral computing
 -------------------------------------------------------
 OpenMP Integral computing Module                
 Release: version 1.0, May 2013, Q-Chem Inc. Pittsburgh 
 -------------------------------------------------------
 ---------------------------------------
  Cycle       Energy         DIIS Error
 ---------------------------------------
    1    -119.4560343943      9.52E-02
    2    -119.0292624010      8.82E-03
    3    -119.0492089651      2.38E-03
    4    -119.0628595116      1.64E-03
    5    -119.0635071347      2.31E-04 Done RCA. Switching to DIIS
    6    -119.0640110907      1.75E-04
    7    -119.0640242638      4.68E-06 Convergence criterion met
 ---------------------------------------
 SCF time:  CPU 21.74 s  wall 8.32 s
 SCF   energy in the small basis set = -119.06402426
 Total energy in the small basis set = -119.06402426
 ----------------------------------------------------
  Cycle       Energy    
 ----------------------------------------------------
    1     -16.4866759429     -1.65E+01
 Long-range K will be added via erf
 Coulomb attenuation parameter = 0.2 bohr**(-1)
 A restricted hybrid HF-DFT SCF calculation will be
 performed using Relaxed Constraint Minimization + Pulay DIIS
 Exchange:     0.2220 Hartree-Fock + 1.0000 wB97X-D + LR-HF
 Correlation:  1.0000 wB97X-D
 Using Euler-Maclaurin-Lebedev (75,302) quadrature formula
 Dispersion:   Grimme D
 SCF converges when DIIS error is below 1.0E-05
 Basis2 calculation detected. Using small basis as guess for larger.
 SCFMinFind is unable to tell whether the solution found is close.
 Resetting ReadMinima to 0 and attempting to follow guess.
 SCFMinFind following SCF Guess.
 using 3 threads for integral computing
 -------------------------------------------------------
 OpenMP Integral computing Module                
 Release: version 1.0, May 2013, Q-Chem Inc. Pittsburgh 
 -------------------------------------------------------
 using 3 threads for integral computing
 -------------------------------------------------------
 OpenMP Integral computing Module                
 Release: version 1.0, May 2013, Q-Chem Inc. Pittsburgh 
 -------------------------------------------------------
 ---------------------------------------
  Cycle       Energy         DIIS Error
 ---------------------------------------
    1    -119.0834172564      4.22E-03
    2    -119.1055319039      6.21E-04 Done RCA. Switching to DIIS
    3    -119.1064056093      4.41E-04
    4    -119.1074796844      4.73E-05
    5    -119.1074957654      9.26E-06 Convergence criterion met
 ---------------------------------------
 SCF time:  CPU 41.85 s  wall 13.97 s
 SCF   energy in the final basis set = -119.10749577
 Total energy in the final basis set = -119.10749577
 
 --------------------------------------------------------------
 
                    Orbital Energies (a.u.)
 --------------------------------------------------------------
 
 Alpha MOs
 -- Occupied --
-10.2918 -10.2653 -10.2653  -0.8670  -0.7712  -0.6849  -0.5377  -0.4971
 -0.4899  -0.4692  -0.4427  -0.4268  -0.3534
 -- Virtual --
  0.0672   0.0848   0.0875   0.1013   0.1266   0.1306   0.1327   0.1340
  0.1454   0.1693   0.1701   0.1903   0.2243   0.2391   0.2455   0.2663
  0.2811   0.2847   0.2973   0.3072   0.3367   0.3450   0.4440   0.4597
  0.4773   0.5098   0.5192   0.5323   0.5508   0.5589   0.5873   0.5885
  0.5964   0.5977   0.6493   0.6555   0.6691   0.6772   0.7021   0.7217
  0.7318   0.7689   0.7742   0.8209   0.8634   0.8934   0.9288   0.9507
  0.9921   1.0361   1.0457   1.1443   1.1544   1.1804   1.1923   1.1973
  1.2059   1.2234   1.2442   1.2489   1.2629   1.3036   1.3158   1.3590
  1.3967   1.4336   1.4365   1.4504   1.4609   1.4861   1.4892   1.5031
  1.5097   1.5382   1.5787   1.6023   1.6238   1.6454   1.6740   1.6995
  1.7087   2.3771   2.3941   2.4714   2.5033   2.5326   2.5508   2.5913
  2.6410   2.6585   2.7689   2.7727   2.7927   2.8478   2.8515   2.9376
  2.9386   2.9410   3.0080   3.0413   3.0477   3.0665   3.0750   3.1056
  3.1142   3.1761   3.1833   3.1956   3.2070   3.2254   3.2645   3.2860
  3.3226   3.3345   3.3482   3.3564   3.3697   3.3797   3.3928   3.3994
  3.4313   3.4820   3.5159   3.5446   3.5792   3.5799   3.5821   3.6239
  3.6363   3.6452   3.6514   3.6636   3.7513   3.7635   3.8037   3.8291
  3.8545   3.8653   3.8725   3.9346   3.9491   3.9731   4.0227   4.0369
  4.0854   4.0884   4.0966   4.1108   4.1236   4.1364   4.1759   4.1921
  4.2127   4.2469   4.2480   4.2756   4.2820   4.3742   4.4189   4.4426
  4.4945   4.5096   4.5365   4.5806   4.6903   4.7782   4.8269   4.8643
  4.8791   4.8904   4.9017   4.9749   5.0064   5.0600   5.1049   5.1256
  5.1475   5.1729   5.1970   5.2046   5.2929   5.3087   5.3277   5.3968
  5.3975   5.4145   5.4518   5.4632   5.4740   5.4789   5.5524   5.5701
  5.8321   6.3525   6.3925   6.4271   6.4337   6.4400  25.0849  25.3752
 25.4285
 --------------------------------------------------------------
 
 -----------------------------------------------------------------
                    Cartesian Multipole Moments
 -----------------------------------------------------------------
    Charge (ESU x 10^10)
                -0.0000
    Dipole Moment (Debye)
         X       0.0000      Y       0.0000      Z      -0.2878
       Tot       0.2878
    Quadrupole Moments (Debye-Ang)
        XX     -23.3891     XY      -0.0000     YY     -21.0744
        XZ       0.0000     YZ      -0.0000     ZZ     -21.1118
    Octopole Moments (Debye-Ang^2)
       XXX       0.0000    XXY       0.0000    XYY      -0.0000
       YYY      -0.0000    XXZ      -0.0594    XYZ       0.0000
       YYZ      -0.0851    XZZ      -0.0000    YZZ      -0.0000
       ZZZ      -3.1391
    Hexadecapole Moments (Debye-Ang^3)
      XXXX    -217.2894   XXXY      -0.0000   XXYY     -40.1748
      XYYY       0.0000   YYYY     -43.6957   XXXZ       0.0000
      XXYZ      -0.0000   XYYZ       0.0000   YYYZ       0.0000
      XXZZ     -44.5646   XYZZ       0.0000   YYZZ     -17.7265
      XZZZ       0.0000   YZZZ      -0.0000   ZZZZ     -78.9983
 -----------------------------------------------------------------
Archival summary:
1\1\centos77-c4\SP\ProcedureUnspecified\BasisUnspecified\38\shihchen\TueJul701:13:582020TueJul701:13:582020\0\\#,ProcedureUnspecified,BasisUnspecified,\\0,1\C\H,1,1.09413\H,1,1.09413,2,107.062\C,1,1.59684,2,112.022,3,-123.178,0\H,4,1.08912,1,119.298,2,-48.6982,0\H,4,1.08912,1,119.297,2,169.03,0\H,4,1.09664,1,94.0548,2,60.1661,0\C,1,1.59684,2,112.022,3,123.178,0\H,8,1.08912,1,119.298,2,48.6982,0\H,8,1.08912,1,119.297,2,-169.03,0\H,8,1.09664,1,94.0548,2,-60.1661,0\\\@

 Total job time:  25.13s(wall), 67.10s(cpu) 
 Tue Jul  7 01:13:58 2020

        *************************************************************
        *                                                           *
        *  Thank you very much for using Q-Chem.  Have a nice day.  *
        *                                                           *
        *************************************************************


