                  Welcome to Q-Chem
     A Quantum Leap Into The Future Of Chemistry


 Q-Chem 5.3 (devel), Q-Chem, Inc., Pleasanton, CA (2020)

 Yihan Shao,  Zhengting Gan,  E. Epifanovsky,  A. T. B. Gilbert,  M. Wormit,  
 J. Kussmann,  A. W. Lange,  A. Behn,  Jia Deng,  Xintian Feng,  D. Ghosh,  
 M. Goldey,  P. R. Horn,  L. D. Jacobson,  I. Kaliman,  T. Kus,  A. Landau,  
 Jie Liu,  E. I. Proynov,  R. M. Richard,  R. P. Steele,  E. J. Sundstrom,  
 H. L. Woodcock III,  P. M. Zimmerman,  D. Zuev,  B. Alam,  B. Albrecht,  
 E. Alguire,  S. A. Baeppler,  D. Barton,  Z. Benda,  Y. A. Bernard,  
 E. J. Berquist,  K. B. Bravaya,  H. Burton,  K. Carter-Fenk,  D. Casanova,  
 Chun-Min Chang,  Yunqing Chen,  A. Chien,  K. D. Closser,  M. P. Coons,  
 S. Coriani,  S. Dasgupta,  A. L. Dempwolff,  M. Diedenhofen,  Hainam Do,  
 R. G. Edgar,  Po-Tung Fang,  S. Faraji,  S. Fatehi,  Qingguo Feng,  
 J. Fosso-Tande,  J. Gayvert,  Qinghui Ge,  A. Ghysels,  G. Gidofalvi,  
 J. Gomes,  J. Gonthier,  A. Gunina,  D. Hait,  M. W. D. Hanson-Heine,  
 P. H. P. Harbach,  A. W. Hauser,  M. F. Herbst,  J. E. Herr,  
 E. G. Hohenstein,  Z. C. Holden,  Kerwin Hui,  B. C. Huynh,  T.-C. Jagau,  
 Hyunjun Ji,  B. Kaduk,  K. Khistyaev,  Jaehoon Kim,  P. Klunzinger,  K. Koh,  
 D. Kosenkov,  L. Koulias,  T. Kowalczyk,  C. M. Krauter,  A. Kunitsa,  
 Ka Un Lao,  A. Laurent,  K. V. Lawler,  Joonho Lee,  D. Lefrancois,  
 S. Lehtola,  D. S. Levine,  Yi-Pei Li,  You-Sheng Lin,  Fenglai Liu,  
 Kuan-Yu Liu,  E. Livshits,  M. Loipersberger,  A. Luenser,  P. Manohar,  
 E. Mansoor,  S. F. Manzer,  Shan-Ping Mao,  Yuezhi Mao,  N. Mardirossian,  
 A. V. Marenich,  T. Markovich,  L. A. Martinez-Martinez,  S. A. Maurer,  
 N. J. Mayhall,  S. C. McKenzie,  J.-M. Mewes,  P. Morgante,  A. F. Morrison,  
 J. W. Mullinax,  K. Nanda,  T. S. Nguyen-Beck,  R. Olivares-Amaya,  
 K. J. Oosterbaan,  J. A. Parkhill,  S. K. Paul,  F. Pavosevic,  Zheng Pei,  
 T. M. Perrine,  F. Plasser,  P. Pokhilko,  S. Prager,  A. Prociuk,  
 E. Ramos,  B. Rana,  D. R. Rehn,  F. Rob,  M. Scheurer,  M. Schneider,  
 N. Sergueev,  S. M. Sharada,  S. Sharma,  D. W. Small,  T. Stauch,  
 C. J. Stein,  T. Stein,  Yu-Chuan Su,  S. P. Veccham,  Zhen Tao,  
 A. J. W. Thom,  A. Tkatchenko,  T. Tsuchimochi,  N. M. Tubman,  L. Vogt,  
 M. L. Vidal,  O. Vydrov,  M. A. Watson,  J. Wenzel,  M. de Wergifosse,  
 T. A. Wesolowski,  A. White,  J. Witte,  A. Yamada,  Jun Yang,  K. Yao,  
 S. Yeganeh,  S. R. Yost,  Zhi-Qiang You,  A. Zech,  Igor Ying Zhang,  
 Xing Zhang,  Yan Zhao,  Ying Zhu,  B. R. Brooks,  G. K. L. Chan,  
 C. J. Cramer,  M. S. Gordon,  W. J. Hehre,  A. Klamt,  M. W. Schmidt,  
 C. D. Sherrill,  D. G. Truhlar,  A. Aspuru-Guzik,  R. Baer,  A. T. Bell,  
 N. A. Besley,  Jeng-Da Chai,  A. E. DePrince, III,  R. A. DiStasio Jr.,  
 A. Dreuw,  B. D. Dunietz,  T. R. Furlani,  Chao-Ping Hsu,  Yousung Jung,  
 Jing Kong,  D. S. Lambrecht,  WanZhen Liang,  C. Ochsenfeld,  
 V. A. Rassolov,  L. V. Slipchenko,  J. E. Subotnik,  T. Van Voorhis,  
 J. M. Herbert,  A. I. Krylov,  P. M. W. Gill,  M. Head-Gordon

 Contributors to earlier versions of Q-Chem not listed above: 
 R. D. Adamson,  B. Austin,  J. Baker,  G. J. O. Beran,  K. Brandhorst,  
 S. T. Brown,  E. F. C. Byrd,  A. K. Chakraborty,  C.-L. Cheng,  
 Siu Hung Chien,  D. M. Chipman,  D. L. Crittenden,  H. Dachsel,  
 R. J. Doerksen,  A. D. Dutoi,  L. Fusti-Molnar,  W. A. Goddard III,  
 A. Golubeva-Zadorozhnaya,  S. R. Gwaltney,  G. Hawkins,  A. Heyden,  
 S. Hirata,  G. Kedziora,  F. J. Keil,  C. Kelley,  Jihan Kim,  R. A. King,  
 R. Z. Khaliullin,  P. P. Korambath,  W. Kurlancheek,  A. M. Lee,  M. S. Lee,  
 S. V. Levchenko,  Ching Yeh Lin,  D. Liotard,  R. C. Lochan,  I. Lotan,  
 P. E. Maslen,  N. Nair,  D. P. O'Neill,  D. Neuhauser,  E. Neuscamman,  
 C. M. Oana,  R. Olson,  B. Peters,  R. Peverati,  P. A. Pieniazek,  
 Y. M. Rhee,  J. Ritchie,  M. A. Rohrdanz,  E. Rosta,  N. J. Russ,  
 H. F. Schaefer III,  N. E. Schultz,  N. Shenvi,  A. C. Simmonett,  A. Sodt,  
 D. Stuck,  K. S. Thanthiriwatte,  V. Vanovschi,  Tao Wang,  A. Warshel,  
 C. F. Williams,  Q. Wu,  X. Xu,  W. Zhang

 Please cite Q-Chem as follows:
 Y. Shao et al., Mol. Phys. 113, 184-215 (2015)
 DOI: 10.1080/00268976.2014.952696

 Q-Chem 5.3.0 for Intel X86 EM64T Linux

 Parts of Q-Chem use Armadillo 9.800.1 (Horizon Scraper).
 http://arma.sourceforge.net/

 Q-Chem begins on Tue Jul  7 00:55:08 2020  

Host: centos77-c4
0

     Scratch files written to /tmp/26963.centos77-h1/qchem94754//
Processing $rem in /opt/qchem-5.3.0-intel2020u1//config/preferences:
Processing $rem in /home/shihchengli/.qchemrc:

Checking the input file for inconsistencies... 	...done.

--------------------------------------------------------------
User input:
--------------------------------------------------------------
$rem
   JOBTYPE  sp
   EXCHANGE   omegaB97X-D
   BASIS   6-311+G(2df,2pd)
   UNRESTRICTED   False
   max_scf_cycles   250
   geom_opt_max_cycles   1500
   basis2 6-31G*
   scf_algorithm rca_diis
   SYM_IGNORE  TRUE
   print_input   true
   geom_opt_dmax   80
   pop_mulliken false
   XC_GRID 000075000302
$end

$molecule
0 1
C       1.1867335020     -0.0000001266     0.2637066923
C       -0.0000000041     0.0000000039     -0.4893464790
H       1.3034623740     -0.8879706926     0.8866225983
H       1.3034619331     0.8879707726     0.8866222210
H       1.9883966922     0.0000000998     -0.4745332005
C       -1.1867334192     0.0000001463     0.2637067414
H       -0.0000006109     -0.8724833731     -1.1472223841
H       0.0000001878     0.8724832816     -1.1472225160
H       -1.3034619288     -0.8879708881     0.8866220291
H       -1.9883964405     0.0000006936     -0.4745333415
H       -1.3034623463     0.8879707487     0.8866226579
$end
--------------------------------------------------------------
 ----------------------------------------------------------------
             Standard Nuclear Orientation (Angstroms)
    I     Atom           X                Y                Z
 ----------------------------------------------------------------
    1      C       1.1867335020    -0.0000001266     0.2637066923
    2      C      -0.0000000041     0.0000000039    -0.4893464790
    3      H       1.3034623740    -0.8879706926     0.8866225983
    4      H       1.3034619331     0.8879707726     0.8866222210
    5      H       1.9883966922     0.0000000998    -0.4745332005
    6      C      -1.1867334192     0.0000001463     0.2637067414
    7      H      -0.0000006109    -0.8724833731    -1.1472223841
    8      H       0.0000001878     0.8724832816    -1.1472225160
    9      H      -1.3034619288    -0.8879708881     0.8866220291
   10      H      -1.9883964405     0.0000006936    -0.4745333415
   11      H      -1.3034623463     0.8879707487     0.8866226579
 ----------------------------------------------------------------
 Nuclear Repulsion Energy =          86.58835970 hartrees
 There are       13 alpha and       13 beta electrons
 Requested basis set is 6-311+G(2df,2pd)
 There are 72 shells and 214 basis functions

 Total QAlloc Memory Limit   2000 MB
 Mega-Array Size       188 MB
 MEM_STATIC part       192 MB

                       Distance Matrix (Angstroms)
             C (  1)   C (  2)   H (  3)   H (  4)   H (  5)   C (  6)
   C (  2)  1.405498
   H (  3)  1.090936  2.093035
   H (  4)  1.090936  2.093035  1.775941
   H (  5)  1.089799  1.988452  1.763625  1.763625
   C (  6)  2.373467  1.405498  2.716172  2.716172  3.259824
   H (  7)  2.039678  1.092716  2.415736  2.989103  2.273205  2.039677
   H (  8)  2.039678  1.092716  2.989103  2.415735  2.273204  2.039678
   H (  9)  2.716172  2.093035  2.606924  3.154365  3.671181  1.090936
   H ( 10)  3.259823  1.988452  3.671181  3.671181  3.976793  1.089799
   H ( 11)  2.716172  2.093035  3.154366  2.606924  3.671181  1.090936
             H (  7)   H (  8)   H (  9)   H ( 10)
   H (  8)  1.744967
   H (  9)  2.415735  2.989103
   H ( 10)  2.273204  2.273204  1.763625
   H ( 11)  2.989103  2.415736  1.775942  1.763624
 
 A cutoff of  1.0D-09 yielded   2550 shell pairs
 There are     22712 function pairs (     27939 Cartesian)
 Smallest overlap matrix eigenvalue = 5.34E-05

 Scale SEOQF with 1.000000e-01/1.000000e-01/1.000000e-01

 Standard Electronic Orientation quadrupole field applied
 Nucleus-field energy     =     0.0000000006 hartrees
 Requested basis set is 6-31G(d)
 There are 28 shells and 58 basis functions
 A cutoff of  1.0D-09 yielded    403 shell pairs
 There are      1774 function pairs (      1969 Cartesian)
 Smallest overlap matrix eigenvalue = 4.49E-03
 Guess from superposition of atomic densities
 Warning:  Energy on first SCF cycle will be non-variational
 SAD guess density has 26.000000 electrons
 Long-range K will be added via erf
 Coulomb attenuation parameter = 0.2 bohr**(-1)
 A restricted hybrid HF-DFT SCF calculation will be
 performed using Relaxed Constraint Minimization + Pulay DIIS
 Exchange:     0.2220 Hartree-Fock + 1.0000 wB97X-D + LR-HF
 Correlation:  1.0000 wB97X-D
 Using Euler-Maclaurin-Lebedev (75,302) quadrature formula
 Dispersion:   Grimme D
 SCF converges when DIIS error is below 1.0E-04
 using 3 threads for integral computing
 -------------------------------------------------------
 OpenMP Integral computing Module                
 Release: version 1.0, May 2013, Q-Chem Inc. Pittsburgh 
 -------------------------------------------------------
 using 3 threads for integral computing
 -------------------------------------------------------
 OpenMP Integral computing Module                
 Release: version 1.0, May 2013, Q-Chem Inc. Pittsburgh 
 -------------------------------------------------------
 ---------------------------------------
  Cycle       Energy         DIIS Error
 ---------------------------------------
    1    -119.9994580542      1.13E-01
    2    -119.0283488942      1.07E-02
    3    -119.0566570673      2.39E-03
    4    -119.0777625791      1.62E-03
    5    -119.0783756352      2.19E-04 Done RCA. Switching to DIIS
    6    -119.0788618499      1.60E-04
    7    -119.0788728199      4.85E-06 Convergence criterion met
 ---------------------------------------
 SCF time:  CPU 21.57 s  wall 8.10 s
 SCF   energy in the small basis set = -119.07887282
 Total energy in the small basis set = -119.07887282
 ----------------------------------------------------
  Cycle       Energy    
 ----------------------------------------------------
    1     -16.6516246602     -1.67E+01
 Long-range K will be added via erf
 Coulomb attenuation parameter = 0.2 bohr**(-1)
 A restricted hybrid HF-DFT SCF calculation will be
 performed using Relaxed Constraint Minimization + Pulay DIIS
 Exchange:     0.2220 Hartree-Fock + 1.0000 wB97X-D + LR-HF
 Correlation:  1.0000 wB97X-D
 Using Euler-Maclaurin-Lebedev (75,302) quadrature formula
 Dispersion:   Grimme D
 SCF converges when DIIS error is below 1.0E-05
 Basis2 calculation detected. Using small basis as guess for larger.
 SCFMinFind is unable to tell whether the solution found is close.
 Resetting ReadMinima to 0 and attempting to follow guess.
 SCFMinFind following SCF Guess.
 using 3 threads for integral computing
 -------------------------------------------------------
 OpenMP Integral computing Module                
 Release: version 1.0, May 2013, Q-Chem Inc. Pittsburgh 
 -------------------------------------------------------
 using 3 threads for integral computing
 -------------------------------------------------------
 OpenMP Integral computing Module                
 Release: version 1.0, May 2013, Q-Chem Inc. Pittsburgh 
 -------------------------------------------------------
 ---------------------------------------
  Cycle       Energy         DIIS Error
 ---------------------------------------
    1    -119.0999352433      4.21E-03
    2    -119.1220278217      6.15E-04 Done RCA. Switching to DIIS
    3    -119.1228215271      4.51E-04
    4    -119.1239166309      4.84E-05
    5    -119.1239328312      1.05E-05
    6    -119.1239336077      3.12E-06 Convergence criterion met
 ---------------------------------------
 SCF time:  CPU 53.82 s  wall 18.24 s
 SCF   energy in the final basis set = -119.12393361
 Total energy in the final basis set = -119.12393361
 
 --------------------------------------------------------------
 
                    Orbital Energies (a.u.)
 --------------------------------------------------------------
 
 Alpha MOs
 -- Occupied --
-10.2541 -10.2536 -10.2533  -0.9172  -0.7887  -0.6673  -0.5667  -0.5394
 -0.5046  -0.4662  -0.4175  -0.4102  -0.3949
 -- Virtual --
  0.0676   0.0882   0.0906   0.0949   0.1256   0.1301   0.1335   0.1401
  0.1431   0.1717   0.1739   0.1915   0.2349   0.2394   0.2433   0.2657
  0.2822   0.2856   0.3209   0.3222   0.3649   0.3831   0.4616   0.4692
  0.4744   0.5030   0.5042   0.5203   0.5276   0.5574   0.5766   0.5777
  0.6151   0.6560   0.6679   0.6872   0.6921   0.7129   0.7180   0.7297
  0.7465   0.7877   0.8235   0.8556   0.8695   0.8739   0.9398   0.9724
  1.0082   1.0537   1.0663   1.1505   1.1911   1.1987   1.2034   1.2192
  1.2604   1.2713   1.2891   1.3020   1.3031   1.3038   1.3741   1.3847
  1.4000   1.4409   1.4443   1.4592   1.4648   1.4682   1.4774   1.5149
  1.5252   1.5635   1.6249   1.6282   1.6372   1.6506   1.6942   1.7011
  1.7068   2.3960   2.5060   2.5397   2.5709   2.5872   2.6273   2.6390
  2.6958   2.7302   2.8264   2.8703   2.9050   2.9301   2.9430   2.9721
  2.9739   2.9777   3.0090   3.0113   3.0486   3.0583   3.0832   3.1250
  3.1335   3.1431   3.1740   3.2046   3.2055   3.2743   3.2845   3.3007
  3.3175   3.3225   3.3357   3.3741   3.3977   3.4023   3.4436   3.4688
  3.4909   3.5342   3.5647   3.5735   3.5868   3.6068   3.6400   3.6454
  3.6518   3.6838   3.7348   3.7753   3.8539   3.8866   3.8907   3.9461
  3.9545   3.9611   3.9944   4.0038   4.0321   4.0459   4.0626   4.1115
  4.1347   4.1705   4.1716   4.1757   4.2139   4.2246   4.2270   4.2395
  4.2450   4.3112   4.3298   4.4081   4.4296   4.5047   4.5060   4.5564
  4.6067   4.6224   4.6972   4.7111   4.7637   4.8049   4.8556   4.8746
  4.9423   4.9540   4.9671   5.0069   5.0549   5.0791   5.0800   5.2077
  5.2517   5.3171   5.3475   5.3665   5.3828   5.3878   5.4224   5.4348
  5.4405   5.5369   5.5576   5.6320   5.6436   5.7330   5.7685   6.0724
  6.2041   6.3995   6.4055   6.4097   6.4587   6.5024  25.2690  25.5738
 25.6894
 --------------------------------------------------------------
 
 -----------------------------------------------------------------
                    Cartesian Multipole Moments
 -----------------------------------------------------------------
    Charge (ESU x 10^10)
                -0.0000
    Dipole Moment (Debye)
         X      -0.0000      Y       0.0000      Z      -0.1684
       Tot       0.1684
    Quadrupole Moments (Debye-Ang)
        XX     -22.8030     XY      -0.0000     YY     -21.1020
        XZ       0.0000     YZ      -0.0000     ZZ     -21.7007
    Octopole Moments (Debye-Ang^2)
       XXX       0.0000    XXY       0.0000    XYY      -0.0000
       YYY      -0.0000    XXZ      -1.9253    XYZ      -0.0000
       YYZ       0.0575    XZZ      -0.0000    YZZ      -0.0000
       ZZZ      -1.9161
    Hexadecapole Moments (Debye-Ang^3)
      XXXX    -190.8904   XXXY       0.0000   XXYY     -38.5143
      XYYY       0.0000   YYYY     -43.9975   XXXZ      -0.0000
      XXYZ      -0.0000   XYYZ      -0.0000   YYYZ      -0.0000
      XXZZ     -40.4115   XYZZ       0.0000   YYZZ     -16.6324
      XZZZ       0.0000   YZZZ      -0.0000   ZZZZ     -67.2208
 -----------------------------------------------------------------
Archival summary:
1\1\centos77-c4\SP\ProcedureUnspecified\BasisUnspecified\38\shihchen\TueJul700:55:382020TueJul700:55:382020\0\\#,ProcedureUnspecified,BasisUnspecified,\\0,1\C\H,1,1.09272\H,1,1.09272,2,105.965\C,1,1.4055,2,108.819,3,116.87,0\H,4,1.0898,1,104.961,2,-57.5166,0\H,4,1.09094,1,113.346,2,60.0427,0\H,4,1.09094,1,113.346,2,-175.076,0\C,1,1.4055,2,108.819,3,-116.87,0\H,8,1.0898,1,104.961,2,57.5166,0\H,8,1.09094,1,113.346,2,-60.0427,0\H,8,1.09094,1,113.346,2,175.076,0\\\@

 Total job time:  29.38s(wall), 79.09s(cpu) 
 Tue Jul  7 00:55:38 2020

        *************************************************************
        *                                                           *
        *  Thank you very much for using Q-Chem.  Have a nice day.  *
        *                                                           *
        *************************************************************


