                  Welcome to Q-Chem
     A Quantum Leap Into The Future Of Chemistry


 Q-Chem 5.3 (devel), Q-Chem, Inc., Pleasanton, CA (2020)

 Yihan Shao,  Zhengting Gan,  E. Epifanovsky,  A. T. B. Gilbert,  M. Wormit,  
 J. Kussmann,  A. W. Lange,  A. Behn,  Jia Deng,  Xintian Feng,  D. Ghosh,  
 M. Goldey,  P. R. Horn,  L. D. Jacobson,  I. Kaliman,  T. Kus,  A. Landau,  
 Jie Liu,  E. I. Proynov,  R. M. Richard,  R. P. Steele,  E. J. Sundstrom,  
 H. L. Woodcock III,  P. M. Zimmerman,  D. Zuev,  B. Alam,  B. Albrecht,  
 E. Alguire,  S. A. Baeppler,  D. Barton,  Z. Benda,  Y. A. Bernard,  
 E. J. Berquist,  K. B. Bravaya,  H. Burton,  K. Carter-Fenk,  D. Casanova,  
 Chun-Min Chang,  Yunqing Chen,  A. Chien,  K. D. Closser,  M. P. Coons,  
 S. Coriani,  S. Dasgupta,  A. L. Dempwolff,  M. Diedenhofen,  Hainam Do,  
 R. G. Edgar,  Po-Tung Fang,  S. Faraji,  S. Fatehi,  Qingguo Feng,  
 J. Fosso-Tande,  J. Gayvert,  Qinghui Ge,  A. Ghysels,  G. Gidofalvi,  
 J. Gomes,  J. Gonthier,  A. Gunina,  D. Hait,  M. W. D. Hanson-Heine,  
 P. H. P. Harbach,  A. W. Hauser,  M. F. Herbst,  J. E. Herr,  
 E. G. Hohenstein,  Z. C. Holden,  Kerwin Hui,  B. C. Huynh,  T.-C. Jagau,  
 Hyunjun Ji,  B. Kaduk,  K. Khistyaev,  Jaehoon Kim,  P. Klunzinger,  K. Koh,  
 D. Kosenkov,  L. Koulias,  T. Kowalczyk,  C. M. Krauter,  A. Kunitsa,  
 Ka Un Lao,  A. Laurent,  K. V. Lawler,  Joonho Lee,  D. Lefrancois,  
 S. Lehtola,  D. S. Levine,  Yi-Pei Li,  You-Sheng Lin,  Fenglai Liu,  
 Kuan-Yu Liu,  E. Livshits,  M. Loipersberger,  A. Luenser,  P. Manohar,  
 E. Mansoor,  S. F. Manzer,  Shan-Ping Mao,  Yuezhi Mao,  N. Mardirossian,  
 A. V. Marenich,  T. Markovich,  L. A. Martinez-Martinez,  S. A. Maurer,  
 N. J. Mayhall,  S. C. McKenzie,  J.-M. Mewes,  P. Morgante,  A. F. Morrison,  
 J. W. Mullinax,  K. Nanda,  T. S. Nguyen-Beck,  R. Olivares-Amaya,  
 K. J. Oosterbaan,  J. A. Parkhill,  S. K. Paul,  F. Pavosevic,  Zheng Pei,  
 T. M. Perrine,  F. Plasser,  P. Pokhilko,  S. Prager,  A. Prociuk,  
 E. Ramos,  B. Rana,  D. R. Rehn,  F. Rob,  M. Scheurer,  M. Schneider,  
 N. Sergueev,  S. M. Sharada,  S. Sharma,  D. W. Small,  T. Stauch,  
 C. J. Stein,  T. Stein,  Yu-Chuan Su,  S. P. Veccham,  Zhen Tao,  
 A. J. W. Thom,  A. Tkatchenko,  T. Tsuchimochi,  N. M. Tubman,  L. Vogt,  
 M. L. Vidal,  O. Vydrov,  M. A. Watson,  J. Wenzel,  M. de Wergifosse,  
 T. A. Wesolowski,  A. White,  J. Witte,  A. Yamada,  Jun Yang,  K. Yao,  
 S. Yeganeh,  S. R. Yost,  Zhi-Qiang You,  A. Zech,  Igor Ying Zhang,  
 Xing Zhang,  Yan Zhao,  Ying Zhu,  B. R. Brooks,  G. K. L. Chan,  
 C. J. Cramer,  M. S. Gordon,  W. J. Hehre,  A. Klamt,  M. W. Schmidt,  
 C. D. Sherrill,  D. G. Truhlar,  A. Aspuru-Guzik,  R. Baer,  A. T. Bell,  
 N. A. Besley,  Jeng-Da Chai,  A. E. DePrince, III,  R. A. DiStasio Jr.,  
 A. Dreuw,  B. D. Dunietz,  T. R. Furlani,  Chao-Ping Hsu,  Yousung Jung,  
 Jing Kong,  D. S. Lambrecht,  WanZhen Liang,  C. Ochsenfeld,  
 V. A. Rassolov,  L. V. Slipchenko,  J. E. Subotnik,  T. Van Voorhis,  
 J. M. Herbert,  A. I. Krylov,  P. M. W. Gill,  M. Head-Gordon

 Contributors to earlier versions of Q-Chem not listed above: 
 R. D. Adamson,  B. Austin,  J. Baker,  G. J. O. Beran,  K. Brandhorst,  
 S. T. Brown,  E. F. C. Byrd,  A. K. Chakraborty,  C.-L. Cheng,  
 Siu Hung Chien,  D. M. Chipman,  D. L. Crittenden,  H. Dachsel,  
 R. J. Doerksen,  A. D. Dutoi,  L. Fusti-Molnar,  W. A. Goddard III,  
 A. Golubeva-Zadorozhnaya,  S. R. Gwaltney,  G. Hawkins,  A. Heyden,  
 S. Hirata,  G. Kedziora,  F. J. Keil,  C. Kelley,  Jihan Kim,  R. A. King,  
 R. Z. Khaliullin,  P. P. Korambath,  W. Kurlancheek,  A. M. Lee,  M. S. Lee,  
 S. V. Levchenko,  Ching Yeh Lin,  D. Liotard,  R. C. Lochan,  I. Lotan,  
 P. E. Maslen,  N. Nair,  D. P. O'Neill,  D. Neuhauser,  E. Neuscamman,  
 C. M. Oana,  R. Olson,  B. Peters,  R. Peverati,  P. A. Pieniazek,  
 Y. M. Rhee,  J. Ritchie,  M. A. Rohrdanz,  E. Rosta,  N. J. Russ,  
 H. F. Schaefer III,  N. E. Schultz,  N. Shenvi,  A. C. Simmonett,  A. Sodt,  
 D. Stuck,  K. S. Thanthiriwatte,  V. Vanovschi,  Tao Wang,  A. Warshel,  
 C. F. Williams,  Q. Wu,  X. Xu,  W. Zhang

 Please cite Q-Chem as follows:
 Y. Shao et al., Mol. Phys. 113, 184-215 (2015)
 DOI: 10.1080/00268976.2014.952696

 Q-Chem 5.3.0 for Intel X86 EM64T Linux

 Parts of Q-Chem use Armadillo 9.800.1 (Horizon Scraper).
 http://arma.sourceforge.net/

 Q-Chem begins on Tue Jul  7 01:47:06 2020  

Host: centos77-c4
0

     Scratch files written to /tmp/26963.centos77-h1/qchem104196//
Processing $rem in /opt/qchem-5.3.0-intel2020u1//config/preferences:
Processing $rem in /home/shihchengli/.qchemrc:

Checking the input file for inconsistencies... 	...done.

--------------------------------------------------------------
User input:
--------------------------------------------------------------
$rem
   JOBTYPE  sp
   EXCHANGE   omegaB97X-D
   BASIS   6-311+G(2df,2pd)
   UNRESTRICTED   False
   max_scf_cycles   250
   geom_opt_max_cycles   1500
   basis2 6-31G*
   scf_algorithm rca_diis
   SYM_IGNORE  TRUE
   print_input   true
   geom_opt_dmax   80
   pop_mulliken false
   XC_GRID 000075000302
$end

$molecule
0 1
C       1.2668411204     -0.0000024272     0.2590903203
C       0.0000013160     -0.0000006864     -0.5700434176
H       1.2741654216     -0.7954034578     1.0105477560
H       1.2741734982     0.7954008428     1.0105458000
H       2.1167193281     0.0000070692     -0.4158508831
C       -1.2668389493     0.0000016672     0.2590921167
H       -0.0000012062     -0.7113976678     -1.4087841419
H       -0.0000013192     0.7113967794     -1.4087836856
H       -1.2741717178     -0.7954116883     1.0105364777
H       -2.1167225363     -0.0000034702     -0.4158430225
H       -1.2741650160     0.7954137052     1.0105376990
$end
--------------------------------------------------------------
 ----------------------------------------------------------------
             Standard Nuclear Orientation (Angstroms)
    I     Atom           X                Y                Z
 ----------------------------------------------------------------
    1      C       1.2668411204    -0.0000024272     0.2590903203
    2      C       0.0000013160    -0.0000006864    -0.5700434176
    3      H       1.2741654216    -0.7954034578     1.0105477560
    4      H       1.2741734982     0.7954008428     1.0105458000
    5      H       2.1167193281     0.0000070692    -0.4158508831
    6      C      -1.2668389493     0.0000016672     0.2590921167
    7      H      -0.0000012062    -0.7113976678    -1.4087841419
    8      H      -0.0000013192     0.7113967794    -1.4087836856
    9      H      -1.2741717178    -0.7954116883     1.0105364777
   10      H      -2.1167225363    -0.0000034702    -0.4158430225
   11      H      -1.2741650160     0.7954137052     1.0105376990
 ----------------------------------------------------------------
 Nuclear Repulsion Energy =          82.86220557 hartrees
 There are       13 alpha and       13 beta electrons
 Requested basis set is 6-311+G(2df,2pd)
 There are 72 shells and 214 basis functions

 Total QAlloc Memory Limit   2000 MB
 Mega-Array Size       188 MB
 MEM_STATIC part       192 MB

                       Distance Matrix (Angstroms)
             C (  1)   C (  2)   H (  3)   H (  4)   H (  5)   C (  6)
   C (  2)  1.514049
   H (  3)  1.094260  2.180465
   H (  4)  1.094260  2.180468  1.590804
   H (  5)  1.085283  2.122327  1.837713  1.837700
   C (  6)  2.533680  1.514051  2.766597  2.766602  3.450220
   H (  7)  2.211962  1.099805  2.735640  3.122038  2.443874  2.211962
   H (  8)  2.211963  1.099805  3.122037  2.735641  2.443869  2.211961
   H (  9)  2.766603  2.180465  2.548337  3.004122  3.763697  1.094260
   H ( 10)  3.450223  2.122333  3.763691  3.763699  4.233442  1.085283
   H ( 11)  2.766599  2.180463  3.004112  2.548339  3.763689  1.094260
             H (  7)   H (  8)   H (  9)   H ( 10)
   H (  8)  1.422794
   H (  9)  2.735632  3.122033
   H ( 10)  2.443875  2.443876  1.837695
   H ( 11)  3.122033  2.735629  1.590825  1.837703
 
 A cutoff of  1.0D-09 yielded   2536 shell pairs
 There are     22602 function pairs (     27789 Cartesian)
 Smallest overlap matrix eigenvalue = 9.48E-05

 Scale SEOQF with 1.000000e-01/1.000000e-01/1.000000e-01

 Standard Electronic Orientation quadrupole field applied
 Nucleus-field energy     =     0.0000000003 hartrees
 Requested basis set is 6-31G(d)
 There are 28 shells and 58 basis functions
 A cutoff of  1.0D-09 yielded    402 shell pairs
 There are      1773 function pairs (      1968 Cartesian)
 Smallest overlap matrix eigenvalue = 7.06E-03
 Guess from superposition of atomic densities
 Warning:  Energy on first SCF cycle will be non-variational
 SAD guess density has 26.000000 electrons
 Long-range K will be added via erf
 Coulomb attenuation parameter = 0.2 bohr**(-1)
 A restricted hybrid HF-DFT SCF calculation will be
 performed using Relaxed Constraint Minimization + Pulay DIIS
 Exchange:     0.2220 Hartree-Fock + 1.0000 wB97X-D + LR-HF
 Correlation:  1.0000 wB97X-D
 Using Euler-Maclaurin-Lebedev (75,302) quadrature formula
 Dispersion:   Grimme D
 SCF converges when DIIS error is below 1.0E-04
 using 3 threads for integral computing
 -------------------------------------------------------
 OpenMP Integral computing Module                
 Release: version 1.0, May 2013, Q-Chem Inc. Pittsburgh 
 -------------------------------------------------------
 using 3 threads for integral computing
 -------------------------------------------------------
 OpenMP Integral computing Module                
 Release: version 1.0, May 2013, Q-Chem Inc. Pittsburgh 
 -------------------------------------------------------
 ---------------------------------------
  Cycle       Energy         DIIS Error
 ---------------------------------------
    1    -119.6513440683      1.01E-01
    2    -119.0310234462      9.20E-03
    3    -119.0530259468      2.47E-03
    4    -119.0681767144      1.69E-03
    5    -119.0688750429      2.52E-04 Done RCA. Switching to DIIS
    6    -119.0694114674      1.85E-04
    7    -119.0694266365      6.21E-06 Convergence criterion met
 ---------------------------------------
 SCF time:  CPU 18.74 s  wall 6.75 s
 SCF   energy in the small basis set = -119.06942664
 Total energy in the small basis set = -119.06942664
 ----------------------------------------------------
  Cycle       Energy    
 ----------------------------------------------------
    1     -16.5348451791     -1.65E+01
 Long-range K will be added via erf
 Coulomb attenuation parameter = 0.2 bohr**(-1)
 A restricted hybrid HF-DFT SCF calculation will be
 performed using Relaxed Constraint Minimization + Pulay DIIS
 Exchange:     0.2220 Hartree-Fock + 1.0000 wB97X-D + LR-HF
 Correlation:  1.0000 wB97X-D
 Using Euler-Maclaurin-Lebedev (75,302) quadrature formula
 Dispersion:   Grimme D
 SCF converges when DIIS error is below 1.0E-05
 Basis2 calculation detected. Using small basis as guess for larger.
 SCFMinFind is unable to tell whether the solution found is close.
 Resetting ReadMinima to 0 and attempting to follow guess.
 SCFMinFind following SCF Guess.
 using 3 threads for integral computing
 -------------------------------------------------------
 OpenMP Integral computing Module                
 Release: version 1.0, May 2013, Q-Chem Inc. Pittsburgh 
 -------------------------------------------------------
 using 3 threads for integral computing
 -------------------------------------------------------
 OpenMP Integral computing Module                
 Release: version 1.0, May 2013, Q-Chem Inc. Pittsburgh 
 -------------------------------------------------------
 ---------------------------------------
  Cycle       Energy         DIIS Error
 ---------------------------------------
    1    -119.0906781431      4.21E-03
    2    -119.1125111840      6.12E-04 Done RCA. Switching to DIIS
    3    -119.1133250376      4.42E-04
    4    -119.1144008325      4.85E-05
    5    -119.1144172193      1.17E-05
    6    -119.1144180897      4.29E-06 Convergence criterion met
 ---------------------------------------
 SCF time:  CPU 50.90 s  wall 17.18 s
 SCF   energy in the final basis set = -119.11441809
 Total energy in the final basis set = -119.11441809
 
 --------------------------------------------------------------
 
                    Orbital Energies (a.u.)
 --------------------------------------------------------------
 
 Alpha MOs
 -- Occupied --
-10.2747 -10.2676 -10.2676  -0.8837  -0.7797  -0.6973  -0.5364  -0.5136
 -0.5111  -0.4625  -0.4361  -0.4167  -0.3664
 -- Virtual --
  0.0658   0.0837   0.0861   0.1054   0.1200   0.1229   0.1373   0.1469
  0.1500   0.1684   0.1735   0.1974   0.2165   0.2358   0.2364   0.2530
  0.2801   0.2836   0.3041   0.3200   0.3294   0.3562   0.4614   0.4665
  0.4749   0.5097   0.5258   0.5295   0.5444   0.5795   0.5806   0.5810
  0.6143   0.6163   0.6254   0.6575   0.6728   0.6936   0.7104   0.7160
  0.7186   0.7614   0.7970   0.8644   0.8758   0.8923   0.9088   0.9268
  0.9947   1.0411   1.0931   1.1079   1.1168   1.1780   1.2147   1.2168
  1.2243   1.2298   1.2353   1.2583   1.3133   1.3308   1.3550   1.3615
  1.3881   1.3896   1.4214   1.4224   1.4513   1.4758   1.4880   1.5202
  1.5290   1.5440   1.5947   1.6226   1.6258   1.6386   1.6569   1.7185
  1.8557   2.3845   2.4771   2.4821   2.4880   2.5685   2.5882   2.6131
  2.6275   2.7648   2.7687   2.7934   2.8313   2.8862   2.9117   2.9156
  2.9536   2.9626   2.9890   2.9942   3.0505   3.0601   3.0924   3.0944
  3.1026   3.1322   3.1579   3.1798   3.2221   3.2295   3.2621   3.2735
  3.2995   3.3345   3.3593   3.3606   3.3691   3.4305   3.4400   3.5010
  3.5102   3.5329   3.5415   3.5458   3.5554   3.5631   3.5883   3.6142
  3.6171   3.6284   3.6352   3.6754   3.7228   3.7836   3.8148   3.8239
  3.8788   3.9093   3.9467   3.9619   3.9995   4.0114   4.0144   4.0486
  4.0970   4.1165   4.1207   4.1301   4.1376   4.1442   4.1766   4.2253
  4.2402   4.2875   4.3270   4.3617   4.3870   4.3996   4.4200   4.4682
  4.4957   4.5038   4.5366   4.5678   4.6832   4.7680   4.7983   4.8167
  4.8401   4.8762   4.9899   5.0017   5.0269   5.0426   5.0708   5.1399
  5.1684   5.2059   5.2761   5.3320   5.3807   5.3961   5.4047   5.4147
  5.4243   5.4828   5.5023   5.5092   5.6033   5.6193   5.7871   5.8452
  6.0116   6.3355   6.3798   6.3848   6.4155   6.4263  25.1753  25.4412
 25.4654
 --------------------------------------------------------------
 
 -----------------------------------------------------------------
                    Cartesian Multipole Moments
 -----------------------------------------------------------------
    Charge (ESU x 10^10)
                 0.0000
    Dipole Moment (Debye)
         X      -0.0000      Y       0.0000      Z      -0.1014
       Tot       0.1014
    Quadrupole Moments (Debye-Ang)
        XX     -22.3360     XY       0.0000     YY     -23.1026
        XZ       0.0000     YZ      -0.0000     ZZ     -19.9431
    Octopole Moments (Debye-Ang^2)
       XXX      -0.0001    XXY       0.0000    XYY      -0.0001
       YYY       0.0000    XXZ      -2.0451    XYZ      -0.0000
       YYZ       0.8417    XZZ       0.0001    YZZ       0.0000
       ZZZ      -1.1195
    Hexadecapole Moments (Debye-Ang^3)
      XXXX    -200.8064   XXXY       0.0003   XXYY     -42.9173
      XYYY       0.0000   YYYY     -43.8115   XXXZ      -0.0000
      XXYZ      -0.0000   XYYZ      -0.0000   YYYZ      -0.0000
      XXZZ     -43.7818   XYZZ       0.0000   YYZZ     -18.7051
      XZZZ       0.0001   YZZZ      -0.0000   ZZZZ     -72.3353
 -----------------------------------------------------------------
Archival summary:
1\1\centos77-c4\SP\ProcedureUnspecified\BasisUnspecified\38\shihchen\TueJul701:47:332020TueJul701:47:332020\0\\#,ProcedureUnspecified,BasisUnspecified,\\0,1\C\H,1,1.09981\H,1,1.09981,2,80.6074\C,1,1.51405,2,114.685,3,112.945,0\H,4,1.08528,1,108.34,2,-45.3889,0\H,4,1.09426,1,112.437,2,-173.537,0\H,4,1.09426,1,112.437,2,82.7582,0\C,1,1.51405,2,114.685,3,-112.945,0\H,8,1.08528,1,108.341,2,45.3897,0\H,8,1.09426,1,112.437,2,-82.7578,0\H,8,1.09426,1,112.437,2,173.536,0\\\@

 Total job time:  26.85s(wall), 73.22s(cpu) 
 Tue Jul  7 01:47:33 2020

        *************************************************************
        *                                                           *
        *  Thank you very much for using Q-Chem.  Have a nice day.  *
        *                                                           *
        *************************************************************


