                  Welcome to Q-Chem
     A Quantum Leap Into The Future Of Chemistry


 Q-Chem 5.3 (devel), Q-Chem, Inc., Pleasanton, CA (2020)

 Yihan Shao,  Zhengting Gan,  E. Epifanovsky,  A. T. B. Gilbert,  M. Wormit,  
 J. Kussmann,  A. W. Lange,  A. Behn,  Jia Deng,  Xintian Feng,  D. Ghosh,  
 M. Goldey,  P. R. Horn,  L. D. Jacobson,  I. Kaliman,  T. Kus,  A. Landau,  
 Jie Liu,  E. I. Proynov,  R. M. Richard,  R. P. Steele,  E. J. Sundstrom,  
 H. L. Woodcock III,  P. M. Zimmerman,  D. Zuev,  B. Alam,  B. Albrecht,  
 E. Alguire,  S. A. Baeppler,  D. Barton,  Z. Benda,  Y. A. Bernard,  
 E. J. Berquist,  K. B. Bravaya,  H. Burton,  K. Carter-Fenk,  D. Casanova,  
 Chun-Min Chang,  Yunqing Chen,  A. Chien,  K. D. Closser,  M. P. Coons,  
 S. Coriani,  S. Dasgupta,  A. L. Dempwolff,  M. Diedenhofen,  Hainam Do,  
 R. G. Edgar,  Po-Tung Fang,  S. Faraji,  S. Fatehi,  Qingguo Feng,  
 J. Fosso-Tande,  J. Gayvert,  Qinghui Ge,  A. Ghysels,  G. Gidofalvi,  
 J. Gomes,  J. Gonthier,  A. Gunina,  D. Hait,  M. W. D. Hanson-Heine,  
 P. H. P. Harbach,  A. W. Hauser,  M. F. Herbst,  J. E. Herr,  
 E. G. Hohenstein,  Z. C. Holden,  Kerwin Hui,  B. C. Huynh,  T.-C. Jagau,  
 Hyunjun Ji,  B. Kaduk,  K. Khistyaev,  Jaehoon Kim,  P. Klunzinger,  K. Koh,  
 D. Kosenkov,  L. Koulias,  T. Kowalczyk,  C. M. Krauter,  A. Kunitsa,  
 Ka Un Lao,  A. Laurent,  K. V. Lawler,  Joonho Lee,  D. Lefrancois,  
 S. Lehtola,  D. S. Levine,  Yi-Pei Li,  You-Sheng Lin,  Fenglai Liu,  
 Kuan-Yu Liu,  E. Livshits,  M. Loipersberger,  A. Luenser,  P. Manohar,  
 E. Mansoor,  S. F. Manzer,  Shan-Ping Mao,  Yuezhi Mao,  N. Mardirossian,  
 A. V. Marenich,  T. Markovich,  L. A. Martinez-Martinez,  S. A. Maurer,  
 N. J. Mayhall,  S. C. McKenzie,  J.-M. Mewes,  P. Morgante,  A. F. Morrison,  
 J. W. Mullinax,  K. Nanda,  T. S. Nguyen-Beck,  R. Olivares-Amaya,  
 K. J. Oosterbaan,  J. A. Parkhill,  S. K. Paul,  F. Pavosevic,  Zheng Pei,  
 T. M. Perrine,  F. Plasser,  P. Pokhilko,  S. Prager,  A. Prociuk,  
 E. Ramos,  B. Rana,  D. R. Rehn,  F. Rob,  M. Scheurer,  M. Schneider,  
 N. Sergueev,  S. M. Sharada,  S. Sharma,  D. W. Small,  T. Stauch,  
 C. J. Stein,  T. Stein,  Yu-Chuan Su,  S. P. Veccham,  Zhen Tao,  
 A. J. W. Thom,  A. Tkatchenko,  T. Tsuchimochi,  N. M. Tubman,  L. Vogt,  
 M. L. Vidal,  O. Vydrov,  M. A. Watson,  J. Wenzel,  M. de Wergifosse,  
 T. A. Wesolowski,  A. White,  J. Witte,  A. Yamada,  Jun Yang,  K. Yao,  
 S. Yeganeh,  S. R. Yost,  Zhi-Qiang You,  A. Zech,  Igor Ying Zhang,  
 Xing Zhang,  Yan Zhao,  Ying Zhu,  B. R. Brooks,  G. K. L. Chan,  
 C. J. Cramer,  M. S. Gordon,  W. J. Hehre,  A. Klamt,  M. W. Schmidt,  
 C. D. Sherrill,  D. G. Truhlar,  A. Aspuru-Guzik,  R. Baer,  A. T. Bell,  
 N. A. Besley,  Jeng-Da Chai,  A. E. DePrince, III,  R. A. DiStasio Jr.,  
 A. Dreuw,  B. D. Dunietz,  T. R. Furlani,  Chao-Ping Hsu,  Yousung Jung,  
 Jing Kong,  D. S. Lambrecht,  WanZhen Liang,  C. Ochsenfeld,  
 V. A. Rassolov,  L. V. Slipchenko,  J. E. Subotnik,  T. Van Voorhis,  
 J. M. Herbert,  A. I. Krylov,  P. M. W. Gill,  M. Head-Gordon

 Contributors to earlier versions of Q-Chem not listed above: 
 R. D. Adamson,  B. Austin,  J. Baker,  G. J. O. Beran,  K. Brandhorst,  
 S. T. Brown,  E. F. C. Byrd,  A. K. Chakraborty,  C.-L. Cheng,  
 Siu Hung Chien,  D. M. Chipman,  D. L. Crittenden,  H. Dachsel,  
 R. J. Doerksen,  A. D. Dutoi,  L. Fusti-Molnar,  W. A. Goddard III,  
 A. Golubeva-Zadorozhnaya,  S. R. Gwaltney,  G. Hawkins,  A. Heyden,  
 S. Hirata,  G. Kedziora,  F. J. Keil,  C. Kelley,  Jihan Kim,  R. A. King,  
 R. Z. Khaliullin,  P. P. Korambath,  W. Kurlancheek,  A. M. Lee,  M. S. Lee,  
 S. V. Levchenko,  Ching Yeh Lin,  D. Liotard,  R. C. Lochan,  I. Lotan,  
 P. E. Maslen,  N. Nair,  D. P. O'Neill,  D. Neuhauser,  E. Neuscamman,  
 C. M. Oana,  R. Olson,  B. Peters,  R. Peverati,  P. A. Pieniazek,  
 Y. M. Rhee,  J. Ritchie,  M. A. Rohrdanz,  E. Rosta,  N. J. Russ,  
 H. F. Schaefer III,  N. E. Schultz,  N. Shenvi,  A. C. Simmonett,  A. Sodt,  
 D. Stuck,  K. S. Thanthiriwatte,  V. Vanovschi,  Tao Wang,  A. Warshel,  
 C. F. Williams,  Q. Wu,  X. Xu,  W. Zhang

 Please cite Q-Chem as follows:
 Y. Shao et al., Mol. Phys. 113, 184-215 (2015)
 DOI: 10.1080/00268976.2014.952696

 Q-Chem 5.3.0 for Intel X86 EM64T Linux

 Parts of Q-Chem use Armadillo 9.800.1 (Horizon Scraper).
 http://arma.sourceforge.net/

 Q-Chem begins on Thu Jul  2 06:00:53 2020  

Host: centos77-c1
0

     Scratch files written to /tmp/26650.centos77-h1/qchem82139//
Processing $rem in /opt/qchem-5.3.0-intel2020u1//config/preferences:
Processing $rem in /home/shihchengli/.qchemrc:

Checking the input file for inconsistencies... 	...done.

--------------------------------------------------------------
User input:
--------------------------------------------------------------
$rem
   JOBTYPE  sp
   EXCHANGE   omegaB97X-D
   BASIS   6-311+G(2df,2pd)
   max_scf_cycles   250
   geom_opt_max_cycles   1500
   basis2 6-31G*
   scf_algorithm rca_diis
   SYM_IGNORE  TRUE
   print_input   true
   geom_opt_dmax   80
   pop_mulliken false
   XC_GRID 000075000302
$end

$molecule
0 1
C       1.2668005243     0.0319676701     0.2596911361
C       -0.0000000404     0.0000006950     -0.5870172987
H       1.3216126615     -0.9404852459     0.9625580928
H       1.2905911644     0.8213660873     0.8443418593
H       2.1642555382     0.0354833264     -0.3597311907
C       -1.2668006521     -0.0319666731     0.2596911171
H       0.0123789869     -0.8737941686     -1.2428296132
H       -0.0123790838     0.8737929396     -1.2428278543
H       -1.2905911974     -0.8213663940     0.8443425211
H       -2.1642551305     -0.0354819507     -0.3597308422
H       -1.3216128317     0.9404843800     0.9625570915
$end
--------------------------------------------------------------
 ----------------------------------------------------------------
             Standard Nuclear Orientation (Angstroms)
    I     Atom           X                Y                Z
 ----------------------------------------------------------------
    1      C       1.2668005243     0.0319676701     0.2596911361
    2      C      -0.0000000404     0.0000006950    -0.5870172987
    3      H       1.3216126615    -0.9404852459     0.9625580928
    4      H       1.2905911644     0.8213660873     0.8443418593
    5      H       2.1642555382     0.0354833264    -0.3597311907
    6      C      -1.2668006521    -0.0319666731     0.2596911171
    7      H       0.0123789869    -0.8737941686    -1.2428296132
    8      H      -0.0123790838     0.8737929396    -1.2428278543
    9      H      -1.2905911974    -0.8213663940     0.8443425211
   10      H      -2.1642551305    -0.0354819507    -0.3597308422
   11      H      -1.3216128317     0.9404843800     0.9625570915
 ----------------------------------------------------------------
 Nuclear Repulsion Energy =          82.85222490 hartrees
 There are       13 alpha and       13 beta electrons
 Requested basis set is 6-311+G(2df,2pd)
 There are 72 shells and 214 basis functions

 Total QAlloc Memory Limit   2000 MB
 Mega-Array Size       188 MB
 MEM_STATIC part       192 MB

                       Distance Matrix (Angstroms)
             C (  1)   C (  2)   H (  3)   H (  4)   H (  5)   C (  6)
   C (  2)  1.524047
   H (  3)  1.201121  2.243292
   H (  4)  0.982615  2.095007  1.766085
   H (  5)  1.090469  2.176447  1.846892  1.682466
   C (  6)  2.534408  1.524048  2.831839  2.758667  3.487174
   H (  7)  2.156744  1.092593  2.565595  2.977193  2.497443  2.145354
   H (  8)  2.145352  1.092590  3.151962  2.461048  2.494065  2.156742
   H (  9)  2.758668  2.095008  2.617589  3.059587  3.757652  0.982616
   H ( 10)  3.487173  2.176446  3.836503  3.757651  4.329092  1.090468
   H ( 11)  2.831838  2.243290  3.244178  2.617589  3.836503  1.201119
             H (  7)   H (  8)   H (  9)   H ( 10)
   H (  8)  1.747762
   H (  9)  2.461050  2.977192
   H ( 10)  2.494066  2.497441  1.682467
   H ( 11)  3.151963  2.565592  1.766085  1.846890
 
 A cutoff of  1.0D-09 yielded   2533 shell pairs
 There are     22559 function pairs (     27734 Cartesian)
 Smallest overlap matrix eigenvalue = 8.69E-05

 Scale SEOQF with 1.000000e-01/1.000000e-01/1.000000e-01

 Standard Electronic Orientation quadrupole field applied
 Nucleus-field energy     =     0.0000000006 hartrees
 Requested basis set is 6-31G(d)
 There are 28 shells and 58 basis functions
 A cutoff of  1.0D-09 yielded    402 shell pairs
 There are      1773 function pairs (      1968 Cartesian)
 Smallest overlap matrix eigenvalue = 6.77E-03
 Guess from superposition of atomic densities
 Warning:  Energy on first SCF cycle will be non-variational
 SAD guess density has 26.000000 electrons
 Long-range K will be added via erf
 Coulomb attenuation parameter = 0.2 bohr**(-1)
 A restricted hybrid HF-DFT SCF calculation will be
 performed using Relaxed Constraint Minimization + Pulay DIIS
 Exchange:     0.2220 Hartree-Fock + 1.0000 wB97X-D + LR-HF
 Correlation:  1.0000 wB97X-D
 Using Euler-Maclaurin-Lebedev (75,302) quadrature formula
 Dispersion:   Grimme D
 SCF converges when DIIS error is below 1.0E-04
 using 3 threads for integral computing
 -------------------------------------------------------
 OpenMP Integral computing Module                
 Release: version 1.0, May 2013, Q-Chem Inc. Pittsburgh 
 -------------------------------------------------------
 using 3 threads for integral computing
 -------------------------------------------------------
 OpenMP Integral computing Module                
 Release: version 1.0, May 2013, Q-Chem Inc. Pittsburgh 
 -------------------------------------------------------
 ---------------------------------------
  Cycle       Energy         DIIS Error
 ---------------------------------------
    1    -119.6145108607      1.01E-01
    2    -119.0340324087      9.26E-03
    3    -119.0565351474      2.54E-03
    4    -119.0714428132      1.73E-03
    5    -119.0721786764      2.76E-04 Done RCA. Switching to DIIS
    6    -119.0727192155      2.02E-04
    7    -119.0727371077      5.23E-06 Convergence criterion met
 ---------------------------------------
 SCF time:  CPU 18.50 s  wall 6.60 s
 SCF   energy in the small basis set = -119.07273711
 Total energy in the small basis set = -119.07273711
 ----------------------------------------------------
  Cycle       Energy    
 ----------------------------------------------------
    1     -16.5511490030     -1.66E+01
 Long-range K will be added via erf
 Coulomb attenuation parameter = 0.2 bohr**(-1)
 A restricted hybrid HF-DFT SCF calculation will be
 performed using Relaxed Constraint Minimization + Pulay DIIS
 Exchange:     0.2220 Hartree-Fock + 1.0000 wB97X-D + LR-HF
 Correlation:  1.0000 wB97X-D
 Using Euler-Maclaurin-Lebedev (75,302) quadrature formula
 Dispersion:   Grimme D
 SCF converges when DIIS error is below 1.0E-05
 Basis2 calculation detected. Using small basis as guess for larger.
 SCFMinFind is unable to tell whether the solution found is close.
 Resetting ReadMinima to 0 and attempting to follow guess.
 SCFMinFind following SCF Guess.
 using 3 threads for integral computing
 -------------------------------------------------------
 OpenMP Integral computing Module                
 Release: version 1.0, May 2013, Q-Chem Inc. Pittsburgh 
 -------------------------------------------------------
 using 3 threads for integral computing
 -------------------------------------------------------
 OpenMP Integral computing Module                
 Release: version 1.0, May 2013, Q-Chem Inc. Pittsburgh 
 -------------------------------------------------------
 ---------------------------------------
  Cycle       Energy         DIIS Error
 ---------------------------------------
    1    -119.0931467346      4.21E-03
    2    -119.1151334554      5.89E-04 Done RCA. Switching to DIIS
    3    -119.1159437832      4.13E-04
    4    -119.1168801492      4.54E-05
    5    -119.1168948877      9.61E-06 Convergence criterion met
 ---------------------------------------
 SCF time:  CPU 44.19 s  wall 14.95 s
 SCF   energy in the final basis set = -119.11689489
 Total energy in the final basis set = -119.11689489
 
 --------------------------------------------------------------
 
                    Orbital Energies (a.u.)
 --------------------------------------------------------------
 
 Alpha MOs
 -- Occupied --
-10.2751 -10.2642 -10.2642  -0.8832  -0.7815  -0.6816  -0.5480  -0.5251
 -0.4841  -0.4661  -0.4195  -0.4151  -0.4052
 -- Virtual --
  0.0686   0.0857   0.0907   0.0986   0.1246   0.1299   0.1337   0.1415
  0.1429   0.1705   0.1710   0.1897   0.2273   0.2282   0.2458   0.2638
  0.2844   0.2909   0.3106   0.3141   0.3342   0.3514   0.4534   0.4684
  0.4749   0.5080   0.5098   0.5211   0.5457   0.5588   0.5818   0.5826
  0.6211   0.6251   0.6389   0.6446   0.6501   0.6634   0.7236   0.7267
  0.7416   0.7660   0.8204   0.8657   0.8667   0.8761   0.8823   0.9577
  0.9983   1.0525   1.0582   1.1367   1.1396   1.1720   1.1862   1.2170
  1.2253   1.2358   1.2654   1.2725   1.2928   1.2973   1.3246   1.3726
  1.3762   1.3909   1.4060   1.4404   1.4448   1.4686   1.4722   1.4856
  1.5344   1.5828   1.5966   1.6125   1.6547   1.6572   1.6939   1.7206
  1.7646   2.3403   2.4365   2.4699   2.5043   2.5460   2.5875   2.6181
  2.6286   2.7332   2.8186   2.8314   2.8348   2.8813   2.9179   2.9245
  2.9300   2.9467   2.9933   3.0209   3.0357   3.0749   3.0759   3.1129
  3.1329   3.1447   3.1793   3.1965   3.2107   3.2224   3.2800   3.2923
  3.3000   3.3278   3.3374   3.3572   3.3593   3.3823   3.3980   3.4510
  3.4544   3.4757   3.5013   3.5056   3.5297   3.5553   3.6079   3.6227
  3.6241   3.6761   3.6882   3.7097   3.7640   3.7907   3.8790   3.8838
  3.9041   3.9216   3.9515   3.9577   3.9822   3.9840   4.0532   4.0723
  4.0761   4.0881   4.1047   4.1493   4.1578   4.1646   4.1936   4.2066
  4.2170   4.2664   4.2698   4.3555   4.3686   4.4186   4.4201   4.4278
  4.4418   4.5328   4.6058   4.6120   4.6175   4.7667   4.8213   4.8602
  4.8884   4.9144   4.9283   5.0099   5.0136   5.0521   5.0596   5.0924
  5.1312   5.2280   5.2310   5.2626   5.3360   5.3608   5.3988   5.4677
  5.5068   5.5203   5.5571   5.5770   5.5961   5.6515   5.6937   5.8129
  5.9406   6.2479   6.2550   6.4569   6.5356   6.5662  25.2010  25.4018
 25.4101
 --------------------------------------------------------------
 
 -----------------------------------------------------------------
                    Cartesian Multipole Moments
 -----------------------------------------------------------------
    Charge (ESU x 10^10)
                 0.0000
    Dipole Moment (Debye)
         X      -0.0000      Y       0.0000      Z      -0.1308
       Tot       0.1308
    Quadrupole Moments (Debye-Ang)
        XX     -22.1701     XY       0.4070     YY     -21.3608
        XZ      -0.0000     YZ      -0.0000     ZZ     -21.8750
    Octopole Moments (Debye-Ang^2)
       XXX      -0.0000    XXY       0.0000    XYY      -0.0000
       YYY      -0.0000    XXZ      -1.6710    XYZ       0.1193
       YYZ       0.4353    XZZ      -0.0000    YZZ      -0.0000
       ZZZ      -0.5890
    Hexadecapole Moments (Debye-Ang^3)
      XXXX    -202.3143   XXXY       2.0633   XXYY     -42.2970
      XYYY       0.7648   YYYY     -44.4285   XXXZ      -0.0000
      XXYZ      -0.0000   XYYZ       0.0000   YYYZ      -0.0000
      XXZZ     -45.4677   XYZZ       0.2192   YYZZ     -17.1596
      XZZZ      -0.0000   YZZZ      -0.0000   ZZZZ     -72.5764
 -----------------------------------------------------------------
Archival summary:
1\1\centos77-c1\SP\ProcedureUnspecified\BasisUnspecified\38\shihchen\ThuJul206:01:172020ThuJul206:01:172020\0\\#,ProcedureUnspecified,BasisUnspecified,\\0,1\C\H,1,1.09259\H,1,1.09259,2,106.227\C,1,1.52405,2,109.033,3,118.417,0\H,4,0.982615,1,111.564,2,62.575,0\H,4,1.09047,1,111.628,2,-58.8631,0\H,4,1.20112,1,110.246,2,-178.026,0\C,1,1.52405,2,109.927,3,-117.826,0\H,8,0.982616,1,111.564,2,178.646,0\H,8,1.09047,1,111.628,2,57.2079,0\H,8,1.20112,1,110.246,2,-61.9547,0\\\@

 Total job time:  24.45s(wall), 66.26s(cpu) 
 Thu Jul  2 06:01:17 2020

        *************************************************************
        *                                                           *
        *  Thank you very much for using Q-Chem.  Have a nice day.  *
        *                                                           *
        *************************************************************


