                  Welcome to Q-Chem
     A Quantum Leap Into The Future Of Chemistry


 Q-Chem 5.3 (devel), Q-Chem, Inc., Pleasanton, CA (2020)

 Yihan Shao,  Zhengting Gan,  E. Epifanovsky,  A. T. B. Gilbert,  M. Wormit,  
 J. Kussmann,  A. W. Lange,  A. Behn,  Jia Deng,  Xintian Feng,  D. Ghosh,  
 M. Goldey,  P. R. Horn,  L. D. Jacobson,  I. Kaliman,  T. Kus,  A. Landau,  
 Jie Liu,  E. I. Proynov,  R. M. Richard,  R. P. Steele,  E. J. Sundstrom,  
 H. L. Woodcock III,  P. M. Zimmerman,  D. Zuev,  B. Alam,  B. Albrecht,  
 E. Alguire,  S. A. Baeppler,  D. Barton,  Z. Benda,  Y. A. Bernard,  
 E. J. Berquist,  K. B. Bravaya,  H. Burton,  K. Carter-Fenk,  D. Casanova,  
 Chun-Min Chang,  Yunqing Chen,  A. Chien,  K. D. Closser,  M. P. Coons,  
 S. Coriani,  S. Dasgupta,  A. L. Dempwolff,  M. Diedenhofen,  Hainam Do,  
 R. G. Edgar,  Po-Tung Fang,  S. Faraji,  S. Fatehi,  Qingguo Feng,  
 J. Fosso-Tande,  J. Gayvert,  Qinghui Ge,  A. Ghysels,  G. Gidofalvi,  
 J. Gomes,  J. Gonthier,  A. Gunina,  D. Hait,  M. W. D. Hanson-Heine,  
 P. H. P. Harbach,  A. W. Hauser,  M. F. Herbst,  J. E. Herr,  
 E. G. Hohenstein,  Z. C. Holden,  Kerwin Hui,  B. C. Huynh,  T.-C. Jagau,  
 Hyunjun Ji,  B. Kaduk,  K. Khistyaev,  Jaehoon Kim,  P. Klunzinger,  K. Koh,  
 D. Kosenkov,  L. Koulias,  T. Kowalczyk,  C. M. Krauter,  A. Kunitsa,  
 Ka Un Lao,  A. Laurent,  K. V. Lawler,  Joonho Lee,  D. Lefrancois,  
 S. Lehtola,  D. S. Levine,  Yi-Pei Li,  You-Sheng Lin,  Fenglai Liu,  
 Kuan-Yu Liu,  E. Livshits,  M. Loipersberger,  A. Luenser,  P. Manohar,  
 E. Mansoor,  S. F. Manzer,  Shan-Ping Mao,  Yuezhi Mao,  N. Mardirossian,  
 A. V. Marenich,  T. Markovich,  L. A. Martinez-Martinez,  S. A. Maurer,  
 N. J. Mayhall,  S. C. McKenzie,  J.-M. Mewes,  P. Morgante,  A. F. Morrison,  
 J. W. Mullinax,  K. Nanda,  T. S. Nguyen-Beck,  R. Olivares-Amaya,  
 K. J. Oosterbaan,  J. A. Parkhill,  S. K. Paul,  F. Pavosevic,  Zheng Pei,  
 T. M. Perrine,  F. Plasser,  P. Pokhilko,  S. Prager,  A. Prociuk,  
 E. Ramos,  B. Rana,  D. R. Rehn,  F. Rob,  M. Scheurer,  M. Schneider,  
 N. Sergueev,  S. M. Sharada,  S. Sharma,  D. W. Small,  T. Stauch,  
 C. J. Stein,  T. Stein,  Yu-Chuan Su,  S. P. Veccham,  Zhen Tao,  
 A. J. W. Thom,  A. Tkatchenko,  T. Tsuchimochi,  N. M. Tubman,  L. Vogt,  
 M. L. Vidal,  O. Vydrov,  M. A. Watson,  J. Wenzel,  M. de Wergifosse,  
 T. A. Wesolowski,  A. White,  J. Witte,  A. Yamada,  Jun Yang,  K. Yao,  
 S. Yeganeh,  S. R. Yost,  Zhi-Qiang You,  A. Zech,  Igor Ying Zhang,  
 Xing Zhang,  Yan Zhao,  Ying Zhu,  B. R. Brooks,  G. K. L. Chan,  
 C. J. Cramer,  M. S. Gordon,  W. J. Hehre,  A. Klamt,  M. W. Schmidt,  
 C. D. Sherrill,  D. G. Truhlar,  A. Aspuru-Guzik,  R. Baer,  A. T. Bell,  
 N. A. Besley,  Jeng-Da Chai,  A. E. DePrince, III,  R. A. DiStasio Jr.,  
 A. Dreuw,  B. D. Dunietz,  T. R. Furlani,  Chao-Ping Hsu,  Yousung Jung,  
 Jing Kong,  D. S. Lambrecht,  WanZhen Liang,  C. Ochsenfeld,  
 V. A. Rassolov,  L. V. Slipchenko,  J. E. Subotnik,  T. Van Voorhis,  
 J. M. Herbert,  A. I. Krylov,  P. M. W. Gill,  M. Head-Gordon

 Contributors to earlier versions of Q-Chem not listed above: 
 R. D. Adamson,  B. Austin,  J. Baker,  G. J. O. Beran,  K. Brandhorst,  
 S. T. Brown,  E. F. C. Byrd,  A. K. Chakraborty,  C.-L. Cheng,  
 Siu Hung Chien,  D. M. Chipman,  D. L. Crittenden,  H. Dachsel,  
 R. J. Doerksen,  A. D. Dutoi,  L. Fusti-Molnar,  W. A. Goddard III,  
 A. Golubeva-Zadorozhnaya,  S. R. Gwaltney,  G. Hawkins,  A. Heyden,  
 S. Hirata,  G. Kedziora,  F. J. Keil,  C. Kelley,  Jihan Kim,  R. A. King,  
 R. Z. Khaliullin,  P. P. Korambath,  W. Kurlancheek,  A. M. Lee,  M. S. Lee,  
 S. V. Levchenko,  Ching Yeh Lin,  D. Liotard,  R. C. Lochan,  I. Lotan,  
 P. E. Maslen,  N. Nair,  D. P. O'Neill,  D. Neuhauser,  E. Neuscamman,  
 C. M. Oana,  R. Olson,  B. Peters,  R. Peverati,  P. A. Pieniazek,  
 Y. M. Rhee,  J. Ritchie,  M. A. Rohrdanz,  E. Rosta,  N. J. Russ,  
 H. F. Schaefer III,  N. E. Schultz,  N. Shenvi,  A. C. Simmonett,  A. Sodt,  
 D. Stuck,  K. S. Thanthiriwatte,  V. Vanovschi,  Tao Wang,  A. Warshel,  
 C. F. Williams,  Q. Wu,  X. Xu,  W. Zhang

 Please cite Q-Chem as follows:
 Y. Shao et al., Mol. Phys. 113, 184-215 (2015)
 DOI: 10.1080/00268976.2014.952696

 Q-Chem 5.3.0 for Intel X86 EM64T Linux

 Parts of Q-Chem use Armadillo 9.800.1 (Horizon Scraper).
 http://arma.sourceforge.net/

 Q-Chem begins on Thu Jul  2 04:59:59 2020  

Host: centos77-c1
0

     Scratch files written to /tmp/26650.centos77-h1/qchem76518//
Processing $rem in /opt/qchem-5.3.0-intel2020u1//config/preferences:
Processing $rem in /home/shihchengli/.qchemrc:

Checking the input file for inconsistencies... 	...done.

--------------------------------------------------------------
User input:
--------------------------------------------------------------
$rem
   JOBTYPE  sp
   EXCHANGE   omegaB97X-D
   BASIS   6-311+G(2df,2pd)
   max_scf_cycles   250
   geom_opt_max_cycles   1500
   basis2 6-31G*
   scf_algorithm rca_diis
   SYM_IGNORE  TRUE
   print_input   true
   geom_opt_dmax   80
   pop_mulliken false
   XC_GRID 000075000302
$end

$molecule
0 1
C       1.2478320666     -0.0000001595     0.3356807141
C       0.0000000475     0.0000002167     -0.6312901046
H       1.4263007060     -0.8968379052     0.9285693669
H       1.4263004242     0.8968377442     0.9285692388
H       2.0366244853     0.0000001678     -0.4239555363
C       -1.2478321798     -0.0000001494     0.3356809049
H       -0.0000002203     -0.8786096833     -1.2826961425
H       0.0000000474     0.8786098239     -1.2826965385
H       -1.4263006685     -0.8968379265     0.9285695146
H       -2.0366241694     0.0000007173     -0.4239556993
H       -1.4263005996     0.8968378201     0.9285693009
$end
--------------------------------------------------------------
 ----------------------------------------------------------------
             Standard Nuclear Orientation (Angstroms)
    I     Atom           X                Y                Z
 ----------------------------------------------------------------
    1      C       1.2478320666    -0.0000001595     0.3356807141
    2      C       0.0000000475     0.0000002167    -0.6312901046
    3      H       1.4263007060    -0.8968379052     0.9285693669
    4      H       1.4263004242     0.8968377442     0.9285692388
    5      H       2.0366244853     0.0000001678    -0.4239555363
    6      C      -1.2478321798    -0.0000001494     0.3356809049
    7      H      -0.0000002203    -0.8786096833    -1.2826961425
    8      H       0.0000000474     0.8786098239    -1.2826965385
    9      H      -1.4263006685    -0.8968379265     0.9285695146
   10      H      -2.0366241694     0.0000007173    -0.4239556993
   11      H      -1.4263005996     0.8968378201     0.9285693009
 ----------------------------------------------------------------
 Nuclear Repulsion Energy =          81.49726996 hartrees
 There are       13 alpha and       13 beta electrons
 Requested basis set is 6-311+G(2df,2pd)
 There are 72 shells and 214 basis functions

 Total QAlloc Memory Limit   2000 MB
 Mega-Array Size       188 MB
 MEM_STATIC part       192 MB

                       Distance Matrix (Angstroms)
             C (  1)   C (  2)   H (  3)   H (  4)   H (  5)   C (  6)
   C (  2)  1.578644
   H (  3)  1.089810  2.296043
   H (  4)  1.089810  2.296043  1.793676
   H (  5)  1.095098  2.047151  1.733822  1.733821
   C (  6)  2.495664  1.578644  2.882156  2.882155  3.371158
   H (  7)  2.224451  1.093748  2.631418  3.174310  2.378493  2.224451
   H (  8)  2.224452  1.093748  3.174310  2.631418  2.378493  2.224452
   H (  9)  2.882156  2.296043  2.852601  3.369660  3.824329  1.089810
   H ( 10)  3.371157  2.047151  3.824329  3.824328  4.073249  1.095098
   H ( 11)  2.882156  2.296043  3.369660  2.852601  3.824329  1.089810
             H (  7)   H (  8)   H (  9)   H ( 10)
   H (  8)  1.757220
   H (  9)  2.631418  3.174310
   H ( 10)  2.378493  2.378493  1.733822
   H ( 11)  3.174310  2.631418  1.793676  1.733821
 
 A cutoff of  1.0D-09 yielded   2524 shell pairs
 There are     22550 function pairs (     27739 Cartesian)
 Smallest overlap matrix eigenvalue = 9.91E-05

 Scale SEOQF with 1.000000e-01/1.000000e-01/1.000000e-01

 Standard Electronic Orientation quadrupole field applied
 Nucleus-field energy     =     0.0000000004 hartrees
 Requested basis set is 6-31G(d)
 There are 28 shells and 58 basis functions
 A cutoff of  1.0D-09 yielded    403 shell pairs
 There are      1774 function pairs (      1969 Cartesian)
 Smallest overlap matrix eigenvalue = 7.15E-03
 Guess from superposition of atomic densities
 Warning:  Energy on first SCF cycle will be non-variational
 SAD guess density has 26.000000 electrons
 Long-range K will be added via erf
 Coulomb attenuation parameter = 0.2 bohr**(-1)
 A restricted hybrid HF-DFT SCF calculation will be
 performed using Relaxed Constraint Minimization + Pulay DIIS
 Exchange:     0.2220 Hartree-Fock + 1.0000 wB97X-D + LR-HF
 Correlation:  1.0000 wB97X-D
 Using Euler-Maclaurin-Lebedev (75,302) quadrature formula
 Dispersion:   Grimme D
 SCF converges when DIIS error is below 1.0E-04
 using 3 threads for integral computing
 -------------------------------------------------------
 OpenMP Integral computing Module                
 Release: version 1.0, May 2013, Q-Chem Inc. Pittsburgh 
 -------------------------------------------------------
 using 3 threads for integral computing
 -------------------------------------------------------
 OpenMP Integral computing Module                
 Release: version 1.0, May 2013, Q-Chem Inc. Pittsburgh 
 -------------------------------------------------------
 ---------------------------------------
  Cycle       Energy         DIIS Error
 ---------------------------------------
    1    -119.4886028815      9.63E-02
    2    -119.0459472438      8.81E-03
    3    -119.0660009032      2.41E-03
    4    -119.0794253253      1.65E-03
    5    -119.0800894709      2.52E-04 Done RCA. Switching to DIIS
    6    -119.0805862372      1.85E-04
    7    -119.0806010751      5.53E-06 Convergence criterion met
 ---------------------------------------
 SCF time:  CPU 19.26 s  wall 6.80 s
 SCF   energy in the small basis set = -119.08060108
 Total energy in the small basis set = -119.08060108
 ----------------------------------------------------
  Cycle       Energy    
 ----------------------------------------------------
    1     -16.4988731651     -1.65E+01
 Long-range K will be added via erf
 Coulomb attenuation parameter = 0.2 bohr**(-1)
 A restricted hybrid HF-DFT SCF calculation will be
 performed using Relaxed Constraint Minimization + Pulay DIIS
 Exchange:     0.2220 Hartree-Fock + 1.0000 wB97X-D + LR-HF
 Correlation:  1.0000 wB97X-D
 Using Euler-Maclaurin-Lebedev (75,302) quadrature formula
 Dispersion:   Grimme D
 SCF converges when DIIS error is below 1.0E-05
 Basis2 calculation detected. Using small basis as guess for larger.
 SCFMinFind is unable to tell whether the solution found is close.
 Resetting ReadMinima to 0 and attempting to follow guess.
 SCFMinFind following SCF Guess.
 using 3 threads for integral computing
 -------------------------------------------------------
 OpenMP Integral computing Module                
 Release: version 1.0, May 2013, Q-Chem Inc. Pittsburgh 
 -------------------------------------------------------
 using 3 threads for integral computing
 -------------------------------------------------------
 OpenMP Integral computing Module                
 Release: version 1.0, May 2013, Q-Chem Inc. Pittsburgh 
 -------------------------------------------------------
 ---------------------------------------
  Cycle       Energy         DIIS Error
 ---------------------------------------
    1    -119.0996818396      4.21E-03
    2    -119.1217621995      6.09E-04 Done RCA. Switching to DIIS
    3    -119.1226179374      4.29E-04
    4    -119.1236301081      4.64E-05
    5    -119.1236455607      8.33E-06 Convergence criterion met
 ---------------------------------------
 SCF time:  CPU 41.80 s  wall 13.97 s
 SCF   energy in the final basis set = -119.12364556
 Total energy in the final basis set = -119.12364556
 
 --------------------------------------------------------------
 
                    Orbital Energies (a.u.)
 --------------------------------------------------------------
 
 Alpha MOs
 -- Occupied --
-10.2869 -10.2652 -10.2652  -0.8693  -0.7722  -0.6829  -0.5392  -0.5031
 -0.4880  -0.4687  -0.4374  -0.4225  -0.3698
 -- Virtual --
  0.0677   0.0854   0.0885   0.1006   0.1268   0.1306   0.1329   0.1363
  0.1446   0.1693   0.1709   0.1901   0.2304   0.2412   0.2447   0.2781
  0.2829   0.2845   0.2847   0.3082   0.3386   0.3450   0.4487   0.4594
  0.4762   0.5134   0.5186   0.5340   0.5427   0.5578   0.5864   0.5873
  0.5988   0.5999   0.6517   0.6533   0.6637   0.6717   0.7029   0.7237
  0.7308   0.7701   0.7884   0.8313   0.8660   0.8845   0.9127   0.9515
  0.9905   1.0409   1.0533   1.1474   1.1726   1.1731   1.1886   1.1966
  1.2101   1.2334   1.2481   1.2518   1.2667   1.2798   1.3085   1.3633
  1.3890   1.4259   1.4393   1.4513   1.4599   1.4790   1.4811   1.5057
  1.5090   1.5525   1.5869   1.5967   1.6287   1.6541   1.6740   1.6971
  1.7146   2.3631   2.4192   2.4621   2.5102   2.5358   2.5600   2.6058
  2.6090   2.6713   2.7840   2.7935   2.8135   2.8634   2.8759   2.9372
  2.9377   2.9460   3.0148   3.0197   3.0574   3.0626   3.0741   3.1122
  3.1124   3.1675   3.1745   3.1986   3.2027   3.2413   3.2600   3.3016
  3.3174   3.3197   3.3339   3.3577   3.3596   3.3779   3.3918   3.4012
  3.4365   3.5007   3.5046   3.5304   3.5748   3.5764   3.6028   3.6172
  3.6298   3.6516   3.6658   3.6817   3.7559   3.7962   3.8319   3.8337
  3.8571   3.8785   3.8810   3.9273   4.0007   4.0171   4.0249   4.0457
  4.0628   4.0702   4.0908   4.1289   4.1330   4.1562   4.1657   4.1830
  4.2196   4.2367   4.2446   4.2830   4.3008   4.3826   4.4212   4.4699
  4.4725   4.5075   4.5130   4.5670   4.6882   4.8021   4.8275   4.8642
  4.8834   4.8881   4.9358   4.9953   5.0307   5.0347   5.0919   5.1413
  5.1506   5.1943   5.2006   5.2213   5.3067   5.3103   5.3206   5.3936
  5.4098   5.4193   5.4365   5.4618   5.4799   5.4891   5.5670   5.5897
  5.8640   6.3503   6.3919   6.4169   6.4331   6.4395  25.1130  25.3862
 25.4373
 --------------------------------------------------------------
 
 -----------------------------------------------------------------
                    Cartesian Multipole Moments
 -----------------------------------------------------------------
    Charge (ESU x 10^10)
                 0.0000
    Dipole Moment (Debye)
         X       0.0000      Y       0.0000      Z      -0.2180
       Tot       0.2180
    Quadrupole Moments (Debye-Ang)
        XX     -23.1028     XY      -0.0000     YY     -21.1136
        XZ       0.0000     YZ      -0.0000     ZZ     -21.2691
    Octopole Moments (Debye-Ang^2)
       XXX       0.0000    XXY       0.0000    XYY      -0.0000
       YYY      -0.0000    XXZ      -0.4397    XYZ       0.0000
       YYZ       0.0930    XZZ      -0.0000    YZZ      -0.0000
       ZZZ      -2.4250
    Hexadecapole Moments (Debye-Ang^3)
      XXXX    -214.6764   XXXY      -0.0000   XXYY     -40.7280
      XYYY       0.0000   YYYY     -43.7794   XXXZ       0.0000
      XXYZ      -0.0000   XYYZ       0.0000   YYYZ       0.0000
      XXZZ     -44.7417   XYZZ       0.0000   YYZZ     -17.4985
      XZZZ       0.0000   YZZZ      -0.0000   ZZZZ     -77.1124
 -----------------------------------------------------------------
Archival summary:
1\1\centos77-c1\SP\ProcedureUnspecified\BasisUnspecified\38\shihchen\ThuJul205:00:232020ThuJul205:00:232020\0\\#,ProcedureUnspecified,BasisUnspecified,\\0,1\C\H,1,1.09375\H,1,1.09375,2,106.893\C,1,1.57864,2,111.396,3,-121.902,0\H,4,1.08981,1,117.56,2,-52.2061,0\H,4,1.08981,1,117.56,2,171.462,0\H,4,1.0951,1,98.3059,2,59.628,0\C,1,1.57864,2,111.396,3,121.902,0\H,8,1.08981,1,117.56,2,52.2061,0\H,8,1.08981,1,117.56,2,-171.462,0\H,8,1.0951,1,98.3059,2,-59.628,0\\\@

 Total job time:  23.61s(wall), 64.56s(cpu) 
 Thu Jul  2 05:00:23 2020

        *************************************************************
        *                                                           *
        *  Thank you very much for using Q-Chem.  Have a nice day.  *
        *                                                           *
        *************************************************************


