                  Welcome to Q-Chem
     A Quantum Leap Into The Future Of Chemistry


 Q-Chem 5.3 (devel), Q-Chem, Inc., Pleasanton, CA (2020)

 Yihan Shao,  Zhengting Gan,  E. Epifanovsky,  A. T. B. Gilbert,  M. Wormit,  
 J. Kussmann,  A. W. Lange,  A. Behn,  Jia Deng,  Xintian Feng,  D. Ghosh,  
 M. Goldey,  P. R. Horn,  L. D. Jacobson,  I. Kaliman,  T. Kus,  A. Landau,  
 Jie Liu,  E. I. Proynov,  R. M. Richard,  R. P. Steele,  E. J. Sundstrom,  
 H. L. Woodcock III,  P. M. Zimmerman,  D. Zuev,  B. Alam,  B. Albrecht,  
 E. Alguire,  S. A. Baeppler,  D. Barton,  Z. Benda,  Y. A. Bernard,  
 E. J. Berquist,  K. B. Bravaya,  H. Burton,  K. Carter-Fenk,  D. Casanova,  
 Chun-Min Chang,  Yunqing Chen,  A. Chien,  K. D. Closser,  M. P. Coons,  
 S. Coriani,  S. Dasgupta,  A. L. Dempwolff,  M. Diedenhofen,  Hainam Do,  
 R. G. Edgar,  Po-Tung Fang,  S. Faraji,  S. Fatehi,  Qingguo Feng,  
 J. Fosso-Tande,  J. Gayvert,  Qinghui Ge,  A. Ghysels,  G. Gidofalvi,  
 J. Gomes,  J. Gonthier,  A. Gunina,  D. Hait,  M. W. D. Hanson-Heine,  
 P. H. P. Harbach,  A. W. Hauser,  M. F. Herbst,  J. E. Herr,  
 E. G. Hohenstein,  Z. C. Holden,  Kerwin Hui,  B. C. Huynh,  T.-C. Jagau,  
 Hyunjun Ji,  B. Kaduk,  K. Khistyaev,  Jaehoon Kim,  P. Klunzinger,  K. Koh,  
 D. Kosenkov,  L. Koulias,  T. Kowalczyk,  C. M. Krauter,  A. Kunitsa,  
 Ka Un Lao,  A. Laurent,  K. V. Lawler,  Joonho Lee,  D. Lefrancois,  
 S. Lehtola,  D. S. Levine,  Yi-Pei Li,  You-Sheng Lin,  Fenglai Liu,  
 Kuan-Yu Liu,  E. Livshits,  M. Loipersberger,  A. Luenser,  P. Manohar,  
 E. Mansoor,  S. F. Manzer,  Shan-Ping Mao,  Yuezhi Mao,  N. Mardirossian,  
 A. V. Marenich,  T. Markovich,  L. A. Martinez-Martinez,  S. A. Maurer,  
 N. J. Mayhall,  S. C. McKenzie,  J.-M. Mewes,  P. Morgante,  A. F. Morrison,  
 J. W. Mullinax,  K. Nanda,  T. S. Nguyen-Beck,  R. Olivares-Amaya,  
 K. J. Oosterbaan,  J. A. Parkhill,  S. K. Paul,  F. Pavosevic,  Zheng Pei,  
 T. M. Perrine,  F. Plasser,  P. Pokhilko,  S. Prager,  A. Prociuk,  
 E. Ramos,  B. Rana,  D. R. Rehn,  F. Rob,  M. Scheurer,  M. Schneider,  
 N. Sergueev,  S. M. Sharada,  S. Sharma,  D. W. Small,  T. Stauch,  
 C. J. Stein,  T. Stein,  Yu-Chuan Su,  S. P. Veccham,  Zhen Tao,  
 A. J. W. Thom,  A. Tkatchenko,  T. Tsuchimochi,  N. M. Tubman,  L. Vogt,  
 M. L. Vidal,  O. Vydrov,  M. A. Watson,  J. Wenzel,  M. de Wergifosse,  
 T. A. Wesolowski,  A. White,  J. Witte,  A. Yamada,  Jun Yang,  K. Yao,  
 S. Yeganeh,  S. R. Yost,  Zhi-Qiang You,  A. Zech,  Igor Ying Zhang,  
 Xing Zhang,  Yan Zhao,  Ying Zhu,  B. R. Brooks,  G. K. L. Chan,  
 C. J. Cramer,  M. S. Gordon,  W. J. Hehre,  A. Klamt,  M. W. Schmidt,  
 C. D. Sherrill,  D. G. Truhlar,  A. Aspuru-Guzik,  R. Baer,  A. T. Bell,  
 N. A. Besley,  Jeng-Da Chai,  A. E. DePrince, III,  R. A. DiStasio Jr.,  
 A. Dreuw,  B. D. Dunietz,  T. R. Furlani,  Chao-Ping Hsu,  Yousung Jung,  
 Jing Kong,  D. S. Lambrecht,  WanZhen Liang,  C. Ochsenfeld,  
 V. A. Rassolov,  L. V. Slipchenko,  J. E. Subotnik,  T. Van Voorhis,  
 J. M. Herbert,  A. I. Krylov,  P. M. W. Gill,  M. Head-Gordon

 Contributors to earlier versions of Q-Chem not listed above: 
 R. D. Adamson,  B. Austin,  J. Baker,  G. J. O. Beran,  K. Brandhorst,  
 S. T. Brown,  E. F. C. Byrd,  A. K. Chakraborty,  C.-L. Cheng,  
 Siu Hung Chien,  D. M. Chipman,  D. L. Crittenden,  H. Dachsel,  
 R. J. Doerksen,  A. D. Dutoi,  L. Fusti-Molnar,  W. A. Goddard III,  
 A. Golubeva-Zadorozhnaya,  S. R. Gwaltney,  G. Hawkins,  A. Heyden,  
 S. Hirata,  G. Kedziora,  F. J. Keil,  C. Kelley,  Jihan Kim,  R. A. King,  
 R. Z. Khaliullin,  P. P. Korambath,  W. Kurlancheek,  A. M. Lee,  M. S. Lee,  
 S. V. Levchenko,  Ching Yeh Lin,  D. Liotard,  R. C. Lochan,  I. Lotan,  
 P. E. Maslen,  N. Nair,  D. P. O'Neill,  D. Neuhauser,  E. Neuscamman,  
 C. M. Oana,  R. Olson,  B. Peters,  R. Peverati,  P. A. Pieniazek,  
 Y. M. Rhee,  J. Ritchie,  M. A. Rohrdanz,  E. Rosta,  N. J. Russ,  
 H. F. Schaefer III,  N. E. Schultz,  N. Shenvi,  A. C. Simmonett,  A. Sodt,  
 D. Stuck,  K. S. Thanthiriwatte,  V. Vanovschi,  Tao Wang,  A. Warshel,  
 C. F. Williams,  Q. Wu,  X. Xu,  W. Zhang

 Please cite Q-Chem as follows:
 Y. Shao et al., Mol. Phys. 113, 184-215 (2015)
 DOI: 10.1080/00268976.2014.952696

 Q-Chem 5.3.0 for Intel X86 EM64T Linux

 Parts of Q-Chem use Armadillo 9.800.1 (Horizon Scraper).
 http://arma.sourceforge.net/

 Q-Chem begins on Tue Jul  7 00:57:03 2020  

Host: centos77-c4
0

     Scratch files written to /tmp/26963.centos77-h1/qchem95249//
Processing $rem in /opt/qchem-5.3.0-intel2020u1//config/preferences:
Processing $rem in /home/shihchengli/.qchemrc:

Checking the input file for inconsistencies... 	...done.

--------------------------------------------------------------
User input:
--------------------------------------------------------------
$rem
   JOBTYPE  sp
   EXCHANGE   omegaB97X-D
   BASIS   6-311+G(2df,2pd)
   UNRESTRICTED   False
   max_scf_cycles   250
   geom_opt_max_cycles   1500
   basis2 6-31G*
   scf_algorithm rca_diis
   SYM_IGNORE  TRUE
   print_input   true
   geom_opt_dmax   80
   pop_mulliken false
   XC_GRID 000075000302
$end

$molecule
0 1
C       1.2668507937     -0.0293846298     0.2601430429
C       0.0000000258     0.0000000040     -0.5865839374
H       1.3485370655     -0.8739800534     0.9458040362
H       1.2619771855     0.8842108575     0.8597486237
H       2.1632075309     0.0065470107     -0.3598375187
C       -1.2668506909     0.0293845665     0.2601431682
H       -0.0761210965     -0.8708239963     -1.2420439540
H       0.0761208811     0.8708242593     -1.2420436388
H       -1.2619771748     -0.8842108020     0.8597489192
H       -2.1632072682     -0.0065467028     -0.3598376662
H       -1.3485373127     0.8739801523     0.9458039438
$end
--------------------------------------------------------------
 ----------------------------------------------------------------
             Standard Nuclear Orientation (Angstroms)
    I     Atom           X                Y                Z
 ----------------------------------------------------------------
    1      C       1.2668507937    -0.0293846298     0.2601430429
    2      C       0.0000000258     0.0000000040    -0.5865839374
    3      H       1.3485370655    -0.8739800534     0.9458040362
    4      H       1.2619771855     0.8842108575     0.8597486237
    5      H       2.1632075309     0.0065470107    -0.3598375187
    6      C      -1.2668506909     0.0293845665     0.2601431682
    7      H      -0.0761210965    -0.8708239963    -1.2420439540
    8      H       0.0761208811     0.8708242593    -1.2420436388
    9      H      -1.2619771748    -0.8842108020     0.8597489192
   10      H      -2.1632072682    -0.0065467028    -0.3598376662
   11      H      -1.3485373127     0.8739801523     0.9458039438
 ----------------------------------------------------------------
 Nuclear Repulsion Energy =          82.75147089 hartrees
 There are       13 alpha and       13 beta electrons
 Requested basis set is 6-311+G(2df,2pd)
 There are 72 shells and 214 basis functions

 Total QAlloc Memory Limit   2000 MB
 Mega-Array Size       188 MB
 MEM_STATIC part       192 MB

                       Distance Matrix (Angstroms)
             C (  1)   C (  2)   H (  3)   H (  4)   H (  5)   C (  6)
   C (  2)  1.524048
   H (  3)  1.090938  2.220497
   H (  4)  1.092798  2.113361  1.762423
   H (  5)  1.090469  2.175069  1.773053  1.752113
   C (  6)  2.534383  1.524048  2.850693  2.735914  3.485713
   H (  7)  2.183612  1.092592  2.610812  3.047653  2.561769  2.117730
   H (  8)  2.117730  1.092592  3.074095  2.413289  2.425117  2.183611
   H (  9)  2.735914  2.113361  2.611952  3.081828  3.743358  1.092798
   H ( 10)  3.485713  2.175068  3.845710  3.743358  4.326435  1.090469
   H ( 11)  2.850694  2.220497  3.213966  2.611953  3.845711  1.090938
             H (  7)   H (  8)   H (  9)   H ( 10)
   H (  8)  1.748290
   H (  9)  2.413290  3.047653
   H ( 10)  2.425117  2.561768  1.752113
   H ( 11)  3.074095  2.610812  1.762423  1.773052
 
 A cutoff of  1.0D-09 yielded   2531 shell pairs
 There are     22549 function pairs (     27724 Cartesian)
 Smallest overlap matrix eigenvalue = 8.74E-05

 Scale SEOQF with 1.000000e-01/1.000000e-01/1.000000e-01

 Standard Electronic Orientation quadrupole field applied
 Nucleus-field energy     =     0.0000000006 hartrees
 Requested basis set is 6-31G(d)
 There are 28 shells and 58 basis functions
 A cutoff of  1.0D-09 yielded    402 shell pairs
 There are      1773 function pairs (      1968 Cartesian)
 Smallest overlap matrix eigenvalue = 6.82E-03
 Guess from superposition of atomic densities
 Warning:  Energy on first SCF cycle will be non-variational
 SAD guess density has 26.000000 electrons
 Long-range K will be added via erf
 Coulomb attenuation parameter = 0.2 bohr**(-1)
 A restricted hybrid HF-DFT SCF calculation will be
 performed using Relaxed Constraint Minimization + Pulay DIIS
 Exchange:     0.2220 Hartree-Fock + 1.0000 wB97X-D + LR-HF
 Correlation:  1.0000 wB97X-D
 Using Euler-Maclaurin-Lebedev (75,302) quadrature formula
 Dispersion:   Grimme D
 SCF converges when DIIS error is below 1.0E-04
 using 3 threads for integral computing
 -------------------------------------------------------
 OpenMP Integral computing Module                
 Release: version 1.0, May 2013, Q-Chem Inc. Pittsburgh 
 -------------------------------------------------------
 using 3 threads for integral computing
 -------------------------------------------------------
 OpenMP Integral computing Module                
 Release: version 1.0, May 2013, Q-Chem Inc. Pittsburgh 
 -------------------------------------------------------
 ---------------------------------------
  Cycle       Energy         DIIS Error
 ---------------------------------------
    1    -119.6211541828      1.00E-01
    2    -119.0648545284      8.99E-03
    3    -119.0859136760      2.47E-03
    4    -119.0997468477      1.69E-03
    5    -119.1004494086      2.69E-04 Done RCA. Switching to DIIS
    6    -119.1009636045      1.98E-04
    7    -119.1009806797      4.54E-06 Convergence criterion met
 ---------------------------------------
 SCF time:  CPU 18.92 s  wall 6.87 s
 SCF   energy in the small basis set = -119.10098068
 Total energy in the small basis set = -119.10098068
 ----------------------------------------------------
  Cycle       Energy    
 ----------------------------------------------------
    1     -16.5395344407     -1.65E+01
 Long-range K will be added via erf
 Coulomb attenuation parameter = 0.2 bohr**(-1)
 A restricted hybrid HF-DFT SCF calculation will be
 performed using Relaxed Constraint Minimization + Pulay DIIS
 Exchange:     0.2220 Hartree-Fock + 1.0000 wB97X-D + LR-HF
 Correlation:  1.0000 wB97X-D
 Using Euler-Maclaurin-Lebedev (75,302) quadrature formula
 Dispersion:   Grimme D
 SCF converges when DIIS error is below 1.0E-05
 Basis2 calculation detected. Using small basis as guess for larger.
 SCFMinFind is unable to tell whether the solution found is close.
 Resetting ReadMinima to 0 and attempting to follow guess.
 SCFMinFind following SCF Guess.
 using 3 threads for integral computing
 -------------------------------------------------------
 OpenMP Integral computing Module                
 Release: version 1.0, May 2013, Q-Chem Inc. Pittsburgh 
 -------------------------------------------------------
 using 3 threads for integral computing
 -------------------------------------------------------
 OpenMP Integral computing Module                
 Release: version 1.0, May 2013, Q-Chem Inc. Pittsburgh 
 -------------------------------------------------------
 ---------------------------------------
  Cycle       Energy         DIIS Error
 ---------------------------------------
    1    -119.1201110436      4.21E-03
    2    -119.1421574880      5.97E-04 Done RCA. Switching to DIIS
    3    -119.1429919004      4.18E-04
    4    -119.1439508890      4.56E-05
    5    -119.1439656302      1.02E-05
    6    -119.1439663203      3.89E-06 Convergence criterion met
 ---------------------------------------
 SCF time:  CPU 51.82 s  wall 17.61 s
 SCF   energy in the final basis set = -119.14396632
 Total energy in the final basis set = -119.14396632
 
 --------------------------------------------------------------
 
                    Orbital Energies (a.u.)
 --------------------------------------------------------------
 
 Alpha MOs
 -- Occupied --
-10.2744 -10.2652 -10.2652  -0.8817  -0.7775  -0.6776  -0.5465  -0.5245
 -0.4822  -0.4641  -0.4187  -0.4167  -0.4071
 -- Virtual --
  0.0692   0.0859   0.0909   0.0988   0.1250   0.1299   0.1333   0.1424
  0.1429   0.1708   0.1722   0.1916   0.2326   0.2398   0.2455   0.2624
  0.2817   0.2862   0.3111   0.3113   0.3339   0.3496   0.4584   0.4680
  0.4704   0.5095   0.5117   0.5173   0.5458   0.5617   0.5845   0.5859
  0.6257   0.6261   0.6327   0.6535   0.6562   0.6582   0.7091   0.7247
  0.7258   0.7668   0.8182   0.8529   0.8653   0.8834   0.8891   0.9598
  1.0016   1.0540   1.0574   1.1372   1.1392   1.1663   1.1940   1.2065
  1.2342   1.2380   1.2604   1.2800   1.2906   1.2960   1.3305   1.3783
  1.3817   1.3896   1.4049   1.4449   1.4673   1.4753   1.4791   1.4839
  1.5232   1.5752   1.6123   1.6171   1.6408   1.6438   1.6859   1.6914
  1.7429   2.3750   2.4695   2.4777   2.5031   2.5508   2.5649   2.6027
  2.6345   2.7079   2.8094   2.8322   2.8491   2.9015   2.9243   2.9324
  2.9333   2.9547   3.0005   3.0154   3.0549   3.0719   3.0851   3.0962
  3.1319   3.1357   3.1865   3.1933   3.2042   3.2272   3.2880   3.3110
  3.3228   3.3289   3.3533   3.3554   3.3689   3.3762   3.3990   3.4286
  3.4335   3.4908   3.5201   3.5369   3.5580   3.5784   3.5899   3.6193
  3.6251   3.6701   3.7029   3.7035   3.7773   3.7781   3.8695   3.8899
  3.8996   3.9349   3.9533   3.9706   3.9874   4.0084   4.0464   4.0592
  4.0755   4.0962   4.1282   4.1367   4.1578   4.1781   4.1852   4.2119
  4.2130   4.2479   4.2710   4.3711   4.3810   4.4086   4.4230   4.4305
  4.4360   4.5790   4.5992   4.6086   4.6783   4.8032   4.8148   4.9012
  4.9398   4.9493   4.9668   4.9678   5.0323   5.0503   5.0555   5.0878
  5.1441   5.2322   5.2463   5.2730   5.3177   5.3301   5.3763   5.3799
  5.3810   5.3836   5.4596   5.4940   5.5254   5.6045   5.6374   5.7457
  5.9677   6.3859   6.3874   6.3938   6.4179   6.4681  25.2013  25.4443
 25.4538
 --------------------------------------------------------------
 
 -----------------------------------------------------------------
                    Cartesian Multipole Moments
 -----------------------------------------------------------------
    Charge (ESU x 10^10)
                -0.0000
    Dipole Moment (Debye)
         X      -0.0000      Y       0.0000      Z      -0.0831
       Tot       0.0831
    Quadrupole Moments (Debye-Ang)
        XX     -22.1557     XY       0.0367     YY     -21.3842
        XZ       0.0000     YZ      -0.0000     ZZ     -21.8433
    Octopole Moments (Debye-Ang^2)
       XXX       0.0000    XXY       0.0000    XYY      -0.0000
       YYY      -0.0000    XXZ      -1.5260    XYZ      -0.4639
       YYZ       0.4817    XZZ      -0.0000    YZZ      -0.0000
       ZZZ      -0.4118
    Hexadecapole Moments (Debye-Ang^3)
      XXXX    -202.2397   XXXY       0.7538   XXYY     -42.2058
      XYYY       1.1545   YYYY     -44.1352   XXXZ       0.0000
      XXYZ      -0.0000   XYYZ       0.0000   YYYZ       0.0000
      XXZZ     -45.2254   XYZZ       0.0578   YYZZ     -17.0993
      XZZZ       0.0000   YZZZ       0.0000   ZZZZ     -72.1361
 -----------------------------------------------------------------
Archival summary:
1\1\centos77-c4\SP\ProcedureUnspecified\BasisUnspecified\38\shihchen\TueJul700:57:302020TueJul700:57:302020\0\\#,ProcedureUnspecified,BasisUnspecified,\\0,1\C\H,1,1.09259\H,1,1.09259,2,106.273\C,1,1.52405,2,106.903,3,119.862,0\H,4,1.09047,1,111.516,2,-53.3572,0\H,4,1.09094,1,115.236,2,-177.942,0\H,4,1.0928,1,106.56,2,62.7643,0\C,1,1.52405,2,112.076,3,-116.439,0\H,8,1.09047,1,111.516,2,62.7008,0\H,8,1.09094,1,115.236,2,-61.8839,0\H,8,1.0928,1,106.56,2,178.822,0\\\@

 Total job time:  27.42s(wall), 74.34s(cpu) 
 Tue Jul  7 00:57:30 2020

        *************************************************************
        *                                                           *
        *  Thank you very much for using Q-Chem.  Have a nice day.  *
        *                                                           *
        *************************************************************


