                  Welcome to Q-Chem
     A Quantum Leap Into The Future Of Chemistry


 Q-Chem 5.3 (devel), Q-Chem, Inc., Pleasanton, CA (2020)

 Yihan Shao,  Zhengting Gan,  E. Epifanovsky,  A. T. B. Gilbert,  M. Wormit,  
 J. Kussmann,  A. W. Lange,  A. Behn,  Jia Deng,  Xintian Feng,  D. Ghosh,  
 M. Goldey,  P. R. Horn,  L. D. Jacobson,  I. Kaliman,  T. Kus,  A. Landau,  
 Jie Liu,  E. I. Proynov,  R. M. Richard,  R. P. Steele,  E. J. Sundstrom,  
 H. L. Woodcock III,  P. M. Zimmerman,  D. Zuev,  B. Alam,  B. Albrecht,  
 E. Alguire,  S. A. Baeppler,  D. Barton,  Z. Benda,  Y. A. Bernard,  
 E. J. Berquist,  K. B. Bravaya,  H. Burton,  K. Carter-Fenk,  D. Casanova,  
 Chun-Min Chang,  Yunqing Chen,  A. Chien,  K. D. Closser,  M. P. Coons,  
 S. Coriani,  S. Dasgupta,  A. L. Dempwolff,  M. Diedenhofen,  Hainam Do,  
 R. G. Edgar,  Po-Tung Fang,  S. Faraji,  S. Fatehi,  Qingguo Feng,  
 J. Fosso-Tande,  J. Gayvert,  Qinghui Ge,  A. Ghysels,  G. Gidofalvi,  
 J. Gomes,  J. Gonthier,  A. Gunina,  D. Hait,  M. W. D. Hanson-Heine,  
 P. H. P. Harbach,  A. W. Hauser,  M. F. Herbst,  J. E. Herr,  
 E. G. Hohenstein,  Z. C. Holden,  Kerwin Hui,  B. C. Huynh,  T.-C. Jagau,  
 Hyunjun Ji,  B. Kaduk,  K. Khistyaev,  Jaehoon Kim,  P. Klunzinger,  K. Koh,  
 D. Kosenkov,  L. Koulias,  T. Kowalczyk,  C. M. Krauter,  A. Kunitsa,  
 Ka Un Lao,  A. Laurent,  K. V. Lawler,  Joonho Lee,  D. Lefrancois,  
 S. Lehtola,  D. S. Levine,  Yi-Pei Li,  You-Sheng Lin,  Fenglai Liu,  
 Kuan-Yu Liu,  E. Livshits,  M. Loipersberger,  A. Luenser,  P. Manohar,  
 E. Mansoor,  S. F. Manzer,  Shan-Ping Mao,  Yuezhi Mao,  N. Mardirossian,  
 A. V. Marenich,  T. Markovich,  L. A. Martinez-Martinez,  S. A. Maurer,  
 N. J. Mayhall,  S. C. McKenzie,  J.-M. Mewes,  P. Morgante,  A. F. Morrison,  
 J. W. Mullinax,  K. Nanda,  T. S. Nguyen-Beck,  R. Olivares-Amaya,  
 K. J. Oosterbaan,  J. A. Parkhill,  S. K. Paul,  F. Pavosevic,  Zheng Pei,  
 T. M. Perrine,  F. Plasser,  P. Pokhilko,  S. Prager,  A. Prociuk,  
 E. Ramos,  B. Rana,  D. R. Rehn,  F. Rob,  M. Scheurer,  M. Schneider,  
 N. Sergueev,  S. M. Sharada,  S. Sharma,  D. W. Small,  T. Stauch,  
 C. J. Stein,  T. Stein,  Yu-Chuan Su,  S. P. Veccham,  Zhen Tao,  
 A. J. W. Thom,  A. Tkatchenko,  T. Tsuchimochi,  N. M. Tubman,  L. Vogt,  
 M. L. Vidal,  O. Vydrov,  M. A. Watson,  J. Wenzel,  M. de Wergifosse,  
 T. A. Wesolowski,  A. White,  J. Witte,  A. Yamada,  Jun Yang,  K. Yao,  
 S. Yeganeh,  S. R. Yost,  Zhi-Qiang You,  A. Zech,  Igor Ying Zhang,  
 Xing Zhang,  Yan Zhao,  Ying Zhu,  B. R. Brooks,  G. K. L. Chan,  
 C. J. Cramer,  M. S. Gordon,  W. J. Hehre,  A. Klamt,  M. W. Schmidt,  
 C. D. Sherrill,  D. G. Truhlar,  A. Aspuru-Guzik,  R. Baer,  A. T. Bell,  
 N. A. Besley,  Jeng-Da Chai,  A. E. DePrince, III,  R. A. DiStasio Jr.,  
 A. Dreuw,  B. D. Dunietz,  T. R. Furlani,  Chao-Ping Hsu,  Yousung Jung,  
 Jing Kong,  D. S. Lambrecht,  WanZhen Liang,  C. Ochsenfeld,  
 V. A. Rassolov,  L. V. Slipchenko,  J. E. Subotnik,  T. Van Voorhis,  
 J. M. Herbert,  A. I. Krylov,  P. M. W. Gill,  M. Head-Gordon

 Contributors to earlier versions of Q-Chem not listed above: 
 R. D. Adamson,  B. Austin,  J. Baker,  G. J. O. Beran,  K. Brandhorst,  
 S. T. Brown,  E. F. C. Byrd,  A. K. Chakraborty,  C.-L. Cheng,  
 Siu Hung Chien,  D. M. Chipman,  D. L. Crittenden,  H. Dachsel,  
 R. J. Doerksen,  A. D. Dutoi,  L. Fusti-Molnar,  W. A. Goddard III,  
 A. Golubeva-Zadorozhnaya,  S. R. Gwaltney,  G. Hawkins,  A. Heyden,  
 S. Hirata,  G. Kedziora,  F. J. Keil,  C. Kelley,  Jihan Kim,  R. A. King,  
 R. Z. Khaliullin,  P. P. Korambath,  W. Kurlancheek,  A. M. Lee,  M. S. Lee,  
 S. V. Levchenko,  Ching Yeh Lin,  D. Liotard,  R. C. Lochan,  I. Lotan,  
 P. E. Maslen,  N. Nair,  D. P. O'Neill,  D. Neuhauser,  E. Neuscamman,  
 C. M. Oana,  R. Olson,  B. Peters,  R. Peverati,  P. A. Pieniazek,  
 Y. M. Rhee,  J. Ritchie,  M. A. Rohrdanz,  E. Rosta,  N. J. Russ,  
 H. F. Schaefer III,  N. E. Schultz,  N. Shenvi,  A. C. Simmonett,  A. Sodt,  
 D. Stuck,  K. S. Thanthiriwatte,  V. Vanovschi,  Tao Wang,  A. Warshel,  
 C. F. Williams,  Q. Wu,  X. Xu,  W. Zhang

 Please cite Q-Chem as follows:
 Y. Shao et al., Mol. Phys. 113, 184-215 (2015)
 DOI: 10.1080/00268976.2014.952696

 Q-Chem 5.3.0 for Intel X86 EM64T Linux

 Parts of Q-Chem use Armadillo 9.800.1 (Horizon Scraper).
 http://arma.sourceforge.net/

 Q-Chem begins on Thu Jul  2 05:35:58 2020  

Host: centos77-c1
0

     Scratch files written to /tmp/26650.centos77-h1/qchem79849//
Processing $rem in /opt/qchem-5.3.0-intel2020u1//config/preferences:
Processing $rem in /home/shihchengli/.qchemrc:

Checking the input file for inconsistencies... 	...done.

--------------------------------------------------------------
User input:
--------------------------------------------------------------
$rem
   JOBTYPE  sp
   EXCHANGE   omegaB97X-D
   BASIS   6-311+G(2df,2pd)
   max_scf_cycles   250
   geom_opt_max_cycles   1500
   basis2 6-31G*
   scf_algorithm rca_diis
   SYM_IGNORE  TRUE
   print_input   true
   geom_opt_dmax   80
   pop_mulliken false
   XC_GRID 000075000302
$end

$molecule
0 1
C       1.3025200536     0.0000030910     0.2329275664
C       0.0361745707     0.0000016707     -0.5836308002
H       1.3217240086     -0.7447990394     1.0358292191
H       1.3217148293     0.7448022752     1.0358316103
H       2.1218068863     -0.0000097030     -0.4773569702
C       -1.2316820839     -0.0000010239     0.2928279561
H       -0.0282822254     -0.8729233381     -1.2375446067
H       -0.0282825274     0.8729255974     -1.2375461433
H       -1.3091945511     -0.9831354790     0.7533306865
H       -2.1972977188     0.0000032072     -0.2269536513
H       -1.3092013024     0.9831334078     0.7533301523
$end
--------------------------------------------------------------
 ----------------------------------------------------------------
             Standard Nuclear Orientation (Angstroms)
    I     Atom           X                Y                Z
 ----------------------------------------------------------------
    1      C       1.3025200536     0.0000030910     0.2329275664
    2      C       0.0361745707     0.0000016707    -0.5836308002
    3      H       1.3217240086    -0.7447990394     1.0358292191
    4      H       1.3217148293     0.7448022752     1.0358316103
    5      H       2.1218068863    -0.0000097030    -0.4773569702
    6      C      -1.2316820839    -0.0000010239     0.2928279561
    7      H      -0.0282822254    -0.8729233381    -1.2375446067
    8      H      -0.0282825274     0.8729255974    -1.2375461433
    9      H      -1.3091945511    -0.9831354790     0.7533306865
   10      H      -2.1972977188     0.0000032072    -0.2269536513
   11      H      -1.3092013024     0.9831334078     0.7533301523
 ----------------------------------------------------------------
 Nuclear Repulsion Energy =          82.77153749 hartrees
 There are       13 alpha and       13 beta electrons
 Requested basis set is 6-311+G(2df,2pd)
 There are 72 shells and 214 basis functions

 Total QAlloc Memory Limit   2000 MB
 Mega-Array Size       188 MB
 MEM_STATIC part       192 MB

                       Distance Matrix (Angstroms)
             C (  1)   C (  2)   H (  3)   H (  4)   H (  5)   C (  6)
   C (  2)  1.506784
   H (  3)  1.095331  2.197730
   H (  4)  1.095331  2.197726  1.489601
   H (  5)  1.084313  2.088338  1.866702  1.866717
   C (  6)  2.534910  1.541311  2.761640  2.761634  3.440795
   H (  7)  2.166870  1.092591  2.647104  3.099640  2.441874  2.133590
   H (  8)  2.166869  1.092591  3.099643  2.647103  2.441882  2.133592
   H (  9)  2.838738  2.136362  2.656754  3.160263  3.775301  1.088404
   H ( 10)  3.529903  2.261773  3.812199  3.812191  4.326357  1.096625
   H ( 11)  2.838741  2.136363  3.160273  2.656751  3.775312  1.088405
             H (  7)   H (  8)   H (  9)   H ( 10)
   H (  8)  1.745849
   H (  9)  2.369909  3.008204
   H ( 10)  2.547140  2.547139  1.648104
   H ( 11)  3.008203  2.369913  1.966269  1.648095
 
 A cutoff of  1.0D-09 yielded   2537 shell pairs
 There are     22597 function pairs (     27781 Cartesian)
 Smallest overlap matrix eigenvalue = 8.31E-05

 Scale SEOQF with 1.000000e-01/1.000000e-01/1.000000e-01

 Standard Electronic Orientation quadrupole field applied
 Nucleus-field energy     =     0.0000000006 hartrees
 Requested basis set is 6-31G(d)
 There are 28 shells and 58 basis functions
 A cutoff of  1.0D-09 yielded    402 shell pairs
 There are      1773 function pairs (      1968 Cartesian)
 Smallest overlap matrix eigenvalue = 6.83E-03
 Guess from superposition of atomic densities
 Warning:  Energy on first SCF cycle will be non-variational
 SAD guess density has 26.000000 electrons
 Long-range K will be added via erf
 Coulomb attenuation parameter = 0.2 bohr**(-1)
 A restricted hybrid HF-DFT SCF calculation will be
 performed using Relaxed Constraint Minimization + Pulay DIIS
 Exchange:     0.2220 Hartree-Fock + 1.0000 wB97X-D + LR-HF
 Correlation:  1.0000 wB97X-D
 Using Euler-Maclaurin-Lebedev (75,302) quadrature formula
 Dispersion:   Grimme D
 SCF converges when DIIS error is below 1.0E-04
 using 3 threads for integral computing
 -------------------------------------------------------
 OpenMP Integral computing Module                
 Release: version 1.0, May 2013, Q-Chem Inc. Pittsburgh 
 -------------------------------------------------------
 using 3 threads for integral computing
 -------------------------------------------------------
 OpenMP Integral computing Module                
 Release: version 1.0, May 2013, Q-Chem Inc. Pittsburgh 
 -------------------------------------------------------
 ---------------------------------------
  Cycle       Energy         DIIS Error
 ---------------------------------------
    1    -119.6351275861      1.01E-01
    2    -119.0319389207      9.24E-03
    3    -119.0542246591      2.52E-03
    4    -119.0691286791      1.73E-03
    5    -119.0698669481      2.74E-04 Done RCA. Switching to DIIS
    6    -119.0704161584      2.01E-04
    7    -119.0704338861      6.58E-06 Convergence criterion met
 ---------------------------------------
 SCF time:  CPU 20.87 s  wall 7.88 s
 SCF   energy in the small basis set = -119.07043389
 Total energy in the small basis set = -119.07043389
 ----------------------------------------------------
  Cycle       Energy    
 ----------------------------------------------------
    1     -16.5353510377     -1.65E+01
 Long-range K will be added via erf
 Coulomb attenuation parameter = 0.2 bohr**(-1)
 A restricted hybrid HF-DFT SCF calculation will be
 performed using Relaxed Constraint Minimization + Pulay DIIS
 Exchange:     0.2220 Hartree-Fock + 1.0000 wB97X-D + LR-HF
 Correlation:  1.0000 wB97X-D
 Using Euler-Maclaurin-Lebedev (75,302) quadrature formula
 Dispersion:   Grimme D
 SCF converges when DIIS error is below 1.0E-05
 Basis2 calculation detected. Using small basis as guess for larger.
 SCFMinFind is unable to tell whether the solution found is close.
 Resetting ReadMinima to 0 and attempting to follow guess.
 SCFMinFind following SCF Guess.
 using 3 threads for integral computing
 -------------------------------------------------------
 OpenMP Integral computing Module                
 Release: version 1.0, May 2013, Q-Chem Inc. Pittsburgh 
 -------------------------------------------------------
 using 3 threads for integral computing
 -------------------------------------------------------
 OpenMP Integral computing Module                
 Release: version 1.0, May 2013, Q-Chem Inc. Pittsburgh 
 -------------------------------------------------------
 ---------------------------------------
  Cycle       Energy         DIIS Error
 ---------------------------------------
    1    -119.0911913851      4.21E-03
    2    -119.1131807390      6.22E-04 Done RCA. Switching to DIIS
    3    -119.1140589949      4.43E-04
    4    -119.1151359131      4.68E-05
    5    -119.1151518996      1.06E-05
    6    -119.1151527214      4.07E-06 Convergence criterion met
 ---------------------------------------
 SCF time:  CPU 50.20 s  wall 16.92 s
 SCF   energy in the final basis set = -119.11515272
 Total energy in the final basis set = -119.11515272
 
 --------------------------------------------------------------
 
                    Orbital Energies (a.u.)
 --------------------------------------------------------------
 
 Alpha MOs
 -- Occupied --
-10.2744 -10.2658 -10.2657  -0.8828  -0.7809  -0.6816  -0.5520  -0.5357
 -0.4896  -0.4623  -0.4192  -0.3980  -0.3931
 -- Virtual --
  0.0688   0.0855   0.0896   0.0978   0.1209   0.1307   0.1336   0.1405
  0.1436   0.1655   0.1757   0.1918   0.2217   0.2361   0.2603   0.2663
  0.2678   0.2861   0.2978   0.3171   0.3300   0.3435   0.4594   0.4717
  0.4806   0.5038   0.5191   0.5233   0.5436   0.5625   0.5724   0.6082
  0.6217   0.6283   0.6463   0.6480   0.6510   0.6648   0.7075   0.7137
  0.7285   0.7653   0.8030   0.8482   0.8703   0.8772   0.9045   0.9412
  0.9882   1.0392   1.0855   1.0972   1.1329   1.1780   1.1795   1.2221
  1.2335   1.2502   1.2716   1.2774   1.2950   1.2970   1.3487   1.3733
  1.3774   1.3948   1.4156   1.4491   1.4548   1.4690   1.4806   1.4960
  1.5161   1.5502   1.6051   1.6120   1.6431   1.6525   1.6780   1.7252
  1.7803   2.3879   2.4720   2.4954   2.5077   2.5617   2.5829   2.6032
  2.6184   2.7273   2.7958   2.8195   2.8223   2.8228   2.9163   2.9283
  2.9398   2.9569   2.9929   2.9960   3.0412   3.0663   3.0718   3.1068
  3.1428   3.1581   3.1731   3.1935   3.2119   3.2388   3.2521   3.2885
  3.2936   3.3237   3.3440   3.3701   3.4146   3.4214   3.4408   3.4580
  3.4984   3.4997   3.5276   3.5534   3.5574   3.5789   3.6018   3.6075
  3.6178   3.6340   3.6786   3.6909   3.7497   3.7749   3.7886   3.8322
  3.8539   3.8956   3.9388   3.9595   3.9656   3.9871   4.0111   4.0581
  4.0617   4.0805   4.0991   4.1015   4.1229   4.1760   4.2074   4.2345
  4.2479   4.2577   4.3187   4.3577   4.3805   4.3925   4.4036   4.4514
  4.5022   4.5698   4.6053   4.6303   4.6729   4.7173   4.8046   4.8222
  4.8403   4.9335   4.9550   4.9707   4.9897   4.9933   5.0585   5.1230
  5.1780   5.1860   5.2450   5.3087   5.3358   5.3372   5.4165   5.4335
  5.4873   5.5005   5.5500   5.6029   5.6251   5.6657   5.7662   5.8394
  5.9814   6.3286   6.3541   6.3715   6.4746   6.4906  25.1974  25.4148
 25.4677
 --------------------------------------------------------------
 
 -----------------------------------------------------------------
                    Cartesian Multipole Moments
 -----------------------------------------------------------------
    Charge (ESU x 10^10)
                 0.0000
    Dipole Moment (Debye)
         X      -0.1184      Y      -0.0000      Z      -0.0794
       Tot       0.1426
    Quadrupole Moments (Debye-Ang)
        XX     -22.1413     XY      -0.0000     YY     -21.5463
        XZ       0.1392     YZ       0.0000     ZZ     -21.8332
    Octopole Moments (Debye-Ang^2)
       XXX      -2.7049    XXY      -0.0001    XYY      -2.4450
       YYY      -0.0001    XXZ      -1.3749    XYZ       0.0000
       YYZ       0.0572    XZZ       1.6348    YZZ      -0.0000
       ZZZ      -0.4138
    Hexadecapole Moments (Debye-Ang^3)
      XXXX    -203.5616   XXXY      -0.0003   XXYY     -42.5440
      XYYY      -0.0000   YYYY     -44.1714   XXXZ      -1.6605
      XXYZ       0.0000   XYYZ      -0.5043   YYYZ      -0.0000
      XXZZ     -45.1949   XYZZ      -0.0000   YYZZ     -17.7323
      XZZZ       3.0246   YZZZ       0.0000   ZZZZ     -72.1040
 -----------------------------------------------------------------
Archival summary:
1\1\centos77-c1\SP\ProcedureUnspecified\BasisUnspecified\38\shihchen\ThuJul205:36:262020ThuJul205:36:262020\0\\#,ProcedureUnspecified,BasisUnspecified,\\0,1\C\H,1,1.09259\H,1,1.09259,2,106.06\C,1,1.50678,2,111.958,3,-122.384,0\H,4,1.08431,1,106.262,2,59.4776,0\H,4,1.09533,1,114.329,2,-168.788,0\H,4,1.09533,1,114.329,2,-72.2552,0\C,1,1.54131,2,106.966,3,113.91,0\H,8,1.0884,1,107.408,2,52.1546,0\H,8,1.0884,1,107.408,2,-165.449,0\H,8,1.09663,1,117.051,2,-56.6478,0\\\@

 Total job time:  27.67s(wall), 74.60s(cpu) 
 Thu Jul  2 05:36:26 2020

        *************************************************************
        *                                                           *
        *  Thank you very much for using Q-Chem.  Have a nice day.  *
        *                                                           *
        *************************************************************


