                  Welcome to Q-Chem
     A Quantum Leap Into The Future Of Chemistry


 Q-Chem 5.3 (devel), Q-Chem, Inc., Pleasanton, CA (2020)

 Yihan Shao,  Zhengting Gan,  E. Epifanovsky,  A. T. B. Gilbert,  M. Wormit,  
 J. Kussmann,  A. W. Lange,  A. Behn,  Jia Deng,  Xintian Feng,  D. Ghosh,  
 M. Goldey,  P. R. Horn,  L. D. Jacobson,  I. Kaliman,  T. Kus,  A. Landau,  
 Jie Liu,  E. I. Proynov,  R. M. Richard,  R. P. Steele,  E. J. Sundstrom,  
 H. L. Woodcock III,  P. M. Zimmerman,  D. Zuev,  B. Alam,  B. Albrecht,  
 E. Alguire,  S. A. Baeppler,  D. Barton,  Z. Benda,  Y. A. Bernard,  
 E. J. Berquist,  K. B. Bravaya,  H. Burton,  K. Carter-Fenk,  D. Casanova,  
 Chun-Min Chang,  Yunqing Chen,  A. Chien,  K. D. Closser,  M. P. Coons,  
 S. Coriani,  S. Dasgupta,  A. L. Dempwolff,  M. Diedenhofen,  Hainam Do,  
 R. G. Edgar,  Po-Tung Fang,  S. Faraji,  S. Fatehi,  Qingguo Feng,  
 J. Fosso-Tande,  J. Gayvert,  Qinghui Ge,  A. Ghysels,  G. Gidofalvi,  
 J. Gomes,  J. Gonthier,  A. Gunina,  D. Hait,  M. W. D. Hanson-Heine,  
 P. H. P. Harbach,  A. W. Hauser,  M. F. Herbst,  J. E. Herr,  
 E. G. Hohenstein,  Z. C. Holden,  Kerwin Hui,  B. C. Huynh,  T.-C. Jagau,  
 Hyunjun Ji,  B. Kaduk,  K. Khistyaev,  Jaehoon Kim,  P. Klunzinger,  K. Koh,  
 D. Kosenkov,  L. Koulias,  T. Kowalczyk,  C. M. Krauter,  A. Kunitsa,  
 Ka Un Lao,  A. Laurent,  K. V. Lawler,  Joonho Lee,  D. Lefrancois,  
 S. Lehtola,  D. S. Levine,  Yi-Pei Li,  You-Sheng Lin,  Fenglai Liu,  
 Kuan-Yu Liu,  E. Livshits,  M. Loipersberger,  A. Luenser,  P. Manohar,  
 E. Mansoor,  S. F. Manzer,  Shan-Ping Mao,  Yuezhi Mao,  N. Mardirossian,  
 A. V. Marenich,  T. Markovich,  L. A. Martinez-Martinez,  S. A. Maurer,  
 N. J. Mayhall,  S. C. McKenzie,  J.-M. Mewes,  P. Morgante,  A. F. Morrison,  
 J. W. Mullinax,  K. Nanda,  T. S. Nguyen-Beck,  R. Olivares-Amaya,  
 K. J. Oosterbaan,  J. A. Parkhill,  S. K. Paul,  F. Pavosevic,  Zheng Pei,  
 T. M. Perrine,  F. Plasser,  P. Pokhilko,  S. Prager,  A. Prociuk,  
 E. Ramos,  B. Rana,  D. R. Rehn,  F. Rob,  M. Scheurer,  M. Schneider,  
 N. Sergueev,  S. M. Sharada,  S. Sharma,  D. W. Small,  T. Stauch,  
 C. J. Stein,  T. Stein,  Yu-Chuan Su,  S. P. Veccham,  Zhen Tao,  
 A. J. W. Thom,  A. Tkatchenko,  T. Tsuchimochi,  N. M. Tubman,  L. Vogt,  
 M. L. Vidal,  O. Vydrov,  M. A. Watson,  J. Wenzel,  M. de Wergifosse,  
 T. A. Wesolowski,  A. White,  J. Witte,  A. Yamada,  Jun Yang,  K. Yao,  
 S. Yeganeh,  S. R. Yost,  Zhi-Qiang You,  A. Zech,  Igor Ying Zhang,  
 Xing Zhang,  Yan Zhao,  Ying Zhu,  B. R. Brooks,  G. K. L. Chan,  
 C. J. Cramer,  M. S. Gordon,  W. J. Hehre,  A. Klamt,  M. W. Schmidt,  
 C. D. Sherrill,  D. G. Truhlar,  A. Aspuru-Guzik,  R. Baer,  A. T. Bell,  
 N. A. Besley,  Jeng-Da Chai,  A. E. DePrince, III,  R. A. DiStasio Jr.,  
 A. Dreuw,  B. D. Dunietz,  T. R. Furlani,  Chao-Ping Hsu,  Yousung Jung,  
 Jing Kong,  D. S. Lambrecht,  WanZhen Liang,  C. Ochsenfeld,  
 V. A. Rassolov,  L. V. Slipchenko,  J. E. Subotnik,  T. Van Voorhis,  
 J. M. Herbert,  A. I. Krylov,  P. M. W. Gill,  M. Head-Gordon

 Contributors to earlier versions of Q-Chem not listed above: 
 R. D. Adamson,  B. Austin,  J. Baker,  G. J. O. Beran,  K. Brandhorst,  
 S. T. Brown,  E. F. C. Byrd,  A. K. Chakraborty,  C.-L. Cheng,  
 Siu Hung Chien,  D. M. Chipman,  D. L. Crittenden,  H. Dachsel,  
 R. J. Doerksen,  A. D. Dutoi,  L. Fusti-Molnar,  W. A. Goddard III,  
 A. Golubeva-Zadorozhnaya,  S. R. Gwaltney,  G. Hawkins,  A. Heyden,  
 S. Hirata,  G. Kedziora,  F. J. Keil,  C. Kelley,  Jihan Kim,  R. A. King,  
 R. Z. Khaliullin,  P. P. Korambath,  W. Kurlancheek,  A. M. Lee,  M. S. Lee,  
 S. V. Levchenko,  Ching Yeh Lin,  D. Liotard,  R. C. Lochan,  I. Lotan,  
 P. E. Maslen,  N. Nair,  D. P. O'Neill,  D. Neuhauser,  E. Neuscamman,  
 C. M. Oana,  R. Olson,  B. Peters,  R. Peverati,  P. A. Pieniazek,  
 Y. M. Rhee,  J. Ritchie,  M. A. Rohrdanz,  E. Rosta,  N. J. Russ,  
 H. F. Schaefer III,  N. E. Schultz,  N. Shenvi,  A. C. Simmonett,  A. Sodt,  
 D. Stuck,  K. S. Thanthiriwatte,  V. Vanovschi,  Tao Wang,  A. Warshel,  
 C. F. Williams,  Q. Wu,  X. Xu,  W. Zhang

 Please cite Q-Chem as follows:
 Y. Shao et al., Mol. Phys. 113, 184-215 (2015)
 DOI: 10.1080/00268976.2014.952696

 Q-Chem 5.3.0 for Intel X86 EM64T Linux

 Parts of Q-Chem use Armadillo 9.800.1 (Horizon Scraper).
 http://arma.sourceforge.net/

 Q-Chem begins on Thu Jul  2 05:52:24 2020  

Host: centos77-c1
0

     Scratch files written to /tmp/26650.centos77-h1/qchem81365//
Processing $rem in /opt/qchem-5.3.0-intel2020u1//config/preferences:
Processing $rem in /home/shihchengli/.qchemrc:

Checking the input file for inconsistencies... 	...done.

--------------------------------------------------------------
User input:
--------------------------------------------------------------
$rem
   JOBTYPE  sp
   EXCHANGE   omegaB97X-D
   BASIS   6-311+G(2df,2pd)
   max_scf_cycles   250
   geom_opt_max_cycles   1500
   basis2 6-31G*
   scf_algorithm rca_diis
   SYM_IGNORE  TRUE
   print_input   true
   geom_opt_dmax   80
   pop_mulliken false
   XC_GRID 000075000302
$end

$molecule
0 1
C       1.2727082587     0.0000000199     0.2736436819
C       0.0000005510     0.0000000945     -0.5785211419
H       1.3038152704     -0.8083211008     0.8619183240
H       1.3038153371     0.8083212005     0.8619183419
H       2.1039176376     -0.0000000116     -0.3064567321
C       -1.2727069445     0.0000001940     0.2736427526
H       0.0000006824     -0.8708383306     -1.2312418752
H       0.0000006813     0.8708382851     -1.2312417443
H       -1.3038147823     -0.8083280740     0.8619228190
H       -2.1039220508     0.0000008235     -0.3064616349
H       -1.3038147017     0.8083275656     0.8619222279
$end
--------------------------------------------------------------
 ----------------------------------------------------------------
             Standard Nuclear Orientation (Angstroms)
    I     Atom           X                Y                Z
 ----------------------------------------------------------------
    1      C       1.2727082587     0.0000000199     0.2736436819
    2      C       0.0000005510     0.0000000945    -0.5785211419
    3      H       1.3038152704    -0.8083211008     0.8619183240
    4      H       1.3038153371     0.8083212005     0.8619183419
    5      H       2.1039176376    -0.0000000116    -0.3064567321
    6      C      -1.2727069445     0.0000001940     0.2736427526
    7      H       0.0000006824    -0.8708383306    -1.2312418752
    8      H       0.0000006813     0.8708382851    -1.2312417443
    9      H      -1.3038147823    -0.8083280740     0.8619228190
   10      H      -2.1039220508     0.0000008235    -0.3064616349
   11      H      -1.3038147017     0.8083275656     0.8619222279
 ----------------------------------------------------------------
 Nuclear Repulsion Energy =          84.66003253 hartrees
 There are       13 alpha and       13 beta electrons
 Requested basis set is 6-311+G(2df,2pd)
 There are 72 shells and 214 basis functions

 Total QAlloc Memory Limit   2000 MB
 Mega-Array Size       188 MB
 MEM_STATIC part       192 MB

                       Distance Matrix (Angstroms)
             C (  1)   C (  2)   H (  3)   H (  4)   H (  5)   C (  6)
   C (  2)  1.531656
   H (  3)  1.000209  2.104325
   H (  4)  1.000209  2.104325  1.616642
   H (  5)  1.013620  2.121435  1.630536  1.630536
   C (  6)  2.545415  1.531655  2.763678  2.763678  3.426092
   H (  7)  2.154721  1.088303  2.466812  2.983426  2.457652  2.154721
   H (  8)  2.154721  1.088303  2.983426  2.466812  2.457652  2.154721
   H (  9)  2.763682  2.104331  2.607630  3.068108  3.692038  1.000218
   H ( 10)  3.426099  2.121440  3.692041  3.692041  4.207840  1.013627
   H ( 11)  2.763682  2.104330  3.068108  2.607630  3.692038  1.000217
             H (  7)   H (  8)   H (  9)   H ( 10)
   H (  8)  1.741677
   H (  9)  2.466816  2.983433
   H ( 10)  2.457655  2.457655  1.630549
   H ( 11)  2.983432  2.466815  1.616656  1.630547
 
 A cutoff of  1.0D-09 yielded   2544 shell pairs
 There are     22618 function pairs (     27805 Cartesian)
 Smallest overlap matrix eigenvalue = 9.09E-05

 Scale SEOQF with 1.000000e-01/1.000000e-01/1.000000e-01

 Standard Electronic Orientation quadrupole field applied
 Nucleus-field energy     =     0.0000000006 hartrees
 Requested basis set is 6-31G(d)
 There are 28 shells and 58 basis functions
 A cutoff of  1.0D-09 yielded    402 shell pairs
 There are      1773 function pairs (      1968 Cartesian)
 Smallest overlap matrix eigenvalue = 6.47E-03
 Guess from superposition of atomic densities
 Warning:  Energy on first SCF cycle will be non-variational
 SAD guess density has 26.000000 electrons
 Long-range K will be added via erf
 Coulomb attenuation parameter = 0.2 bohr**(-1)
 A restricted hybrid HF-DFT SCF calculation will be
 performed using Relaxed Constraint Minimization + Pulay DIIS
 Exchange:     0.2220 Hartree-Fock + 1.0000 wB97X-D + LR-HF
 Correlation:  1.0000 wB97X-D
 Using Euler-Maclaurin-Lebedev (75,302) quadrature formula
 Dispersion:   Grimme D
 SCF converges when DIIS error is below 1.0E-04
 using 3 threads for integral computing
 -------------------------------------------------------
 OpenMP Integral computing Module                
 Release: version 1.0, May 2013, Q-Chem Inc. Pittsburgh 
 -------------------------------------------------------
 using 3 threads for integral computing
 -------------------------------------------------------
 OpenMP Integral computing Module                
 Release: version 1.0, May 2013, Q-Chem Inc. Pittsburgh 
 -------------------------------------------------------
 ---------------------------------------
  Cycle       Energy         DIIS Error
 ---------------------------------------
    1    -119.8955082542      1.11E-01
    2    -119.0161873843      1.08E-02
    3    -119.0469973057      3.41E-03
    4    -119.0638857248      2.29E-03
    5    -119.0651871932      4.83E-04 Done RCA. Switching to DIIS
    6    -119.0660077183      3.40E-04
    7    -119.0660557893      5.88E-06 Convergence criterion met
 ---------------------------------------
 SCF time:  CPU 18.32 s  wall 6.51 s
 SCF   energy in the small basis set = -119.06605579
 Total energy in the small basis set = -119.06605579
 ----------------------------------------------------
  Cycle       Energy    
 ----------------------------------------------------
    1     -16.7240797751     -1.67E+01
 Long-range K will be added via erf
 Coulomb attenuation parameter = 0.2 bohr**(-1)
 A restricted hybrid HF-DFT SCF calculation will be
 performed using Relaxed Constraint Minimization + Pulay DIIS
 Exchange:     0.2220 Hartree-Fock + 1.0000 wB97X-D + LR-HF
 Correlation:  1.0000 wB97X-D
 Using Euler-Maclaurin-Lebedev (75,302) quadrature formula
 Dispersion:   Grimme D
 SCF converges when DIIS error is below 1.0E-05
 Basis2 calculation detected. Using small basis as guess for larger.
 SCFMinFind is unable to tell whether the solution found is close.
 Resetting ReadMinima to 0 and attempting to follow guess.
 SCFMinFind following SCF Guess.
 using 3 threads for integral computing
 -------------------------------------------------------
 OpenMP Integral computing Module                
 Release: version 1.0, May 2013, Q-Chem Inc. Pittsburgh 
 -------------------------------------------------------
 using 3 threads for integral computing
 -------------------------------------------------------
 OpenMP Integral computing Module                
 Release: version 1.0, May 2013, Q-Chem Inc. Pittsburgh 
 -------------------------------------------------------
 ---------------------------------------
  Cycle       Energy         DIIS Error
 ---------------------------------------
    1    -119.0890535795      4.23E-03
    2    -119.1114182399      6.29E-04 Done RCA. Switching to DIIS
    3    -119.1124026014      4.12E-04
    4    -119.1132964958      4.54E-05
    5    -119.1133096985      1.31E-05
    6    -119.1133106966      4.08E-06 Convergence criterion met
 ---------------------------------------
 SCF time:  CPU 51.62 s  wall 17.47 s
 SCF   energy in the final basis set = -119.11331070
 Total energy in the final basis set = -119.11331070
 
 --------------------------------------------------------------
 
                    Orbital Energies (a.u.)
 --------------------------------------------------------------
 
 Alpha MOs
 -- Occupied --
-10.2691 -10.2340 -10.2340  -0.8869  -0.7994  -0.6907  -0.5529  -0.5327
 -0.4945  -0.4826  -0.4201  -0.4198  -0.4136
 -- Virtual --
  0.0699   0.0862   0.0916   0.0998   0.1257   0.1304   0.1331   0.1438
  0.1468   0.1743   0.1753   0.1929   0.2524   0.2561   0.2680   0.2687
  0.2957   0.2986   0.3108   0.3193   0.3413   0.3653   0.4537   0.4669
  0.4683   0.5133   0.5163   0.5210   0.5485   0.5753   0.5996   0.6174
  0.6332   0.6374   0.6624   0.6668   0.6689   0.6699   0.7312   0.7698
  0.7712   0.7729   0.8419   0.8690   0.8839   0.8866   0.8918   0.9958
  1.0436   1.0681   1.0756   1.1658   1.1684   1.1989   1.2132   1.2349
  1.2525   1.2558   1.2930   1.2968   1.3013   1.3018   1.3413   1.3932
  1.4080   1.4080   1.4283   1.4665   1.4703   1.4953   1.5036   1.5237
  1.5529   1.6150   1.6334   1.6361   1.6740   1.7079   1.7239   1.7857
  1.7943   2.3235   2.4310   2.4335   2.4416   2.5291   2.5480   2.5807
  2.6099   2.7036   2.8190   2.8716   2.8833   2.9133   2.9593   2.9875
  2.9950   3.0110   3.0200   3.0687   3.0819   3.1049   3.1401   3.1420
  3.1563   3.1712   3.1865   3.2154   3.2267   3.2685   3.2808   3.3272
  3.3553   3.3715   3.3971   3.4006   3.4026   3.4393   3.4489   3.4824
  3.4947   3.5244   3.5251   3.5458   3.5736   3.6154   3.6517   3.6702
  3.6779   3.6786   3.7661   3.7764   3.7806   3.8010   3.8993   3.9107
  3.9648   3.9787   3.9801   3.9938   4.0019   4.0349   4.0983   4.1104
  4.1252   4.1625   4.1804   4.1999   4.2074   4.2256   4.2667   4.3019
  4.3244   4.3648   4.3660   4.4202   4.4494   4.5104   4.5145   4.5289
  4.5607   4.6797   4.6854   4.6914   4.8043   4.9655   4.9697   4.9745
  5.0641   5.1069   5.1283   5.1539   5.2341   5.3086   5.3097   5.3129
  5.3387   5.4490   5.4883   5.4974   5.5417   5.5471   5.5772   5.6144
  5.6642   5.6801   5.6907   5.6931   5.7161   5.7492   5.7890   5.8902
  5.9900   6.4756   6.5961   6.6109   6.6111   6.6138  25.2161  25.7005
 25.7117
 --------------------------------------------------------------
 
 -----------------------------------------------------------------
                    Cartesian Multipole Moments
 -----------------------------------------------------------------
    Charge (ESU x 10^10)
                -0.0000
    Dipole Moment (Debye)
         X       0.0000      Y       0.0000      Z       0.0439
       Tot       0.0439
    Quadrupole Moments (Debye-Ang)
        XX     -21.4808     XY      -0.0000     YY     -20.9633
        XZ       0.0000     YZ      -0.0000     ZZ     -21.4121
    Octopole Moments (Debye-Ang^2)
       XXX       0.0001    XXY       0.0000    XYY       0.0000
       YYY      -0.0000    XXZ      -1.0121    XYZ       0.0000
       YYZ       0.3613    XZZ       0.0000    YZZ      -0.0000
       ZZZ       0.0962
    Hexadecapole Moments (Debye-Ang^3)
      XXXX    -192.6301   XXXY      -0.0000   XXYY     -39.6946
      XYYY       0.0000   YYYY     -40.0264   XXXZ       0.0001
      XXYZ       0.0000   XYYZ      -0.0000   YYYZ       0.0000
      XXZZ     -43.1135   XYZZ       0.0000   YYZZ     -16.1553
      XZZZ       0.0000   YZZZ       0.0000   ZZZZ     -68.0970
 -----------------------------------------------------------------
Archival summary:
1\1\centos77-c1\SP\ProcedureUnspecified\BasisUnspecified\38\shihchen\ThuJul205:52:512020ThuJul205:52:512020\0\\#,ProcedureUnspecified,BasisUnspecified,\\0,1\C\H,1,1.0883\H,1,1.0883,2,106.295\C,1,1.53166,2,109.493,3,-118.181,0\H,4,1.00022,1,110.675,2,-62.1711,0\H,4,1.00022,1,110.675,2,178.341,0\H,4,1.01363,1,111.284,2,58.0848,0\C,1,1.53166,2,109.493,3,118.181,0\H,8,1.00021,1,110.675,2,-178.341,0\H,8,1.00021,1,110.675,2,62.1711,0\H,8,1.01362,1,111.284,2,-58.0848,0\\\@

 Total job time:  26.96s(wall), 73.64s(cpu) 
 Thu Jul  2 05:52:51 2020

        *************************************************************
        *                                                           *
        *  Thank you very much for using Q-Chem.  Have a nice day.  *
        *                                                           *
        *************************************************************


