                  Welcome to Q-Chem
     A Quantum Leap Into The Future Of Chemistry


 Q-Chem 5.3 (devel), Q-Chem, Inc., Pleasanton, CA (2020)

 Yihan Shao,  Zhengting Gan,  E. Epifanovsky,  A. T. B. Gilbert,  M. Wormit,  
 J. Kussmann,  A. W. Lange,  A. Behn,  Jia Deng,  Xintian Feng,  D. Ghosh,  
 M. Goldey,  P. R. Horn,  L. D. Jacobson,  I. Kaliman,  T. Kus,  A. Landau,  
 Jie Liu,  E. I. Proynov,  R. M. Richard,  R. P. Steele,  E. J. Sundstrom,  
 H. L. Woodcock III,  P. M. Zimmerman,  D. Zuev,  B. Alam,  B. Albrecht,  
 E. Alguire,  S. A. Baeppler,  D. Barton,  Z. Benda,  Y. A. Bernard,  
 E. J. Berquist,  K. B. Bravaya,  H. Burton,  K. Carter-Fenk,  D. Casanova,  
 Chun-Min Chang,  Yunqing Chen,  A. Chien,  K. D. Closser,  M. P. Coons,  
 S. Coriani,  S. Dasgupta,  A. L. Dempwolff,  M. Diedenhofen,  Hainam Do,  
 R. G. Edgar,  Po-Tung Fang,  S. Faraji,  S. Fatehi,  Qingguo Feng,  
 J. Fosso-Tande,  J. Gayvert,  Qinghui Ge,  A. Ghysels,  G. Gidofalvi,  
 J. Gomes,  J. Gonthier,  A. Gunina,  D. Hait,  M. W. D. Hanson-Heine,  
 P. H. P. Harbach,  A. W. Hauser,  M. F. Herbst,  J. E. Herr,  
 E. G. Hohenstein,  Z. C. Holden,  Kerwin Hui,  B. C. Huynh,  T.-C. Jagau,  
 Hyunjun Ji,  B. Kaduk,  K. Khistyaev,  Jaehoon Kim,  P. Klunzinger,  K. Koh,  
 D. Kosenkov,  L. Koulias,  T. Kowalczyk,  C. M. Krauter,  A. Kunitsa,  
 Ka Un Lao,  A. Laurent,  K. V. Lawler,  Joonho Lee,  D. Lefrancois,  
 S. Lehtola,  D. S. Levine,  Yi-Pei Li,  You-Sheng Lin,  Fenglai Liu,  
 Kuan-Yu Liu,  E. Livshits,  M. Loipersberger,  A. Luenser,  P. Manohar,  
 E. Mansoor,  S. F. Manzer,  Shan-Ping Mao,  Yuezhi Mao,  N. Mardirossian,  
 A. V. Marenich,  T. Markovich,  L. A. Martinez-Martinez,  S. A. Maurer,  
 N. J. Mayhall,  S. C. McKenzie,  J.-M. Mewes,  P. Morgante,  A. F. Morrison,  
 J. W. Mullinax,  K. Nanda,  T. S. Nguyen-Beck,  R. Olivares-Amaya,  
 K. J. Oosterbaan,  J. A. Parkhill,  S. K. Paul,  F. Pavosevic,  Zheng Pei,  
 T. M. Perrine,  F. Plasser,  P. Pokhilko,  S. Prager,  A. Prociuk,  
 E. Ramos,  B. Rana,  D. R. Rehn,  F. Rob,  M. Scheurer,  M. Schneider,  
 N. Sergueev,  S. M. Sharada,  S. Sharma,  D. W. Small,  T. Stauch,  
 C. J. Stein,  T. Stein,  Yu-Chuan Su,  S. P. Veccham,  Zhen Tao,  
 A. J. W. Thom,  A. Tkatchenko,  T. Tsuchimochi,  N. M. Tubman,  L. Vogt,  
 M. L. Vidal,  O. Vydrov,  M. A. Watson,  J. Wenzel,  M. de Wergifosse,  
 T. A. Wesolowski,  A. White,  J. Witte,  A. Yamada,  Jun Yang,  K. Yao,  
 S. Yeganeh,  S. R. Yost,  Zhi-Qiang You,  A. Zech,  Igor Ying Zhang,  
 Xing Zhang,  Yan Zhao,  Ying Zhu,  B. R. Brooks,  G. K. L. Chan,  
 C. J. Cramer,  M. S. Gordon,  W. J. Hehre,  A. Klamt,  M. W. Schmidt,  
 C. D. Sherrill,  D. G. Truhlar,  A. Aspuru-Guzik,  R. Baer,  A. T. Bell,  
 N. A. Besley,  Jeng-Da Chai,  A. E. DePrince, III,  R. A. DiStasio Jr.,  
 A. Dreuw,  B. D. Dunietz,  T. R. Furlani,  Chao-Ping Hsu,  Yousung Jung,  
 Jing Kong,  D. S. Lambrecht,  WanZhen Liang,  C. Ochsenfeld,  
 V. A. Rassolov,  L. V. Slipchenko,  J. E. Subotnik,  T. Van Voorhis,  
 J. M. Herbert,  A. I. Krylov,  P. M. W. Gill,  M. Head-Gordon

 Contributors to earlier versions of Q-Chem not listed above: 
 R. D. Adamson,  B. Austin,  J. Baker,  G. J. O. Beran,  K. Brandhorst,  
 S. T. Brown,  E. F. C. Byrd,  A. K. Chakraborty,  C.-L. Cheng,  
 Siu Hung Chien,  D. M. Chipman,  D. L. Crittenden,  H. Dachsel,  
 R. J. Doerksen,  A. D. Dutoi,  L. Fusti-Molnar,  W. A. Goddard III,  
 A. Golubeva-Zadorozhnaya,  S. R. Gwaltney,  G. Hawkins,  A. Heyden,  
 S. Hirata,  G. Kedziora,  F. J. Keil,  C. Kelley,  Jihan Kim,  R. A. King,  
 R. Z. Khaliullin,  P. P. Korambath,  W. Kurlancheek,  A. M. Lee,  M. S. Lee,  
 S. V. Levchenko,  Ching Yeh Lin,  D. Liotard,  R. C. Lochan,  I. Lotan,  
 P. E. Maslen,  N. Nair,  D. P. O'Neill,  D. Neuhauser,  E. Neuscamman,  
 C. M. Oana,  R. Olson,  B. Peters,  R. Peverati,  P. A. Pieniazek,  
 Y. M. Rhee,  J. Ritchie,  M. A. Rohrdanz,  E. Rosta,  N. J. Russ,  
 H. F. Schaefer III,  N. E. Schultz,  N. Shenvi,  A. C. Simmonett,  A. Sodt,  
 D. Stuck,  K. S. Thanthiriwatte,  V. Vanovschi,  Tao Wang,  A. Warshel,  
 C. F. Williams,  Q. Wu,  X. Xu,  W. Zhang

 Please cite Q-Chem as follows:
 Y. Shao et al., Mol. Phys. 113, 184-215 (2015)
 DOI: 10.1080/00268976.2014.952696

 Q-Chem 5.3.0 for Intel X86 EM64T Linux

 Parts of Q-Chem use Armadillo 9.800.1 (Horizon Scraper).
 http://arma.sourceforge.net/

 Q-Chem begins on Tue Jul  7 00:29:33 2020  

Host: centos77-c4
0

     Scratch files written to /tmp/26963.centos77-h1/qchem86913//
Processing $rem in /opt/qchem-5.3.0-intel2020u1//config/preferences:
Processing $rem in /home/shihchengli/.qchemrc:

Checking the input file for inconsistencies... 	...done.

--------------------------------------------------------------
User input:
--------------------------------------------------------------
$rem
   JOBTYPE  sp
   EXCHANGE   omegaB97X-D
   BASIS   6-311+G(2df,2pd)
   UNRESTRICTED   False
   max_scf_cycles   250
   geom_opt_max_cycles   1500
   basis2 6-31G*
   scf_algorithm rca_diis
   SYM_IGNORE  TRUE
   print_input   true
   geom_opt_dmax   80
   pop_mulliken false
   XC_GRID 000075000302
$end

$molecule
0 1
C       1.2530749838     -0.1886643798     0.2625305979
C       0.0000002775     0.0000040593     -0.5841853581
H       1.7130046401     -1.1542917651     0.0486678620
H       1.0221118734     -0.1634356210     1.3305492972
H       1.9947916990     0.5848031948     0.0607224213
C       -1.2530747950     0.1886612234     0.2625326439
H       -0.0945047349     -0.8688518516     -1.2398640407
H       0.0945052763     0.8688690811     -1.2398522707
H       -1.0221088846     0.1634498113     1.3305508430
H       -1.9947789127     -0.5848208602     0.0607336898
H       -1.7130214835     1.1542777737     0.0486593333
$end
--------------------------------------------------------------
 ----------------------------------------------------------------
             Standard Nuclear Orientation (Angstroms)
    I     Atom           X                Y                Z
 ----------------------------------------------------------------
    1      C       1.2530749838    -0.1886643798     0.2625305979
    2      C       0.0000002775     0.0000040593    -0.5841853581
    3      H       1.7130046401    -1.1542917651     0.0486678620
    4      H       1.0221118734    -0.1634356210     1.3305492972
    5      H       1.9947916990     0.5848031948     0.0607224213
    6      C      -1.2530747950     0.1886612234     0.2625326439
    7      H      -0.0945047349    -0.8688518516    -1.2398640407
    8      H       0.0945052763     0.8688690811    -1.2398522707
    9      H      -1.0221088846     0.1634498113     1.3305508430
   10      H      -1.9947789127    -0.5848208602     0.0607336898
   11      H      -1.7130214835     1.1542777737     0.0486593333
 ----------------------------------------------------------------
 Nuclear Repulsion Energy =          82.77686760 hartrees
 There are       13 alpha and       13 beta electrons
 Requested basis set is 6-311+G(2df,2pd)
 There are 72 shells and 214 basis functions

 Total QAlloc Memory Limit   2000 MB
 Mega-Array Size       188 MB
 MEM_STATIC part       192 MB

                       Distance Matrix (Angstroms)
             C (  1)   C (  2)   H (  3)   H (  4)   H (  5)   C (  6)
   C (  2)  1.524047
   H (  3)  1.090738  2.160390
   H (  4)  1.092998  2.176611  1.761349
   H (  5)  1.090469  2.176485  1.761817  1.765907
   C (  6)  2.534396  1.524047  3.262957  2.537933  3.278154
   H (  7)  2.129745  1.092592  2.238053  2.889891  2.858286  2.172053
   H (  8)  2.172053  1.092592  2.893614  2.921142  2.320189  2.129745
   H (  9)  2.537935  2.176611  3.295529  2.070191  3.300256  1.092998
   H ( 10)  3.278142  2.176485  3.751280  3.300247  4.157487  1.090469
   H ( 11)  3.262968  2.160390  4.131241  3.295537  3.751310  1.090737
             H (  7)   H (  8)   H (  9)   H ( 10)
   H (  8)  1.747970
   H (  9)  2.921152  2.889882
   H ( 10)  2.320187  2.858294  1.765908
   H ( 11)  2.893604  2.238051  1.761348  1.761816
 
 A cutoff of  1.0D-09 yielded   2529 shell pairs
 There are     22521 function pairs (     27721 Cartesian)
 Smallest overlap matrix eigenvalue = 8.28E-05

 Scale SEOQF with 1.000000e-01/1.000000e-01/1.000000e-01

 Standard Electronic Orientation quadrupole field applied
 Nucleus-field energy     =     0.0000000006 hartrees
 Requested basis set is 6-31G(d)
 There are 28 shells and 58 basis functions
 A cutoff of  1.0D-09 yielded    399 shell pairs
 There are      1770 function pairs (      1965 Cartesian)
 Smallest overlap matrix eigenvalue = 6.28E-03
 Guess from superposition of atomic densities
 Warning:  Energy on first SCF cycle will be non-variational
 SAD guess density has 26.000000 electrons
 Long-range K will be added via erf
 Coulomb attenuation parameter = 0.2 bohr**(-1)
 A restricted hybrid HF-DFT SCF calculation will be
 performed using Relaxed Constraint Minimization + Pulay DIIS
 Exchange:     0.2220 Hartree-Fock + 1.0000 wB97X-D + LR-HF
 Correlation:  1.0000 wB97X-D
 Using Euler-Maclaurin-Lebedev (75,302) quadrature formula
 Dispersion:   Grimme D
 SCF converges when DIIS error is below 1.0E-04
 using 3 threads for integral computing
 -------------------------------------------------------
 OpenMP Integral computing Module                
 Release: version 1.0, May 2013, Q-Chem Inc. Pittsburgh 
 -------------------------------------------------------
 using 3 threads for integral computing
 -------------------------------------------------------
 OpenMP Integral computing Module                
 Release: version 1.0, May 2013, Q-Chem Inc. Pittsburgh 
 -------------------------------------------------------
 ---------------------------------------
  Cycle       Energy         DIIS Error
 ---------------------------------------
    1    -119.6310012616      1.00E-01
    2    -119.0539449557      9.10E-03
    3    -119.0753162543      2.43E-03
    4    -119.0895056225      1.67E-03
    5    -119.0901915425      2.60E-04 Done RCA. Switching to DIIS
    6    -119.0906971548      1.94E-04
    7    -119.0907133818      4.17E-06 Convergence criterion met
 ---------------------------------------
 SCF time:  CPU 20.45 s  wall 7.51 s
 SCF   energy in the small basis set = -119.09071338
 Total energy in the small basis set = -119.09071338
 ----------------------------------------------------
  Cycle       Energy    
 ----------------------------------------------------
    1     -16.5479168176     -1.65E+01
 Long-range K will be added via erf
 Coulomb attenuation parameter = 0.2 bohr**(-1)
 A restricted hybrid HF-DFT SCF calculation will be
 performed using Relaxed Constraint Minimization + Pulay DIIS
 Exchange:     0.2220 Hartree-Fock + 1.0000 wB97X-D + LR-HF
 Correlation:  1.0000 wB97X-D
 Using Euler-Maclaurin-Lebedev (75,302) quadrature formula
 Dispersion:   Grimme D
 SCF converges when DIIS error is below 1.0E-05
 Basis2 calculation detected. Using small basis as guess for larger.
 SCFMinFind is unable to tell whether the solution found is close.
 Resetting ReadMinima to 0 and attempting to follow guess.
 SCFMinFind following SCF Guess.
 using 3 threads for integral computing
 -------------------------------------------------------
 OpenMP Integral computing Module                
 Release: version 1.0, May 2013, Q-Chem Inc. Pittsburgh 
 -------------------------------------------------------
 using 3 threads for integral computing
 -------------------------------------------------------
 OpenMP Integral computing Module                
 Release: version 1.0, May 2013, Q-Chem Inc. Pittsburgh 
 -------------------------------------------------------
 ---------------------------------------
  Cycle       Energy         DIIS Error
 ---------------------------------------
    1    -119.1103237893      4.21E-03
    2    -119.1323008927      6.03E-04 Done RCA. Switching to DIIS
    3    -119.1331305691      4.26E-04
    4    -119.1341270527      4.52E-05
    5    -119.1341418137      1.01E-05
    6    -119.1341425034      3.95E-06 Convergence criterion met
 ---------------------------------------
 SCF time:  CPU 51.44 s  wall 17.36 s
 SCF   energy in the final basis set = -119.13414250
 Total energy in the final basis set = -119.13414250
 
 --------------------------------------------------------------
 
                    Orbital Energies (a.u.)
 --------------------------------------------------------------
 
 Alpha MOs
 -- Occupied --
-10.2713 -10.2631 -10.2631  -0.8809  -0.7762  -0.6776  -0.5444  -0.5277
 -0.4754  -0.4707  -0.4225  -0.4113  -0.3976
 -- Virtual --
  0.0725   0.0880   0.0918   0.1046   0.1212   0.1298   0.1313   0.1315
  0.1447   0.1621   0.1756   0.1877   0.1978   0.2409   0.2725   0.2799
  0.2855   0.3087   0.3190   0.3283   0.3380   0.3709   0.4551   0.4814
  0.5004   0.5083   0.5120   0.5143   0.5268   0.5281   0.5330   0.5737
  0.6178   0.6289   0.6375   0.6398   0.6404   0.6544   0.6841   0.7111
  0.7435   0.7475   0.8782   0.8897   0.9298   0.9421   0.9928   0.9937
  0.9982   1.0038   1.0050   1.0658   1.1521   1.1604   1.2015   1.2102
  1.2369   1.2564   1.2571   1.2613   1.3156   1.3254   1.3547   1.3695
  1.3744   1.3853   1.4183   1.4443   1.4520   1.4758   1.4868   1.5086
  1.5415   1.5465   1.5846   1.5859   1.6387   1.6550   1.6672   1.6788
  1.6930   2.2290   2.3402   2.4137   2.4988   2.5588   2.6235   2.6867
  2.7173   2.7287   2.7920   2.8099   2.8137   2.8440   2.9324   2.9354
  2.9706   2.9823   3.0002   3.0251   3.0388   3.0450   3.1130   3.1475
  3.1593   3.1655   3.1758   3.1849   3.1978   3.2454   3.2574   3.2646
  3.3060   3.3095   3.3368   3.3522   3.3629   3.3765   3.3957   3.3982
  3.4683   3.5116   3.5457   3.5538   3.5673   3.5718   3.6099   3.6386
  3.6442   3.6978   3.7001   3.7033   3.7321   3.7415   3.7503   3.8368
  3.8753   3.9069   3.9247   3.9463   3.9556   4.0310   4.0468   4.0837
  4.1113   4.1209   4.1397   4.1494   4.1562   4.1980   4.2057   4.2297
  4.2310   4.2896   4.3040   4.3240   4.3306   4.4141   4.4544   4.4614
  4.4734   4.5296   4.5689   4.6488   4.7389   4.7682   4.8289   4.8324
  4.9193   4.9612   4.9664   4.9828   5.0284   5.0889   5.0939   5.1170
  5.1519   5.1687   5.1856   5.2453   5.2842   5.2863   5.3252   5.3754
  5.3836   5.4052   5.4191   5.4672   5.5316   5.5873   5.6003   5.7548
  5.9910   6.3184   6.3756   6.4054   6.4235   6.5120  25.0603  25.4459
 25.4591
 --------------------------------------------------------------
 
 -----------------------------------------------------------------
                    Cartesian Multipole Moments
 -----------------------------------------------------------------
    Charge (ESU x 10^10)
                -0.0000
    Dipole Moment (Debye)
         X      -0.0000      Y       0.0000      Z      -0.0973
       Tot       0.0973
    Quadrupole Moments (Debye-Ang)
        XX     -22.4289     XY       0.1337     YY     -21.2104
        XZ       0.0000     YZ       0.0000     ZZ     -21.8136
    Octopole Moments (Debye-Ang^2)
       XXX       0.0000    XXY       0.0000    XYY      -0.0000
       YYY      -0.0000    XXZ      -1.1123    XYZ       0.0450
       YYZ      -1.4391    XZZ      -0.0000    YZZ       0.0000
       ZZZ       0.8303
    Hexadecapole Moments (Debye-Ang^3)
      XXXX    -203.3218   XXXY      14.1892   XXYY     -38.5799
      XYYY      10.5751   YYYY     -46.5871   XXXZ       0.0001
      XXYZ      -0.0000   XYYZ       0.0000   YYYZ       0.0001
      XXZZ     -46.9418   XYZZ       4.1084   YYZZ     -19.6867
      XZZZ       0.0001   YZZZ       0.0001   ZZZZ     -69.2334
 -----------------------------------------------------------------
Archival summary:
1\1\centos77-c4\SP\ProcedureUnspecified\BasisUnspecified\38\shihchen\TueJul700:30:012020TueJul700:30:012020\0\\#,ProcedureUnspecified,BasisUnspecified,\\0,1\C\H,1,1.09259\H,1,1.09259,2,106.245\C,1,1.52405,2,107.823,3,-119.232,0\H,4,1.09047,1,111.631,2,116.799,0\H,4,1.09074,1,110.326,2,-2.97656,0\H,4,1.093,1,111.486,2,-122.377,0\C,1,1.52405,2,111.145,3,117.034,0\H,8,1.09047,1,111.631,2,0.734701,0\H,8,1.09074,1,110.326,2,-119.041,0\H,8,1.093,1,111.486,2,121.558,0\\\@

 Total job time:  27.73s(wall), 75.42s(cpu) 
 Tue Jul  7 00:30:01 2020

        *************************************************************
        *                                                           *
        *  Thank you very much for using Q-Chem.  Have a nice day.  *
        *                                                           *
        *************************************************************


