                  Welcome to Q-Chem
     A Quantum Leap Into The Future Of Chemistry


 Q-Chem 5.3 (devel), Q-Chem, Inc., Pleasanton, CA (2020)

 Yihan Shao,  Zhengting Gan,  E. Epifanovsky,  A. T. B. Gilbert,  M. Wormit,  
 J. Kussmann,  A. W. Lange,  A. Behn,  Jia Deng,  Xintian Feng,  D. Ghosh,  
 M. Goldey,  P. R. Horn,  L. D. Jacobson,  I. Kaliman,  T. Kus,  A. Landau,  
 Jie Liu,  E. I. Proynov,  R. M. Richard,  R. P. Steele,  E. J. Sundstrom,  
 H. L. Woodcock III,  P. M. Zimmerman,  D. Zuev,  B. Alam,  B. Albrecht,  
 E. Alguire,  S. A. Baeppler,  D. Barton,  Z. Benda,  Y. A. Bernard,  
 E. J. Berquist,  K. B. Bravaya,  H. Burton,  K. Carter-Fenk,  D. Casanova,  
 Chun-Min Chang,  Yunqing Chen,  A. Chien,  K. D. Closser,  M. P. Coons,  
 S. Coriani,  S. Dasgupta,  A. L. Dempwolff,  M. Diedenhofen,  Hainam Do,  
 R. G. Edgar,  Po-Tung Fang,  S. Faraji,  S. Fatehi,  Qingguo Feng,  
 J. Fosso-Tande,  J. Gayvert,  Qinghui Ge,  A. Ghysels,  G. Gidofalvi,  
 J. Gomes,  J. Gonthier,  A. Gunina,  D. Hait,  M. W. D. Hanson-Heine,  
 P. H. P. Harbach,  A. W. Hauser,  M. F. Herbst,  J. E. Herr,  
 E. G. Hohenstein,  Z. C. Holden,  Kerwin Hui,  B. C. Huynh,  T.-C. Jagau,  
 Hyunjun Ji,  B. Kaduk,  K. Khistyaev,  Jaehoon Kim,  P. Klunzinger,  K. Koh,  
 D. Kosenkov,  L. Koulias,  T. Kowalczyk,  C. M. Krauter,  A. Kunitsa,  
 Ka Un Lao,  A. Laurent,  K. V. Lawler,  Joonho Lee,  D. Lefrancois,  
 S. Lehtola,  D. S. Levine,  Yi-Pei Li,  You-Sheng Lin,  Fenglai Liu,  
 Kuan-Yu Liu,  E. Livshits,  M. Loipersberger,  A. Luenser,  P. Manohar,  
 E. Mansoor,  S. F. Manzer,  Shan-Ping Mao,  Yuezhi Mao,  N. Mardirossian,  
 A. V. Marenich,  T. Markovich,  L. A. Martinez-Martinez,  S. A. Maurer,  
 N. J. Mayhall,  S. C. McKenzie,  J.-M. Mewes,  P. Morgante,  A. F. Morrison,  
 J. W. Mullinax,  K. Nanda,  T. S. Nguyen-Beck,  R. Olivares-Amaya,  
 K. J. Oosterbaan,  J. A. Parkhill,  S. K. Paul,  F. Pavosevic,  Zheng Pei,  
 T. M. Perrine,  F. Plasser,  P. Pokhilko,  S. Prager,  A. Prociuk,  
 E. Ramos,  B. Rana,  D. R. Rehn,  F. Rob,  M. Scheurer,  M. Schneider,  
 N. Sergueev,  S. M. Sharada,  S. Sharma,  D. W. Small,  T. Stauch,  
 C. J. Stein,  T. Stein,  Yu-Chuan Su,  S. P. Veccham,  Zhen Tao,  
 A. J. W. Thom,  A. Tkatchenko,  T. Tsuchimochi,  N. M. Tubman,  L. Vogt,  
 M. L. Vidal,  O. Vydrov,  M. A. Watson,  J. Wenzel,  M. de Wergifosse,  
 T. A. Wesolowski,  A. White,  J. Witte,  A. Yamada,  Jun Yang,  K. Yao,  
 S. Yeganeh,  S. R. Yost,  Zhi-Qiang You,  A. Zech,  Igor Ying Zhang,  
 Xing Zhang,  Yan Zhao,  Ying Zhu,  B. R. Brooks,  G. K. L. Chan,  
 C. J. Cramer,  M. S. Gordon,  W. J. Hehre,  A. Klamt,  M. W. Schmidt,  
 C. D. Sherrill,  D. G. Truhlar,  A. Aspuru-Guzik,  R. Baer,  A. T. Bell,  
 N. A. Besley,  Jeng-Da Chai,  A. E. DePrince, III,  R. A. DiStasio Jr.,  
 A. Dreuw,  B. D. Dunietz,  T. R. Furlani,  Chao-Ping Hsu,  Yousung Jung,  
 Jing Kong,  D. S. Lambrecht,  WanZhen Liang,  C. Ochsenfeld,  
 V. A. Rassolov,  L. V. Slipchenko,  J. E. Subotnik,  T. Van Voorhis,  
 J. M. Herbert,  A. I. Krylov,  P. M. W. Gill,  M. Head-Gordon

 Contributors to earlier versions of Q-Chem not listed above: 
 R. D. Adamson,  B. Austin,  J. Baker,  G. J. O. Beran,  K. Brandhorst,  
 S. T. Brown,  E. F. C. Byrd,  A. K. Chakraborty,  C.-L. Cheng,  
 Siu Hung Chien,  D. M. Chipman,  D. L. Crittenden,  H. Dachsel,  
 R. J. Doerksen,  A. D. Dutoi,  L. Fusti-Molnar,  W. A. Goddard III,  
 A. Golubeva-Zadorozhnaya,  S. R. Gwaltney,  G. Hawkins,  A. Heyden,  
 S. Hirata,  G. Kedziora,  F. J. Keil,  C. Kelley,  Jihan Kim,  R. A. King,  
 R. Z. Khaliullin,  P. P. Korambath,  W. Kurlancheek,  A. M. Lee,  M. S. Lee,  
 S. V. Levchenko,  Ching Yeh Lin,  D. Liotard,  R. C. Lochan,  I. Lotan,  
 P. E. Maslen,  N. Nair,  D. P. O'Neill,  D. Neuhauser,  E. Neuscamman,  
 C. M. Oana,  R. Olson,  B. Peters,  R. Peverati,  P. A. Pieniazek,  
 Y. M. Rhee,  J. Ritchie,  M. A. Rohrdanz,  E. Rosta,  N. J. Russ,  
 H. F. Schaefer III,  N. E. Schultz,  N. Shenvi,  A. C. Simmonett,  A. Sodt,  
 D. Stuck,  K. S. Thanthiriwatte,  V. Vanovschi,  Tao Wang,  A. Warshel,  
 C. F. Williams,  Q. Wu,  X. Xu,  W. Zhang

 Please cite Q-Chem as follows:
 Y. Shao et al., Mol. Phys. 113, 184-215 (2015)
 DOI: 10.1080/00268976.2014.952696

 Q-Chem 5.3.0 for Intel X86 EM64T Linux

 Parts of Q-Chem use Armadillo 9.800.1 (Horizon Scraper).
 http://arma.sourceforge.net/

 Q-Chem begins on Tue Jul  7 00:24:01 2020  

Host: centos77-c4
0

     Scratch files written to /tmp/26963.centos77-h1/qchem84000//
Processing $rem in /opt/qchem-5.3.0-intel2020u1//config/preferences:
Processing $rem in /home/shihchengli/.qchemrc:

Checking the input file for inconsistencies... 	...done.

--------------------------------------------------------------
User input:
--------------------------------------------------------------
$rem
   JOBTYPE  sp
   EXCHANGE   omegaB97X-D
   BASIS   6-311+G(2df,2pd)
   UNRESTRICTED   False
   max_scf_cycles   250
   geom_opt_max_cycles   1500
   basis2 6-31G*
   scf_algorithm rca_diis
   SYM_IGNORE  TRUE
   print_input   true
   geom_opt_dmax   80
   pop_mulliken false
   XC_GRID 000075000302
$end

$molecule
0 1
C       1.2646310046     0.0807080087     0.2601322073
C       0.0000000810     -0.0000015836     -0.5865765356
H       1.1590419882     -0.4951976315     1.1823126937
H       1.4749965409     1.1142917117     0.5404338585
H       2.1329767823     -0.3025833050     -0.2766971831
C       -1.2646310432     -0.0807063711     0.2601323331
H       0.0402887578     -0.8729680451     -1.2423685969
H       -0.0402883568     0.8729608131     -1.2423738935
H       -1.4750035025     -1.1142902880     0.5404284145
H       -2.1329746867     0.3025936606     -0.2766942707
H       -1.1590376263     0.4951936961     1.1823159916
$end
--------------------------------------------------------------
 ----------------------------------------------------------------
             Standard Nuclear Orientation (Angstroms)
    I     Atom           X                Y                Z
 ----------------------------------------------------------------
    1      C       1.2646310046     0.0807080087     0.2601322073
    2      C       0.0000000810    -0.0000015836    -0.5865765356
    3      H       1.1590419882    -0.4951976315     1.1823126937
    4      H       1.4749965409     1.1142917117     0.5404338585
    5      H       2.1329767823    -0.3025833050    -0.2766971831
    6      C      -1.2646310432    -0.0807063711     0.2601323331
    7      H       0.0402887578    -0.8729680451    -1.2423685969
    8      H      -0.0402883568     0.8729608131    -1.2423738935
    9      H      -1.4750035025    -1.1142902880     0.5404284145
   10      H      -2.1329746867     0.3025936606    -0.2766942707
   11      H      -1.1590376263     0.4951936961     1.1823159916
 ----------------------------------------------------------------
 Nuclear Repulsion Energy =          82.74564549 hartrees
 There are       13 alpha and       13 beta electrons
 Requested basis set is 6-311+G(2df,2pd)
 There are 72 shells and 214 basis functions

 Total QAlloc Memory Limit   2000 MB
 Mega-Array Size       188 MB
 MEM_STATIC part       192 MB

                       Distance Matrix (Angstroms)
             C (  1)   C (  2)   H (  3)   H (  4)   H (  5)   C (  6)
   C (  2)  1.524048
   H (  3)  1.092352  2.171996
   H (  4)  1.091384  2.165044  1.761332
   H (  5)  1.090469  2.176504  1.764755  1.763002
   C (  6)  2.534407  1.524048  2.626102  3.002024  3.446905
   H (  7)  2.160097  1.092592  2.696924  3.030837  2.374280  2.141962
   H (  8)  2.141963  1.092592  3.031395  2.352176  2.652832  2.160097
   H (  9)  3.002030  2.165044  2.780915  3.697172  3.787358  1.091384
   H ( 10)  3.446903  2.176505  3.688163  3.787348  4.308663  1.090469
   H ( 11)  2.626098  2.171996  2.520787  2.780905  3.688160  1.092352
             H (  7)   H (  8)   H (  9)   H ( 10)
   H (  8)  1.747787
   H (  9)  2.352172  3.030835
   H ( 10)  2.652837  2.374277  1.763002
   H ( 11)  3.031393  2.696930  1.761333  1.764755
 
 A cutoff of  1.0D-09 yielded   2531 shell pairs
 There are     22511 function pairs (     27677 Cartesian)
 Smallest overlap matrix eigenvalue = 8.24E-05

 Scale SEOQF with 1.000000e-01/1.000000e-01/1.000000e-01

 Standard Electronic Orientation quadrupole field applied
 Nucleus-field energy     =     0.0000000006 hartrees
 Requested basis set is 6-31G(d)
 There are 28 shells and 58 basis functions
 A cutoff of  1.0D-09 yielded    402 shell pairs
 There are      1773 function pairs (      1968 Cartesian)
 Smallest overlap matrix eigenvalue = 6.47E-03
 Guess from superposition of atomic densities
 Warning:  Energy on first SCF cycle will be non-variational
 SAD guess density has 26.000000 electrons
 Long-range K will be added via erf
 Coulomb attenuation parameter = 0.2 bohr**(-1)
 A restricted hybrid HF-DFT SCF calculation will be
 performed using Relaxed Constraint Minimization + Pulay DIIS
 Exchange:     0.2220 Hartree-Fock + 1.0000 wB97X-D + LR-HF
 Correlation:  1.0000 wB97X-D
 Using Euler-Maclaurin-Lebedev (75,302) quadrature formula
 Dispersion:   Grimme D
 SCF converges when DIIS error is below 1.0E-04
 using 3 threads for integral computing
 -------------------------------------------------------
 OpenMP Integral computing Module                
 Release: version 1.0, May 2013, Q-Chem Inc. Pittsburgh 
 -------------------------------------------------------
 using 3 threads for integral computing
 -------------------------------------------------------
 OpenMP Integral computing Module                
 Release: version 1.0, May 2013, Q-Chem Inc. Pittsburgh 
 -------------------------------------------------------
 ---------------------------------------
  Cycle       Energy         DIIS Error
 ---------------------------------------
    1    -119.6212485376      1.00E-01
    2    -119.0628396080      9.02E-03
    3    -119.0839724241      2.46E-03
    4    -119.0978867848      1.68E-03
    5    -119.0985839027      2.66E-04 Done RCA. Switching to DIIS
    6    -119.0990950073      1.97E-04
    7    -119.0991118419      4.44E-06 Convergence criterion met
 ---------------------------------------
 SCF time:  CPU 19.03 s  wall 6.92 s
 SCF   energy in the small basis set = -119.09911184
 Total energy in the small basis set = -119.09911184
 ----------------------------------------------------
  Cycle       Energy    
 ----------------------------------------------------
    1     -16.5420042231     -1.65E+01
 Long-range K will be added via erf
 Coulomb attenuation parameter = 0.2 bohr**(-1)
 A restricted hybrid HF-DFT SCF calculation will be
 performed using Relaxed Constraint Minimization + Pulay DIIS
 Exchange:     0.2220 Hartree-Fock + 1.0000 wB97X-D + LR-HF
 Correlation:  1.0000 wB97X-D
 Using Euler-Maclaurin-Lebedev (75,302) quadrature formula
 Dispersion:   Grimme D
 SCF converges when DIIS error is below 1.0E-05
 Basis2 calculation detected. Using small basis as guess for larger.
 SCFMinFind is unable to tell whether the solution found is close.
 Resetting ReadMinima to 0 and attempting to follow guess.
 SCFMinFind following SCF Guess.
 using 3 threads for integral computing
 -------------------------------------------------------
 OpenMP Integral computing Module                
 Release: version 1.0, May 2013, Q-Chem Inc. Pittsburgh 
 -------------------------------------------------------
 using 3 threads for integral computing
 -------------------------------------------------------
 OpenMP Integral computing Module                
 Release: version 1.0, May 2013, Q-Chem Inc. Pittsburgh 
 -------------------------------------------------------
 ---------------------------------------
  Cycle       Energy         DIIS Error
 ---------------------------------------
    1    -119.1183000781      4.21E-03
    2    -119.1403269908      6.00E-04 Done RCA. Switching to DIIS
    3    -119.1411612656      4.21E-04
    4    -119.1421337749      4.54E-05
    5    -119.1421484493      1.02E-05
    6    -119.1421491447      3.93E-06 Convergence criterion met
 ---------------------------------------
 SCF time:  CPU 51.34 s  wall 17.40 s
 SCF   energy in the final basis set = -119.14214914
 Total energy in the final basis set = -119.14214914
 
 --------------------------------------------------------------
 
                    Orbital Energies (a.u.)
 --------------------------------------------------------------
 
 Alpha MOs
 -- Occupied --
-10.2729 -10.2646 -10.2646  -0.8811  -0.7769  -0.6775  -0.5449  -0.5251
 -0.4805  -0.4673  -0.4186  -0.4169  -0.4031
 -- Virtual --
  0.0694   0.0867   0.0909   0.0999   0.1230   0.1313   0.1322   0.1396
  0.1447   0.1675   0.1743   0.1910   0.2217   0.2458   0.2497   0.2502
  0.2900   0.3046   0.3165   0.3241   0.3327   0.3410   0.4601   0.4706
  0.4801   0.4985   0.5131   0.5169   0.5360   0.5625   0.5832   0.5949
  0.6055   0.6155   0.6392   0.6407   0.6477   0.6565   0.7079   0.7146
  0.7244   0.7717   0.7940   0.8523   0.8819   0.9180   0.9557   0.9604
  1.0219   1.0569   1.0809   1.1206   1.1233   1.1516   1.1878   1.2047
  1.2288   1.2434   1.2552   1.2669   1.2941   1.3187   1.3557   1.3748
  1.3873   1.4017   1.4354   1.4433   1.4491   1.4510   1.4717   1.5221
  1.5227   1.5346   1.5701   1.5832   1.6411   1.6462   1.6718   1.6747
  1.7159   2.3532   2.3712   2.4455   2.4951   2.5654   2.5965   2.6527
  2.6669   2.6882   2.7797   2.8255   2.8410   2.8727   2.9302   2.9310
  2.9450   2.9685   3.0103   3.0527   3.0721   3.0730   3.0939   3.1049
  3.1257   3.1306   3.1693   3.1753   3.1890   3.2519   3.2760   3.2911
  3.3240   3.3398   3.3412   3.3502   3.3910   3.3926   3.4022   3.4103
  3.4471   3.4659   3.5100   3.5224   3.5774   3.6010   3.6132   3.6179
  3.6318   3.6600   3.6974   3.7042   3.7474   3.8055   3.8202   3.8630
  3.8721   3.9297   3.9651   3.9716   3.9939   4.0054   4.0109   4.0663
  4.0710   4.1135   4.1375   4.1495   4.1735   4.2043   4.2046   4.2150
  4.2254   4.2389   4.2849   4.3305   4.3462   4.3855   4.4087   4.4593
  4.5053   4.5327   4.5407   4.6035   4.6691   4.8300   4.8482   4.9237
  4.9338   4.9347   4.9547   4.9611   5.0088   5.0494   5.0603   5.1373
  5.1703   5.1816   5.2189   5.2671   5.2682   5.3000   5.3414   5.3673
  5.3919   5.3935   5.4165   5.4895   5.5248   5.5365   5.6182   5.7221
  5.9576   6.3497   6.3661   6.4121   6.4348   6.4900  25.1412  25.3978
 25.4747
 --------------------------------------------------------------
 
 -----------------------------------------------------------------
                    Cartesian Multipole Moments
 -----------------------------------------------------------------
    Charge (ESU x 10^10)
                 0.0000
    Dipole Moment (Debye)
         X      -0.0000      Y      -0.0000      Z      -0.0837
       Tot       0.0837
    Quadrupole Moments (Debye-Ang)
        XX     -22.2299     XY      -0.0559     YY     -21.2999
        XZ       0.0000     YZ      -0.0000     ZZ     -21.8598
    Octopole Moments (Debye-Ang^2)
       XXX       0.0000    XXY       0.0000    XYY      -0.0000
       YYY      -0.0000    XXZ      -1.4306    XYZ       0.3857
       YYZ      -0.2105    XZZ       0.0000    YZZ       0.0000
       ZZZ       0.1107
    Hexadecapole Moments (Debye-Ang^3)
      XXXX    -202.8692   XXXY      -7.2050   XXYY     -40.9630
      XYYY      -3.1883   YYYY     -43.9636   XXXZ      -0.0000
      XXYZ      -0.0000   XYYZ       0.0000   YYYZ      -0.0000
      XXZZ     -46.0066   XYZZ      -2.5724   YYZZ     -18.1356
      XZZZ       0.0000   YZZZ      -0.0000   ZZZZ     -71.1390
 -----------------------------------------------------------------
Archival summary:
1\1\centos77-c4\SP\ProcedureUnspecified\BasisUnspecified\38\shihchen\TueJul700:24:282020TueJul700:24:282020\0\\#,ProcedureUnspecified,BasisUnspecified,\\0,1\C\H,1,1.09259\H,1,1.09259,2,106.229\C,1,1.52405,2,110.192,3,-117.652,0\H,4,1.09047,1,111.632,2,32.849,0\H,4,1.09138,1,110.658,2,152.923,0\H,4,1.09235,1,111.155,2,-87.6743,0\C,1,1.52405,2,108.769,3,118.594,0\H,8,1.09047,1,111.632,2,-83.2207,0\H,8,1.09138,1,110.658,2,36.8535,0\H,8,1.09235,1,111.155,2,156.256,0\\\@

 Total job time:  27.16s(wall), 73.88s(cpu) 
 Tue Jul  7 00:24:28 2020

        *************************************************************
        *                                                           *
        *  Thank you very much for using Q-Chem.  Have a nice day.  *
        *                                                           *
        *************************************************************


