                  Welcome to Q-Chem
     A Quantum Leap Into The Future Of Chemistry


 Q-Chem 5.3 (devel), Q-Chem, Inc., Pleasanton, CA (2020)

 Yihan Shao,  Zhengting Gan,  E. Epifanovsky,  A. T. B. Gilbert,  M. Wormit,  
 J. Kussmann,  A. W. Lange,  A. Behn,  Jia Deng,  Xintian Feng,  D. Ghosh,  
 M. Goldey,  P. R. Horn,  L. D. Jacobson,  I. Kaliman,  T. Kus,  A. Landau,  
 Jie Liu,  E. I. Proynov,  R. M. Richard,  R. P. Steele,  E. J. Sundstrom,  
 H. L. Woodcock III,  P. M. Zimmerman,  D. Zuev,  B. Alam,  B. Albrecht,  
 E. Alguire,  S. A. Baeppler,  D. Barton,  Z. Benda,  Y. A. Bernard,  
 E. J. Berquist,  K. B. Bravaya,  H. Burton,  K. Carter-Fenk,  D. Casanova,  
 Chun-Min Chang,  Yunqing Chen,  A. Chien,  K. D. Closser,  M. P. Coons,  
 S. Coriani,  S. Dasgupta,  A. L. Dempwolff,  M. Diedenhofen,  Hainam Do,  
 R. G. Edgar,  Po-Tung Fang,  S. Faraji,  S. Fatehi,  Qingguo Feng,  
 J. Fosso-Tande,  J. Gayvert,  Qinghui Ge,  A. Ghysels,  G. Gidofalvi,  
 J. Gomes,  J. Gonthier,  A. Gunina,  D. Hait,  M. W. D. Hanson-Heine,  
 P. H. P. Harbach,  A. W. Hauser,  M. F. Herbst,  J. E. Herr,  
 E. G. Hohenstein,  Z. C. Holden,  Kerwin Hui,  B. C. Huynh,  T.-C. Jagau,  
 Hyunjun Ji,  B. Kaduk,  K. Khistyaev,  Jaehoon Kim,  P. Klunzinger,  K. Koh,  
 D. Kosenkov,  L. Koulias,  T. Kowalczyk,  C. M. Krauter,  A. Kunitsa,  
 Ka Un Lao,  A. Laurent,  K. V. Lawler,  Joonho Lee,  D. Lefrancois,  
 S. Lehtola,  D. S. Levine,  Yi-Pei Li,  You-Sheng Lin,  Fenglai Liu,  
 Kuan-Yu Liu,  E. Livshits,  M. Loipersberger,  A. Luenser,  P. Manohar,  
 E. Mansoor,  S. F. Manzer,  Shan-Ping Mao,  Yuezhi Mao,  N. Mardirossian,  
 A. V. Marenich,  T. Markovich,  L. A. Martinez-Martinez,  S. A. Maurer,  
 N. J. Mayhall,  S. C. McKenzie,  J.-M. Mewes,  P. Morgante,  A. F. Morrison,  
 J. W. Mullinax,  K. Nanda,  T. S. Nguyen-Beck,  R. Olivares-Amaya,  
 K. J. Oosterbaan,  J. A. Parkhill,  S. K. Paul,  F. Pavosevic,  Zheng Pei,  
 T. M. Perrine,  F. Plasser,  P. Pokhilko,  S. Prager,  A. Prociuk,  
 E. Ramos,  B. Rana,  D. R. Rehn,  F. Rob,  M. Scheurer,  M. Schneider,  
 N. Sergueev,  S. M. Sharada,  S. Sharma,  D. W. Small,  T. Stauch,  
 C. J. Stein,  T. Stein,  Yu-Chuan Su,  S. P. Veccham,  Zhen Tao,  
 A. J. W. Thom,  A. Tkatchenko,  T. Tsuchimochi,  N. M. Tubman,  L. Vogt,  
 M. L. Vidal,  O. Vydrov,  M. A. Watson,  J. Wenzel,  M. de Wergifosse,  
 T. A. Wesolowski,  A. White,  J. Witte,  A. Yamada,  Jun Yang,  K. Yao,  
 S. Yeganeh,  S. R. Yost,  Zhi-Qiang You,  A. Zech,  Igor Ying Zhang,  
 Xing Zhang,  Yan Zhao,  Ying Zhu,  B. R. Brooks,  G. K. L. Chan,  
 C. J. Cramer,  M. S. Gordon,  W. J. Hehre,  A. Klamt,  M. W. Schmidt,  
 C. D. Sherrill,  D. G. Truhlar,  A. Aspuru-Guzik,  R. Baer,  A. T. Bell,  
 N. A. Besley,  Jeng-Da Chai,  A. E. DePrince, III,  R. A. DiStasio Jr.,  
 A. Dreuw,  B. D. Dunietz,  T. R. Furlani,  Chao-Ping Hsu,  Yousung Jung,  
 Jing Kong,  D. S. Lambrecht,  WanZhen Liang,  C. Ochsenfeld,  
 V. A. Rassolov,  L. V. Slipchenko,  J. E. Subotnik,  T. Van Voorhis,  
 J. M. Herbert,  A. I. Krylov,  P. M. W. Gill,  M. Head-Gordon

 Contributors to earlier versions of Q-Chem not listed above: 
 R. D. Adamson,  B. Austin,  J. Baker,  G. J. O. Beran,  K. Brandhorst,  
 S. T. Brown,  E. F. C. Byrd,  A. K. Chakraborty,  C.-L. Cheng,  
 Siu Hung Chien,  D. M. Chipman,  D. L. Crittenden,  H. Dachsel,  
 R. J. Doerksen,  A. D. Dutoi,  L. Fusti-Molnar,  W. A. Goddard III,  
 A. Golubeva-Zadorozhnaya,  S. R. Gwaltney,  G. Hawkins,  A. Heyden,  
 S. Hirata,  G. Kedziora,  F. J. Keil,  C. Kelley,  Jihan Kim,  R. A. King,  
 R. Z. Khaliullin,  P. P. Korambath,  W. Kurlancheek,  A. M. Lee,  M. S. Lee,  
 S. V. Levchenko,  Ching Yeh Lin,  D. Liotard,  R. C. Lochan,  I. Lotan,  
 P. E. Maslen,  N. Nair,  D. P. O'Neill,  D. Neuhauser,  E. Neuscamman,  
 C. M. Oana,  R. Olson,  B. Peters,  R. Peverati,  P. A. Pieniazek,  
 Y. M. Rhee,  J. Ritchie,  M. A. Rohrdanz,  E. Rosta,  N. J. Russ,  
 H. F. Schaefer III,  N. E. Schultz,  N. Shenvi,  A. C. Simmonett,  A. Sodt,  
 D. Stuck,  K. S. Thanthiriwatte,  V. Vanovschi,  Tao Wang,  A. Warshel,  
 C. F. Williams,  Q. Wu,  X. Xu,  W. Zhang

 Please cite Q-Chem as follows:
 Y. Shao et al., Mol. Phys. 113, 184-215 (2015)
 DOI: 10.1080/00268976.2014.952696

 Q-Chem 5.3.0 for Intel X86 EM64T Linux

 Parts of Q-Chem use Armadillo 9.800.1 (Horizon Scraper).
 http://arma.sourceforge.net/

 Q-Chem begins on Tue Jul  7 01:20:22 2020  

Host: centos77-c4
0

     Scratch files written to /tmp/26963.centos77-h1/qchem99252//
Processing $rem in /opt/qchem-5.3.0-intel2020u1//config/preferences:
Processing $rem in /home/shihchengli/.qchemrc:

Checking the input file for inconsistencies... 	...done.

--------------------------------------------------------------
User input:
--------------------------------------------------------------
$rem
   JOBTYPE  sp
   EXCHANGE   omegaB97X-D
   BASIS   6-311+G(2df,2pd)
   UNRESTRICTED   False
   max_scf_cycles   250
   geom_opt_max_cycles   1500
   basis2 6-31G*
   scf_algorithm rca_diis
   SYM_IGNORE  TRUE
   print_input   true
   geom_opt_dmax   80
   pop_mulliken false
   XC_GRID 000075000302
$end

$molecule
0 1
C       1.2593437607     -0.0790482042     0.2562900525
C       0.0000000270     0.0848546208     -0.5862711979
H       1.3894148036     -0.9136343704     0.9420752538
H       1.2039583464     0.8429382449     0.8457814568
H       2.1509447644     0.0906139159     -0.3481806140
C       -1.2593437807     -0.0790483090     0.2562900712
H       -0.0000001788     -0.8571846414     -1.1424718260
H       0.0000001325     0.8905907970     -1.3221443689
H       -1.3894145071     -0.9136344707     0.9420752433
H       -2.1509446385     0.0906148873     -0.3481805155
H       -1.2039587902     0.8429381957     0.8457814636
$end
--------------------------------------------------------------
 ----------------------------------------------------------------
             Standard Nuclear Orientation (Angstroms)
    I     Atom           X                Y                Z
 ----------------------------------------------------------------
    1      C       1.2593437607    -0.0790482042     0.2562900525
    2      C       0.0000000270     0.0848546208    -0.5862711979
    3      H       1.3894148036    -0.9136343704     0.9420752538
    4      H       1.2039583464     0.8429382449     0.8457814568
    5      H       2.1509447644     0.0906139159    -0.3481806140
    6      C      -1.2593437807    -0.0790483090     0.2562900712
    7      H      -0.0000001788    -0.8571846414    -1.1424718260
    8      H       0.0000001325     0.8905907970    -1.3221443689
    9      H      -1.3894145071    -0.9136344707     0.9420752433
   10      H      -2.1509446385     0.0906148873    -0.3481805155
   11      H      -1.2039587902     0.8429381957     0.8457814636
 ----------------------------------------------------------------
 Nuclear Repulsion Energy =          82.97357954 hartrees
 There are       13 alpha and       13 beta electrons
 Requested basis set is 6-311+G(2df,2pd)
 There are 72 shells and 214 basis functions

 Total QAlloc Memory Limit   2000 MB
 Mega-Array Size       188 MB
 MEM_STATIC part       192 MB

                       Distance Matrix (Angstroms)
             C (  1)   C (  2)   H (  3)   H (  4)   H (  5)   C (  6)
   C (  2)  1.524047
   H (  3)  1.088005  2.294188
   H (  4)  1.095731  2.018658  1.768958
   H (  5)  1.090469  2.164090  1.803664  1.699506
   C (  6)  2.518688  1.524047  2.860552  2.695444  3.467598
   H (  7)  2.036659  1.093982  2.505793  2.879772  2.481085  2.036658
   H (  8)  2.240000  1.091201  3.211291  2.480260  2.493016  2.240001
   H (  9)  2.860552  2.294187  2.778829  3.133752  3.899669  1.088004
   H ( 10)  3.467598  2.164089  3.899669  3.639630  4.301889  1.090469
   H ( 11)  2.695444  2.018659  3.133753  2.407917  3.639631  1.095731
             H (  7)   H (  8)   H (  9)   H ( 10)
   H (  8)  1.756986
   H (  9)  2.505792  3.211291
   H ( 10)  2.481085  2.493016  1.803664
   H ( 11)  2.879772  2.480260  1.768958  1.699505
 
 A cutoff of  1.0D-09 yielded   2534 shell pairs
 There are     22548 function pairs (     27717 Cartesian)
 Smallest overlap matrix eigenvalue = 9.08E-05

 Scale SEOQF with 1.000000e-01/1.000000e-01/1.000000e-01

 Standard Electronic Orientation quadrupole field applied
 Nucleus-field energy     =     0.0000000006 hartrees
 Requested basis set is 6-31G(d)
 There are 28 shells and 58 basis functions
 A cutoff of  1.0D-09 yielded    402 shell pairs
 There are      1773 function pairs (      1968 Cartesian)
 Smallest overlap matrix eigenvalue = 6.50E-03
 Guess from superposition of atomic densities
 Warning:  Energy on first SCF cycle will be non-variational
 SAD guess density has 26.000000 electrons
 Long-range K will be added via erf
 Coulomb attenuation parameter = 0.2 bohr**(-1)
 A restricted hybrid HF-DFT SCF calculation will be
 performed using Relaxed Constraint Minimization + Pulay DIIS
 Exchange:     0.2220 Hartree-Fock + 1.0000 wB97X-D + LR-HF
 Correlation:  1.0000 wB97X-D
 Using Euler-Maclaurin-Lebedev (75,302) quadrature formula
 Dispersion:   Grimme D
 SCF converges when DIIS error is below 1.0E-04
 using 3 threads for integral computing
 -------------------------------------------------------
 OpenMP Integral computing Module                
 Release: version 1.0, May 2013, Q-Chem Inc. Pittsburgh 
 -------------------------------------------------------
 using 3 threads for integral computing
 -------------------------------------------------------
 OpenMP Integral computing Module                
 Release: version 1.0, May 2013, Q-Chem Inc. Pittsburgh 
 -------------------------------------------------------
 ---------------------------------------
  Cycle       Energy         DIIS Error
 ---------------------------------------
    1    -119.6418969628      1.01E-01
    2    -119.0405252403      9.06E-03
    3    -119.0618859350      2.51E-03
    4    -119.0759167204      1.72E-03
    5    -119.0766452008      2.74E-04 Done RCA. Switching to DIIS
    6    -119.0771784427      2.02E-04
    7    -119.0771961510      5.70E-06 Convergence criterion met
 ---------------------------------------
 SCF time:  CPU 18.55 s  wall 6.62 s
 SCF   energy in the small basis set = -119.07719615
 Total energy in the small basis set = -119.07719615
 ----------------------------------------------------
  Cycle       Energy    
 ----------------------------------------------------
    1     -16.5403096151     -1.65E+01
 Long-range K will be added via erf
 Coulomb attenuation parameter = 0.2 bohr**(-1)
 A restricted hybrid HF-DFT SCF calculation will be
 performed using Relaxed Constraint Minimization + Pulay DIIS
 Exchange:     0.2220 Hartree-Fock + 1.0000 wB97X-D + LR-HF
 Correlation:  1.0000 wB97X-D
 Using Euler-Maclaurin-Lebedev (75,302) quadrature formula
 Dispersion:   Grimme D
 SCF converges when DIIS error is below 1.0E-05
 Basis2 calculation detected. Using small basis as guess for larger.
 SCFMinFind is unable to tell whether the solution found is close.
 Resetting ReadMinima to 0 and attempting to follow guess.
 SCFMinFind following SCF Guess.
 using 3 threads for integral computing
 -------------------------------------------------------
 OpenMP Integral computing Module                
 Release: version 1.0, May 2013, Q-Chem Inc. Pittsburgh 
 -------------------------------------------------------
 using 3 threads for integral computing
 -------------------------------------------------------
 OpenMP Integral computing Module                
 Release: version 1.0, May 2013, Q-Chem Inc. Pittsburgh 
 -------------------------------------------------------
 ---------------------------------------
  Cycle       Energy         DIIS Error
 ---------------------------------------
    1    -119.0970496014      4.21E-03
    2    -119.1191396485      6.13E-04 Done RCA. Switching to DIIS
    3    -119.1200016337      4.33E-04
    4    -119.1210296828      4.59E-05
    5    -119.1210448509      1.00E-05 Convergence criterion met
 ---------------------------------------
 SCF time:  CPU 45.11 s  wall 15.30 s
 SCF   energy in the final basis set = -119.12104485
 Total energy in the final basis set = -119.12104485
 
 --------------------------------------------------------------
 
                    Orbital Energies (a.u.)
 --------------------------------------------------------------
 
 Alpha MOs
 -- Occupied --
-10.2761 -10.2653 -10.2653  -0.8854  -0.7784  -0.6779  -0.5498  -0.5248
 -0.4952  -0.4503  -0.4441  -0.4148  -0.3739
 -- Virtual --
  0.0686   0.0857   0.0900   0.0979   0.1242   0.1283   0.1338   0.1375
  0.1427   0.1714   0.1715   0.1896   0.2322   0.2343   0.2429   0.2682
  0.2824   0.2874   0.3128   0.3179   0.3293   0.3438   0.4522   0.4665
  0.4711   0.5007   0.5148   0.5161   0.5470   0.5648   0.5907   0.5918
  0.6247   0.6258   0.6470   0.6498   0.6605   0.6683   0.7036   0.7223
  0.7257   0.7582   0.8310   0.8313   0.8774   0.8785   0.9123   0.9537
  1.0017   1.0420   1.0605   1.1377   1.1424   1.1471   1.1717   1.1956
  1.2273   1.2491   1.2904   1.2922   1.3048   1.3107   1.3640   1.3682
  1.3872   1.4101   1.4109   1.4287   1.4567   1.4668   1.4800   1.4937
  1.5209   1.5593   1.5927   1.6241   1.6252   1.6498   1.6998   1.7247
  1.7476   2.3755   2.4506   2.4883   2.5105   2.5284   2.5690   2.5692
  2.6547   2.7093   2.7914   2.8127   2.8464   2.8729   2.9144   2.9296
  2.9592   2.9885   3.0120   3.0209   3.0658   3.0877   3.0972   3.1149
  3.1215   3.1678   3.1700   3.1786   3.2223   3.2588   3.2680   3.3129
  3.3297   3.3552   3.3688   3.3788   3.3947   3.4030   3.4278   3.4369
  3.4635   3.4831   3.4911   3.5085   3.5640   3.5640   3.5660   3.5908
  3.6390   3.6728   3.6833   3.7116   3.7644   3.7720   3.7995   3.8335
  3.8646   3.9308   3.9335   3.9442   3.9659   4.0193   4.0401   4.0555
  4.0600   4.1162   4.1516   4.1692   4.1822   4.2005   4.2141   4.2332
  4.2469   4.2738   4.3070   4.3607   4.3796   4.4024   4.4490   4.4627
  4.4836   4.5037   4.5918   4.5979   4.7478   4.7755   4.8214   4.8499
  4.8910   4.9349   4.9728   5.0090   5.0140   5.0496   5.0832   5.1598
  5.1643   5.1878   5.2297   5.2561   5.2904   5.3069   5.3792   5.3988
  5.4342   5.4382   5.5308   5.5384   5.5726   5.5829   5.6196   5.7722
  6.0041   6.3686   6.3848   6.4167   6.4369   6.4665  25.1924  25.4375
 25.4458
 --------------------------------------------------------------
 
 -----------------------------------------------------------------
                    Cartesian Multipole Moments
 -----------------------------------------------------------------
    Charge (ESU x 10^10)
                -0.0000
    Dipole Moment (Debye)
         X      -0.0000      Y       0.0353      Z      -0.0974
       Tot       0.1036
    Quadrupole Moments (Debye-Ang)
        XX     -22.2815     XY      -0.0000     YY     -21.2844
        XZ      -0.0000     YZ      -1.0805     ZZ     -21.9826
    Octopole Moments (Debye-Ang^2)
       XXX       0.0000    XXY      -0.1250    XYY      -0.0000
       YYY       0.7243    XXZ      -1.2797    XYZ       0.0000
       YYZ       0.4447    XZZ       0.0000    YZZ       0.2751
       ZZZ      -0.4803
    Hexadecapole Moments (Debye-Ang^3)
      XXXX    -201.2080   XXXY      -0.0000   XXYY     -41.7442
      XYYY       0.0000   YYYY     -44.7212   XXXZ      -0.0000
      XXYZ      -1.8211   XYYZ       0.0000   YYYZ       1.1604
      XXZZ     -45.0190   XYZZ       0.0000   YYZZ     -17.1068
      XZZZ       0.0000   YZZZ      -0.7277   ZZZZ     -71.8822
 -----------------------------------------------------------------
Archival summary:
1\1\centos77-c4\SP\ProcedureUnspecified\BasisUnspecified\38\shihchen\TueJul701:20:462020TueJul701:20:462020\0\\#,ProcedureUnspecified,BasisUnspecified,\\0,1\C\H,1,1.0912\H,1,1.09398,2,107.036\C,1,1.52405,2,116.887,3,112.11,0\H,4,1.088,1,121.988,2,-173.701,0\H,4,1.09047,1,110.636,2,-39.0631,0\H,4,1.09573,1,99.5068,2,67.7415,0\C,1,1.52405,2,116.887,3,-112.11,0\H,8,1.088,1,121.988,2,173.701,0\H,8,1.09047,1,110.636,2,39.063,0\H,8,1.09573,1,99.5069,2,-67.7415,0\\\@

 Total job time:  24.83s(wall), 67.23s(cpu) 
 Tue Jul  7 01:20:46 2020

        *************************************************************
        *                                                           *
        *  Thank you very much for using Q-Chem.  Have a nice day.  *
        *                                                           *
        *************************************************************


