                  Welcome to Q-Chem
     A Quantum Leap Into The Future Of Chemistry


 Q-Chem 5.3 (devel), Q-Chem, Inc., Pleasanton, CA (2020)

 Yihan Shao,  Zhengting Gan,  E. Epifanovsky,  A. T. B. Gilbert,  M. Wormit,  
 J. Kussmann,  A. W. Lange,  A. Behn,  Jia Deng,  Xintian Feng,  D. Ghosh,  
 M. Goldey,  P. R. Horn,  L. D. Jacobson,  I. Kaliman,  T. Kus,  A. Landau,  
 Jie Liu,  E. I. Proynov,  R. M. Richard,  R. P. Steele,  E. J. Sundstrom,  
 H. L. Woodcock III,  P. M. Zimmerman,  D. Zuev,  B. Alam,  B. Albrecht,  
 E. Alguire,  S. A. Baeppler,  D. Barton,  Z. Benda,  Y. A. Bernard,  
 E. J. Berquist,  K. B. Bravaya,  H. Burton,  K. Carter-Fenk,  D. Casanova,  
 Chun-Min Chang,  Yunqing Chen,  A. Chien,  K. D. Closser,  M. P. Coons,  
 S. Coriani,  S. Dasgupta,  A. L. Dempwolff,  M. Diedenhofen,  Hainam Do,  
 R. G. Edgar,  Po-Tung Fang,  S. Faraji,  S. Fatehi,  Qingguo Feng,  
 J. Fosso-Tande,  J. Gayvert,  Qinghui Ge,  A. Ghysels,  G. Gidofalvi,  
 J. Gomes,  J. Gonthier,  A. Gunina,  D. Hait,  M. W. D. Hanson-Heine,  
 P. H. P. Harbach,  A. W. Hauser,  M. F. Herbst,  J. E. Herr,  
 E. G. Hohenstein,  Z. C. Holden,  Kerwin Hui,  B. C. Huynh,  T.-C. Jagau,  
 Hyunjun Ji,  B. Kaduk,  K. Khistyaev,  Jaehoon Kim,  P. Klunzinger,  K. Koh,  
 D. Kosenkov,  L. Koulias,  T. Kowalczyk,  C. M. Krauter,  A. Kunitsa,  
 Ka Un Lao,  A. Laurent,  K. V. Lawler,  Joonho Lee,  D. Lefrancois,  
 S. Lehtola,  D. S. Levine,  Yi-Pei Li,  You-Sheng Lin,  Fenglai Liu,  
 Kuan-Yu Liu,  E. Livshits,  M. Loipersberger,  A. Luenser,  P. Manohar,  
 E. Mansoor,  S. F. Manzer,  Shan-Ping Mao,  Yuezhi Mao,  N. Mardirossian,  
 A. V. Marenich,  T. Markovich,  L. A. Martinez-Martinez,  S. A. Maurer,  
 N. J. Mayhall,  S. C. McKenzie,  J.-M. Mewes,  P. Morgante,  A. F. Morrison,  
 J. W. Mullinax,  K. Nanda,  T. S. Nguyen-Beck,  R. Olivares-Amaya,  
 K. J. Oosterbaan,  J. A. Parkhill,  S. K. Paul,  F. Pavosevic,  Zheng Pei,  
 T. M. Perrine,  F. Plasser,  P. Pokhilko,  S. Prager,  A. Prociuk,  
 E. Ramos,  B. Rana,  D. R. Rehn,  F. Rob,  M. Scheurer,  M. Schneider,  
 N. Sergueev,  S. M. Sharada,  S. Sharma,  D. W. Small,  T. Stauch,  
 C. J. Stein,  T. Stein,  Yu-Chuan Su,  S. P. Veccham,  Zhen Tao,  
 A. J. W. Thom,  A. Tkatchenko,  T. Tsuchimochi,  N. M. Tubman,  L. Vogt,  
 M. L. Vidal,  O. Vydrov,  M. A. Watson,  J. Wenzel,  M. de Wergifosse,  
 T. A. Wesolowski,  A. White,  J. Witte,  A. Yamada,  Jun Yang,  K. Yao,  
 S. Yeganeh,  S. R. Yost,  Zhi-Qiang You,  A. Zech,  Igor Ying Zhang,  
 Xing Zhang,  Yan Zhao,  Ying Zhu,  B. R. Brooks,  G. K. L. Chan,  
 C. J. Cramer,  M. S. Gordon,  W. J. Hehre,  A. Klamt,  M. W. Schmidt,  
 C. D. Sherrill,  D. G. Truhlar,  A. Aspuru-Guzik,  R. Baer,  A. T. Bell,  
 N. A. Besley,  Jeng-Da Chai,  A. E. DePrince, III,  R. A. DiStasio Jr.,  
 A. Dreuw,  B. D. Dunietz,  T. R. Furlani,  Chao-Ping Hsu,  Yousung Jung,  
 Jing Kong,  D. S. Lambrecht,  WanZhen Liang,  C. Ochsenfeld,  
 V. A. Rassolov,  L. V. Slipchenko,  J. E. Subotnik,  T. Van Voorhis,  
 J. M. Herbert,  A. I. Krylov,  P. M. W. Gill,  M. Head-Gordon

 Contributors to earlier versions of Q-Chem not listed above: 
 R. D. Adamson,  B. Austin,  J. Baker,  G. J. O. Beran,  K. Brandhorst,  
 S. T. Brown,  E. F. C. Byrd,  A. K. Chakraborty,  C.-L. Cheng,  
 Siu Hung Chien,  D. M. Chipman,  D. L. Crittenden,  H. Dachsel,  
 R. J. Doerksen,  A. D. Dutoi,  L. Fusti-Molnar,  W. A. Goddard III,  
 A. Golubeva-Zadorozhnaya,  S. R. Gwaltney,  G. Hawkins,  A. Heyden,  
 S. Hirata,  G. Kedziora,  F. J. Keil,  C. Kelley,  Jihan Kim,  R. A. King,  
 R. Z. Khaliullin,  P. P. Korambath,  W. Kurlancheek,  A. M. Lee,  M. S. Lee,  
 S. V. Levchenko,  Ching Yeh Lin,  D. Liotard,  R. C. Lochan,  I. Lotan,  
 P. E. Maslen,  N. Nair,  D. P. O'Neill,  D. Neuhauser,  E. Neuscamman,  
 C. M. Oana,  R. Olson,  B. Peters,  R. Peverati,  P. A. Pieniazek,  
 Y. M. Rhee,  J. Ritchie,  M. A. Rohrdanz,  E. Rosta,  N. J. Russ,  
 H. F. Schaefer III,  N. E. Schultz,  N. Shenvi,  A. C. Simmonett,  A. Sodt,  
 D. Stuck,  K. S. Thanthiriwatte,  V. Vanovschi,  Tao Wang,  A. Warshel,  
 C. F. Williams,  Q. Wu,  X. Xu,  W. Zhang

 Please cite Q-Chem as follows:
 Y. Shao et al., Mol. Phys. 113, 184-215 (2015)
 DOI: 10.1080/00268976.2014.952696

 Q-Chem 5.3.0 for Intel X86 EM64T Linux

 Parts of Q-Chem use Armadillo 9.800.1 (Horizon Scraper).
 http://arma.sourceforge.net/

 Q-Chem begins on Thu Jul  2 04:54:14 2020  

Host: centos77-c1
0

     Scratch files written to /tmp/26650.centos77-h1/qchem75993//
Processing $rem in /opt/qchem-5.3.0-intel2020u1//config/preferences:
Processing $rem in /home/shihchengli/.qchemrc:

Checking the input file for inconsistencies... 	...done.

--------------------------------------------------------------
User input:
--------------------------------------------------------------
$rem
   JOBTYPE  sp
   EXCHANGE   omegaB97X-D
   BASIS   6-311+G(2df,2pd)
   max_scf_cycles   250
   geom_opt_max_cycles   1500
   basis2 6-31G*
   scf_algorithm rca_diis
   SYM_IGNORE  TRUE
   print_input   true
   geom_opt_dmax   80
   pop_mulliken false
   XC_GRID 000075000302
$end

$molecule
0 1
C       1.2845563070     0.0000000087     0.2729554212
C       -0.0269834238     -0.0000000047     -0.5869778116
H       1.3223297885     -0.8785613211     0.9211163110
H       1.3223297790     0.8785613400     0.9211163097
H       2.1870401139     0.0000000078     -0.3391302601
C       -1.2502888776     -0.0000000540     0.2456466872
H       -0.0595057223     -0.8736367522     -1.2423081335
H       -0.0595057442     0.8736367461     -1.2423081219
H       -1.2887559979     -0.8827316818     0.8861519817
H       -2.1424602881     0.0000007312     -0.3813693165
H       -1.2887559951     0.8827316461     0.8861519518
$end
--------------------------------------------------------------
 ----------------------------------------------------------------
             Standard Nuclear Orientation (Angstroms)
    I     Atom           X                Y                Z
 ----------------------------------------------------------------
    1      C       1.2845563070     0.0000000087     0.2729554212
    2      C      -0.0269834238    -0.0000000047    -0.5869778116
    3      H       1.3223297885    -0.8785613211     0.9211163110
    4      H       1.3223297790     0.8785613400     0.9211163097
    5      H       2.1870401139     0.0000000078    -0.3391302601
    6      C      -1.2502888776    -0.0000000540     0.2456466872
    7      H      -0.0595057223    -0.8736367522    -1.2423081335
    8      H      -0.0595057442     0.8736367461    -1.2423081219
    9      H      -1.2887559979    -0.8827316818     0.8861519817
   10      H      -2.1424602881     0.0000007312    -0.3813693165
   11      H      -1.2887559951     0.8827316461     0.8861519518
 ----------------------------------------------------------------
 Nuclear Repulsion Energy =          82.75589160 hartrees
 There are       13 alpha and       13 beta electrons
 Requested basis set is 6-311+G(2df,2pd)
 There are 72 shells and 214 basis functions

 Total QAlloc Memory Limit   2000 MB
 Mega-Array Size       188 MB
 MEM_STATIC part       192 MB

                       Distance Matrix (Angstroms)
             C (  1)   C (  2)   H (  3)   H (  4)   H (  5)   C (  6)
   C (  2)  1.568318
   H (  3)  1.092433  2.206097
   H (  4)  1.092433  2.206097  1.757123
   H (  5)  1.090470  2.227853  1.762900  1.762900
   C (  6)  2.534992  1.479777  2.801160  2.801160  3.486717
   H (  7)  2.205848  1.092592  2.567080  3.108066  2.574090  2.096477
   H (  8)  2.205848  1.092592  3.108066  2.567080  2.574090  2.096477
   H (  9)  2.788756  2.131055  2.611323  3.149785  3.789682  1.091303
   H ( 10)  3.488923  2.125445  3.804354  3.804354  4.329706  1.090467
   H ( 11)  2.788756  2.131055  3.149785  2.611323  3.789682  1.091303
             H (  7)   H (  8)   H (  9)   H ( 10)
   H (  8)  1.747273
   H (  9)  2.457943  3.020965
   H ( 10)  2.417262  2.417262  1.764834
   H ( 11)  3.020965  2.457942  1.765463  1.764833
 
 A cutoff of  1.0D-09 yielded   2530 shell pairs
 There are     22576 function pairs (     27757 Cartesian)
 Smallest overlap matrix eigenvalue = 8.48E-05

 Scale SEOQF with 1.000000e-01/1.000000e-01/1.000000e-01

 Standard Electronic Orientation quadrupole field applied
 Nucleus-field energy     =     0.0000000006 hartrees
 Requested basis set is 6-31G(d)
 There are 28 shells and 58 basis functions
 A cutoff of  1.0D-09 yielded    402 shell pairs
 There are      1773 function pairs (      1968 Cartesian)
 Smallest overlap matrix eigenvalue = 6.63E-03
 Guess from superposition of atomic densities
 Warning:  Energy on first SCF cycle will be non-variational
 SAD guess density has 26.000000 electrons
 Long-range K will be added via erf
 Coulomb attenuation parameter = 0.2 bohr**(-1)
 A restricted hybrid HF-DFT SCF calculation will be
 performed using Relaxed Constraint Minimization + Pulay DIIS
 Exchange:     0.2220 Hartree-Fock + 1.0000 wB97X-D + LR-HF
 Correlation:  1.0000 wB97X-D
 Using Euler-Maclaurin-Lebedev (75,302) quadrature formula
 Dispersion:   Grimme D
 SCF converges when DIIS error is below 1.0E-04
 using 3 threads for integral computing
 -------------------------------------------------------
 OpenMP Integral computing Module                
 Release: version 1.0, May 2013, Q-Chem Inc. Pittsburgh 
 -------------------------------------------------------
 using 3 threads for integral computing
 -------------------------------------------------------
 OpenMP Integral computing Module                
 Release: version 1.0, May 2013, Q-Chem Inc. Pittsburgh 
 -------------------------------------------------------
 ---------------------------------------
  Cycle       Energy         DIIS Error
 ---------------------------------------
    1    -119.6239051768      1.01E-01
    2    -119.0641439534      9.04E-03
    3    -119.0853657927      2.46E-03
    4    -119.0993705517      1.68E-03
    5    -119.1000669151      2.66E-04 Done RCA. Switching to DIIS
    6    -119.1005781323      1.97E-04
    7    -119.1005949494      4.61E-06 Convergence criterion met
 ---------------------------------------
 SCF time:  CPU 20.04 s  wall 7.40 s
 SCF   energy in the small basis set = -119.10059495
 Total energy in the small basis set = -119.10059495
 ----------------------------------------------------
  Cycle       Energy    
 ----------------------------------------------------
    1     -16.5408995380     -1.65E+01
 Long-range K will be added via erf
 Coulomb attenuation parameter = 0.2 bohr**(-1)
 A restricted hybrid HF-DFT SCF calculation will be
 performed using Relaxed Constraint Minimization + Pulay DIIS
 Exchange:     0.2220 Hartree-Fock + 1.0000 wB97X-D + LR-HF
 Correlation:  1.0000 wB97X-D
 Using Euler-Maclaurin-Lebedev (75,302) quadrature formula
 Dispersion:   Grimme D
 SCF converges when DIIS error is below 1.0E-05
 Basis2 calculation detected. Using small basis as guess for larger.
 SCFMinFind is unable to tell whether the solution found is close.
 Resetting ReadMinima to 0 and attempting to follow guess.
 SCFMinFind following SCF Guess.
 using 3 threads for integral computing
 -------------------------------------------------------
 OpenMP Integral computing Module                
 Release: version 1.0, May 2013, Q-Chem Inc. Pittsburgh 
 -------------------------------------------------------
 using 3 threads for integral computing
 -------------------------------------------------------
 OpenMP Integral computing Module                
 Release: version 1.0, May 2013, Q-Chem Inc. Pittsburgh 
 -------------------------------------------------------
 ---------------------------------------
  Cycle       Energy         DIIS Error
 ---------------------------------------
    1    -119.1197588611      4.21E-03
    2    -119.1418131315      5.97E-04 Done RCA. Switching to DIIS
    3    -119.1426448818      4.18E-04
    4    -119.1436035684      4.56E-05
    5    -119.1436182918      1.03E-05
    6    -119.1436189955      3.99E-06 Convergence criterion met
 ---------------------------------------
 SCF time:  CPU 49.52 s  wall 16.55 s
 SCF   energy in the final basis set = -119.14361900
 Total energy in the final basis set = -119.14361900
 
 --------------------------------------------------------------
 
                    Orbital Energies (a.u.)
 --------------------------------------------------------------
 
 Alpha MOs
 -- Occupied --
-10.2739 -10.2684 -10.2617  -0.8826  -0.7770  -0.6773  -0.5465  -0.5248
 -0.4825  -0.4637  -0.4248  -0.4114  -0.4069
 -- Virtual --
  0.0691   0.0858   0.0911   0.0990   0.1250   0.1299   0.1334   0.1426
  0.1433   0.1704   0.1723   0.1913   0.2326   0.2412   0.2441   0.2642
  0.2816   0.2843   0.2995   0.3200   0.3347   0.3526   0.4583   0.4654
  0.4721   0.5060   0.5129   0.5215   0.5455   0.5605   0.5824   0.5861
  0.6168   0.6293   0.6413   0.6518   0.6570   0.6576   0.7089   0.7265
  0.7275   0.7675   0.8169   0.8642   0.8701   0.8730   0.8849   0.9592
  1.0021   1.0529   1.0571   1.1377   1.1397   1.1805   1.1805   1.2130
  1.2286   1.2367   1.2735   1.2800   1.2846   1.2915   1.3277   1.3781
  1.3812   1.3917   1.4035   1.4467   1.4600   1.4714   1.4794   1.4853
  1.5225   1.5772   1.6127   1.6219   1.6409   1.6434   1.6849   1.6899
  1.7453   2.3751   2.4637   2.4842   2.5000   2.5454   2.5659   2.6021
  2.6313   2.7108   2.8095   2.8332   2.8345   2.9165   2.9235   2.9316
  2.9424   2.9431   3.0019   3.0181   3.0543   3.0748   3.0761   3.1005
  3.1313   3.1357   3.1823   3.1916   3.2072   3.2218   3.2822   3.3093
  3.3321   3.3349   3.3371   3.3599   3.3612   3.3622   3.3973   3.4482
  3.4726   3.4855   3.4902   3.5188   3.5635   3.5778   3.5990   3.6156
  3.6255   3.6750   3.6942   3.7038   3.7745   3.8079   3.8755   3.8907
  3.9246   3.9285   3.9642   3.9650   3.9810   3.9908   4.0496   4.0652
  4.0716   4.1046   4.1172   4.1489   4.1523   4.1540   4.1900   4.2059
  4.2163   4.2422   4.2630   4.3630   4.3890   4.4094   4.4161   4.4311
  4.4437   4.5750   4.6072   4.6098   4.6807   4.7996   4.8347   4.8951
  4.9457   4.9541   4.9620   4.9637   5.0332   5.0495   5.0592   5.1170
  5.1211   5.2432   5.2439   5.2725   5.3109   5.3470   5.3536   5.3584
  5.3738   5.4084   5.4485   5.4979   5.5553   5.5578   5.6463   5.7154
  5.9924   6.3799   6.3880   6.3918   6.4181   6.4653  25.2005  25.4138
 25.4984
 --------------------------------------------------------------
 
 -----------------------------------------------------------------
                    Cartesian Multipole Moments
 -----------------------------------------------------------------
    Charge (ESU x 10^10)
                 0.0000
    Dipole Moment (Debye)
         X      -0.0253      Y       0.0000      Z      -0.0850
       Tot       0.0887
    Quadrupole Moments (Debye-Ang)
        XX     -22.1576     XY      -0.0000     YY     -21.3623
        XZ       0.2086     YZ      -0.0000     ZZ     -21.8451
    Octopole Moments (Debye-Ang^2)
       XXX       0.2653    XXY       0.0000    XYY      -0.1675
       YYY      -0.0000    XXZ      -1.5582    XYZ       0.0000
       YYZ       0.4880    XZZ      -0.1659    YZZ      -0.0000
       ZZZ      -0.3992
    Hexadecapole Moments (Debye-Ang^3)
      XXXX    -202.3789   XXXY      -0.0000   XXYY     -42.2325
      XYYY       0.0000   YYYY     -44.1139   XXXZ      -1.6549
      XXYZ      -0.0000   XYYZ      -0.3822   YYYZ      -0.0000
      XXZZ     -45.3153   XYZZ       0.0000   YYZZ     -17.0772
      XZZZ      -1.4524   YZZZ      -0.0000   ZZZZ     -72.1953
 -----------------------------------------------------------------
Archival summary:
1\1\centos77-c1\SP\ProcedureUnspecified\BasisUnspecified\38\shihchen\ThuJul204:54:412020ThuJul204:54:412020\0\\#,ProcedureUnspecified,BasisUnspecified,\\0,1\C\H,1,1.09259\H,1,1.09259,2,106.184\C,1,1.47978,2,108.233,3,-116.016,0\H,4,1.09047,1,110.66,2,57.3378,0\H,4,1.0913,1,111.062,2,177.25,0\H,4,1.0913,1,111.062,2,-62.5746,0\C,1,1.56832,2,110.718,3,120.239,0\H,8,1.09047,1,112.602,2,-58.7468,0\H,8,1.09243,1,110.747,2,-179.431,0\H,8,1.09243,1,110.747,2,61.9375,0\\\@

 Total job time:  26.90s(wall), 73.16s(cpu) 
 Thu Jul  2 04:54:41 2020

        *************************************************************
        *                                                           *
        *  Thank you very much for using Q-Chem.  Have a nice day.  *
        *                                                           *
        *************************************************************


