                  Welcome to Q-Chem
     A Quantum Leap Into The Future Of Chemistry


 Q-Chem 5.3 (devel), Q-Chem, Inc., Pleasanton, CA (2020)

 Yihan Shao,  Zhengting Gan,  E. Epifanovsky,  A. T. B. Gilbert,  M. Wormit,  
 J. Kussmann,  A. W. Lange,  A. Behn,  Jia Deng,  Xintian Feng,  D. Ghosh,  
 M. Goldey,  P. R. Horn,  L. D. Jacobson,  I. Kaliman,  T. Kus,  A. Landau,  
 Jie Liu,  E. I. Proynov,  R. M. Richard,  R. P. Steele,  E. J. Sundstrom,  
 H. L. Woodcock III,  P. M. Zimmerman,  D. Zuev,  B. Alam,  B. Albrecht,  
 E. Alguire,  S. A. Baeppler,  D. Barton,  Z. Benda,  Y. A. Bernard,  
 E. J. Berquist,  K. B. Bravaya,  H. Burton,  K. Carter-Fenk,  D. Casanova,  
 Chun-Min Chang,  Yunqing Chen,  A. Chien,  K. D. Closser,  M. P. Coons,  
 S. Coriani,  S. Dasgupta,  A. L. Dempwolff,  M. Diedenhofen,  Hainam Do,  
 R. G. Edgar,  Po-Tung Fang,  S. Faraji,  S. Fatehi,  Qingguo Feng,  
 J. Fosso-Tande,  J. Gayvert,  Qinghui Ge,  A. Ghysels,  G. Gidofalvi,  
 J. Gomes,  J. Gonthier,  A. Gunina,  D. Hait,  M. W. D. Hanson-Heine,  
 P. H. P. Harbach,  A. W. Hauser,  M. F. Herbst,  J. E. Herr,  
 E. G. Hohenstein,  Z. C. Holden,  Kerwin Hui,  B. C. Huynh,  T.-C. Jagau,  
 Hyunjun Ji,  B. Kaduk,  K. Khistyaev,  Jaehoon Kim,  P. Klunzinger,  K. Koh,  
 D. Kosenkov,  L. Koulias,  T. Kowalczyk,  C. M. Krauter,  A. Kunitsa,  
 Ka Un Lao,  A. Laurent,  K. V. Lawler,  Joonho Lee,  D. Lefrancois,  
 S. Lehtola,  D. S. Levine,  Yi-Pei Li,  You-Sheng Lin,  Fenglai Liu,  
 Kuan-Yu Liu,  E. Livshits,  M. Loipersberger,  A. Luenser,  P. Manohar,  
 E. Mansoor,  S. F. Manzer,  Shan-Ping Mao,  Yuezhi Mao,  N. Mardirossian,  
 A. V. Marenich,  T. Markovich,  L. A. Martinez-Martinez,  S. A. Maurer,  
 N. J. Mayhall,  S. C. McKenzie,  J.-M. Mewes,  P. Morgante,  A. F. Morrison,  
 J. W. Mullinax,  K. Nanda,  T. S. Nguyen-Beck,  R. Olivares-Amaya,  
 K. J. Oosterbaan,  J. A. Parkhill,  S. K. Paul,  F. Pavosevic,  Zheng Pei,  
 T. M. Perrine,  F. Plasser,  P. Pokhilko,  S. Prager,  A. Prociuk,  
 E. Ramos,  B. Rana,  D. R. Rehn,  F. Rob,  M. Scheurer,  M. Schneider,  
 N. Sergueev,  S. M. Sharada,  S. Sharma,  D. W. Small,  T. Stauch,  
 C. J. Stein,  T. Stein,  Yu-Chuan Su,  S. P. Veccham,  Zhen Tao,  
 A. J. W. Thom,  A. Tkatchenko,  T. Tsuchimochi,  N. M. Tubman,  L. Vogt,  
 M. L. Vidal,  O. Vydrov,  M. A. Watson,  J. Wenzel,  M. de Wergifosse,  
 T. A. Wesolowski,  A. White,  J. Witte,  A. Yamada,  Jun Yang,  K. Yao,  
 S. Yeganeh,  S. R. Yost,  Zhi-Qiang You,  A. Zech,  Igor Ying Zhang,  
 Xing Zhang,  Yan Zhao,  Ying Zhu,  B. R. Brooks,  G. K. L. Chan,  
 C. J. Cramer,  M. S. Gordon,  W. J. Hehre,  A. Klamt,  M. W. Schmidt,  
 C. D. Sherrill,  D. G. Truhlar,  A. Aspuru-Guzik,  R. Baer,  A. T. Bell,  
 N. A. Besley,  Jeng-Da Chai,  A. E. DePrince, III,  R. A. DiStasio Jr.,  
 A. Dreuw,  B. D. Dunietz,  T. R. Furlani,  Chao-Ping Hsu,  Yousung Jung,  
 Jing Kong,  D. S. Lambrecht,  WanZhen Liang,  C. Ochsenfeld,  
 V. A. Rassolov,  L. V. Slipchenko,  J. E. Subotnik,  T. Van Voorhis,  
 J. M. Herbert,  A. I. Krylov,  P. M. W. Gill,  M. Head-Gordon

 Contributors to earlier versions of Q-Chem not listed above: 
 R. D. Adamson,  B. Austin,  J. Baker,  G. J. O. Beran,  K. Brandhorst,  
 S. T. Brown,  E. F. C. Byrd,  A. K. Chakraborty,  C.-L. Cheng,  
 Siu Hung Chien,  D. M. Chipman,  D. L. Crittenden,  H. Dachsel,  
 R. J. Doerksen,  A. D. Dutoi,  L. Fusti-Molnar,  W. A. Goddard III,  
 A. Golubeva-Zadorozhnaya,  S. R. Gwaltney,  G. Hawkins,  A. Heyden,  
 S. Hirata,  G. Kedziora,  F. J. Keil,  C. Kelley,  Jihan Kim,  R. A. King,  
 R. Z. Khaliullin,  P. P. Korambath,  W. Kurlancheek,  A. M. Lee,  M. S. Lee,  
 S. V. Levchenko,  Ching Yeh Lin,  D. Liotard,  R. C. Lochan,  I. Lotan,  
 P. E. Maslen,  N. Nair,  D. P. O'Neill,  D. Neuhauser,  E. Neuscamman,  
 C. M. Oana,  R. Olson,  B. Peters,  R. Peverati,  P. A. Pieniazek,  
 Y. M. Rhee,  J. Ritchie,  M. A. Rohrdanz,  E. Rosta,  N. J. Russ,  
 H. F. Schaefer III,  N. E. Schultz,  N. Shenvi,  A. C. Simmonett,  A. Sodt,  
 D. Stuck,  K. S. Thanthiriwatte,  V. Vanovschi,  Tao Wang,  A. Warshel,  
 C. F. Williams,  Q. Wu,  X. Xu,  W. Zhang

 Please cite Q-Chem as follows:
 Y. Shao et al., Mol. Phys. 113, 184-215 (2015)
 DOI: 10.1080/00268976.2014.952696

 Q-Chem 5.3.0 for Intel X86 EM64T Linux

 Parts of Q-Chem use Armadillo 9.800.1 (Horizon Scraper).
 http://arma.sourceforge.net/

 Q-Chem begins on Tue Jul  7 01:05:50 2020  

Host: centos77-c4
0

     Scratch files written to /tmp/26963.centos77-h1/qchem96789//
Processing $rem in /opt/qchem-5.3.0-intel2020u1//config/preferences:
Processing $rem in /home/shihchengli/.qchemrc:

Checking the input file for inconsistencies... 	...done.

--------------------------------------------------------------
User input:
--------------------------------------------------------------
$rem
   JOBTYPE  sp
   EXCHANGE   omegaB97X-D
   BASIS   6-311+G(2df,2pd)
   UNRESTRICTED   False
   max_scf_cycles   250
   geom_opt_max_cycles   1500
   basis2 6-31G*
   scf_algorithm rca_diis
   SYM_IGNORE  TRUE
   print_input   true
   geom_opt_dmax   80
   pop_mulliken false
   XC_GRID 000075000302
$end

$molecule
0 1
C       1.3509973719     0.0000003673     0.1252187735
C       0.0541030608     0.0000000777     -0.5910341630
H       1.1779204487     -0.8364685673     0.8080021172
H       1.1779212781     0.8364687391     0.8080029904
H       2.3828493467     -0.0000000682     -0.2160008284
C       -1.1740787022     -0.0000001946     0.3814226970
H       -0.1463874008     -0.8666820848     -1.2254017641
H       -0.1463885907     0.8666818707     -1.2254019670
H       -1.4017303034     -0.8902248815     0.9681100084
H       -1.8734775679     0.0000005363     -0.4599828353
H       -1.4017290018     0.8902248712     0.9681099902
$end
--------------------------------------------------------------
 ----------------------------------------------------------------
             Standard Nuclear Orientation (Angstroms)
    I     Atom           X                Y                Z
 ----------------------------------------------------------------
    1      C       1.3509973719     0.0000003673     0.1252187735
    2      C       0.0541030608     0.0000000777    -0.5910341630
    3      H       1.1779204487    -0.8364685673     0.8080021172
    4      H       1.1779212781     0.8364687391     0.8080029904
    5      H       2.3828493467    -0.0000000682    -0.2160008284
    6      C      -1.1740787022    -0.0000001946     0.3814226970
    7      H      -0.1463874008    -0.8666820848    -1.2254017641
    8      H      -0.1463885907     0.8666818707    -1.2254019670
    9      H      -1.4017303034    -0.8902248815     0.9681100084
   10      H      -1.8734775679     0.0000005363    -0.4599828353
   11      H      -1.4017290018     0.8902248712     0.9681099902
 ----------------------------------------------------------------
 Nuclear Repulsion Energy =          83.11662674 hartrees
 There are       13 alpha and       13 beta electrons
 Requested basis set is 6-311+G(2df,2pd)
 There are 72 shells and 214 basis functions

 Total QAlloc Memory Limit   2000 MB
 Mega-Array Size       188 MB
 MEM_STATIC part       192 MB

                       Distance Matrix (Angstroms)
             C (  1)   C (  2)   H (  3)   H (  4)   H (  5)   C (  6)
   C (  2)  1.481537
   H (  3)  1.093540  1.979886
   H (  4)  1.093540  1.979887  1.672937
   H (  5)  1.086807  2.358752  1.788887  1.788887
   C (  6)  2.538041  1.566558  2.532499  2.532500  3.606751
   H (  7)  2.194875  1.092592  2.426816  2.964667  2.857808  2.095035
   H (  8)  2.194875  1.092592  2.964667  2.426818  2.857809  2.095035
   H (  9)  3.013383  2.311467  2.585174  3.108329  4.064193  1.090196
   H ( 10)  3.277148  1.932030  3.408592  3.408592  4.263314  1.094131
   H ( 11)  3.013381  2.311467  3.108327  2.585173  4.064191  1.090196
             H (  7)   H (  8)   H (  9)   H ( 10)
   H (  8)  1.733364
   H (  9)  2.527436  3.078002
   H ( 10)  2.078424  2.078422  1.747712
   H ( 11)  3.078002  2.527435  1.780450  1.747711
 
 A cutoff of  1.0D-09 yielded   2541 shell pairs
 There are     22667 function pairs (     27891 Cartesian)
 Smallest overlap matrix eigenvalue = 9.06E-05

 Scale SEOQF with 1.000000e-01/1.000000e-01/1.000000e-01

 Standard Electronic Orientation quadrupole field applied
 Nucleus-field energy     =     0.0000000006 hartrees
 Requested basis set is 6-31G(d)
 There are 28 shells and 58 basis functions
 A cutoff of  1.0D-09 yielded    402 shell pairs
 There are      1773 function pairs (      1968 Cartesian)
 Smallest overlap matrix eigenvalue = 5.88E-03
 Guess from superposition of atomic densities
 Warning:  Energy on first SCF cycle will be non-variational
 SAD guess density has 26.000000 electrons
 Long-range K will be added via erf
 Coulomb attenuation parameter = 0.2 bohr**(-1)
 A restricted hybrid HF-DFT SCF calculation will be
 performed using Relaxed Constraint Minimization + Pulay DIIS
 Exchange:     0.2220 Hartree-Fock + 1.0000 wB97X-D + LR-HF
 Correlation:  1.0000 wB97X-D
 Using Euler-Maclaurin-Lebedev (75,302) quadrature formula
 Dispersion:   Grimme D
 SCF converges when DIIS error is below 1.0E-04
 using 3 threads for integral computing
 -------------------------------------------------------
 OpenMP Integral computing Module                
 Release: version 1.0, May 2013, Q-Chem Inc. Pittsburgh 
 -------------------------------------------------------
 using 3 threads for integral computing
 -------------------------------------------------------
 OpenMP Integral computing Module                
 Release: version 1.0, May 2013, Q-Chem Inc. Pittsburgh 
 -------------------------------------------------------
 ---------------------------------------
  Cycle       Energy         DIIS Error
 ---------------------------------------
    1    -119.6689377221      1.02E-01
    2    -119.0315785704      9.00E-03
    3    -119.0527991193      2.55E-03
    4    -119.0665631340      1.75E-03
    5    -119.0673173024      2.80E-04 Done RCA. Switching to DIIS
    6    -119.0678685021      2.08E-04
    7    -119.0678872999      4.92E-06 Convergence criterion met
 ---------------------------------------
 SCF time:  CPU 20.19 s  wall 7.39 s
 SCF   energy in the small basis set = -119.06788730
 Total energy in the small basis set = -119.06788730
 ----------------------------------------------------
  Cycle       Energy    
 ----------------------------------------------------
    1     -16.5437486509     -1.65E+01
 Long-range K will be added via erf
 Coulomb attenuation parameter = 0.2 bohr**(-1)
 A restricted hybrid HF-DFT SCF calculation will be
 performed using Relaxed Constraint Minimization + Pulay DIIS
 Exchange:     0.2220 Hartree-Fock + 1.0000 wB97X-D + LR-HF
 Correlation:  1.0000 wB97X-D
 Using Euler-Maclaurin-Lebedev (75,302) quadrature formula
 Dispersion:   Grimme D
 SCF converges when DIIS error is below 1.0E-05
 Basis2 calculation detected. Using small basis as guess for larger.
 SCFMinFind is unable to tell whether the solution found is close.
 Resetting ReadMinima to 0 and attempting to follow guess.
 SCFMinFind following SCF Guess.
 using 3 threads for integral computing
 -------------------------------------------------------
 OpenMP Integral computing Module                
 Release: version 1.0, May 2013, Q-Chem Inc. Pittsburgh 
 -------------------------------------------------------
 using 3 threads for integral computing
 -------------------------------------------------------
 OpenMP Integral computing Module                
 Release: version 1.0, May 2013, Q-Chem Inc. Pittsburgh 
 -------------------------------------------------------
 ---------------------------------------
  Cycle       Energy         DIIS Error
 ---------------------------------------
    1    -119.0881363708      4.21E-03
    2    -119.1101849852      6.12E-04 Done RCA. Switching to DIIS
    3    -119.1110564608      4.31E-04
    4    -119.1120735502      4.63E-05
    5    -119.1120890191      1.13E-05
    6    -119.1120898698      4.37E-06 Convergence criterion met
 ---------------------------------------
 SCF time:  CPU 51.11 s  wall 17.29 s
 SCF   energy in the final basis set = -119.11208987
 Total energy in the final basis set = -119.11208987
 
 --------------------------------------------------------------
 
                    Orbital Energies (a.u.)
 --------------------------------------------------------------
 
 Alpha MOs
 -- Occupied --
-10.2813 -10.2684 -10.2622  -0.8898  -0.7817  -0.6790  -0.5475  -0.5363
 -0.4877  -0.4615  -0.4147  -0.4051  -0.4015
 -- Virtual --
  0.0681   0.0849   0.0897   0.0987   0.1187   0.1305   0.1333   0.1415
  0.1436   0.1701   0.1718   0.1962   0.2253   0.2385   0.2502   0.2594
  0.2648   0.2811   0.2864   0.3331   0.3457   0.3496   0.4627   0.4650
  0.4700   0.4980   0.5124   0.5157   0.5493   0.5782   0.5806   0.5869
  0.5980   0.6204   0.6289   0.6700   0.6718   0.6765   0.7131   0.7202
  0.7269   0.7770   0.8168   0.8279   0.8714   0.8906   0.9337   0.9721
  0.9858   1.0010   1.0775   1.1164   1.1491   1.1811   1.1985   1.2077
  1.2359   1.2423   1.2737   1.2912   1.3019   1.3130   1.3237   1.3690
  1.3793   1.4105   1.4251   1.4423   1.4682   1.4813   1.4839   1.5191
  1.5301   1.5583   1.5949   1.6397   1.6429   1.6529   1.6594   1.6813
  1.7384   2.4160   2.4214   2.4999   2.5128   2.5431   2.5555   2.6484
  2.6700   2.6802   2.8035   2.8171   2.8773   2.8902   2.9276   2.9278
  2.9413   2.9649   2.9696   3.0300   3.0539   3.0545   3.0932   3.1268
  3.1283   3.1496   3.1670   3.1877   3.2455   3.2457   3.2497   3.2791
  3.3087   3.3435   3.3480   3.3644   3.3729   3.3909   3.4342   3.4450
  3.4649   3.4996   3.5194   3.5373   3.5493   3.5670   3.6095   3.6186
  3.6208   3.6636   3.6872   3.6924   3.7338   3.7495   3.8166   3.8374
  3.9109   3.9136   3.9519   3.9555   4.0116   4.0190   4.0430   4.0736
  4.0913   4.0993   4.1159   4.1573   4.1781   4.2049   4.2277   4.2466
  4.2728   4.2872   4.3110   4.3779   4.3977   4.4120   4.4621   4.4779
  4.4869   4.5888   4.6073   4.6366   4.6723   4.7791   4.8314   4.8540
  4.9064   4.9209   4.9528   4.9682   5.0237   5.0652   5.1095   5.1492
  5.1933   5.2146   5.2523   5.2524   5.3014   5.3219   5.3553   5.3661
  5.3812   5.4066   5.5220   5.5265   5.5995   5.6365   5.7825   5.8312
  6.0525   6.4048   6.4204   6.4291   6.4842   6.4968  25.1949  25.4097
 25.4671
 --------------------------------------------------------------
 
 -----------------------------------------------------------------
                    Cartesian Multipole Moments
 -----------------------------------------------------------------
    Charge (ESU x 10^10)
                -0.0000
    Dipole Moment (Debye)
         X      -0.1253      Y      -0.0000      Z      -0.0772
       Tot       0.1472
    Quadrupole Moments (Debye-Ang)
        XX     -22.0183     XY      -0.0000     YY     -21.5628
        XZ      -0.0967     YZ       0.0000     ZZ     -21.9942
    Octopole Moments (Debye-Ang^2)
       XXX       0.7369    XXY      -0.0000    XYY      -2.0200
       YYY      -0.0000    XXZ      -0.8480    XYZ       0.0000
       YYZ       0.4797    XZZ      -2.3591    YZZ      -0.0000
       ZZZ      -0.1106
    Hexadecapole Moments (Debye-Ang^3)
      XXXX    -197.4929   XXXY      -0.0000   XXYY     -42.0067
      XYYY      -0.0000   YYYY     -43.9837   XXXZ       2.8751
      XXYZ      -0.0000   XYYZ       0.9436   YYYZ       0.0000
      XXZZ     -45.2280   XYZZ      -0.0000   YYZZ     -17.3802
      XZZZ       4.8358   YZZZ       0.0000   ZZZZ     -72.8610
 -----------------------------------------------------------------
Archival summary:
1\1\centos77-c4\SP\ProcedureUnspecified\BasisUnspecified\38\shihchen\TueJul701:06:182020TueJul701:06:182020\0\\#,ProcedureUnspecified,BasisUnspecified,\\0,1\C\H,1,1.09259\H,1,1.09259,2,104.978\C,1,1.48154,2,116.189,3,-129.843,0\H,4,1.08681,1,132.791,2,62.1261,0\H,4,1.09354,1,99.3992,2,-168.709,0\H,4,1.09354,1,99.3991,2,-67.0391,0\C,1,1.56656,2,102.507,3,106.796,0\H,8,1.0902,1,119.853,2,55.3518,0\H,8,1.0902,1,119.853,2,-164.037,0\H,8,1.09413,1,91.3626,2,-54.3425,0\\\@

 Total job time:  27.57s(wall), 74.88s(cpu) 
 Tue Jul  7 01:06:18 2020

        *************************************************************
        *                                                           *
        *  Thank you very much for using Q-Chem.  Have a nice day.  *
        *                                                           *
        *************************************************************


