                  Welcome to Q-Chem
     A Quantum Leap Into The Future Of Chemistry


 Q-Chem 5.3 (devel), Q-Chem, Inc., Pleasanton, CA (2020)

 Yihan Shao,  Zhengting Gan,  E. Epifanovsky,  A. T. B. Gilbert,  M. Wormit,  
 J. Kussmann,  A. W. Lange,  A. Behn,  Jia Deng,  Xintian Feng,  D. Ghosh,  
 M. Goldey,  P. R. Horn,  L. D. Jacobson,  I. Kaliman,  T. Kus,  A. Landau,  
 Jie Liu,  E. I. Proynov,  R. M. Richard,  R. P. Steele,  E. J. Sundstrom,  
 H. L. Woodcock III,  P. M. Zimmerman,  D. Zuev,  B. Alam,  B. Albrecht,  
 E. Alguire,  S. A. Baeppler,  D. Barton,  Z. Benda,  Y. A. Bernard,  
 E. J. Berquist,  K. B. Bravaya,  H. Burton,  K. Carter-Fenk,  D. Casanova,  
 Chun-Min Chang,  Yunqing Chen,  A. Chien,  K. D. Closser,  M. P. Coons,  
 S. Coriani,  S. Dasgupta,  A. L. Dempwolff,  M. Diedenhofen,  Hainam Do,  
 R. G. Edgar,  Po-Tung Fang,  S. Faraji,  S. Fatehi,  Qingguo Feng,  
 J. Fosso-Tande,  J. Gayvert,  Qinghui Ge,  A. Ghysels,  G. Gidofalvi,  
 J. Gomes,  J. Gonthier,  A. Gunina,  D. Hait,  M. W. D. Hanson-Heine,  
 P. H. P. Harbach,  A. W. Hauser,  M. F. Herbst,  J. E. Herr,  
 E. G. Hohenstein,  Z. C. Holden,  Kerwin Hui,  B. C. Huynh,  T.-C. Jagau,  
 Hyunjun Ji,  B. Kaduk,  K. Khistyaev,  Jaehoon Kim,  P. Klunzinger,  K. Koh,  
 D. Kosenkov,  L. Koulias,  T. Kowalczyk,  C. M. Krauter,  A. Kunitsa,  
 Ka Un Lao,  A. Laurent,  K. V. Lawler,  Joonho Lee,  D. Lefrancois,  
 S. Lehtola,  D. S. Levine,  Yi-Pei Li,  You-Sheng Lin,  Fenglai Liu,  
 Kuan-Yu Liu,  E. Livshits,  M. Loipersberger,  A. Luenser,  P. Manohar,  
 E. Mansoor,  S. F. Manzer,  Shan-Ping Mao,  Yuezhi Mao,  N. Mardirossian,  
 A. V. Marenich,  T. Markovich,  L. A. Martinez-Martinez,  S. A. Maurer,  
 N. J. Mayhall,  S. C. McKenzie,  J.-M. Mewes,  P. Morgante,  A. F. Morrison,  
 J. W. Mullinax,  K. Nanda,  T. S. Nguyen-Beck,  R. Olivares-Amaya,  
 K. J. Oosterbaan,  J. A. Parkhill,  S. K. Paul,  F. Pavosevic,  Zheng Pei,  
 T. M. Perrine,  F. Plasser,  P. Pokhilko,  S. Prager,  A. Prociuk,  
 E. Ramos,  B. Rana,  D. R. Rehn,  F. Rob,  M. Scheurer,  M. Schneider,  
 N. Sergueev,  S. M. Sharada,  S. Sharma,  D. W. Small,  T. Stauch,  
 C. J. Stein,  T. Stein,  Yu-Chuan Su,  S. P. Veccham,  Zhen Tao,  
 A. J. W. Thom,  A. Tkatchenko,  T. Tsuchimochi,  N. M. Tubman,  L. Vogt,  
 M. L. Vidal,  O. Vydrov,  M. A. Watson,  J. Wenzel,  M. de Wergifosse,  
 T. A. Wesolowski,  A. White,  J. Witte,  A. Yamada,  Jun Yang,  K. Yao,  
 S. Yeganeh,  S. R. Yost,  Zhi-Qiang You,  A. Zech,  Igor Ying Zhang,  
 Xing Zhang,  Yan Zhao,  Ying Zhu,  B. R. Brooks,  G. K. L. Chan,  
 C. J. Cramer,  M. S. Gordon,  W. J. Hehre,  A. Klamt,  M. W. Schmidt,  
 C. D. Sherrill,  D. G. Truhlar,  A. Aspuru-Guzik,  R. Baer,  A. T. Bell,  
 N. A. Besley,  Jeng-Da Chai,  A. E. DePrince, III,  R. A. DiStasio Jr.,  
 A. Dreuw,  B. D. Dunietz,  T. R. Furlani,  Chao-Ping Hsu,  Yousung Jung,  
 Jing Kong,  D. S. Lambrecht,  WanZhen Liang,  C. Ochsenfeld,  
 V. A. Rassolov,  L. V. Slipchenko,  J. E. Subotnik,  T. Van Voorhis,  
 J. M. Herbert,  A. I. Krylov,  P. M. W. Gill,  M. Head-Gordon

 Contributors to earlier versions of Q-Chem not listed above: 
 R. D. Adamson,  B. Austin,  J. Baker,  G. J. O. Beran,  K. Brandhorst,  
 S. T. Brown,  E. F. C. Byrd,  A. K. Chakraborty,  C.-L. Cheng,  
 Siu Hung Chien,  D. M. Chipman,  D. L. Crittenden,  H. Dachsel,  
 R. J. Doerksen,  A. D. Dutoi,  L. Fusti-Molnar,  W. A. Goddard III,  
 A. Golubeva-Zadorozhnaya,  S. R. Gwaltney,  G. Hawkins,  A. Heyden,  
 S. Hirata,  G. Kedziora,  F. J. Keil,  C. Kelley,  Jihan Kim,  R. A. King,  
 R. Z. Khaliullin,  P. P. Korambath,  W. Kurlancheek,  A. M. Lee,  M. S. Lee,  
 S. V. Levchenko,  Ching Yeh Lin,  D. Liotard,  R. C. Lochan,  I. Lotan,  
 P. E. Maslen,  N. Nair,  D. P. O'Neill,  D. Neuhauser,  E. Neuscamman,  
 C. M. Oana,  R. Olson,  B. Peters,  R. Peverati,  P. A. Pieniazek,  
 Y. M. Rhee,  J. Ritchie,  M. A. Rohrdanz,  E. Rosta,  N. J. Russ,  
 H. F. Schaefer III,  N. E. Schultz,  N. Shenvi,  A. C. Simmonett,  A. Sodt,  
 D. Stuck,  K. S. Thanthiriwatte,  V. Vanovschi,  Tao Wang,  A. Warshel,  
 C. F. Williams,  Q. Wu,  X. Xu,  W. Zhang

 Please cite Q-Chem as follows:
 Y. Shao et al., Mol. Phys. 113, 184-215 (2015)
 DOI: 10.1080/00268976.2014.952696

 Q-Chem 5.3.0 for Intel X86 EM64T Linux

 Parts of Q-Chem use Armadillo 9.800.1 (Horizon Scraper).
 http://arma.sourceforge.net/

 Q-Chem begins on Tue Jul  7 00:54:12 2020  

Host: centos77-c4
0

     Scratch files written to /tmp/26963.centos77-h1/qchem94484//
Processing $rem in /opt/qchem-5.3.0-intel2020u1//config/preferences:
Processing $rem in /home/shihchengli/.qchemrc:

Checking the input file for inconsistencies... 	...done.

--------------------------------------------------------------
User input:
--------------------------------------------------------------
$rem
   JOBTYPE  sp
   EXCHANGE   omegaB97X-D
   BASIS   6-311+G(2df,2pd)
   UNRESTRICTED   False
   max_scf_cycles   250
   geom_opt_max_cycles   1500
   basis2 6-31G*
   scf_algorithm rca_diis
   SYM_IGNORE  TRUE
   print_input   true
   geom_opt_dmax   80
   pop_mulliken false
   XC_GRID 000075000302
$end

$molecule
0 1
C       1.2407972433     -0.0000000420     0.2607718045
C       -0.0000000009     0.0000000013     -0.5542464595
H       1.3055150396     -0.8833533707     0.8987339709
H       1.3055148949     0.8833533964     0.8987338385
H       2.1080902745     0.0000000341     -0.3998629596
C       -1.2407972136     0.0000000370     0.2607718219
H       -0.0000002000     -0.8734273534     -1.2107308565
H       0.0000000205     0.8734273229     -1.2107309006
H       -1.3055148950     -0.8833534368     0.8987337763
H       -2.1080901953     0.0000006872     -0.3998630099
H       -1.3055150286     0.8833533901     0.8987339929
$end
--------------------------------------------------------------
 ----------------------------------------------------------------
             Standard Nuclear Orientation (Angstroms)
    I     Atom           X                Y                Z
 ----------------------------------------------------------------
    1      C       1.2407972433    -0.0000000420     0.2607718045
    2      C      -0.0000000009     0.0000000013    -0.5542464595
    3      H       1.3055150396    -0.8833533707     0.8987339709
    4      H       1.3055148949     0.8833533964     0.8987338385
    5      H       2.1080902745     0.0000000341    -0.3998629596
    6      C      -1.2407972136     0.0000000370     0.2607718219
    7      H      -0.0000002000    -0.8734273534    -1.2107308565
    8      H       0.0000000205     0.8734273229    -1.2107309006
    9      H      -1.3055148950    -0.8833534368     0.8987337763
   10      H      -2.1080901953     0.0000006872    -0.3998630099
   11      H      -1.3055150286     0.8833533901     0.8987339929
 ----------------------------------------------------------------
 Nuclear Repulsion Energy =          83.94746109 hartrees
 There are       13 alpha and       13 beta electrons
 Requested basis set is 6-311+G(2df,2pd)
 There are 72 shells and 214 basis functions

 Total QAlloc Memory Limit   2000 MB
 Mega-Array Size       188 MB
 MEM_STATIC part       192 MB

                       Distance Matrix (Angstroms)
             C (  1)   C (  2)   H (  3)   H (  4)   H (  5)   C (  6)
   C (  2)  1.484531
   H (  3)  1.091557  2.143790
   H (  4)  1.091557  2.143790  1.766707
   H (  5)  1.090246  2.113736  1.763744  1.763744
   C (  6)  2.481594  1.484531  2.769660  2.769660  3.413427
   H (  7)  2.113711  1.092633  2.480788  3.039817  2.421658  2.113711
   H (  8)  2.113711  1.092633  3.039817  2.480788  2.421658  2.113711
   H (  9)  2.769660  2.143790  2.611030  3.152575  3.757575  1.091557
   H ( 10)  3.413427  2.113736  3.757575  3.757574  4.216180  1.090246
   H ( 11)  2.769660  2.143790  3.152575  2.611030  3.757575  1.091557
             H (  7)   H (  8)   H (  9)   H ( 10)
   H (  8)  1.746855
   H (  9)  2.480788  3.039817
   H ( 10)  2.421658  2.421658  1.763745
   H ( 11)  3.039817  2.480788  1.766707  1.763744
 
 A cutoff of  1.0D-09 yielded   2534 shell pairs
 There are     22592 function pairs (     27779 Cartesian)
 Smallest overlap matrix eigenvalue = 7.41E-05

 Scale SEOQF with 1.000000e-01/1.000000e-01/1.000000e-01

 Standard Electronic Orientation quadrupole field applied
 Nucleus-field energy     =     0.0000000006 hartrees
 Requested basis set is 6-31G(d)
 There are 28 shells and 58 basis functions
 A cutoff of  1.0D-09 yielded    402 shell pairs
 There are      1773 function pairs (      1968 Cartesian)
 Smallest overlap matrix eigenvalue = 5.98E-03
 Guess from superposition of atomic densities
 Warning:  Energy on first SCF cycle will be non-variational
 SAD guess density has 26.000000 electrons
 Long-range K will be added via erf
 Coulomb attenuation parameter = 0.2 bohr**(-1)
 A restricted hybrid HF-DFT SCF calculation will be
 performed using Relaxed Constraint Minimization + Pulay DIIS
 Exchange:     0.2220 Hartree-Fock + 1.0000 wB97X-D + LR-HF
 Correlation:  1.0000 wB97X-D
 Using Euler-Maclaurin-Lebedev (75,302) quadrature formula
 Dispersion:   Grimme D
 SCF converges when DIIS error is below 1.0E-04
 using 3 threads for integral computing
 -------------------------------------------------------
 OpenMP Integral computing Module                
 Release: version 1.0, May 2013, Q-Chem Inc. Pittsburgh 
 -------------------------------------------------------
 using 3 threads for integral computing
 -------------------------------------------------------
 OpenMP Integral computing Module                
 Release: version 1.0, May 2013, Q-Chem Inc. Pittsburgh 
 -------------------------------------------------------
 ---------------------------------------
  Cycle       Energy         DIIS Error
 ---------------------------------------
    1    -119.7345471191      1.04E-01
    2    -119.0604802482      9.49E-03
    3    -119.0835142853      2.44E-03
    4    -119.0993100163      1.67E-03
    5    -119.0999864970      2.50E-04 Done RCA. Switching to DIIS
    6    -119.1004960456      1.85E-04
    7    -119.1005108808      4.55E-06 Convergence criterion met
 ---------------------------------------
 SCF time:  CPU 21.21 s  wall 7.92 s
 SCF   energy in the small basis set = -119.10051088
 Total energy in the small basis set = -119.10051088
 ----------------------------------------------------
  Cycle       Energy    
 ----------------------------------------------------
    1     -16.5739691228     -1.66E+01
 Long-range K will be added via erf
 Coulomb attenuation parameter = 0.2 bohr**(-1)
 A restricted hybrid HF-DFT SCF calculation will be
 performed using Relaxed Constraint Minimization + Pulay DIIS
 Exchange:     0.2220 Hartree-Fock + 1.0000 wB97X-D + LR-HF
 Correlation:  1.0000 wB97X-D
 Using Euler-Maclaurin-Lebedev (75,302) quadrature formula
 Dispersion:   Grimme D
 SCF converges when DIIS error is below 1.0E-05
 Basis2 calculation detected. Using small basis as guess for larger.
 SCFMinFind is unable to tell whether the solution found is close.
 Resetting ReadMinima to 0 and attempting to follow guess.
 SCFMinFind following SCF Guess.
 using 3 threads for integral computing
 -------------------------------------------------------
 OpenMP Integral computing Module                
 Release: version 1.0, May 2013, Q-Chem Inc. Pittsburgh 
 -------------------------------------------------------
 using 3 threads for integral computing
 -------------------------------------------------------
 OpenMP Integral computing Module                
 Release: version 1.0, May 2013, Q-Chem Inc. Pittsburgh 
 -------------------------------------------------------
 ---------------------------------------
  Cycle       Energy         DIIS Error
 ---------------------------------------
    1    -119.1200387104      4.21E-03
    2    -119.1420898660      6.02E-04 Done RCA. Switching to DIIS
    3    -119.1429097611      4.27E-04
    4    -119.1439049809      4.64E-05
    5    -119.1439201152      1.02E-05
    6    -119.1439208164      3.62E-06 Convergence criterion met
 ---------------------------------------
 SCF time:  CPU 50.31 s  wall 16.92 s
 SCF   energy in the final basis set = -119.14392082
 Total energy in the final basis set = -119.14392082
 
 --------------------------------------------------------------
 
                    Orbital Energies (a.u.)
 --------------------------------------------------------------
 
 Alpha MOs
 -- Occupied --
-10.2674 -10.2614 -10.2614  -0.8922  -0.7803  -0.6741  -0.5521  -0.5285
 -0.4894  -0.4645  -0.4183  -0.4166  -0.4035
 -- Virtual --
  0.0687   0.0868   0.0910   0.0978   0.1254   0.1300   0.1335   0.1418
  0.1432   0.1708   0.1728   0.1913   0.2354   0.2397   0.2439   0.2643
  0.2819   0.2846   0.3175   0.3189   0.3413   0.3598   0.4604   0.4690
  0.4704   0.5066   0.5135   0.5149   0.5389   0.5596   0.5821   0.5823
  0.6216   0.6440   0.6464   0.6623   0.6666   0.6674   0.7098   0.7276
  0.7309   0.7719   0.8230   0.8677   0.8705   0.8720   0.8913   0.9627
  1.0029   1.0561   1.0587   1.1436   1.1613   1.1851   1.1924   1.2101
  1.2408   1.2431   1.2811   1.2845   1.2847   1.2962   1.3408   1.3907
  1.4012   1.4023   1.4028   1.4463   1.4660   1.4692   1.4788   1.4976
  1.5211   1.5973   1.6111   1.6169   1.6365   1.6449   1.6882   1.6964
  1.7292   2.3807   2.4869   2.5069   2.5098   2.5609   2.5697   2.6106
  2.6627   2.7101   2.8288   2.8498   2.8670   2.9111   2.9331   2.9475
  2.9523   2.9574   2.9921   3.0144   3.0496   3.0694   3.0763   3.1088
  3.1355   3.1484   3.1758   3.1991   3.2143   3.2221   3.2803   3.3096
  3.3258   3.3330   3.3334   3.3675   3.3727   3.3733   3.4146   3.4788
  3.4799   3.4852   3.5405   3.5443   3.5656   3.5781   3.6071   3.6230
  3.6274   3.6818   3.6828   3.7294   3.8051   3.8209   3.8882   3.9281
  3.9464   3.9556   3.9653   3.9821   3.9858   3.9986   4.0513   4.0722
  4.1003   4.1240   4.1360   4.1572   4.1590   4.1801   4.1936   4.2116
  4.2160   4.2666   4.2863   4.3879   4.4091   4.4366   4.4422   4.4595
  4.4744   4.6001   4.6208   4.6228   4.7037   4.8029   4.8522   4.8851
  4.9416   4.9729   4.9740   4.9755   5.0406   5.0481   5.0551   5.1437
  5.1759   5.2638   5.2876   5.2927   5.3302   5.3622   5.3798   5.3920
  5.4111   5.4229   5.4997   5.5262   5.5634   5.6121   5.6697   5.8443
  6.0418   6.3879   6.3915   6.3957   6.4267   6.4749  25.2422  25.4829
 25.5065
 --------------------------------------------------------------
 
 -----------------------------------------------------------------
                    Cartesian Multipole Moments
 -----------------------------------------------------------------
    Charge (ESU x 10^10)
                -0.0000
    Dipole Moment (Debye)
         X      -0.0000      Y       0.0000      Z      -0.1143
       Tot       0.1143
    Quadrupole Moments (Debye-Ang)
        XX     -22.3789     XY      -0.0000     YY     -21.2743
        XZ       0.0000     YZ      -0.0000     ZZ     -21.7990
    Octopole Moments (Debye-Ang^2)
       XXX       0.0000    XXY       0.0000    XYY      -0.0000
       YYY      -0.0000    XXZ      -1.7264    XYZ       0.0000
       YYZ       0.3500    XZZ      -0.0000    YZZ      -0.0000
       ZZZ      -0.8979
    Hexadecapole Moments (Debye-Ang^3)
      XXXX    -198.7275   XXXY      -0.0000   XXYY     -40.9756
      XYYY       0.0000   YYYY     -44.0731   XXXZ      -0.0000
      XXYZ      -0.0000   XYYZ      -0.0000   YYYZ      -0.0000
      XXZZ     -43.6095   XYZZ       0.0000   YYZZ     -16.8971
      XZZZ       0.0000   YZZZ      -0.0000   ZZZZ     -70.4407
 -----------------------------------------------------------------
Archival summary:
1\1\centos77-c4\SP\ProcedureUnspecified\BasisUnspecified\38\shihchen\TueJul700:54:392020TueJul700:54:392020\0\\#,ProcedureUnspecified,BasisUnspecified,\\0,1\C\H,1,1.09263\H,1,1.09263,2,106.142\C,1,1.48453,2,109.26,3,-117.703,0\H,4,1.09025,1,109.404,2,57.8623,0\H,4,1.09156,1,111.742,2,177.26,0\H,4,1.09156,1,111.742,2,-61.535,0\C,1,1.48453,2,109.26,3,117.703,0\H,8,1.09025,1,109.404,2,-57.8623,0\H,8,1.09156,1,111.742,2,-177.26,0\H,8,1.09156,1,111.742,2,61.535,0\\\@

 Total job time:  27.82s(wall), 75.16s(cpu) 
 Tue Jul  7 00:54:39 2020

        *************************************************************
        *                                                           *
        *  Thank you very much for using Q-Chem.  Have a nice day.  *
        *                                                           *
        *************************************************************


