                  Welcome to Q-Chem
     A Quantum Leap Into The Future Of Chemistry


 Q-Chem 5.3 (devel), Q-Chem, Inc., Pleasanton, CA (2020)

 Yihan Shao,  Zhengting Gan,  E. Epifanovsky,  A. T. B. Gilbert,  M. Wormit,  
 J. Kussmann,  A. W. Lange,  A. Behn,  Jia Deng,  Xintian Feng,  D. Ghosh,  
 M. Goldey,  P. R. Horn,  L. D. Jacobson,  I. Kaliman,  T. Kus,  A. Landau,  
 Jie Liu,  E. I. Proynov,  R. M. Richard,  R. P. Steele,  E. J. Sundstrom,  
 H. L. Woodcock III,  P. M. Zimmerman,  D. Zuev,  B. Alam,  B. Albrecht,  
 E. Alguire,  S. A. Baeppler,  D. Barton,  Z. Benda,  Y. A. Bernard,  
 E. J. Berquist,  K. B. Bravaya,  H. Burton,  K. Carter-Fenk,  D. Casanova,  
 Chun-Min Chang,  Yunqing Chen,  A. Chien,  K. D. Closser,  M. P. Coons,  
 S. Coriani,  S. Dasgupta,  A. L. Dempwolff,  M. Diedenhofen,  Hainam Do,  
 R. G. Edgar,  Po-Tung Fang,  S. Faraji,  S. Fatehi,  Qingguo Feng,  
 J. Fosso-Tande,  J. Gayvert,  Qinghui Ge,  A. Ghysels,  G. Gidofalvi,  
 J. Gomes,  J. Gonthier,  A. Gunina,  D. Hait,  M. W. D. Hanson-Heine,  
 P. H. P. Harbach,  A. W. Hauser,  M. F. Herbst,  J. E. Herr,  
 E. G. Hohenstein,  Z. C. Holden,  Kerwin Hui,  B. C. Huynh,  T.-C. Jagau,  
 Hyunjun Ji,  B. Kaduk,  K. Khistyaev,  Jaehoon Kim,  P. Klunzinger,  K. Koh,  
 D. Kosenkov,  L. Koulias,  T. Kowalczyk,  C. M. Krauter,  A. Kunitsa,  
 Ka Un Lao,  A. Laurent,  K. V. Lawler,  Joonho Lee,  D. Lefrancois,  
 S. Lehtola,  D. S. Levine,  Yi-Pei Li,  You-Sheng Lin,  Fenglai Liu,  
 Kuan-Yu Liu,  E. Livshits,  M. Loipersberger,  A. Luenser,  P. Manohar,  
 E. Mansoor,  S. F. Manzer,  Shan-Ping Mao,  Yuezhi Mao,  N. Mardirossian,  
 A. V. Marenich,  T. Markovich,  L. A. Martinez-Martinez,  S. A. Maurer,  
 N. J. Mayhall,  S. C. McKenzie,  J.-M. Mewes,  P. Morgante,  A. F. Morrison,  
 J. W. Mullinax,  K. Nanda,  T. S. Nguyen-Beck,  R. Olivares-Amaya,  
 K. J. Oosterbaan,  J. A. Parkhill,  S. K. Paul,  F. Pavosevic,  Zheng Pei,  
 T. M. Perrine,  F. Plasser,  P. Pokhilko,  S. Prager,  A. Prociuk,  
 E. Ramos,  B. Rana,  D. R. Rehn,  F. Rob,  M. Scheurer,  M. Schneider,  
 N. Sergueev,  S. M. Sharada,  S. Sharma,  D. W. Small,  T. Stauch,  
 C. J. Stein,  T. Stein,  Yu-Chuan Su,  S. P. Veccham,  Zhen Tao,  
 A. J. W. Thom,  A. Tkatchenko,  T. Tsuchimochi,  N. M. Tubman,  L. Vogt,  
 M. L. Vidal,  O. Vydrov,  M. A. Watson,  J. Wenzel,  M. de Wergifosse,  
 T. A. Wesolowski,  A. White,  J. Witte,  A. Yamada,  Jun Yang,  K. Yao,  
 S. Yeganeh,  S. R. Yost,  Zhi-Qiang You,  A. Zech,  Igor Ying Zhang,  
 Xing Zhang,  Yan Zhao,  Ying Zhu,  B. R. Brooks,  G. K. L. Chan,  
 C. J. Cramer,  M. S. Gordon,  W. J. Hehre,  A. Klamt,  M. W. Schmidt,  
 C. D. Sherrill,  D. G. Truhlar,  A. Aspuru-Guzik,  R. Baer,  A. T. Bell,  
 N. A. Besley,  Jeng-Da Chai,  A. E. DePrince, III,  R. A. DiStasio Jr.,  
 A. Dreuw,  B. D. Dunietz,  T. R. Furlani,  Chao-Ping Hsu,  Yousung Jung,  
 Jing Kong,  D. S. Lambrecht,  WanZhen Liang,  C. Ochsenfeld,  
 V. A. Rassolov,  L. V. Slipchenko,  J. E. Subotnik,  T. Van Voorhis,  
 J. M. Herbert,  A. I. Krylov,  P. M. W. Gill,  M. Head-Gordon

 Contributors to earlier versions of Q-Chem not listed above: 
 R. D. Adamson,  B. Austin,  J. Baker,  G. J. O. Beran,  K. Brandhorst,  
 S. T. Brown,  E. F. C. Byrd,  A. K. Chakraborty,  C.-L. Cheng,  
 Siu Hung Chien,  D. M. Chipman,  D. L. Crittenden,  H. Dachsel,  
 R. J. Doerksen,  A. D. Dutoi,  L. Fusti-Molnar,  W. A. Goddard III,  
 A. Golubeva-Zadorozhnaya,  S. R. Gwaltney,  G. Hawkins,  A. Heyden,  
 S. Hirata,  G. Kedziora,  F. J. Keil,  C. Kelley,  Jihan Kim,  R. A. King,  
 R. Z. Khaliullin,  P. P. Korambath,  W. Kurlancheek,  A. M. Lee,  M. S. Lee,  
 S. V. Levchenko,  Ching Yeh Lin,  D. Liotard,  R. C. Lochan,  I. Lotan,  
 P. E. Maslen,  N. Nair,  D. P. O'Neill,  D. Neuhauser,  E. Neuscamman,  
 C. M. Oana,  R. Olson,  B. Peters,  R. Peverati,  P. A. Pieniazek,  
 Y. M. Rhee,  J. Ritchie,  M. A. Rohrdanz,  E. Rosta,  N. J. Russ,  
 H. F. Schaefer III,  N. E. Schultz,  N. Shenvi,  A. C. Simmonett,  A. Sodt,  
 D. Stuck,  K. S. Thanthiriwatte,  V. Vanovschi,  Tao Wang,  A. Warshel,  
 C. F. Williams,  Q. Wu,  X. Xu,  W. Zhang

 Please cite Q-Chem as follows:
 Y. Shao et al., Mol. Phys. 113, 184-215 (2015)
 DOI: 10.1080/00268976.2014.952696

 Q-Chem 5.3.0 for Intel X86 EM64T Linux

 Parts of Q-Chem use Armadillo 9.800.1 (Horizon Scraper).
 http://arma.sourceforge.net/

 Q-Chem begins on Tue Jul  7 00:40:40 2020  

Host: centos77-c4
0

     Scratch files written to /tmp/26963.centos77-h1/qchem90533//
Processing $rem in /opt/qchem-5.3.0-intel2020u1//config/preferences:
Processing $rem in /home/shihchengli/.qchemrc:

Checking the input file for inconsistencies... 	...done.

--------------------------------------------------------------
User input:
--------------------------------------------------------------
$rem
   JOBTYPE  sp
   EXCHANGE   omegaB97X-D
   BASIS   6-311+G(2df,2pd)
   UNRESTRICTED   False
   max_scf_cycles   250
   geom_opt_max_cycles   1500
   basis2 6-31G*
   scf_algorithm rca_diis
   SYM_IGNORE  TRUE
   print_input   true
   geom_opt_dmax   80
   pop_mulliken false
   XC_GRID 000075000302
$end

$molecule
0 1
C       1.0671454790     0.0000008884     0.2602989460
C       0.0000001102     -0.0000029698     -0.8007944774
H       0.8824499370     -0.8717072856     0.8929643755
H       0.8824436059     0.8717090706     0.8929625300
H       2.1147042344     0.0000051853     -0.0334151237
C       -1.0671451229     -0.0000002797     0.2602991420
H       -0.0000005875     -0.8823883310     -1.4418905367
H       0.0000002527     0.8823814132     -1.4418918669
H       -0.8824523606     -0.8717113452     0.8929613775
H       -2.1147039129     0.0000091731     -0.0334154600
H       -0.8824416959     0.8717051468     0.8929661126
$end
--------------------------------------------------------------
 ----------------------------------------------------------------
             Standard Nuclear Orientation (Angstroms)
    I     Atom           X                Y                Z
 ----------------------------------------------------------------
    1      C       1.0671454790     0.0000008884     0.2602989460
    2      C       0.0000001102    -0.0000029698    -0.8007944774
    3      H       0.8824499370    -0.8717072856     0.8929643755
    4      H       0.8824436059     0.8717090706     0.8929625300
    5      H       2.1147042344     0.0000051853    -0.0334151237
    6      C      -1.0671451229    -0.0000002797     0.2602991420
    7      H      -0.0000005875    -0.8823883310    -1.4418905367
    8      H       0.0000002527     0.8823814132    -1.4418918669
    9      H      -0.8824523606    -0.8717113452     0.8929613775
   10      H      -2.1147039129     0.0000091731    -0.0334154600
   11      H      -0.8824416959     0.8717051468     0.8929661126
 ----------------------------------------------------------------
 Nuclear Repulsion Energy =          86.10226309 hartrees
 There are       13 alpha and       13 beta electrons
 Requested basis set is 6-311+G(2df,2pd)
 There are 72 shells and 214 basis functions

 Total QAlloc Memory Limit   2000 MB
 Mega-Array Size       188 MB
 MEM_STATIC part       192 MB

                       Distance Matrix (Angstroms)
             C (  1)   C (  2)   H (  3)   H (  4)   H (  5)   C (  6)
   C (  2)  1.504898
   H (  3)  1.092819  2.099382
   H (  4)  1.092819  2.099381  1.743416
   H (  5)  1.087956  2.249632  1.771020  1.771019
   C (  6)  2.134291  1.504898  2.227344  2.227338  3.195377
   H (  7)  2.194279  1.090692  2.496073  3.050755  2.689684  2.194278
   H (  8)  2.194276  1.090692  3.050754  2.496070  2.689678  2.194277
   H (  9)  2.227347  2.099382  1.764902  2.480801  3.255919  1.092819
   H ( 10)  3.195377  2.249632  3.255918  3.255907  4.229408  1.087956
   H ( 11)  2.227336  2.099382  2.480792  1.764885  3.255906  1.092819
             H (  7)   H (  8)   H (  9)   H ( 10)
   H (  8)  1.764770
   H (  9)  2.496071  3.050755
   H ( 10)  2.689684  2.689677  1.771021
   H ( 11)  3.050754  2.496073  1.743416  1.771019
 
 A cutoff of  1.0D-09 yielded   2569 shell pairs
 There are     22913 function pairs (     28200 Cartesian)
 Smallest overlap matrix eigenvalue = 7.02E-05

 Scale SEOQF with 1.000000e-01/1.000000e-01/1.000000e-01

 Standard Electronic Orientation quadrupole field applied
 Requested basis set is 6-31G(d)
 There are 28 shells and 58 basis functions
 A cutoff of  1.0D-09 yielded    402 shell pairs
 There are      1773 function pairs (      1968 Cartesian)
 Smallest overlap matrix eigenvalue = 6.77E-03
 Guess from superposition of atomic densities
 Warning:  Energy on first SCF cycle will be non-variational
 SAD guess density has 26.000000 electrons
 Long-range K will be added via erf
 Coulomb attenuation parameter = 0.2 bohr**(-1)
 A restricted hybrid HF-DFT SCF calculation will be
 performed using Relaxed Constraint Minimization + Pulay DIIS
 Exchange:     0.2220 Hartree-Fock + 1.0000 wB97X-D + LR-HF
 Correlation:  1.0000 wB97X-D
 Using Euler-Maclaurin-Lebedev (75,302) quadrature formula
 Dispersion:   Grimme D
 SCF converges when DIIS error is below 1.0E-04
 using 3 threads for integral computing
 -------------------------------------------------------
 OpenMP Integral computing Module                
 Release: version 1.0, May 2013, Q-Chem Inc. Pittsburgh 
 -------------------------------------------------------
 using 3 threads for integral computing
 -------------------------------------------------------
 OpenMP Integral computing Module                
 Release: version 1.0, May 2013, Q-Chem Inc. Pittsburgh 
 -------------------------------------------------------
 ---------------------------------------
  Cycle       Energy         DIIS Error
 ---------------------------------------
    1    -119.8134634896      1.05E-01
    2    -119.0273030116      9.35E-03
    3    -119.0490772224      2.40E-03
    4    -119.0647520776      1.66E-03
    5    -119.0653878973      2.17E-04 Done RCA. Switching to DIIS
    6    -119.0658917036      1.60E-04
    7    -119.0659026992      4.59E-06 Convergence criterion met
 ---------------------------------------
 SCF time:  CPU 22.27 s  wall 8.39 s
 SCF   energy in the small basis set = -119.06590270
 Total energy in the small basis set = -119.06590270
 ----------------------------------------------------
  Cycle       Energy    
 ----------------------------------------------------
    1     -16.5857791190     -1.66E+01
 Long-range K will be added via erf
 Coulomb attenuation parameter = 0.2 bohr**(-1)
 A restricted hybrid HF-DFT SCF calculation will be
 performed using Relaxed Constraint Minimization + Pulay DIIS
 Exchange:     0.2220 Hartree-Fock + 1.0000 wB97X-D + LR-HF
 Correlation:  1.0000 wB97X-D
 Using Euler-Maclaurin-Lebedev (75,302) quadrature formula
 Dispersion:   Grimme D
 SCF converges when DIIS error is below 1.0E-05
 Basis2 calculation detected. Using small basis as guess for larger.
 SCFMinFind is unable to tell whether the solution found is close.
 Resetting ReadMinima to 0 and attempting to follow guess.
 SCFMinFind following SCF Guess.
 using 3 threads for integral computing
 -------------------------------------------------------
 OpenMP Integral computing Module                
 Release: version 1.0, May 2013, Q-Chem Inc. Pittsburgh 
 -------------------------------------------------------
 using 3 threads for integral computing
 -------------------------------------------------------
 OpenMP Integral computing Module                
 Release: version 1.0, May 2013, Q-Chem Inc. Pittsburgh 
 -------------------------------------------------------
 ---------------------------------------
  Cycle       Energy         DIIS Error
 ---------------------------------------
    1    -119.0869925620      4.21E-03
    2    -119.1087342806      6.13E-04 Done RCA. Switching to DIIS
    3    -119.1094775817      4.58E-04
    4    -119.1106112468      4.67E-05
    5    -119.1106266892      6.75E-06 Convergence criterion met
 ---------------------------------------
 SCF time:  CPU 47.85 s  wall 16.21 s
 SCF   energy in the final basis set = -119.11062669
 Total energy in the final basis set = -119.11062669
 
 --------------------------------------------------------------
 
                    Orbital Energies (a.u.)
 --------------------------------------------------------------
 
 Alpha MOs
 -- Occupied --
-10.2735 -10.2623 -10.2623  -0.9106  -0.7526  -0.6933  -0.5661  -0.5438
 -0.4536  -0.4487  -0.4344  -0.4250  -0.3936
 -- Virtual --
  0.0727   0.0832   0.0855   0.0982   0.1242   0.1347   0.1351   0.1356
  0.1359   0.1681   0.1733   0.1988   0.2046   0.2534   0.2642   0.2798
  0.2853   0.2893   0.3178   0.3272   0.3378   0.3629   0.4580   0.4648
  0.4815   0.4939   0.4979   0.5157   0.5276   0.5580   0.6076   0.6271
  0.6313   0.6325   0.6346   0.6572   0.6725   0.6759   0.6970   0.7307
  0.7399   0.7959   0.8174   0.8588   0.9000   0.9192   0.9218   0.9291
  1.0034   1.0446   1.0847   1.1388   1.1717   1.2103   1.2235   1.2468
  1.2578   1.2684   1.2717   1.2928   1.3036   1.3077   1.3648   1.4038
  1.4040   1.4222   1.4223   1.4400   1.4456   1.4656   1.5042   1.5276
  1.5300   1.5587   1.5922   1.6059   1.6520   1.6985   1.7276   1.7834
  1.8197   2.4083   2.4150   2.4885   2.5292   2.5334   2.6086   2.6759
  2.7072   2.7488   2.7789   2.8142   2.8710   2.8763   2.9098   2.9209
  2.9399   2.9940   2.9986   3.0250   3.0405   3.0615   3.0999   3.1128
  3.1378   3.1601   3.1867   3.2189   3.2690   3.2718   3.3056   3.3063
  3.3258   3.3543   3.3583   3.3879   3.4036   3.4172   3.4175   3.5106
  3.5119   3.5366   3.5389   3.5420   3.5864   3.5920   3.6166   3.6334
  3.6594   3.7031   3.7036   3.7601   3.8018   3.8282   3.8568   3.8815
  3.9537   3.9623   3.9684   3.9831   4.0424   4.0644   4.0862   4.0972
  4.1060   4.1668   4.1694   4.1973   4.2057   4.2338   4.2366   4.2875
  4.3067   4.3650   4.3682   4.4225   4.4400   4.4713   4.4729   4.4836
  4.5313   4.5978   4.6090   4.7295   4.7381   4.8034   4.8488   4.9037
  4.9390   4.9445   4.9795   5.0223   5.0667   5.0875   5.1142   5.1971
  5.2113   5.2734   5.3113   5.3445   5.3500   5.3733   5.3775   5.4276
  5.4278   5.4358   5.4922   5.5271   5.6123   5.7329   5.7629   5.7796
  6.0004   6.4159   6.4208   6.4302   6.4697   6.6201  25.1769  25.4219
 25.5664
 --------------------------------------------------------------
 
 -----------------------------------------------------------------
                    Cartesian Multipole Moments
 -----------------------------------------------------------------
    Charge (ESU x 10^10)
                -0.0000
    Dipole Moment (Debye)
         X      -0.0000      Y       0.0000      Z      -0.0030
       Tot       0.0030
    Quadrupole Moments (Debye-Ang)
        XX     -22.9997     XY      -0.0000     YY     -21.1843
        XZ      -0.0000     YZ       0.0000     ZZ     -21.6088
    Octopole Moments (Debye-Ang^2)
       XXX      -0.0000    XXY       0.0000    XYY      -0.0000
       YYY       0.0000    XXZ       0.0347    XYZ       0.0000
       YYZ       1.0627    XZZ      -0.0000    YZZ       0.0000
       ZZZ       1.7342
    Hexadecapole Moments (Debye-Ang^3)
      XXXX    -152.5759   XXXY      -0.0001   XXYY     -35.1837
      XYYY      -0.0000   YYYY     -43.1541   XXXZ       0.0000
      XXYZ      -0.0000   XYYZ      -0.0000   YYYZ      -0.0000
      XXZZ     -41.3174   XYZZ      -0.0000   YYZZ     -18.4888
      XZZZ       0.0000   YZZZ      -0.0000   ZZZZ     -82.5393
 -----------------------------------------------------------------
Archival summary:
1\1\centos77-c4\SP\ProcedureUnspecified\BasisUnspecified\38\shihchen\TueJul700:41:082020TueJul700:41:082020\0\\#,ProcedureUnspecified,BasisUnspecified,\\0,1\C\H,1,1.09069\H,1,1.09069,2,107.999\C,1,1.5049,2,114.484,3,128.814,0\H,4,1.08796,1,119.501,2,-62.742,0\H,4,1.09282,1,106.759,2,173.672,0\H,4,1.09282,1,106.759,2,60.8443,0\C,1,1.5049,2,114.484,3,-128.814,0\H,8,1.08796,1,119.5,2,62.7416,0\H,8,1.09282,1,106.759,2,-173.672,0\H,8,1.09282,1,106.759,2,-60.8445,0\\\@

 Total job time:  27.63s(wall), 73.84s(cpu) 
 Tue Jul  7 00:41:08 2020

        *************************************************************
        *                                                           *
        *  Thank you very much for using Q-Chem.  Have a nice day.  *
        *                                                           *
        *************************************************************


