                  Welcome to Q-Chem
     A Quantum Leap Into The Future Of Chemistry


 Q-Chem 5.3 (devel), Q-Chem, Inc., Pleasanton, CA (2020)

 Yihan Shao,  Zhengting Gan,  E. Epifanovsky,  A. T. B. Gilbert,  M. Wormit,  
 J. Kussmann,  A. W. Lange,  A. Behn,  Jia Deng,  Xintian Feng,  D. Ghosh,  
 M. Goldey,  P. R. Horn,  L. D. Jacobson,  I. Kaliman,  T. Kus,  A. Landau,  
 Jie Liu,  E. I. Proynov,  R. M. Richard,  R. P. Steele,  E. J. Sundstrom,  
 H. L. Woodcock III,  P. M. Zimmerman,  D. Zuev,  B. Alam,  B. Albrecht,  
 E. Alguire,  S. A. Baeppler,  D. Barton,  Z. Benda,  Y. A. Bernard,  
 E. J. Berquist,  K. B. Bravaya,  H. Burton,  K. Carter-Fenk,  D. Casanova,  
 Chun-Min Chang,  Yunqing Chen,  A. Chien,  K. D. Closser,  M. P. Coons,  
 S. Coriani,  S. Dasgupta,  A. L. Dempwolff,  M. Diedenhofen,  Hainam Do,  
 R. G. Edgar,  Po-Tung Fang,  S. Faraji,  S. Fatehi,  Qingguo Feng,  
 J. Fosso-Tande,  J. Gayvert,  Qinghui Ge,  A. Ghysels,  G. Gidofalvi,  
 J. Gomes,  J. Gonthier,  A. Gunina,  D. Hait,  M. W. D. Hanson-Heine,  
 P. H. P. Harbach,  A. W. Hauser,  M. F. Herbst,  J. E. Herr,  
 E. G. Hohenstein,  Z. C. Holden,  Kerwin Hui,  B. C. Huynh,  T.-C. Jagau,  
 Hyunjun Ji,  B. Kaduk,  K. Khistyaev,  Jaehoon Kim,  P. Klunzinger,  K. Koh,  
 D. Kosenkov,  L. Koulias,  T. Kowalczyk,  C. M. Krauter,  A. Kunitsa,  
 Ka Un Lao,  A. Laurent,  K. V. Lawler,  Joonho Lee,  D. Lefrancois,  
 S. Lehtola,  D. S. Levine,  Yi-Pei Li,  You-Sheng Lin,  Fenglai Liu,  
 Kuan-Yu Liu,  E. Livshits,  M. Loipersberger,  A. Luenser,  P. Manohar,  
 E. Mansoor,  S. F. Manzer,  Shan-Ping Mao,  Yuezhi Mao,  N. Mardirossian,  
 A. V. Marenich,  T. Markovich,  L. A. Martinez-Martinez,  S. A. Maurer,  
 N. J. Mayhall,  S. C. McKenzie,  J.-M. Mewes,  P. Morgante,  A. F. Morrison,  
 J. W. Mullinax,  K. Nanda,  T. S. Nguyen-Beck,  R. Olivares-Amaya,  
 K. J. Oosterbaan,  J. A. Parkhill,  S. K. Paul,  F. Pavosevic,  Zheng Pei,  
 T. M. Perrine,  F. Plasser,  P. Pokhilko,  S. Prager,  A. Prociuk,  
 E. Ramos,  B. Rana,  D. R. Rehn,  F. Rob,  M. Scheurer,  M. Schneider,  
 N. Sergueev,  S. M. Sharada,  S. Sharma,  D. W. Small,  T. Stauch,  
 C. J. Stein,  T. Stein,  Yu-Chuan Su,  S. P. Veccham,  Zhen Tao,  
 A. J. W. Thom,  A. Tkatchenko,  T. Tsuchimochi,  N. M. Tubman,  L. Vogt,  
 M. L. Vidal,  O. Vydrov,  M. A. Watson,  J. Wenzel,  M. de Wergifosse,  
 T. A. Wesolowski,  A. White,  J. Witte,  A. Yamada,  Jun Yang,  K. Yao,  
 S. Yeganeh,  S. R. Yost,  Zhi-Qiang You,  A. Zech,  Igor Ying Zhang,  
 Xing Zhang,  Yan Zhao,  Ying Zhu,  B. R. Brooks,  G. K. L. Chan,  
 C. J. Cramer,  M. S. Gordon,  W. J. Hehre,  A. Klamt,  M. W. Schmidt,  
 C. D. Sherrill,  D. G. Truhlar,  A. Aspuru-Guzik,  R. Baer,  A. T. Bell,  
 N. A. Besley,  Jeng-Da Chai,  A. E. DePrince, III,  R. A. DiStasio Jr.,  
 A. Dreuw,  B. D. Dunietz,  T. R. Furlani,  Chao-Ping Hsu,  Yousung Jung,  
 Jing Kong,  D. S. Lambrecht,  WanZhen Liang,  C. Ochsenfeld,  
 V. A. Rassolov,  L. V. Slipchenko,  J. E. Subotnik,  T. Van Voorhis,  
 J. M. Herbert,  A. I. Krylov,  P. M. W. Gill,  M. Head-Gordon

 Contributors to earlier versions of Q-Chem not listed above: 
 R. D. Adamson,  B. Austin,  J. Baker,  G. J. O. Beran,  K. Brandhorst,  
 S. T. Brown,  E. F. C. Byrd,  A. K. Chakraborty,  C.-L. Cheng,  
 Siu Hung Chien,  D. M. Chipman,  D. L. Crittenden,  H. Dachsel,  
 R. J. Doerksen,  A. D. Dutoi,  L. Fusti-Molnar,  W. A. Goddard III,  
 A. Golubeva-Zadorozhnaya,  S. R. Gwaltney,  G. Hawkins,  A. Heyden,  
 S. Hirata,  G. Kedziora,  F. J. Keil,  C. Kelley,  Jihan Kim,  R. A. King,  
 R. Z. Khaliullin,  P. P. Korambath,  W. Kurlancheek,  A. M. Lee,  M. S. Lee,  
 S. V. Levchenko,  Ching Yeh Lin,  D. Liotard,  R. C. Lochan,  I. Lotan,  
 P. E. Maslen,  N. Nair,  D. P. O'Neill,  D. Neuhauser,  E. Neuscamman,  
 C. M. Oana,  R. Olson,  B. Peters,  R. Peverati,  P. A. Pieniazek,  
 Y. M. Rhee,  J. Ritchie,  M. A. Rohrdanz,  E. Rosta,  N. J. Russ,  
 H. F. Schaefer III,  N. E. Schultz,  N. Shenvi,  A. C. Simmonett,  A. Sodt,  
 D. Stuck,  K. S. Thanthiriwatte,  V. Vanovschi,  Tao Wang,  A. Warshel,  
 C. F. Williams,  Q. Wu,  X. Xu,  W. Zhang

 Please cite Q-Chem as follows:
 Y. Shao et al., Mol. Phys. 113, 184-215 (2015)
 DOI: 10.1080/00268976.2014.952696

 Q-Chem 5.3.0 for Intel X86 EM64T Linux

 Parts of Q-Chem use Armadillo 9.800.1 (Horizon Scraper).
 http://arma.sourceforge.net/

 Q-Chem begins on Tue Jul  7 02:18:21 2020  

Host: centos77-c4
0

     Scratch files written to /tmp/26963.centos77-h1/qchem110372//
Processing $rem in /opt/qchem-5.3.0-intel2020u1//config/preferences:
Processing $rem in /home/shihchengli/.qchemrc:

Checking the input file for inconsistencies... 	...done.

--------------------------------------------------------------
User input:
--------------------------------------------------------------
$rem
   JOBTYPE  sp
   EXCHANGE   omegaB97X-D
   BASIS   6-311+G(2df,2pd)
   UNRESTRICTED   False
   max_scf_cycles   250
   geom_opt_max_cycles   1500
   basis2 6-31G*
   scf_algorithm rca_diis
   SYM_IGNORE  TRUE
   print_input   true
   geom_opt_dmax   80
   pop_mulliken false
   XC_GRID 000075000302
$end

$molecule
0 1
C       1.2275998325     -0.0000024241     0.2977897398
C       -0.0118481038     -0.0000022924     -0.5874961030
H       1.2615161344     -0.8175323320     0.8862024046
H       1.2615163012     0.8175366013     0.8862081862
H       2.2971869159     -0.0000015740     -0.4216564297
C       -1.3056178690     -0.0000022623     0.2197464049
H       -0.0000989724     -0.8738475831     -1.2432444202
H       -0.0000988761     0.8738495180     -1.2432484305
H       -1.3483514626     -0.9427515372     0.9212500832
H       -2.0334524734     -0.0000010129     -0.2957619137
H       -1.3483514873     0.9427555647     0.9212554974
$end
--------------------------------------------------------------
 ----------------------------------------------------------------
             Standard Nuclear Orientation (Angstroms)
    I     Atom           X                Y                Z
 ----------------------------------------------------------------
    1      C       1.2275998325    -0.0000024241     0.2977897398
    2      C      -0.0118481038    -0.0000022924    -0.5874961030
    3      H       1.2615161344    -0.8175323320     0.8862024046
    4      H       1.2615163012     0.8175366013     0.8862081862
    5      H       2.2971869159    -0.0000015740    -0.4216564297
    6      C      -1.3056178690    -0.0000022623     0.2197464049
    7      H      -0.0000989724    -0.8738475831    -1.2432444202
    8      H      -0.0000988761     0.8738495180    -1.2432484305
    9      H      -1.3483514626    -0.9427515372     0.9212500832
   10      H      -2.0334524734    -0.0000010129    -0.2957619137
   11      H      -1.3483514873     0.9427555647     0.9212554974
 ----------------------------------------------------------------
 Nuclear Repulsion Energy =          83.01842987 hartrees
 There are       13 alpha and       13 beta electrons
 Requested basis set is 6-311+G(2df,2pd)
 There are 72 shells and 214 basis functions

 Total QAlloc Memory Limit   2000 MB
 Mega-Array Size       188 MB
 MEM_STATIC part       192 MB

                       Distance Matrix (Angstroms)
             C (  1)   C (  2)   H (  3)   H (  4)   H (  5)   C (  6)
   C (  2)  1.523142
   H (  3)  1.007837  2.112250
   H (  4)  1.007848  2.112257  1.635069
   H (  5)  1.289038  2.314983  1.857812  1.857819
   C (  6)  2.534420  1.524953  2.775373  2.775377  3.659453
   H (  7)  2.155374  1.092588  2.475760  2.997836  2.591551  2.146702
   H (  8)  2.155379  1.092596  2.997834  2.475768  2.591554  2.146707
   H (  9)  2.813006  2.225159  2.613105  3.148214  3.997765  1.175887
   H ( 10)  3.314629  2.042546  3.594748  3.594752  4.332469  0.891904
   H ( 11)  2.813010  2.225166  3.148214  2.613105  3.997769  1.175897
             H (  7)   H (  8)   H (  9)   H ( 10)
   H (  8)  1.747697
   H (  9)  2.550994  3.130955
   H ( 10)  2.407459  2.407462  1.685010
   H ( 11)  3.130957  2.551002  1.885507  1.685018
 
 A cutoff of  1.0D-09 yielded   2536 shell pairs
 There are     22606 function pairs (     27785 Cartesian)
 Smallest overlap matrix eigenvalue = 8.65E-05

 Scale SEOQF with 1.000000e-01/1.000000e-01/1.000000e-01

 Standard Electronic Orientation quadrupole field applied
 Nucleus-field energy     =     0.0000000006 hartrees
 Requested basis set is 6-31G(d)
 There are 28 shells and 58 basis functions
 A cutoff of  1.0D-09 yielded    402 shell pairs
 There are      1773 function pairs (      1968 Cartesian)
 Smallest overlap matrix eigenvalue = 6.62E-03
 Guess from superposition of atomic densities
 Warning:  Energy on first SCF cycle will be non-variational
 SAD guess density has 26.000000 electrons
 Long-range K will be added via erf
 Coulomb attenuation parameter = 0.2 bohr**(-1)
 A restricted hybrid HF-DFT SCF calculation will be
 performed using Relaxed Constraint Minimization + Pulay DIIS
 Exchange:     0.2220 Hartree-Fock + 1.0000 wB97X-D + LR-HF
 Correlation:  1.0000 wB97X-D
 Using Euler-Maclaurin-Lebedev (75,302) quadrature formula
 Dispersion:   Grimme D
 SCF converges when DIIS error is below 1.0E-04
 using 3 threads for integral computing
 -------------------------------------------------------
 OpenMP Integral computing Module                
 Release: version 1.0, May 2013, Q-Chem Inc. Pittsburgh 
 -------------------------------------------------------
 using 3 threads for integral computing
 -------------------------------------------------------
 OpenMP Integral computing Module                
 Release: version 1.0, May 2013, Q-Chem Inc. Pittsburgh 
 -------------------------------------------------------
 ---------------------------------------
  Cycle       Energy         DIIS Error
 ---------------------------------------
    1    -119.6062142202      1.03E-01
    2    -118.9886188760      9.60E-03
    3    -119.0131059977      2.63E-03
    4    -119.0294882649      1.79E-03
    5    -119.0302801015      2.82E-04 Done RCA. Switching to DIIS
    6    -119.0308678530      2.06E-04
    7    -119.0308865546      6.04E-06 Convergence criterion met
 ---------------------------------------
 SCF time:  CPU 21.57 s  wall 8.21 s
 SCF   energy in the small basis set = -119.03088655
 Total energy in the small basis set = -119.03088655
 ----------------------------------------------------
  Cycle       Energy    
 ----------------------------------------------------
    1     -16.5659303301     -1.66E+01
 Long-range K will be added via erf
 Coulomb attenuation parameter = 0.2 bohr**(-1)
 A restricted hybrid HF-DFT SCF calculation will be
 performed using Relaxed Constraint Minimization + Pulay DIIS
 Exchange:     0.2220 Hartree-Fock + 1.0000 wB97X-D + LR-HF
 Correlation:  1.0000 wB97X-D
 Using Euler-Maclaurin-Lebedev (75,302) quadrature formula
 Dispersion:   Grimme D
 SCF converges when DIIS error is below 1.0E-05
 Basis2 calculation detected. Using small basis as guess for larger.
 SCFMinFind is unable to tell whether the solution found is close.
 Resetting ReadMinima to 0 and attempting to follow guess.
 SCFMinFind following SCF Guess.
 using 3 threads for integral computing
 -------------------------------------------------------
 OpenMP Integral computing Module                
 Release: version 1.0, May 2013, Q-Chem Inc. Pittsburgh 
 -------------------------------------------------------
 using 3 threads for integral computing
 -------------------------------------------------------
 OpenMP Integral computing Module                
 Release: version 1.0, May 2013, Q-Chem Inc. Pittsburgh 
 -------------------------------------------------------
 ---------------------------------------
  Cycle       Energy         DIIS Error
 ---------------------------------------
    1    -119.0532094255      4.21E-03
    2    -119.0751340106      5.76E-04 Done RCA. Switching to DIIS
    3    -119.0759103199      4.04E-04
    4    -119.0768098842      4.61E-05
    5    -119.0768250550      9.14E-06 Convergence criterion met
 ---------------------------------------
 SCF time:  CPU 44.62 s  wall 15.15 s
 SCF   energy in the final basis set = -119.07682505
 Total energy in the final basis set = -119.07682505
 
 --------------------------------------------------------------
 
                    Orbital Energies (a.u.)
 --------------------------------------------------------------
 
 Alpha MOs
 -- Occupied --
-10.2757 -10.2660 -10.2619  -0.8856  -0.7879  -0.6845  -0.5499  -0.5343
 -0.4782  -0.4670  -0.4277  -0.4063  -0.4052
 -- Virtual --
  0.0680   0.0847   0.0906   0.0984   0.1244   0.1290   0.1332   0.1417
  0.1428   0.1659   0.1716   0.1907   0.2158   0.2189   0.2582   0.2639
  0.2743   0.2917   0.3103   0.3152   0.3395   0.3551   0.4558   0.4609
  0.4724   0.5087   0.5165   0.5193   0.5442   0.5640   0.5657   0.5975
  0.5994   0.6271   0.6375   0.6450   0.6634   0.6684   0.7119   0.7427
  0.7534   0.7692   0.8204   0.8633   0.8661   0.8716   0.8899   0.9555
  0.9920   1.0528   1.0570   1.1148   1.1500   1.1865   1.1911   1.2132
  1.2300   1.2316   1.2699   1.2745   1.2810   1.2939   1.3171   1.3384
  1.3760   1.3905   1.4320   1.4390   1.4472   1.4757   1.4778   1.4879
  1.5241   1.5506   1.5860   1.6184   1.6506   1.6969   1.7058   1.7441
  1.7623   2.3361   2.3622   2.4913   2.5209   2.5429   2.5955   2.6340
  2.6552   2.7297   2.8148   2.8312   2.8313   2.8952   2.8992   2.9099
  2.9401   2.9421   2.9813   2.9921   3.0394   3.0688   3.0854   3.0932
  3.1351   3.1423   3.1712   3.1979   3.2236   3.2599   3.2680   3.2806
  3.2974   3.3031   3.3335   3.3388   3.3611   3.3757   3.3838   3.4048
  3.4667   3.4687   3.4837   3.4882   3.5351   3.5526   3.6056   3.6165
  3.6356   3.6594   3.6716   3.7247   3.7709   3.7860   3.8427   3.8599
  3.9277   3.9420   3.9447   3.9678   3.9914   4.0157   4.0350   4.0736
  4.0737   4.0931   4.1182   4.1341   4.1680   4.1687   4.2052   4.2118
  4.2374   4.2427   4.2645   4.3379   4.3483   4.3941   4.4220   4.4336
  4.4404   4.5383   4.5648   4.6029   4.6214   4.7489   4.8036   4.8275
  4.8399   4.8792   4.9098   4.9468   5.0052   5.0290   5.1192   5.1357
  5.1665   5.1713   5.2842   5.2964   5.3533   5.4128   5.4358   5.4501
  5.4916   5.4960   5.6226   5.7020   5.7242   5.8137   5.8329   5.9102
  5.9545   6.1828   6.2089   6.4566   6.5738   6.7380  25.2001  25.3381
 25.3848
 --------------------------------------------------------------
 
 -----------------------------------------------------------------
                    Cartesian Multipole Moments
 -----------------------------------------------------------------
    Charge (ESU x 10^10)
                 0.0000
    Dipole Moment (Debye)
         X      -0.2462      Y      -0.0000      Z      -0.0637
       Tot       0.2543
    Quadrupole Moments (Debye-Ang)
        XX     -22.4447     XY       0.0000     YY     -21.3549
        XZ       0.3801     YZ      -0.0000     ZZ     -21.7671
    Octopole Moments (Debye-Ang^2)
       XXX      -1.3776    XXY      -0.0000    XYY      -0.1186
       YYY       0.0000    XXZ      -1.5018    XYZ       0.0000
       YYZ       0.5143    XZZ       0.3211    YZZ       0.0000
       ZZZ      -0.3147
    Hexadecapole Moments (Debye-Ang^3)
      XXXX    -205.5951   XXXY       0.0000   XXYY     -42.6611
      XYYY       0.0000   YYYY     -44.3526   XXXZ       2.0015
      XXYZ      -0.0000   XYYZ       0.6664   YYYZ      -0.0000
      XXZZ     -45.6055   XYZZ       0.0000   YYZZ     -17.0732
      XZZZ       2.5970   YZZZ      -0.0001   ZZZZ     -72.1656
 -----------------------------------------------------------------
Archival summary:
1\1\centos77-c4\SP\ProcedureUnspecified\BasisUnspecified\38\shihchen\TueJul702:18:472020TueJul702:18:472020\0\\#,ProcedureUnspecified,BasisUnspecified,\\0,1\C\H,1,1.09259\H,1,1.0926,2,106.221\C,1,1.52314,2,109.882,3,-118.806,0\H,4,1.00784,1,111.514,2,-61.0527,0\H,4,1.00785,1,111.514,2,177.582,0\H,4,1.28904,1,110.537,2,58.2648,0\C,1,1.52495,2,109.077,3,117.437,0\H,8,0.891904,1,112.729,2,-57.8082,0\H,8,1.17589,1,110.281,2,63.4623,0\H,8,1.1759,1,110.281,2,-179.078,0\\\@

 Total job time:  26.32s(wall), 69.85s(cpu) 
 Tue Jul  7 02:18:47 2020

        *************************************************************
        *                                                           *
        *  Thank you very much for using Q-Chem.  Have a nice day.  *
        *                                                           *
        *************************************************************


