                  Welcome to Q-Chem
     A Quantum Leap Into The Future Of Chemistry


 Q-Chem 5.3 (devel), Q-Chem, Inc., Pleasanton, CA (2020)

 Yihan Shao,  Zhengting Gan,  E. Epifanovsky,  A. T. B. Gilbert,  M. Wormit,  
 J. Kussmann,  A. W. Lange,  A. Behn,  Jia Deng,  Xintian Feng,  D. Ghosh,  
 M. Goldey,  P. R. Horn,  L. D. Jacobson,  I. Kaliman,  T. Kus,  A. Landau,  
 Jie Liu,  E. I. Proynov,  R. M. Richard,  R. P. Steele,  E. J. Sundstrom,  
 H. L. Woodcock III,  P. M. Zimmerman,  D. Zuev,  B. Alam,  B. Albrecht,  
 E. Alguire,  S. A. Baeppler,  D. Barton,  Z. Benda,  Y. A. Bernard,  
 E. J. Berquist,  K. B. Bravaya,  H. Burton,  K. Carter-Fenk,  D. Casanova,  
 Chun-Min Chang,  Yunqing Chen,  A. Chien,  K. D. Closser,  M. P. Coons,  
 S. Coriani,  S. Dasgupta,  A. L. Dempwolff,  M. Diedenhofen,  Hainam Do,  
 R. G. Edgar,  Po-Tung Fang,  S. Faraji,  S. Fatehi,  Qingguo Feng,  
 J. Fosso-Tande,  J. Gayvert,  Qinghui Ge,  A. Ghysels,  G. Gidofalvi,  
 J. Gomes,  J. Gonthier,  A. Gunina,  D. Hait,  M. W. D. Hanson-Heine,  
 P. H. P. Harbach,  A. W. Hauser,  M. F. Herbst,  J. E. Herr,  
 E. G. Hohenstein,  Z. C. Holden,  Kerwin Hui,  B. C. Huynh,  T.-C. Jagau,  
 Hyunjun Ji,  B. Kaduk,  K. Khistyaev,  Jaehoon Kim,  P. Klunzinger,  K. Koh,  
 D. Kosenkov,  L. Koulias,  T. Kowalczyk,  C. M. Krauter,  A. Kunitsa,  
 Ka Un Lao,  A. Laurent,  K. V. Lawler,  Joonho Lee,  D. Lefrancois,  
 S. Lehtola,  D. S. Levine,  Yi-Pei Li,  You-Sheng Lin,  Fenglai Liu,  
 Kuan-Yu Liu,  E. Livshits,  M. Loipersberger,  A. Luenser,  P. Manohar,  
 E. Mansoor,  S. F. Manzer,  Shan-Ping Mao,  Yuezhi Mao,  N. Mardirossian,  
 A. V. Marenich,  T. Markovich,  L. A. Martinez-Martinez,  S. A. Maurer,  
 N. J. Mayhall,  S. C. McKenzie,  J.-M. Mewes,  P. Morgante,  A. F. Morrison,  
 J. W. Mullinax,  K. Nanda,  T. S. Nguyen-Beck,  R. Olivares-Amaya,  
 K. J. Oosterbaan,  J. A. Parkhill,  S. K. Paul,  F. Pavosevic,  Zheng Pei,  
 T. M. Perrine,  F. Plasser,  P. Pokhilko,  S. Prager,  A. Prociuk,  
 E. Ramos,  B. Rana,  D. R. Rehn,  F. Rob,  M. Scheurer,  M. Schneider,  
 N. Sergueev,  S. M. Sharada,  S. Sharma,  D. W. Small,  T. Stauch,  
 C. J. Stein,  T. Stein,  Yu-Chuan Su,  S. P. Veccham,  Zhen Tao,  
 A. J. W. Thom,  A. Tkatchenko,  T. Tsuchimochi,  N. M. Tubman,  L. Vogt,  
 M. L. Vidal,  O. Vydrov,  M. A. Watson,  J. Wenzel,  M. de Wergifosse,  
 T. A. Wesolowski,  A. White,  J. Witte,  A. Yamada,  Jun Yang,  K. Yao,  
 S. Yeganeh,  S. R. Yost,  Zhi-Qiang You,  A. Zech,  Igor Ying Zhang,  
 Xing Zhang,  Yan Zhao,  Ying Zhu,  B. R. Brooks,  G. K. L. Chan,  
 C. J. Cramer,  M. S. Gordon,  W. J. Hehre,  A. Klamt,  M. W. Schmidt,  
 C. D. Sherrill,  D. G. Truhlar,  A. Aspuru-Guzik,  R. Baer,  A. T. Bell,  
 N. A. Besley,  Jeng-Da Chai,  A. E. DePrince, III,  R. A. DiStasio Jr.,  
 A. Dreuw,  B. D. Dunietz,  T. R. Furlani,  Chao-Ping Hsu,  Yousung Jung,  
 Jing Kong,  D. S. Lambrecht,  WanZhen Liang,  C. Ochsenfeld,  
 V. A. Rassolov,  L. V. Slipchenko,  J. E. Subotnik,  T. Van Voorhis,  
 J. M. Herbert,  A. I. Krylov,  P. M. W. Gill,  M. Head-Gordon

 Contributors to earlier versions of Q-Chem not listed above: 
 R. D. Adamson,  B. Austin,  J. Baker,  G. J. O. Beran,  K. Brandhorst,  
 S. T. Brown,  E. F. C. Byrd,  A. K. Chakraborty,  C.-L. Cheng,  
 Siu Hung Chien,  D. M. Chipman,  D. L. Crittenden,  H. Dachsel,  
 R. J. Doerksen,  A. D. Dutoi,  L. Fusti-Molnar,  W. A. Goddard III,  
 A. Golubeva-Zadorozhnaya,  S. R. Gwaltney,  G. Hawkins,  A. Heyden,  
 S. Hirata,  G. Kedziora,  F. J. Keil,  C. Kelley,  Jihan Kim,  R. A. King,  
 R. Z. Khaliullin,  P. P. Korambath,  W. Kurlancheek,  A. M. Lee,  M. S. Lee,  
 S. V. Levchenko,  Ching Yeh Lin,  D. Liotard,  R. C. Lochan,  I. Lotan,  
 P. E. Maslen,  N. Nair,  D. P. O'Neill,  D. Neuhauser,  E. Neuscamman,  
 C. M. Oana,  R. Olson,  B. Peters,  R. Peverati,  P. A. Pieniazek,  
 Y. M. Rhee,  J. Ritchie,  M. A. Rohrdanz,  E. Rosta,  N. J. Russ,  
 H. F. Schaefer III,  N. E. Schultz,  N. Shenvi,  A. C. Simmonett,  A. Sodt,  
 D. Stuck,  K. S. Thanthiriwatte,  V. Vanovschi,  Tao Wang,  A. Warshel,  
 C. F. Williams,  Q. Wu,  X. Xu,  W. Zhang

 Please cite Q-Chem as follows:
 Y. Shao et al., Mol. Phys. 113, 184-215 (2015)
 DOI: 10.1080/00268976.2014.952696

 Q-Chem 5.3.0 for Intel X86 EM64T Linux

 Parts of Q-Chem use Armadillo 9.800.1 (Horizon Scraper).
 http://arma.sourceforge.net/

 Q-Chem begins on Tue Jul  7 01:41:15 2020  

Host: centos77-c4
0

     Scratch files written to /tmp/26963.centos77-h1/qchem103135//
Processing $rem in /opt/qchem-5.3.0-intel2020u1//config/preferences:
Processing $rem in /home/shihchengli/.qchemrc:

Checking the input file for inconsistencies... 	...done.

--------------------------------------------------------------
User input:
--------------------------------------------------------------
$rem
   JOBTYPE  sp
   EXCHANGE   omegaB97X-D
   BASIS   6-311+G(2df,2pd)
   UNRESTRICTED   False
   max_scf_cycles   250
   geom_opt_max_cycles   1500
   basis2 6-31G*
   scf_algorithm rca_diis
   SYM_IGNORE  TRUE
   print_input   true
   geom_opt_dmax   80
   pop_mulliken false
   XC_GRID 000075000302
$end

$molecule
0 1
C       1.2666001846     0.0390862739     0.2559283718
C       -0.0000008673     0.0000001721     -0.5907806799
H       1.4689804666     -0.8577218823     0.8560721125
H       1.1422385593     0.8724558004     0.9408062126
H       2.1526813953     -0.1811034508     -0.3403089668
C       -1.2666014668     -0.0390859410     0.2559268894
H       0.0396345215     -0.8729843373     -1.2465886667
H       -0.0396324525     0.8729847759     -1.2465888052
H       -1.1422408552     -0.8724489345     0.9408132289
H       -2.1526796364     0.1811021036     -0.3403152640
H       -1.4689799097     0.8577160860     0.8560805862
$end
--------------------------------------------------------------
 ----------------------------------------------------------------
             Standard Nuclear Orientation (Angstroms)
    I     Atom           X                Y                Z
 ----------------------------------------------------------------
    1      C       1.2666001846     0.0390862739     0.2559283718
    2      C      -0.0000008673     0.0000001721    -0.5907806799
    3      H       1.4689804666    -0.8577218823     0.8560721125
    4      H       1.1422385593     0.8724558004     0.9408062126
    5      H       2.1526813953    -0.1811034508    -0.3403089668
    6      C      -1.2666014668    -0.0390859410     0.2559268894
    7      H       0.0396345215    -0.8729843373    -1.2465886667
    8      H      -0.0396324525     0.8729847759    -1.2465888052
    9      H      -1.1422408552    -0.8724489345     0.9408132289
   10      H      -2.1526796364     0.1811021036    -0.3403152640
   11      H      -1.4689799097     0.8577160860     0.8560805862
 ----------------------------------------------------------------
 Nuclear Repulsion Energy =          82.80639307 hartrees
 There are       13 alpha and       13 beta electrons
 Requested basis set is 6-311+G(2df,2pd)
 There are 72 shells and 214 basis functions

 Total QAlloc Memory Limit   2000 MB
 Mega-Array Size       188 MB
 MEM_STATIC part       192 MB

                       Distance Matrix (Angstroms)
             C (  1)   C (  2)   H (  3)   H (  4)   H (  5)   C (  6)
   C (  2)  1.524048
   H (  3)  1.097905  2.233154
   H (  4)  1.085831  2.100392  1.762797
   H (  5)  1.090469  2.174759  1.535118  1.942225
   C (  6)  2.534408  1.524047  2.917833  2.665048  3.473782
   H (  7)  2.143566  1.092592  2.542527  3.007822  2.401043  2.158516
   H (  8)  2.158515  1.092592  3.113269  2.486266  2.595898  2.143567
   H (  9)  2.665048  2.100395  2.612638  2.874637  3.602186  1.085831
   H ( 10)  3.473780  2.174754  3.953090  3.602184  4.320570  1.090469
   H ( 11)  2.917831  2.233156  3.402108  2.612634  3.953091  1.097905
             H (  7)   H (  8)   H (  9)   H ( 10)
   H (  8)  1.747768
   H (  9)  2.486274  3.007825
   H ( 10)  2.595895  2.401042  1.942227
   H ( 11)  3.113272  2.542535  1.762784  1.535127
 
 A cutoff of  1.0D-09 yielded   2534 shell pairs
 There are     22542 function pairs (     27715 Cartesian)
 Smallest overlap matrix eigenvalue = 8.94E-05

 Scale SEOQF with 1.000000e-01/1.000000e-01/1.000000e-01

 Standard Electronic Orientation quadrupole field applied
 Nucleus-field energy     =     0.0000000006 hartrees
 Requested basis set is 6-31G(d)
 There are 28 shells and 58 basis functions
 A cutoff of  1.0D-09 yielded    402 shell pairs
 There are      1773 function pairs (      1968 Cartesian)
 Smallest overlap matrix eigenvalue = 6.86E-03
 Guess from superposition of atomic densities
 Warning:  Energy on first SCF cycle will be non-variational
 SAD guess density has 26.000000 electrons
 Long-range K will be added via erf
 Coulomb attenuation parameter = 0.2 bohr**(-1)
 A restricted hybrid HF-DFT SCF calculation will be
 performed using Relaxed Constraint Minimization + Pulay DIIS
 Exchange:     0.2220 Hartree-Fock + 1.0000 wB97X-D + LR-HF
 Correlation:  1.0000 wB97X-D
 Using Euler-Maclaurin-Lebedev (75,302) quadrature formula
 Dispersion:   Grimme D
 SCF converges when DIIS error is below 1.0E-04
 using 3 threads for integral computing
 -------------------------------------------------------
 OpenMP Integral computing Module                
 Release: version 1.0, May 2013, Q-Chem Inc. Pittsburgh 
 -------------------------------------------------------
 using 3 threads for integral computing
 -------------------------------------------------------
 OpenMP Integral computing Module                
 Release: version 1.0, May 2013, Q-Chem Inc. Pittsburgh 
 -------------------------------------------------------
 ---------------------------------------
  Cycle       Energy         DIIS Error
 ---------------------------------------
    1    -119.6359167229      1.01E-01
    2    -119.0317914828      9.26E-03
    3    -119.0542209250      2.52E-03
    4    -119.0692771722      1.72E-03
    5    -119.0700088073      2.73E-04 Done RCA. Switching to DIIS
    6    -119.0705526927      2.00E-04
    7    -119.0705702514      6.15E-06 Convergence criterion met
 ---------------------------------------
 SCF time:  CPU 18.92 s  wall 6.85 s
 SCF   energy in the small basis set = -119.07057025
 Total energy in the small basis set = -119.07057025
 ----------------------------------------------------
  Cycle       Energy    
 ----------------------------------------------------
    1     -16.5351972557     -1.65E+01
 Long-range K will be added via erf
 Coulomb attenuation parameter = 0.2 bohr**(-1)
 A restricted hybrid HF-DFT SCF calculation will be
 performed using Relaxed Constraint Minimization + Pulay DIIS
 Exchange:     0.2220 Hartree-Fock + 1.0000 wB97X-D + LR-HF
 Correlation:  1.0000 wB97X-D
 Using Euler-Maclaurin-Lebedev (75,302) quadrature formula
 Dispersion:   Grimme D
 SCF converges when DIIS error is below 1.0E-05
 Basis2 calculation detected. Using small basis as guess for larger.
 SCFMinFind is unable to tell whether the solution found is close.
 Resetting ReadMinima to 0 and attempting to follow guess.
 SCFMinFind following SCF Guess.
 using 3 threads for integral computing
 -------------------------------------------------------
 OpenMP Integral computing Module                
 Release: version 1.0, May 2013, Q-Chem Inc. Pittsburgh 
 -------------------------------------------------------
 using 3 threads for integral computing
 -------------------------------------------------------
 OpenMP Integral computing Module                
 Release: version 1.0, May 2013, Q-Chem Inc. Pittsburgh 
 -------------------------------------------------------
 ---------------------------------------
  Cycle       Energy         DIIS Error
 ---------------------------------------
    1    -119.0913450338      4.21E-03
    2    -119.1133009696      6.22E-04 Done RCA. Switching to DIIS
    3    -119.1141716926      4.44E-04
    4    -119.1152542277      4.63E-05
    5    -119.1152699368      1.05E-05
    6    -119.1152707121      4.05E-06 Convergence criterion met
 ---------------------------------------
 SCF time:  CPU 51.80 s  wall 17.57 s
 SCF   energy in the final basis set = -119.11527071
 Total energy in the final basis set = -119.11527071
 
 --------------------------------------------------------------
 
                    Orbital Energies (a.u.)
 --------------------------------------------------------------
 
 Alpha MOs
 -- Occupied --
-10.2746 -10.2658 -10.2658  -0.8830  -0.7810  -0.6810  -0.5530  -0.5440
 -0.4789  -0.4443  -0.4370  -0.4128  -0.3815
 -- Virtual --
  0.0686   0.0837   0.0907   0.0997   0.1225   0.1303   0.1326   0.1410
  0.1435   0.1703   0.1726   0.1941   0.2168   0.2211   0.2543   0.2651
  0.2803   0.2905   0.3120   0.3128   0.3342   0.3488   0.4581   0.4643
  0.4708   0.5072   0.5175   0.5235   0.5491   0.5590   0.5849   0.5869
  0.6079   0.6283   0.6351   0.6405   0.6685   0.6745   0.7123   0.7213
  0.7352   0.7754   0.7909   0.8624   0.8739   0.8741   0.8973   0.9361
  0.9653   1.0327   1.0561   1.1220   1.1513   1.1799   1.2004   1.2058
  1.2478   1.2511   1.2605   1.2668   1.2960   1.3179   1.3302   1.3607
  1.3762   1.3834   1.4422   1.4439   1.4539   1.4750   1.4797   1.4924
  1.5073   1.5795   1.6132   1.6255   1.6368   1.6405   1.6902   1.6939
  1.7576   2.4115   2.4672   2.4792   2.5114   2.5462   2.5520   2.6081
  2.6445   2.6973   2.7936   2.8163   2.8345   2.8584   2.8999   2.9042
  2.9413   2.9546   2.9828   3.0161   3.0273   3.0522   3.0687   3.1097
  3.1496   3.1616   3.1882   3.1981   3.2049   3.2234   3.2490   3.2847
  3.3019   3.3251   3.3390   3.3796   3.3835   3.4095   3.4342   3.4609
  3.4786   3.5062   3.5155   3.5496   3.5773   3.5825   3.6125   3.6207
  3.6408   3.6502   3.6799   3.6964   3.7180   3.7598   3.8329   3.8333
  3.8546   3.8774   3.8940   3.9431   3.9509   3.9693   3.9729   4.0173
  4.0264   4.1062   4.1234   4.1289   4.1519   4.2057   4.2091   4.2461
  4.2483   4.2649   4.2952   4.3637   4.3658   4.4006   4.4328   4.4688
  4.5002   4.5710   4.6311   4.6483   4.6832   4.7238   4.7345   4.8052
  4.9161   4.9279   4.9553   4.9900   5.0203   5.0304   5.0487   5.0826
  5.1156   5.2014   5.2408   5.2592   5.3317   5.3350   5.3838   5.4180
  5.4648   5.4789   5.5611   5.6004   5.6825   5.7493   5.7522   5.8300
  5.9694   6.3271   6.3332   6.4258   6.4560   6.4900  25.2047  25.4361
 25.4558
 --------------------------------------------------------------
 
 -----------------------------------------------------------------
                    Cartesian Multipole Moments
 -----------------------------------------------------------------
    Charge (ESU x 10^10)
                 0.0000
    Dipole Moment (Debye)
         X       0.0000      Y      -0.0000      Z      -0.0552
       Tot       0.0552
    Quadrupole Moments (Debye-Ang)
        XX     -22.1020     XY      -1.6384     YY     -21.4515
        XZ      -0.0000     YZ       0.0000     ZZ     -22.0041
    Octopole Moments (Debye-Ang^2)
       XXX       0.0001    XXY      -0.0000    XYY       0.0001
       YYY      -0.0000    XXZ      -1.0353    XYZ       0.4324
       YYZ       0.3037    XZZ      -0.0000    YZZ       0.0000
       ZZZ      -0.3119
    Hexadecapole Moments (Debye-Ang^3)
      XXXX    -202.5841   XXXY      -8.5206   XXYY     -41.9565
      XYYY       0.1401   YYYY     -44.6282   XXXZ       0.0000
      XXYZ      -0.0000   XYYZ       0.0000   YYYZ       0.0000
      XXZZ     -45.9547   XYZZ       0.2308   YYZZ     -17.3149
      XZZZ      -0.0001   YZZZ       0.0000   ZZZZ     -72.5261
 -----------------------------------------------------------------
Archival summary:
1\1\centos77-c4\SP\ProcedureUnspecified\BasisUnspecified\38\shihchen\TueJul701:41:422020TueJul701:41:422020\0\\#,ProcedureUnspecified,BasisUnspecified,\\0,1\C\H,1,1.09259\H,1,1.09259,2,106.227\C,1,1.52405,2,110.067,3,117.734,0\H,4,1.08583,1,105.957,2,68.3545,0\H,4,1.09047,1,111.491,2,-72.4812,0\H,4,1.0979,1,115.845,2,-172.375,0\C,1,1.52405,2,108.894,3,-118.51,0\H,8,1.08583,1,105.957,2,-175.576,0\H,8,1.09047,1,111.491,2,43.589,0\H,8,1.0979,1,115.845,2,-56.3037,0\\\@

 Total job time:  27.32s(wall), 74.28s(cpu) 
 Tue Jul  7 01:41:42 2020

        *************************************************************
        *                                                           *
        *  Thank you very much for using Q-Chem.  Have a nice day.  *
        *                                                           *
        *************************************************************


