                  Welcome to Q-Chem
     A Quantum Leap Into The Future Of Chemistry


 Q-Chem 5.3 (devel), Q-Chem, Inc., Pleasanton, CA (2020)

 Yihan Shao,  Zhengting Gan,  E. Epifanovsky,  A. T. B. Gilbert,  M. Wormit,  
 J. Kussmann,  A. W. Lange,  A. Behn,  Jia Deng,  Xintian Feng,  D. Ghosh,  
 M. Goldey,  P. R. Horn,  L. D. Jacobson,  I. Kaliman,  T. Kus,  A. Landau,  
 Jie Liu,  E. I. Proynov,  R. M. Richard,  R. P. Steele,  E. J. Sundstrom,  
 H. L. Woodcock III,  P. M. Zimmerman,  D. Zuev,  B. Alam,  B. Albrecht,  
 E. Alguire,  S. A. Baeppler,  D. Barton,  Z. Benda,  Y. A. Bernard,  
 E. J. Berquist,  K. B. Bravaya,  H. Burton,  K. Carter-Fenk,  D. Casanova,  
 Chun-Min Chang,  Yunqing Chen,  A. Chien,  K. D. Closser,  M. P. Coons,  
 S. Coriani,  S. Dasgupta,  A. L. Dempwolff,  M. Diedenhofen,  Hainam Do,  
 R. G. Edgar,  Po-Tung Fang,  S. Faraji,  S. Fatehi,  Qingguo Feng,  
 J. Fosso-Tande,  J. Gayvert,  Qinghui Ge,  A. Ghysels,  G. Gidofalvi,  
 J. Gomes,  J. Gonthier,  A. Gunina,  D. Hait,  M. W. D. Hanson-Heine,  
 P. H. P. Harbach,  A. W. Hauser,  M. F. Herbst,  J. E. Herr,  
 E. G. Hohenstein,  Z. C. Holden,  Kerwin Hui,  B. C. Huynh,  T.-C. Jagau,  
 Hyunjun Ji,  B. Kaduk,  K. Khistyaev,  Jaehoon Kim,  P. Klunzinger,  K. Koh,  
 D. Kosenkov,  L. Koulias,  T. Kowalczyk,  C. M. Krauter,  A. Kunitsa,  
 Ka Un Lao,  A. Laurent,  K. V. Lawler,  Joonho Lee,  D. Lefrancois,  
 S. Lehtola,  D. S. Levine,  Yi-Pei Li,  You-Sheng Lin,  Fenglai Liu,  
 Kuan-Yu Liu,  E. Livshits,  M. Loipersberger,  A. Luenser,  P. Manohar,  
 E. Mansoor,  S. F. Manzer,  Shan-Ping Mao,  Yuezhi Mao,  N. Mardirossian,  
 A. V. Marenich,  T. Markovich,  L. A. Martinez-Martinez,  S. A. Maurer,  
 N. J. Mayhall,  S. C. McKenzie,  J.-M. Mewes,  P. Morgante,  A. F. Morrison,  
 J. W. Mullinax,  K. Nanda,  T. S. Nguyen-Beck,  R. Olivares-Amaya,  
 K. J. Oosterbaan,  J. A. Parkhill,  S. K. Paul,  F. Pavosevic,  Zheng Pei,  
 T. M. Perrine,  F. Plasser,  P. Pokhilko,  S. Prager,  A. Prociuk,  
 E. Ramos,  B. Rana,  D. R. Rehn,  F. Rob,  M. Scheurer,  M. Schneider,  
 N. Sergueev,  S. M. Sharada,  S. Sharma,  D. W. Small,  T. Stauch,  
 C. J. Stein,  T. Stein,  Yu-Chuan Su,  S. P. Veccham,  Zhen Tao,  
 A. J. W. Thom,  A. Tkatchenko,  T. Tsuchimochi,  N. M. Tubman,  L. Vogt,  
 M. L. Vidal,  O. Vydrov,  M. A. Watson,  J. Wenzel,  M. de Wergifosse,  
 T. A. Wesolowski,  A. White,  J. Witte,  A. Yamada,  Jun Yang,  K. Yao,  
 S. Yeganeh,  S. R. Yost,  Zhi-Qiang You,  A. Zech,  Igor Ying Zhang,  
 Xing Zhang,  Yan Zhao,  Ying Zhu,  B. R. Brooks,  G. K. L. Chan,  
 C. J. Cramer,  M. S. Gordon,  W. J. Hehre,  A. Klamt,  M. W. Schmidt,  
 C. D. Sherrill,  D. G. Truhlar,  A. Aspuru-Guzik,  R. Baer,  A. T. Bell,  
 N. A. Besley,  Jeng-Da Chai,  A. E. DePrince, III,  R. A. DiStasio Jr.,  
 A. Dreuw,  B. D. Dunietz,  T. R. Furlani,  Chao-Ping Hsu,  Yousung Jung,  
 Jing Kong,  D. S. Lambrecht,  WanZhen Liang,  C. Ochsenfeld,  
 V. A. Rassolov,  L. V. Slipchenko,  J. E. Subotnik,  T. Van Voorhis,  
 J. M. Herbert,  A. I. Krylov,  P. M. W. Gill,  M. Head-Gordon

 Contributors to earlier versions of Q-Chem not listed above: 
 R. D. Adamson,  B. Austin,  J. Baker,  G. J. O. Beran,  K. Brandhorst,  
 S. T. Brown,  E. F. C. Byrd,  A. K. Chakraborty,  C.-L. Cheng,  
 Siu Hung Chien,  D. M. Chipman,  D. L. Crittenden,  H. Dachsel,  
 R. J. Doerksen,  A. D. Dutoi,  L. Fusti-Molnar,  W. A. Goddard III,  
 A. Golubeva-Zadorozhnaya,  S. R. Gwaltney,  G. Hawkins,  A. Heyden,  
 S. Hirata,  G. Kedziora,  F. J. Keil,  C. Kelley,  Jihan Kim,  R. A. King,  
 R. Z. Khaliullin,  P. P. Korambath,  W. Kurlancheek,  A. M. Lee,  M. S. Lee,  
 S. V. Levchenko,  Ching Yeh Lin,  D. Liotard,  R. C. Lochan,  I. Lotan,  
 P. E. Maslen,  N. Nair,  D. P. O'Neill,  D. Neuhauser,  E. Neuscamman,  
 C. M. Oana,  R. Olson,  B. Peters,  R. Peverati,  P. A. Pieniazek,  
 Y. M. Rhee,  J. Ritchie,  M. A. Rohrdanz,  E. Rosta,  N. J. Russ,  
 H. F. Schaefer III,  N. E. Schultz,  N. Shenvi,  A. C. Simmonett,  A. Sodt,  
 D. Stuck,  K. S. Thanthiriwatte,  V. Vanovschi,  Tao Wang,  A. Warshel,  
 C. F. Williams,  Q. Wu,  X. Xu,  W. Zhang

 Please cite Q-Chem as follows:
 Y. Shao et al., Mol. Phys. 113, 184-215 (2015)
 DOI: 10.1080/00268976.2014.952696

 Q-Chem 5.3.0 for Intel X86 EM64T Linux

 Parts of Q-Chem use Armadillo 9.800.1 (Horizon Scraper).
 http://arma.sourceforge.net/

 Q-Chem begins on Tue Jul  7 00:28:10 2020  

Host: centos77-c4
0

     Scratch files written to /tmp/26963.centos77-h1/qchem86178//
Processing $rem in /opt/qchem-5.3.0-intel2020u1//config/preferences:
Processing $rem in /home/shihchengli/.qchemrc:

Checking the input file for inconsistencies... 	...done.

--------------------------------------------------------------
User input:
--------------------------------------------------------------
$rem
   JOBTYPE  sp
   EXCHANGE   omegaB97X-D
   BASIS   6-311+G(2df,2pd)
   UNRESTRICTED   False
   max_scf_cycles   250
   geom_opt_max_cycles   1500
   basis2 6-31G*
   scf_algorithm rca_diis
   SYM_IGNORE  TRUE
   print_input   true
   geom_opt_dmax   80
   pop_mulliken false
   XC_GRID 000075000302
$end

$molecule
0 1
C       1.2626211738     -0.1076504782     0.2605995937
C       0.0000000787     0.0000023050     -0.5861111698
H       1.5343851844     -1.1534979279     0.4126292290
H       1.1177287834     0.3411892424     1.2460614196
H       2.1085031331     0.3908712329     -0.2138286508
C       -1.2626210602     0.1076485117     0.2606004078
H       -0.0537712521     -0.8722487687     -1.2418879544
H       0.0537712298     0.8722586220     -1.2418811671
H       -1.1177237087     -0.3411825722     1.2460652426
H       -2.1084985620     -0.3908837230     -0.2138247474
H       -1.5343950608     1.1534942219     0.4126228157
$end
--------------------------------------------------------------
 ----------------------------------------------------------------
             Standard Nuclear Orientation (Angstroms)
    I     Atom           X                Y                Z
 ----------------------------------------------------------------
    1      C       1.2626211738    -0.1076504782     0.2605995937
    2      C       0.0000000787     0.0000023050    -0.5861111698
    3      H       1.5343851844    -1.1534979279     0.4126292290
    4      H       1.1177287834     0.3411892424     1.2460614196
    5      H       2.1085031331     0.3908712329    -0.2138286508
    6      C      -1.2626210602     0.1076485117     0.2606004078
    7      H      -0.0537712521    -0.8722487687    -1.2418879544
    8      H       0.0537712298     0.8722586220    -1.2418811671
    9      H      -1.1177237087    -0.3411825722     1.2460652426
   10      H      -2.1084985620    -0.3908837230    -0.2138247474
   11      H      -1.5343950608     1.1534942219     0.4126228157
 ----------------------------------------------------------------
 Nuclear Repulsion Energy =          82.75686022 hartrees
 There are       13 alpha and       13 beta electrons
 Requested basis set is 6-311+G(2df,2pd)
 There are 72 shells and 214 basis functions

 Total QAlloc Memory Limit   2000 MB
 Mega-Array Size       188 MB
 MEM_STATIC part       192 MB

                       Distance Matrix (Angstroms)
             C (  1)   C (  2)   H (  3)   H (  4)   H (  5)   C (  6)
   C (  2)  1.524047
   H (  3)  1.091222  2.163881
   H (  4)  1.092514  2.173150  1.761335
   H (  5)  1.090469  2.176501  1.762707  1.765044
   C (  6)  2.534404  1.524047  3.071945  2.586840  3.416105
   H (  7)  2.138918  1.092592  2.310578  3.005784  2.706993  2.163097
   H (  8)  2.163097  1.092592  3.005547  2.757517  2.347456  2.138918
   H (  9)  2.586836  2.173151  2.896231  2.337280  3.616038  1.092513
   H ( 10)  3.416101  2.176501  3.774205  3.616039  4.288851  1.090469
   H ( 11)  3.071953  2.163881  3.839222  2.896242  3.774221  1.091222
             H (  7)   H (  8)   H (  9)   H ( 10)
   H (  8)  1.747819
   H (  9)  2.757524  3.005781
   H ( 10)  2.347452  2.706998  1.765045
   H ( 11)  3.005543  2.310573  1.761335  1.762707
 
 A cutoff of  1.0D-09 yielded   2535 shell pairs
 There are     22485 function pairs (     27645 Cartesian)
 Smallest overlap matrix eigenvalue = 8.07E-05

 Scale SEOQF with 1.000000e-01/1.000000e-01/1.000000e-01

 Standard Electronic Orientation quadrupole field applied
 Nucleus-field energy     =     0.0000000006 hartrees
 Requested basis set is 6-31G(d)
 There are 28 shells and 58 basis functions
 A cutoff of  1.0D-09 yielded    402 shell pairs
 There are      1773 function pairs (      1968 Cartesian)
 Smallest overlap matrix eigenvalue = 6.36E-03
 Guess from superposition of atomic densities
 Warning:  Energy on first SCF cycle will be non-variational
 SAD guess density has 26.000000 electrons
 Long-range K will be added via erf
 Coulomb attenuation parameter = 0.2 bohr**(-1)
 A restricted hybrid HF-DFT SCF calculation will be
 performed using Relaxed Constraint Minimization + Pulay DIIS
 Exchange:     0.2220 Hartree-Fock + 1.0000 wB97X-D + LR-HF
 Correlation:  1.0000 wB97X-D
 Using Euler-Maclaurin-Lebedev (75,302) quadrature formula
 Dispersion:   Grimme D
 SCF converges when DIIS error is below 1.0E-04
 using 3 threads for integral computing
 -------------------------------------------------------
 OpenMP Integral computing Module                
 Release: version 1.0, May 2013, Q-Chem Inc. Pittsburgh 
 -------------------------------------------------------
 using 3 threads for integral computing
 -------------------------------------------------------
 OpenMP Integral computing Module                
 Release: version 1.0, May 2013, Q-Chem Inc. Pittsburgh 
 -------------------------------------------------------
 ---------------------------------------
  Cycle       Energy         DIIS Error
 ---------------------------------------
    1    -119.6239784029      1.00E-01
    2    -119.0600365583      9.04E-03
    3    -119.0812313286      2.45E-03
    4    -119.0952163644      1.68E-03
    5    -119.0959105982      2.65E-04 Done RCA. Switching to DIIS
    6    -119.0964204057      1.96E-04
    7    -119.0964370729      4.37E-06 Convergence criterion met
 ---------------------------------------
 SCF time:  CPU 20.91 s  wall 7.83 s
 SCF   energy in the small basis set = -119.09643707
 Total energy in the small basis set = -119.09643707
 ----------------------------------------------------
  Cycle       Energy    
 ----------------------------------------------------
    1     -16.5438896801     -1.65E+01
 Long-range K will be added via erf
 Coulomb attenuation parameter = 0.2 bohr**(-1)
 A restricted hybrid HF-DFT SCF calculation will be
 performed using Relaxed Constraint Minimization + Pulay DIIS
 Exchange:     0.2220 Hartree-Fock + 1.0000 wB97X-D + LR-HF
 Correlation:  1.0000 wB97X-D
 Using Euler-Maclaurin-Lebedev (75,302) quadrature formula
 Dispersion:   Grimme D
 SCF converges when DIIS error is below 1.0E-05
 Basis2 calculation detected. Using small basis as guess for larger.
 SCFMinFind is unable to tell whether the solution found is close.
 Resetting ReadMinima to 0 and attempting to follow guess.
 SCFMinFind following SCF Guess.
 using 3 threads for integral computing
 -------------------------------------------------------
 OpenMP Integral computing Module                
 Release: version 1.0, May 2013, Q-Chem Inc. Pittsburgh 
 -------------------------------------------------------
 using 3 threads for integral computing
 -------------------------------------------------------
 OpenMP Integral computing Module                
 Release: version 1.0, May 2013, Q-Chem Inc. Pittsburgh 
 -------------------------------------------------------
 ---------------------------------------
  Cycle       Energy         DIIS Error
 ---------------------------------------
    1    -119.1157352099      4.21E-03
    2    -119.1377472666      6.01E-04 Done RCA. Switching to DIIS
    3    -119.1385811603      4.23E-04
    4    -119.1395636284      4.53E-05
    5    -119.1395783103      1.02E-05
    6    -119.1395790081      3.95E-06 Convergence criterion met
 ---------------------------------------
 SCF time:  CPU 49.97 s  wall 16.79 s
 SCF   energy in the final basis set = -119.13957901
 Total energy in the final basis set = -119.13957901
 
 --------------------------------------------------------------
 
                    Orbital Energies (a.u.)
 --------------------------------------------------------------
 
 Alpha MOs
 -- Occupied --
-10.2723 -10.2642 -10.2642  -0.8810  -0.7767  -0.6775  -0.5446  -0.5259
 -0.4789  -0.4689  -0.4196  -0.4154  -0.4009
 -- Virtual --
  0.0703   0.0872   0.0911   0.1014   0.1222   0.1310   0.1318   0.1370
  0.1451   0.1654   0.1750   0.1903   0.2115   0.2479   0.2534   0.2573
  0.2933   0.3087   0.3201   0.3217   0.3309   0.3485   0.4590   0.4798
  0.4857   0.4910   0.5134   0.5194   0.5302   0.5547   0.5739   0.5901
  0.6084   0.6201   0.6339   0.6407   0.6420   0.6582   0.7048   0.7105
  0.7270   0.7663   0.8036   0.8616   0.8896   0.9387   0.9534   0.9812
  1.0262   1.0514   1.0861   1.1004   1.1079   1.1632   1.1968   1.2014
  1.2423   1.2522   1.2574   1.2641   1.3113   1.3168   1.3211   1.3726
  1.3789   1.4140   1.4191   1.4402   1.4459   1.4508   1.4778   1.5200
  1.5225   1.5360   1.5677   1.5775   1.6423   1.6481   1.6592   1.6741
  1.7046   2.3283   2.3485   2.4330   2.5125   2.5680   2.5852   2.6595
  2.6771   2.6919   2.7854   2.8162   2.8410   2.8522   2.9303   2.9315
  2.9555   2.9768   3.0185   3.0378   3.0655   3.0864   3.1020   3.1174
  3.1313   3.1373   3.1622   3.1644   3.1937   3.2563   3.2670   3.2882
  3.3165   3.3336   3.3440   3.3446   3.3814   3.3875   3.3877   3.4081
  3.4615   3.4724   3.5080   3.5321   3.5726   3.6011   3.6140   3.6358
  3.6413   3.6748   3.6910   3.7220   3.7329   3.7837   3.8101   3.8484
  3.8490   3.9107   3.9415   3.9702   3.9904   3.9956   4.0082   4.0587
  4.0648   4.1240   4.1376   4.1497   4.1768   4.2013   4.2114   4.2343
  4.2345   4.2794   4.2807   4.3112   4.3406   4.4004   4.4034   4.4508
  4.4786   4.5023   4.5632   4.6294   4.6429   4.8304   4.8330   4.9076
  4.9280   4.9366   4.9538   4.9732   5.0199   5.0583   5.0631   5.1453
  5.1724   5.1772   5.2336   5.2541   5.2626   5.2694   5.3231   5.3674
  5.3836   5.3850   5.4300   5.4570   5.5289   5.5487   5.6055   5.7290
  5.9677   6.3355   6.3663   6.4098   6.4308   6.5012  25.1057  25.3934
 25.4695
 --------------------------------------------------------------
 
 -----------------------------------------------------------------
                    Cartesian Multipole Moments
 -----------------------------------------------------------------
    Charge (ESU x 10^10)
                 0.0000
    Dipole Moment (Debye)
         X      -0.0000      Y       0.0000      Z      -0.0850
       Tot       0.0850
    Quadrupole Moments (Debye-Ang)
        XX     -22.2858     XY       0.0700     YY     -21.2669
        XZ       0.0000     YZ       0.0000     ZZ     -21.8548
    Octopole Moments (Debye-Ang^2)
       XXX       0.0000    XXY       0.0000    XYY      -0.0000
       YYY      -0.0000    XXZ      -1.3550    XYZ      -0.3818
       YYZ      -0.6202    XZZ       0.0000    YZZ      -0.0000
       ZZZ       0.4014
    Hexadecapole Moments (Debye-Ang^3)
      XXXX    -203.2608   XXXY       9.2709   XXYY     -40.2370
      XYYY       4.6697   YYYY     -44.1091   XXXZ       0.0000
      XXYZ       0.0000   XYYZ       0.0000   YYYZ       0.0000
      XXZZ     -46.3966   XYZZ       3.1509   YYZZ     -18.7128
      XZZZ       0.0000   YZZZ       0.0001   ZZZZ     -70.4730
 -----------------------------------------------------------------
Archival summary:
1\1\centos77-c4\SP\ProcedureUnspecified\BasisUnspecified\38\shihchen\TueJul700:28:382020TueJul700:28:382020\0\\#,ProcedureUnspecified,BasisUnspecified,\\0,1\C\H,1,1.09259\H,1,1.09259,2,106.232\C,1,1.52405,2,108.532,3,-118.753,0\H,4,1.09047,1,111.632,2,91.6155,0\H,4,1.09122,1,110.575,2,-28.384,0\H,4,1.09251,1,111.238,2,-147.786,0\C,1,1.52405,2,110.43,3,117.496,0\H,8,1.09047,1,111.632,2,-24.4533,0\H,8,1.09122,1,110.575,2,-144.453,0\H,8,1.09251,1,111.238,2,96.1451,0\\\@

 Total job time:  27.55s(wall), 74.57s(cpu) 
 Tue Jul  7 00:28:38 2020

        *************************************************************
        *                                                           *
        *  Thank you very much for using Q-Chem.  Have a nice day.  *
        *                                                           *
        *************************************************************


