                  Welcome to Q-Chem
     A Quantum Leap Into The Future Of Chemistry


 Q-Chem 5.3 (devel), Q-Chem, Inc., Pleasanton, CA (2020)

 Yihan Shao,  Zhengting Gan,  E. Epifanovsky,  A. T. B. Gilbert,  M. Wormit,  
 J. Kussmann,  A. W. Lange,  A. Behn,  Jia Deng,  Xintian Feng,  D. Ghosh,  
 M. Goldey,  P. R. Horn,  L. D. Jacobson,  I. Kaliman,  T. Kus,  A. Landau,  
 Jie Liu,  E. I. Proynov,  R. M. Richard,  R. P. Steele,  E. J. Sundstrom,  
 H. L. Woodcock III,  P. M. Zimmerman,  D. Zuev,  B. Alam,  B. Albrecht,  
 E. Alguire,  S. A. Baeppler,  D. Barton,  Z. Benda,  Y. A. Bernard,  
 E. J. Berquist,  K. B. Bravaya,  H. Burton,  K. Carter-Fenk,  D. Casanova,  
 Chun-Min Chang,  Yunqing Chen,  A. Chien,  K. D. Closser,  M. P. Coons,  
 S. Coriani,  S. Dasgupta,  A. L. Dempwolff,  M. Diedenhofen,  Hainam Do,  
 R. G. Edgar,  Po-Tung Fang,  S. Faraji,  S. Fatehi,  Qingguo Feng,  
 J. Fosso-Tande,  J. Gayvert,  Qinghui Ge,  A. Ghysels,  G. Gidofalvi,  
 J. Gomes,  J. Gonthier,  A. Gunina,  D. Hait,  M. W. D. Hanson-Heine,  
 P. H. P. Harbach,  A. W. Hauser,  M. F. Herbst,  J. E. Herr,  
 E. G. Hohenstein,  Z. C. Holden,  Kerwin Hui,  B. C. Huynh,  T.-C. Jagau,  
 Hyunjun Ji,  B. Kaduk,  K. Khistyaev,  Jaehoon Kim,  P. Klunzinger,  K. Koh,  
 D. Kosenkov,  L. Koulias,  T. Kowalczyk,  C. M. Krauter,  A. Kunitsa,  
 Ka Un Lao,  A. Laurent,  K. V. Lawler,  Joonho Lee,  D. Lefrancois,  
 S. Lehtola,  D. S. Levine,  Yi-Pei Li,  You-Sheng Lin,  Fenglai Liu,  
 Kuan-Yu Liu,  E. Livshits,  M. Loipersberger,  A. Luenser,  P. Manohar,  
 E. Mansoor,  S. F. Manzer,  Shan-Ping Mao,  Yuezhi Mao,  N. Mardirossian,  
 A. V. Marenich,  T. Markovich,  L. A. Martinez-Martinez,  S. A. Maurer,  
 N. J. Mayhall,  S. C. McKenzie,  J.-M. Mewes,  P. Morgante,  A. F. Morrison,  
 J. W. Mullinax,  K. Nanda,  T. S. Nguyen-Beck,  R. Olivares-Amaya,  
 K. J. Oosterbaan,  J. A. Parkhill,  S. K. Paul,  F. Pavosevic,  Zheng Pei,  
 T. M. Perrine,  F. Plasser,  P. Pokhilko,  S. Prager,  A. Prociuk,  
 E. Ramos,  B. Rana,  D. R. Rehn,  F. Rob,  M. Scheurer,  M. Schneider,  
 N. Sergueev,  S. M. Sharada,  S. Sharma,  D. W. Small,  T. Stauch,  
 C. J. Stein,  T. Stein,  Yu-Chuan Su,  S. P. Veccham,  Zhen Tao,  
 A. J. W. Thom,  A. Tkatchenko,  T. Tsuchimochi,  N. M. Tubman,  L. Vogt,  
 M. L. Vidal,  O. Vydrov,  M. A. Watson,  J. Wenzel,  M. de Wergifosse,  
 T. A. Wesolowski,  A. White,  J. Witte,  A. Yamada,  Jun Yang,  K. Yao,  
 S. Yeganeh,  S. R. Yost,  Zhi-Qiang You,  A. Zech,  Igor Ying Zhang,  
 Xing Zhang,  Yan Zhao,  Ying Zhu,  B. R. Brooks,  G. K. L. Chan,  
 C. J. Cramer,  M. S. Gordon,  W. J. Hehre,  A. Klamt,  M. W. Schmidt,  
 C. D. Sherrill,  D. G. Truhlar,  A. Aspuru-Guzik,  R. Baer,  A. T. Bell,  
 N. A. Besley,  Jeng-Da Chai,  A. E. DePrince, III,  R. A. DiStasio Jr.,  
 A. Dreuw,  B. D. Dunietz,  T. R. Furlani,  Chao-Ping Hsu,  Yousung Jung,  
 Jing Kong,  D. S. Lambrecht,  WanZhen Liang,  C. Ochsenfeld,  
 V. A. Rassolov,  L. V. Slipchenko,  J. E. Subotnik,  T. Van Voorhis,  
 J. M. Herbert,  A. I. Krylov,  P. M. W. Gill,  M. Head-Gordon

 Contributors to earlier versions of Q-Chem not listed above: 
 R. D. Adamson,  B. Austin,  J. Baker,  G. J. O. Beran,  K. Brandhorst,  
 S. T. Brown,  E. F. C. Byrd,  A. K. Chakraborty,  C.-L. Cheng,  
 Siu Hung Chien,  D. M. Chipman,  D. L. Crittenden,  H. Dachsel,  
 R. J. Doerksen,  A. D. Dutoi,  L. Fusti-Molnar,  W. A. Goddard III,  
 A. Golubeva-Zadorozhnaya,  S. R. Gwaltney,  G. Hawkins,  A. Heyden,  
 S. Hirata,  G. Kedziora,  F. J. Keil,  C. Kelley,  Jihan Kim,  R. A. King,  
 R. Z. Khaliullin,  P. P. Korambath,  W. Kurlancheek,  A. M. Lee,  M. S. Lee,  
 S. V. Levchenko,  Ching Yeh Lin,  D. Liotard,  R. C. Lochan,  I. Lotan,  
 P. E. Maslen,  N. Nair,  D. P. O'Neill,  D. Neuhauser,  E. Neuscamman,  
 C. M. Oana,  R. Olson,  B. Peters,  R. Peverati,  P. A. Pieniazek,  
 Y. M. Rhee,  J. Ritchie,  M. A. Rohrdanz,  E. Rosta,  N. J. Russ,  
 H. F. Schaefer III,  N. E. Schultz,  N. Shenvi,  A. C. Simmonett,  A. Sodt,  
 D. Stuck,  K. S. Thanthiriwatte,  V. Vanovschi,  Tao Wang,  A. Warshel,  
 C. F. Williams,  Q. Wu,  X. Xu,  W. Zhang

 Please cite Q-Chem as follows:
 Y. Shao et al., Mol. Phys. 113, 184-215 (2015)
 DOI: 10.1080/00268976.2014.952696

 Q-Chem 5.3.0 for Intel X86 EM64T Linux

 Parts of Q-Chem use Armadillo 9.800.1 (Horizon Scraper).
 http://arma.sourceforge.net/

 Q-Chem begins on Tue Jul  7 01:38:31 2020  

Host: centos77-c4
0

     Scratch files written to /tmp/26963.centos77-h1/qchem102319//
Processing $rem in /opt/qchem-5.3.0-intel2020u1//config/preferences:
Processing $rem in /home/shihchengli/.qchemrc:

Checking the input file for inconsistencies... 	...done.

--------------------------------------------------------------
User input:
--------------------------------------------------------------
$rem
   JOBTYPE  sp
   EXCHANGE   omegaB97X-D
   BASIS   6-311+G(2df,2pd)
   UNRESTRICTED   False
   max_scf_cycles   250
   geom_opt_max_cycles   1500
   basis2 6-31G*
   scf_algorithm rca_diis
   SYM_IGNORE  TRUE
   print_input   true
   geom_opt_dmax   80
   pop_mulliken false
   XC_GRID 000075000302
$end

$molecule
0 1
C       1.2329835135     -0.0000000763     0.1960065145
C       -0.0000004894     -0.0000001247     -0.6226961162
H       1.4345398633     -0.8072050358     0.9093298996
H       1.4345397404     0.8072049586     0.9093298348
H       2.2276708799     -0.0000001110     -0.2606710081
C       -1.2329849021     0.0000000209     0.1960070314
H       -0.0000001435     -0.8761513566     -1.2721244426
H       -0.0000007080     0.8761512635     -1.2721242006
H       -1.4345380805     -0.8072054283     0.9093306367
H       -2.2276706775     0.0000011372     -0.2606734869
H       -1.4345390567     0.8072054185     0.9093303565
$end
--------------------------------------------------------------
 ----------------------------------------------------------------
             Standard Nuclear Orientation (Angstroms)
    I     Atom           X                Y                Z
 ----------------------------------------------------------------
    1      C       1.2329835135    -0.0000000763     0.1960065145
    2      C      -0.0000004894    -0.0000001247    -0.6226961162
    3      H       1.4345398633    -0.8072050358     0.9093298996
    4      H       1.4345397404     0.8072049586     0.9093298348
    5      H       2.2276708799    -0.0000001110    -0.2606710081
    6      C      -1.2329849021     0.0000000209     0.1960070314
    7      H      -0.0000001435    -0.8761513566    -1.2721244426
    8      H      -0.0000007080     0.8761512635    -1.2721242006
    9      H      -1.4345380805    -0.8072054283     0.9093306367
   10      H      -2.2276706775     0.0000011372    -0.2606734869
   11      H      -1.4345390567     0.8072054185     0.9093303565
 ----------------------------------------------------------------
 Nuclear Repulsion Energy =          83.31049594 hartrees
 There are       13 alpha and       13 beta electrons
 Requested basis set is 6-311+G(2df,2pd)
 There are 72 shells and 214 basis functions

 Total QAlloc Memory Limit   2000 MB
 Mega-Array Size       188 MB
 MEM_STATIC part       192 MB

                       Distance Matrix (Angstroms)
             C (  1)   C (  2)   H (  3)   H (  4)   H (  5)   C (  6)
   C (  2)  1.480042
   H (  3)  1.095917  2.248686
   H (  4)  1.095917  2.248686  1.614410
   H (  5)  1.094512  2.256897  1.627740  1.627740
   C (  6)  2.465968  1.480042  2.876821  2.876821  3.490658
   H (  7)  2.107913  1.090595  2.611781  3.106499  2.598691  2.107914
   H (  8)  2.107913  1.090595  3.106499  2.611781  2.598692  2.107914
   H (  9)  2.876818  2.248685  2.869078  3.292101  3.928391  1.095917
   H ( 10)  3.490657  2.256895  3.928394  3.928393  4.455342  1.094512
   H ( 11)  2.876819  2.248686  3.292102  2.869079  3.928392  1.095917
             H (  7)   H (  8)   H (  9)   H ( 10)
   H (  8)  1.752303
   H (  9)  2.611781  3.106498
   H ( 10)  2.598690  2.598689  1.627744
   H ( 11)  3.106499  2.611781  1.614411  1.627742
 
 A cutoff of  1.0D-09 yielded   2520 shell pairs
 There are     22490 function pairs (     27659 Cartesian)
 Smallest overlap matrix eigenvalue = 8.13E-05

 Scale SEOQF with 1.000000e-01/1.000000e-01/1.000000e-01

 Standard Electronic Orientation quadrupole field applied
 Nucleus-field energy     =     0.0000000006 hartrees
 Requested basis set is 6-31G(d)
 There are 28 shells and 58 basis functions
 A cutoff of  1.0D-09 yielded    402 shell pairs
 There are      1773 function pairs (      1968 Cartesian)
 Smallest overlap matrix eigenvalue = 7.05E-03
 Guess from superposition of atomic densities
 Warning:  Energy on first SCF cycle will be non-variational
 SAD guess density has 26.000000 electrons
 Long-range K will be added via erf
 Coulomb attenuation parameter = 0.2 bohr**(-1)
 A restricted hybrid HF-DFT SCF calculation will be
 performed using Relaxed Constraint Minimization + Pulay DIIS
 Exchange:     0.2220 Hartree-Fock + 1.0000 wB97X-D + LR-HF
 Correlation:  1.0000 wB97X-D
 Using Euler-Maclaurin-Lebedev (75,302) quadrature formula
 Dispersion:   Grimme D
 SCF converges when DIIS error is below 1.0E-04
 using 3 threads for integral computing
 -------------------------------------------------------
 OpenMP Integral computing Module                
 Release: version 1.0, May 2013, Q-Chem Inc. Pittsburgh 
 -------------------------------------------------------
 using 3 threads for integral computing
 -------------------------------------------------------
 OpenMP Integral computing Module                
 Release: version 1.0, May 2013, Q-Chem Inc. Pittsburgh 
 -------------------------------------------------------
 ---------------------------------------
  Cycle       Energy         DIIS Error
 ---------------------------------------
    1    -119.7304037559      1.04E-01
    2    -119.0357868051      9.25E-03
    3    -119.0572465384      2.35E-03
    4    -119.0729342514      1.58E-03
    5    -119.0735306150      2.10E-04 Done RCA. Switching to DIIS
    6    -119.0740109232      1.51E-04
    7    -119.0740211097      4.75E-06 Convergence criterion met
 ---------------------------------------
 SCF time:  CPU 19.09 s  wall 6.93 s
 SCF   energy in the small basis set = -119.07402111
 Total energy in the small basis set = -119.07402111
 ----------------------------------------------------
  Cycle       Energy    
 ----------------------------------------------------
    1     -16.5576369850     -1.66E+01
 Long-range K will be added via erf
 Coulomb attenuation parameter = 0.2 bohr**(-1)
 A restricted hybrid HF-DFT SCF calculation will be
 performed using Relaxed Constraint Minimization + Pulay DIIS
 Exchange:     0.2220 Hartree-Fock + 1.0000 wB97X-D + LR-HF
 Correlation:  1.0000 wB97X-D
 Using Euler-Maclaurin-Lebedev (75,302) quadrature formula
 Dispersion:   Grimme D
 SCF converges when DIIS error is below 1.0E-05
 Basis2 calculation detected. Using small basis as guess for larger.
 SCFMinFind is unable to tell whether the solution found is close.
 Resetting ReadMinima to 0 and attempting to follow guess.
 SCFMinFind following SCF Guess.
 using 3 threads for integral computing
 -------------------------------------------------------
 OpenMP Integral computing Module                
 Release: version 1.0, May 2013, Q-Chem Inc. Pittsburgh 
 -------------------------------------------------------
 using 3 threads for integral computing
 -------------------------------------------------------
 OpenMP Integral computing Module                
 Release: version 1.0, May 2013, Q-Chem Inc. Pittsburgh 
 -------------------------------------------------------
 ---------------------------------------
  Cycle       Energy         DIIS Error
 ---------------------------------------
    1    -119.0953386990      4.20E-03
    2    -119.1172773046      5.84E-04 Done RCA. Switching to DIIS
    3    -119.1180261140      4.16E-04
    4    -119.1189663867      5.20E-05
    5    -119.1189846435      1.04E-05
    6    -119.1189854134      3.94E-06 Convergence criterion met
 ---------------------------------------
 SCF time:  CPU 50.30 s  wall 17.06 s
 SCF   energy in the final basis set = -119.11898541
 Total energy in the final basis set = -119.11898541
 
 --------------------------------------------------------------
 
                    Orbital Energies (a.u.)
 --------------------------------------------------------------
 
 Alpha MOs
 -- Occupied --
-10.2812 -10.2637 -10.2637  -0.8910  -0.7858  -0.6985  -0.5415  -0.5289
 -0.5010  -0.4420  -0.4213  -0.4192  -0.3966
 -- Virtual --
  0.0662   0.0811   0.0903   0.1024   0.1271   0.1272   0.1361   0.1415
  0.1487   0.1714   0.1727   0.1955   0.2324   0.2351   0.2356   0.2760
  0.2783   0.2841   0.2980   0.3194   0.3310   0.3790   0.4557   0.4661
  0.4832   0.5145   0.5171   0.5381   0.5706   0.5714   0.5745   0.5755
  0.6349   0.6357   0.6537   0.6540   0.6555   0.6574   0.7140   0.7261
  0.7298   0.7680   0.8221   0.8315   0.8445   0.8826   0.9021   1.0012
  1.0227   1.0278   1.0515   1.1137   1.1213   1.1890   1.2232   1.2442
  1.2446   1.2590   1.2640   1.2924   1.2935   1.3233   1.3405   1.3476
  1.3624   1.4074   1.4188   1.4560   1.4656   1.4846   1.4868   1.5113
  1.5389   1.5878   1.6114   1.6312   1.6522   1.7070   1.7154   1.7724
  1.8167   2.3870   2.4067   2.4521   2.4572   2.5285   2.5362   2.5774
  2.5827   2.7251   2.7872   2.8011   2.8142   2.8477   2.8687   2.9241
  2.9261   2.9367   2.9718   3.0562   3.0924   3.1091   3.1465   3.1501
  3.1596   3.1718   3.1762   3.2019   3.2313   3.2325   3.2499   3.2835
  3.3418   3.3627   3.4065   3.4219   3.4397   3.4560   3.4731   3.4794
  3.4938   3.5167   3.5357   3.5421   3.5536   3.5540   3.5602   3.5895
  3.5945   3.6038   3.6222   3.6391   3.7250   3.7279   3.7755   3.8185
  3.8705   3.9087   3.9151   3.9316   3.9596   4.0438   4.0590   4.0787
  4.1065   4.1353   4.1931   4.1953   4.2146   4.2298   4.2473   4.2630
  4.2703   4.3567   4.3850   4.3874   4.4222   4.4312   4.4341   4.4393
  4.4829   4.5619   4.6062   4.6439   4.6464   4.6466   4.7179   4.7673
  4.8791   4.9377   4.9627   4.9967   5.0189   5.0286   5.0499   5.0589
  5.1869   5.1879   5.1974   5.2426   5.3442   5.3794   5.3959   5.5063
  5.5172   5.5329   5.5803   5.6131   5.6712   5.6944   5.7090   5.8501
  6.0121   6.4261   6.4511   6.4529   6.4956   6.5051  25.2579  25.4458
 25.4608
 --------------------------------------------------------------
 
 -----------------------------------------------------------------
                    Cartesian Multipole Moments
 -----------------------------------------------------------------
    Charge (ESU x 10^10)
                 0.0000
    Dipole Moment (Debye)
         X       0.0000      Y       0.0000      Z       0.0189
       Tot       0.0189
    Quadrupole Moments (Debye-Ang)
        XX     -21.0161     XY      -0.0000     YY     -22.0240
        XZ       0.0000     YZ      -0.0000     ZZ     -21.6506
    Octopole Moments (Debye-Ang^2)
       XXX       0.0000    XXY       0.0000    XYY       0.0000
       YYY       0.0000    XXZ       2.3428    XYZ       0.0000
       YYZ       0.3584    XZZ       0.0000    YZZ      -0.0000
       ZZZ       1.7591
    Hexadecapole Moments (Debye-Ang^3)
      XXXX    -196.8100   XXXY      -0.0000   XXYY     -43.1324
      XYYY       0.0000   YYYY     -43.8012   XXXZ       0.0001
      XXYZ      -0.0000   XYYZ      -0.0000   YYYZ      -0.0000
      XXZZ     -44.9282   XYZZ       0.0000   YYZZ     -16.9670
      XZZZ      -0.0000   YZZZ      -0.0000   ZZZZ     -70.9035
 -----------------------------------------------------------------
Archival summary:
1\1\centos77-c4\SP\ProcedureUnspecified\BasisUnspecified\38\shihchen\TueJul701:38:582020TueJul701:38:582020\0\\#,ProcedureUnspecified,BasisUnspecified,\\0,1\C\H,1,1.0906\H,1,1.0906,2,106.906\C,1,1.48004,2,109.232,3,118.077,0\H,4,1.09451,1,121.755,2,-58.3048,0\H,4,1.09592,1,120.881,2,62.5772,0\H,4,1.09592,1,120.881,2,-179.187,0\C,1,1.48004,2,109.232,3,-118.077,0\H,8,1.09451,1,121.755,2,58.3047,0\H,8,1.09592,1,120.881,2,-62.5773,0\H,8,1.09592,1,120.881,2,179.187,0\\\@

 Total job time:  26.85s(wall), 72.93s(cpu) 
 Tue Jul  7 01:38:58 2020

        *************************************************************
        *                                                           *
        *  Thank you very much for using Q-Chem.  Have a nice day.  *
        *                                                           *
        *************************************************************


