                  Welcome to Q-Chem
     A Quantum Leap Into The Future Of Chemistry


 Q-Chem 5.3 (devel), Q-Chem, Inc., Pleasanton, CA (2020)

 Yihan Shao,  Zhengting Gan,  E. Epifanovsky,  A. T. B. Gilbert,  M. Wormit,  
 J. Kussmann,  A. W. Lange,  A. Behn,  Jia Deng,  Xintian Feng,  D. Ghosh,  
 M. Goldey,  P. R. Horn,  L. D. Jacobson,  I. Kaliman,  T. Kus,  A. Landau,  
 Jie Liu,  E. I. Proynov,  R. M. Richard,  R. P. Steele,  E. J. Sundstrom,  
 H. L. Woodcock III,  P. M. Zimmerman,  D. Zuev,  B. Alam,  B. Albrecht,  
 E. Alguire,  S. A. Baeppler,  D. Barton,  Z. Benda,  Y. A. Bernard,  
 E. J. Berquist,  K. B. Bravaya,  H. Burton,  K. Carter-Fenk,  D. Casanova,  
 Chun-Min Chang,  Yunqing Chen,  A. Chien,  K. D. Closser,  M. P. Coons,  
 S. Coriani,  S. Dasgupta,  A. L. Dempwolff,  M. Diedenhofen,  Hainam Do,  
 R. G. Edgar,  Po-Tung Fang,  S. Faraji,  S. Fatehi,  Qingguo Feng,  
 J. Fosso-Tande,  J. Gayvert,  Qinghui Ge,  A. Ghysels,  G. Gidofalvi,  
 J. Gomes,  J. Gonthier,  A. Gunina,  D. Hait,  M. W. D. Hanson-Heine,  
 P. H. P. Harbach,  A. W. Hauser,  M. F. Herbst,  J. E. Herr,  
 E. G. Hohenstein,  Z. C. Holden,  Kerwin Hui,  B. C. Huynh,  T.-C. Jagau,  
 Hyunjun Ji,  B. Kaduk,  K. Khistyaev,  Jaehoon Kim,  P. Klunzinger,  K. Koh,  
 D. Kosenkov,  L. Koulias,  T. Kowalczyk,  C. M. Krauter,  A. Kunitsa,  
 Ka Un Lao,  A. Laurent,  K. V. Lawler,  Joonho Lee,  D. Lefrancois,  
 S. Lehtola,  D. S. Levine,  Yi-Pei Li,  You-Sheng Lin,  Fenglai Liu,  
 Kuan-Yu Liu,  E. Livshits,  M. Loipersberger,  A. Luenser,  P. Manohar,  
 E. Mansoor,  S. F. Manzer,  Shan-Ping Mao,  Yuezhi Mao,  N. Mardirossian,  
 A. V. Marenich,  T. Markovich,  L. A. Martinez-Martinez,  S. A. Maurer,  
 N. J. Mayhall,  S. C. McKenzie,  J.-M. Mewes,  P. Morgante,  A. F. Morrison,  
 J. W. Mullinax,  K. Nanda,  T. S. Nguyen-Beck,  R. Olivares-Amaya,  
 K. J. Oosterbaan,  J. A. Parkhill,  S. K. Paul,  F. Pavosevic,  Zheng Pei,  
 T. M. Perrine,  F. Plasser,  P. Pokhilko,  S. Prager,  A. Prociuk,  
 E. Ramos,  B. Rana,  D. R. Rehn,  F. Rob,  M. Scheurer,  M. Schneider,  
 N. Sergueev,  S. M. Sharada,  S. Sharma,  D. W. Small,  T. Stauch,  
 C. J. Stein,  T. Stein,  Yu-Chuan Su,  S. P. Veccham,  Zhen Tao,  
 A. J. W. Thom,  A. Tkatchenko,  T. Tsuchimochi,  N. M. Tubman,  L. Vogt,  
 M. L. Vidal,  O. Vydrov,  M. A. Watson,  J. Wenzel,  M. de Wergifosse,  
 T. A. Wesolowski,  A. White,  J. Witte,  A. Yamada,  Jun Yang,  K. Yao,  
 S. Yeganeh,  S. R. Yost,  Zhi-Qiang You,  A. Zech,  Igor Ying Zhang,  
 Xing Zhang,  Yan Zhao,  Ying Zhu,  B. R. Brooks,  G. K. L. Chan,  
 C. J. Cramer,  M. S. Gordon,  W. J. Hehre,  A. Klamt,  M. W. Schmidt,  
 C. D. Sherrill,  D. G. Truhlar,  A. Aspuru-Guzik,  R. Baer,  A. T. Bell,  
 N. A. Besley,  Jeng-Da Chai,  A. E. DePrince, III,  R. A. DiStasio Jr.,  
 A. Dreuw,  B. D. Dunietz,  T. R. Furlani,  Chao-Ping Hsu,  Yousung Jung,  
 Jing Kong,  D. S. Lambrecht,  WanZhen Liang,  C. Ochsenfeld,  
 V. A. Rassolov,  L. V. Slipchenko,  J. E. Subotnik,  T. Van Voorhis,  
 J. M. Herbert,  A. I. Krylov,  P. M. W. Gill,  M. Head-Gordon

 Contributors to earlier versions of Q-Chem not listed above: 
 R. D. Adamson,  B. Austin,  J. Baker,  G. J. O. Beran,  K. Brandhorst,  
 S. T. Brown,  E. F. C. Byrd,  A. K. Chakraborty,  C.-L. Cheng,  
 Siu Hung Chien,  D. M. Chipman,  D. L. Crittenden,  H. Dachsel,  
 R. J. Doerksen,  A. D. Dutoi,  L. Fusti-Molnar,  W. A. Goddard III,  
 A. Golubeva-Zadorozhnaya,  S. R. Gwaltney,  G. Hawkins,  A. Heyden,  
 S. Hirata,  G. Kedziora,  F. J. Keil,  C. Kelley,  Jihan Kim,  R. A. King,  
 R. Z. Khaliullin,  P. P. Korambath,  W. Kurlancheek,  A. M. Lee,  M. S. Lee,  
 S. V. Levchenko,  Ching Yeh Lin,  D. Liotard,  R. C. Lochan,  I. Lotan,  
 P. E. Maslen,  N. Nair,  D. P. O'Neill,  D. Neuhauser,  E. Neuscamman,  
 C. M. Oana,  R. Olson,  B. Peters,  R. Peverati,  P. A. Pieniazek,  
 Y. M. Rhee,  J. Ritchie,  M. A. Rohrdanz,  E. Rosta,  N. J. Russ,  
 H. F. Schaefer III,  N. E. Schultz,  N. Shenvi,  A. C. Simmonett,  A. Sodt,  
 D. Stuck,  K. S. Thanthiriwatte,  V. Vanovschi,  Tao Wang,  A. Warshel,  
 C. F. Williams,  Q. Wu,  X. Xu,  W. Zhang

 Please cite Q-Chem as follows:
 Y. Shao et al., Mol. Phys. 113, 184-215 (2015)
 DOI: 10.1080/00268976.2014.952696

 Q-Chem 5.3.0 for Intel X86 EM64T Linux

 Parts of Q-Chem use Armadillo 9.800.1 (Horizon Scraper).
 http://arma.sourceforge.net/

 Q-Chem begins on Thu Jul  2 04:51:55 2020  

Host: centos77-c1
0

     Scratch files written to /tmp/26650.centos77-h1/qchem75787//
Processing $rem in /opt/qchem-5.3.0-intel2020u1//config/preferences:
Processing $rem in /home/shihchengli/.qchemrc:

Checking the input file for inconsistencies... 	...done.

--------------------------------------------------------------
User input:
--------------------------------------------------------------
$rem
   JOBTYPE  sp
   EXCHANGE   omegaB97X-D
   BASIS   6-311+G(2df,2pd)
   max_scf_cycles   250
   geom_opt_max_cycles   1500
   basis2 6-31G*
   scf_algorithm rca_diis
   SYM_IGNORE  TRUE
   print_input   true
   geom_opt_dmax   80
   pop_mulliken false
   XC_GRID 000075000302
$end

$molecule
0 1
C       1.3111132876     0.0000001948     0.1928817432
C       0.0272506097     0.0000000335     -0.5881965137
H       1.2439732258     -0.8635261396     0.8590769196
H       1.2439736661     0.8635262379     0.8590773281
H       2.2856946547     -0.0000000488     -0.2922199210
C       -1.2208856448     -0.0000000996     0.3229096150
H       -0.0745206996     -0.8720586315     -1.2385140945
H       -0.0745213297     0.8720585468     -1.2385142353
H       -1.3584800263     -0.8888979461     0.9403874785
H       -2.0251184356     0.0000006294     -0.4162307720
H       -1.3584793683     0.8888978890     0.9403874710
$end
--------------------------------------------------------------
 ----------------------------------------------------------------
             Standard Nuclear Orientation (Angstroms)
    I     Atom           X                Y                Z
 ----------------------------------------------------------------
    1      C       1.3111132876     0.0000001948     0.1928817432
    2      C       0.0272506097     0.0000000335    -0.5881965137
    3      H       1.2439732258    -0.8635261396     0.8590769196
    4      H       1.2439736661     0.8635262379     0.8590773281
    5      H       2.2856946547    -0.0000000488    -0.2922199210
    6      C      -1.2208856448    -0.0000000996     0.3229096150
    7      H      -0.0745206996    -0.8720586315    -1.2385140945
    8      H      -0.0745213297     0.8720585468    -1.2385142353
    9      H      -1.3584800263    -0.8888979461     0.9403874785
   10      H      -2.0251184356     0.0000006294    -0.4162307720
   11      H      -1.3584793683     0.8888978890     0.9403874710
 ----------------------------------------------------------------
 Nuclear Repulsion Energy =          82.82786653 hartrees
 There are       13 alpha and       13 beta electrons
 Requested basis set is 6-311+G(2df,2pd)
 There are 72 shells and 214 basis functions

 Total QAlloc Memory Limit   2000 MB
 Mega-Array Size       188 MB
 MEM_STATIC part       192 MB

                       Distance Matrix (Angstroms)
             C (  1)   C (  2)   H (  3)   H (  4)   H (  5)   C (  6)
   C (  2)  1.502793
   H (  3)  1.092704  2.078627
   H (  4)  1.092704  2.078628  1.727052
   H (  5)  1.088638  2.277756  1.776611  1.776611
   C (  6)  2.535335  1.545302  2.666211  2.666212  3.560125
   H (  7)  2.174710  1.092592  2.477577  3.024991  2.688229  2.124308
   H (  8)  2.174710  1.092592  3.024991  2.477578  2.688230  2.124307
   H (  9)  2.911294  2.246544  2.603847  3.138529  3.948350  1.091032
   H ( 10)  3.391380  2.059561  3.613731  3.613731  4.312596  1.092300
   H ( 11)  2.911293  2.246543  3.138528  2.603847  3.948350  1.091032
             H (  7)   H (  8)   H (  9)   H ( 10)
   H (  8)  1.744117
   H (  9)  2.529120  3.081741
   H ( 10)  2.289425  2.289424  1.753557
   H ( 11)  3.081741  2.529119  1.777796  1.753556
 
 A cutoff of  1.0D-09 yielded   2534 shell pairs
 There are     22584 function pairs (     27777 Cartesian)
 Smallest overlap matrix eigenvalue = 8.81E-05

 Scale SEOQF with 1.000000e-01/1.000000e-01/1.000000e-01

 Standard Electronic Orientation quadrupole field applied
 Nucleus-field energy     =     0.0000000006 hartrees
 Requested basis set is 6-31G(d)
 There are 28 shells and 58 basis functions
 A cutoff of  1.0D-09 yielded    402 shell pairs
 There are      1773 function pairs (      1968 Cartesian)
 Smallest overlap matrix eigenvalue = 6.57E-03
 Guess from superposition of atomic densities
 Warning:  Energy on first SCF cycle will be non-variational
 SAD guess density has 26.000000 electrons
 Long-range K will be added via erf
 Coulomb attenuation parameter = 0.2 bohr**(-1)
 A restricted hybrid HF-DFT SCF calculation will be
 performed using Relaxed Constraint Minimization + Pulay DIIS
 Exchange:     0.2220 Hartree-Fock + 1.0000 wB97X-D + LR-HF
 Correlation:  1.0000 wB97X-D
 Using Euler-Maclaurin-Lebedev (75,302) quadrature formula
 Dispersion:   Grimme D
 SCF converges when DIIS error is below 1.0E-04
 using 3 threads for integral computing
 -------------------------------------------------------
 OpenMP Integral computing Module                
 Release: version 1.0, May 2013, Q-Chem Inc. Pittsburgh 
 -------------------------------------------------------
 using 3 threads for integral computing
 -------------------------------------------------------
 OpenMP Integral computing Module                
 Release: version 1.0, May 2013, Q-Chem Inc. Pittsburgh 
 -------------------------------------------------------
 ---------------------------------------
  Cycle       Energy         DIIS Error
 ---------------------------------------
    1    -119.6305785874      1.01E-01
    2    -119.0580981054      9.00E-03
    3    -119.0791902047      2.48E-03
    4    -119.0930159645      1.70E-03
    5    -119.0937272444      2.71E-04 Done RCA. Switching to DIIS
    6    -119.0942477047      2.00E-04
    7    -119.0942650807      4.58E-06 Convergence criterion met
 ---------------------------------------
 SCF time:  CPU 21.86 s  wall 8.39 s
 SCF   energy in the small basis set = -119.09426508
 Total energy in the small basis set = -119.09426508
 ----------------------------------------------------
  Cycle       Energy    
 ----------------------------------------------------
    1     -16.5403253586     -1.65E+01
 Long-range K will be added via erf
 Coulomb attenuation parameter = 0.2 bohr**(-1)
 A restricted hybrid HF-DFT SCF calculation will be
 performed using Relaxed Constraint Minimization + Pulay DIIS
 Exchange:     0.2220 Hartree-Fock + 1.0000 wB97X-D + LR-HF
 Correlation:  1.0000 wB97X-D
 Using Euler-Maclaurin-Lebedev (75,302) quadrature formula
 Dispersion:   Grimme D
 SCF converges when DIIS error is below 1.0E-05
 Basis2 calculation detected. Using small basis as guess for larger.
 SCFMinFind is unable to tell whether the solution found is close.
 Resetting ReadMinima to 0 and attempting to follow guess.
 SCFMinFind following SCF Guess.
 using 3 threads for integral computing
 -------------------------------------------------------
 OpenMP Integral computing Module                
 Release: version 1.0, May 2013, Q-Chem Inc. Pittsburgh 
 -------------------------------------------------------
 using 3 threads for integral computing
 -------------------------------------------------------
 OpenMP Integral computing Module                
 Release: version 1.0, May 2013, Q-Chem Inc. Pittsburgh 
 -------------------------------------------------------
 ---------------------------------------
  Cycle       Energy         DIIS Error
 ---------------------------------------
    1    -119.1136113415      4.21E-03
    2    -119.1356547592      6.00E-04 Done RCA. Switching to DIIS
    3    -119.1364967628      4.21E-04
    4    -119.1374677295      4.57E-05
    5    -119.1374826136      1.04E-05
    6    -119.1374833318      4.01E-06 Convergence criterion met
 ---------------------------------------
 SCF time:  CPU 48.91 s  wall 16.33 s
 SCF   energy in the final basis set = -119.13748333
 Total energy in the final basis set = -119.13748333
 
 --------------------------------------------------------------
 
                    Orbital Energies (a.u.)
 --------------------------------------------------------------
 
 Alpha MOs
 -- Occupied --
-10.2758 -10.2670 -10.2634  -0.8833  -0.7783  -0.6780  -0.5462  -0.5275
 -0.4839  -0.4631  -0.4180  -0.4140  -0.4060
 -- Virtual --
  0.0688   0.0857   0.0906   0.0989   0.1231   0.1304   0.1334   0.1424
  0.1433   0.1705   0.1720   0.1928   0.2305   0.2411   0.2460   0.2645
  0.2755   0.2815   0.2968   0.3312   0.3345   0.3488   0.4608   0.4675
  0.4684   0.5042   0.5121   0.5185   0.5486   0.5671   0.5812   0.5902
  0.6015   0.6328   0.6351   0.6532   0.6640   0.6654   0.7108   0.7250
  0.7255   0.7694   0.8226   0.8379   0.8693   0.8812   0.9076   0.9626
  0.9973   1.0327   1.0634   1.1300   1.1595   1.1680   1.1870   1.2079
  1.2361   1.2383   1.2752   1.2804   1.2860   1.2988   1.3283   1.3617
  1.3802   1.4070   1.4319   1.4452   1.4534   1.4694   1.4809   1.5005
  1.5302   1.5600   1.6052   1.6240   1.6388   1.6474   1.6807   1.6813
  1.7463   2.3936   2.4433   2.4833   2.5166   2.5367   2.5739   2.6136
  2.6355   2.7158   2.8035   2.8276   2.8523   2.9048   2.9260   2.9296
  2.9371   2.9477   2.9952   3.0079   3.0570   3.0660   3.0784   3.1098
  3.1358   3.1543   3.1729   3.1749   3.2273   3.2394   3.2861   3.2946
  3.2998   3.3234   3.3317   3.3557   3.3886   3.3990   3.4104   3.4256
  3.4658   3.4876   3.4982   3.5345   3.5636   3.5651   3.6031   3.6104
  3.6542   3.6556   3.6839   3.7200   3.7456   3.8186   3.8192   3.8782
  3.8969   3.9330   3.9568   3.9679   4.0086   4.0240   4.0310   4.0571
  4.0774   4.0997   4.1138   4.1359   4.1660   4.1731   4.1937   4.2284
  4.2341   4.2432   4.3204   4.3651   4.3747   4.3970   4.4452   4.4518
  4.4704   4.5841   4.5932   4.5967   4.6741   4.8065   4.8477   4.8732
  4.9141   4.9144   4.9558   4.9573   4.9894   5.0420   5.0994   5.1328
  5.1420   5.2320   5.2434   5.2843   5.3039   5.3411   5.3496   5.3674
  5.3836   5.3903   5.4865   5.5230   5.5716   5.5897   5.6937   5.7592
  5.9652   6.3869   6.4004   6.4061   6.4259   6.4711  25.1963  25.4319
 25.4608
 --------------------------------------------------------------
 
 -----------------------------------------------------------------
                    Cartesian Multipole Moments
 -----------------------------------------------------------------
    Charge (ESU x 10^10)
                 0.0000
    Dipole Moment (Debye)
         X      -0.0774      Y      -0.0000      Z      -0.0839
       Tot       0.1141
    Quadrupole Moments (Debye-Ang)
        XX     -22.1252     XY      -0.0000     YY     -21.4150
        XZ      -0.0627     YZ      -0.0000     ZZ     -21.8819
    Octopole Moments (Debye-Ang^2)
       XXX       0.3861    XXY      -0.0000    XYY      -1.0424
       YYY      -0.0000    XXZ      -1.3680    XYZ       0.0000
       YYZ       0.4843    XZZ      -1.2550    YZZ      -0.0000
       ZZZ      -0.3301
    Hexadecapole Moments (Debye-Ang^3)
      XXXX    -200.9778   XXXY      -0.0000   XXYY     -42.1633
      XYYY      -0.0000   YYYY     -44.0855   XXXZ       1.2573
      XXYZ      -0.0000   XYYZ       0.4591   YYYZ       0.0000
      XXZZ     -45.2938   XYZZ      -0.0000   YYZZ     -17.1495
      XZZZ       2.4594   YZZZ      -0.0000   ZZZZ     -72.3594
 -----------------------------------------------------------------
Archival summary:
1\1\centos77-c1\SP\ProcedureUnspecified\BasisUnspecified\38\shihchen\ThuJul204:52:232020ThuJul204:52:232020\0\\#,ProcedureUnspecified,BasisUnspecified,\\0,1\C\H,1,1.09259\H,1,1.09259,2,105.909\C,1,1.50279,2,112.888,3,-124.009,0\H,4,1.08864,1,122.222,2,60.0395,0\H,4,1.0927,1,105.331,2,-174.988,0\H,4,1.0927,1,105.331,2,-64.9334,0\C,1,1.5453,2,106.004,3,112.333,0\H,8,1.09103,1,115.82,2,59.0311,0\H,8,1.09103,1,115.82,2,-171.298,0\H,8,1.0923,1,101.287,2,-56.1333,0\\\@

 Total job time:  27.62s(wall), 74.34s(cpu) 
 Thu Jul  2 04:52:23 2020

        *************************************************************
        *                                                           *
        *  Thank you very much for using Q-Chem.  Have a nice day.  *
        *                                                           *
        *************************************************************


