                  Welcome to Q-Chem
     A Quantum Leap Into The Future Of Chemistry


 Q-Chem 5.3 (devel), Q-Chem, Inc., Pleasanton, CA (2020)

 Yihan Shao,  Zhengting Gan,  E. Epifanovsky,  A. T. B. Gilbert,  M. Wormit,  
 J. Kussmann,  A. W. Lange,  A. Behn,  Jia Deng,  Xintian Feng,  D. Ghosh,  
 M. Goldey,  P. R. Horn,  L. D. Jacobson,  I. Kaliman,  T. Kus,  A. Landau,  
 Jie Liu,  E. I. Proynov,  R. M. Richard,  R. P. Steele,  E. J. Sundstrom,  
 H. L. Woodcock III,  P. M. Zimmerman,  D. Zuev,  B. Alam,  B. Albrecht,  
 E. Alguire,  S. A. Baeppler,  D. Barton,  Z. Benda,  Y. A. Bernard,  
 E. J. Berquist,  K. B. Bravaya,  H. Burton,  K. Carter-Fenk,  D. Casanova,  
 Chun-Min Chang,  Yunqing Chen,  A. Chien,  K. D. Closser,  M. P. Coons,  
 S. Coriani,  S. Dasgupta,  A. L. Dempwolff,  M. Diedenhofen,  Hainam Do,  
 R. G. Edgar,  Po-Tung Fang,  S. Faraji,  S. Fatehi,  Qingguo Feng,  
 J. Fosso-Tande,  J. Gayvert,  Qinghui Ge,  A. Ghysels,  G. Gidofalvi,  
 J. Gomes,  J. Gonthier,  A. Gunina,  D. Hait,  M. W. D. Hanson-Heine,  
 P. H. P. Harbach,  A. W. Hauser,  M. F. Herbst,  J. E. Herr,  
 E. G. Hohenstein,  Z. C. Holden,  Kerwin Hui,  B. C. Huynh,  T.-C. Jagau,  
 Hyunjun Ji,  B. Kaduk,  K. Khistyaev,  Jaehoon Kim,  P. Klunzinger,  K. Koh,  
 D. Kosenkov,  L. Koulias,  T. Kowalczyk,  C. M. Krauter,  A. Kunitsa,  
 Ka Un Lao,  A. Laurent,  K. V. Lawler,  Joonho Lee,  D. Lefrancois,  
 S. Lehtola,  D. S. Levine,  Yi-Pei Li,  You-Sheng Lin,  Fenglai Liu,  
 Kuan-Yu Liu,  E. Livshits,  M. Loipersberger,  A. Luenser,  P. Manohar,  
 E. Mansoor,  S. F. Manzer,  Shan-Ping Mao,  Yuezhi Mao,  N. Mardirossian,  
 A. V. Marenich,  T. Markovich,  L. A. Martinez-Martinez,  S. A. Maurer,  
 N. J. Mayhall,  S. C. McKenzie,  J.-M. Mewes,  P. Morgante,  A. F. Morrison,  
 J. W. Mullinax,  K. Nanda,  T. S. Nguyen-Beck,  R. Olivares-Amaya,  
 K. J. Oosterbaan,  J. A. Parkhill,  S. K. Paul,  F. Pavosevic,  Zheng Pei,  
 T. M. Perrine,  F. Plasser,  P. Pokhilko,  S. Prager,  A. Prociuk,  
 E. Ramos,  B. Rana,  D. R. Rehn,  F. Rob,  M. Scheurer,  M. Schneider,  
 N. Sergueev,  S. M. Sharada,  S. Sharma,  D. W. Small,  T. Stauch,  
 C. J. Stein,  T. Stein,  Yu-Chuan Su,  S. P. Veccham,  Zhen Tao,  
 A. J. W. Thom,  A. Tkatchenko,  T. Tsuchimochi,  N. M. Tubman,  L. Vogt,  
 M. L. Vidal,  O. Vydrov,  M. A. Watson,  J. Wenzel,  M. de Wergifosse,  
 T. A. Wesolowski,  A. White,  J. Witte,  A. Yamada,  Jun Yang,  K. Yao,  
 S. Yeganeh,  S. R. Yost,  Zhi-Qiang You,  A. Zech,  Igor Ying Zhang,  
 Xing Zhang,  Yan Zhao,  Ying Zhu,  B. R. Brooks,  G. K. L. Chan,  
 C. J. Cramer,  M. S. Gordon,  W. J. Hehre,  A. Klamt,  M. W. Schmidt,  
 C. D. Sherrill,  D. G. Truhlar,  A. Aspuru-Guzik,  R. Baer,  A. T. Bell,  
 N. A. Besley,  Jeng-Da Chai,  A. E. DePrince, III,  R. A. DiStasio Jr.,  
 A. Dreuw,  B. D. Dunietz,  T. R. Furlani,  Chao-Ping Hsu,  Yousung Jung,  
 Jing Kong,  D. S. Lambrecht,  WanZhen Liang,  C. Ochsenfeld,  
 V. A. Rassolov,  L. V. Slipchenko,  J. E. Subotnik,  T. Van Voorhis,  
 J. M. Herbert,  A. I. Krylov,  P. M. W. Gill,  M. Head-Gordon

 Contributors to earlier versions of Q-Chem not listed above: 
 R. D. Adamson,  B. Austin,  J. Baker,  G. J. O. Beran,  K. Brandhorst,  
 S. T. Brown,  E. F. C. Byrd,  A. K. Chakraborty,  C.-L. Cheng,  
 Siu Hung Chien,  D. M. Chipman,  D. L. Crittenden,  H. Dachsel,  
 R. J. Doerksen,  A. D. Dutoi,  L. Fusti-Molnar,  W. A. Goddard III,  
 A. Golubeva-Zadorozhnaya,  S. R. Gwaltney,  G. Hawkins,  A. Heyden,  
 S. Hirata,  G. Kedziora,  F. J. Keil,  C. Kelley,  Jihan Kim,  R. A. King,  
 R. Z. Khaliullin,  P. P. Korambath,  W. Kurlancheek,  A. M. Lee,  M. S. Lee,  
 S. V. Levchenko,  Ching Yeh Lin,  D. Liotard,  R. C. Lochan,  I. Lotan,  
 P. E. Maslen,  N. Nair,  D. P. O'Neill,  D. Neuhauser,  E. Neuscamman,  
 C. M. Oana,  R. Olson,  B. Peters,  R. Peverati,  P. A. Pieniazek,  
 Y. M. Rhee,  J. Ritchie,  M. A. Rohrdanz,  E. Rosta,  N. J. Russ,  
 H. F. Schaefer III,  N. E. Schultz,  N. Shenvi,  A. C. Simmonett,  A. Sodt,  
 D. Stuck,  K. S. Thanthiriwatte,  V. Vanovschi,  Tao Wang,  A. Warshel,  
 C. F. Williams,  Q. Wu,  X. Xu,  W. Zhang

 Please cite Q-Chem as follows:
 Y. Shao et al., Mol. Phys. 113, 184-215 (2015)
 DOI: 10.1080/00268976.2014.952696

 Q-Chem 5.3.0 for Intel X86 EM64T Linux

 Parts of Q-Chem use Armadillo 9.800.1 (Horizon Scraper).
 http://arma.sourceforge.net/

 Q-Chem begins on Tue Jul  7 01:39:26 2020  

Host: centos77-c4
0

     Scratch files written to /tmp/26963.centos77-h1/qchem102559//
Processing $rem in /opt/qchem-5.3.0-intel2020u1//config/preferences:
Processing $rem in /home/shihchengli/.qchemrc:

Checking the input file for inconsistencies... 	...done.

--------------------------------------------------------------
User input:
--------------------------------------------------------------
$rem
   JOBTYPE  sp
   EXCHANGE   omegaB97X-D
   BASIS   6-311+G(2df,2pd)
   UNRESTRICTED   False
   max_scf_cycles   250
   geom_opt_max_cycles   1500
   basis2 6-31G*
   scf_algorithm rca_diis
   SYM_IGNORE  TRUE
   print_input   true
   geom_opt_dmax   80
   pop_mulliken false
   XC_GRID 000075000302
$end

$molecule
0 1
C       1.2100892718     -0.0000001288     0.1597146192
C       -0.0000006941     -0.0000001994     -0.6404266377
H       1.5095282706     -0.7502277262     0.9043317060
H       1.5095280832     0.7502276224     0.9043316041
H       2.2493802254     -0.0000001879     -0.1920519945
C       -1.2100913523     0.0000000683     0.1597154680
H       -0.0000001276     -0.8776454477     -1.2855899292
H       -0.0000010043     0.8776453033     -1.2855895312
H       -1.5095254542     -0.7502286037     0.9043332609
H       -2.2493802287     0.0000014521     -0.1920562648
H       -1.5095270506     0.7502285137     0.9043327182
$end
--------------------------------------------------------------
 ----------------------------------------------------------------
             Standard Nuclear Orientation (Angstroms)
    I     Atom           X                Y                Z
 ----------------------------------------------------------------
    1      C       1.2100892718    -0.0000001288     0.1597146192
    2      C      -0.0000006941    -0.0000001994    -0.6404266377
    3      H       1.5095282706    -0.7502277262     0.9043317060
    4      H       1.5095280832     0.7502276224     0.9043316041
    5      H       2.2493802254    -0.0000001879    -0.1920519945
    6      C      -1.2100913523     0.0000000683     0.1597154680
    7      H      -0.0000001276    -0.8776454477    -1.2855899292
    8      H      -0.0000010043     0.8776453033    -1.2855895312
    9      H      -1.5095254542    -0.7502286037     0.9043332609
   10      H      -2.2493802287     0.0000014521    -0.1920562648
   11      H      -1.5095270506     0.7502285137     0.9043327182
 ----------------------------------------------------------------
 Nuclear Repulsion Energy =          83.90325387 hartrees
 There are       13 alpha and       13 beta electrons
 Requested basis set is 6-311+G(2df,2pd)
 There are 72 shells and 214 basis functions

 Total QAlloc Memory Limit   2000 MB
 Mega-Array Size       188 MB
 MEM_STATIC part       192 MB

                       Distance Matrix (Angstroms)
             C (  1)   C (  2)   H (  3)   H (  4)   H (  5)   C (  6)
   C (  2)  1.450705
   H (  3)  1.098617  2.286438
   H (  4)  1.098617  2.286438  1.500455
   H (  5)  1.097208  2.293633  1.520618  1.520618
   C (  6)  2.420181  1.450706  2.917812  2.917812  3.477310
   H (  7)  2.079299  1.089264  2.662831  3.118397  2.650622  2.079300
   H (  8)  2.079299  1.089264  3.118398  2.662831  2.650623  2.079299
   H (  9)  2.917808  2.286436  3.019054  3.371358  3.986762  1.098617
   H ( 10)  3.477308  2.293631  3.986766  3.986765  4.498760  1.097208
   H ( 11)  2.917809  2.286437  3.371359  3.019055  3.986764  1.098617
             H (  7)   H (  8)   H (  9)   H ( 10)
   H (  8)  1.755291
   H (  9)  2.662830  3.118397
   H ( 10)  2.650621  2.650619  1.520625
   H ( 11)  3.118398  2.662830  1.500457  1.520622
 
 A cutoff of  1.0D-09 yielded   2506 shell pairs
 There are     22392 function pairs (     27557 Cartesian)
 Smallest overlap matrix eigenvalue = 7.85E-05

 Scale SEOQF with 1.000000e-01/1.000000e-01/1.000000e-01

 Standard Electronic Orientation quadrupole field applied
 Nucleus-field energy     =     0.0000000006 hartrees
 Requested basis set is 6-31G(d)
 There are 28 shells and 58 basis functions
 A cutoff of  1.0D-09 yielded    402 shell pairs
 There are      1773 function pairs (      1968 Cartesian)
 Smallest overlap matrix eigenvalue = 6.99E-03
 Guess from superposition of atomic densities
 Warning:  Energy on first SCF cycle will be non-variational
 SAD guess density has 26.000000 electrons
 Long-range K will be added via erf
 Coulomb attenuation parameter = 0.2 bohr**(-1)
 A restricted hybrid HF-DFT SCF calculation will be
 performed using Relaxed Constraint Minimization + Pulay DIIS
 Exchange:     0.2220 Hartree-Fock + 1.0000 wB97X-D + LR-HF
 Correlation:  1.0000 wB97X-D
 Using Euler-Maclaurin-Lebedev (75,302) quadrature formula
 Dispersion:   Grimme D
 SCF converges when DIIS error is below 1.0E-04
 using 3 threads for integral computing
 -------------------------------------------------------
 OpenMP Integral computing Module                
 Release: version 1.0, May 2013, Q-Chem Inc. Pittsburgh 
 -------------------------------------------------------
 using 3 threads for integral computing
 -------------------------------------------------------
 OpenMP Integral computing Module                
 Release: version 1.0, May 2013, Q-Chem Inc. Pittsburgh 
 -------------------------------------------------------
 ---------------------------------------
  Cycle       Energy         DIIS Error
 ---------------------------------------
    1    -119.8366039308      1.07E-01
    2    -118.9819460551      9.67E-03
    3    -119.0048893044      2.33E-03
    4    -119.0231019612      1.52E-03
    5    -119.0236441438      1.90E-04 Done RCA. Switching to DIIS
    6    -119.0241135047      1.23E-04
    7    -119.0241206827      5.43E-06 Convergence criterion met
 ---------------------------------------
 SCF time:  CPU 19.94 s  wall 7.28 s
 SCF   energy in the small basis set = -119.02412068
 Total energy in the small basis set = -119.02412068
 ----------------------------------------------------
  Cycle       Energy    
 ----------------------------------------------------
    1     -16.5707570794     -1.66E+01
 Long-range K will be added via erf
 Coulomb attenuation parameter = 0.2 bohr**(-1)
 A restricted hybrid HF-DFT SCF calculation will be
 performed using Relaxed Constraint Minimization + Pulay DIIS
 Exchange:     0.2220 Hartree-Fock + 1.0000 wB97X-D + LR-HF
 Correlation:  1.0000 wB97X-D
 Using Euler-Maclaurin-Lebedev (75,302) quadrature formula
 Dispersion:   Grimme D
 SCF converges when DIIS error is below 1.0E-05
 Basis2 calculation detected. Using small basis as guess for larger.
 SCFMinFind is unable to tell whether the solution found is close.
 Resetting ReadMinima to 0 and attempting to follow guess.
 SCFMinFind following SCF Guess.
 using 3 threads for integral computing
 -------------------------------------------------------
 OpenMP Integral computing Module                
 Release: version 1.0, May 2013, Q-Chem Inc. Pittsburgh 
 -------------------------------------------------------
 using 3 threads for integral computing
 -------------------------------------------------------
 OpenMP Integral computing Module                
 Release: version 1.0, May 2013, Q-Chem Inc. Pittsburgh 
 -------------------------------------------------------
 ---------------------------------------
  Cycle       Energy         DIIS Error
 ---------------------------------------
    1    -119.0490362591      4.20E-03
    2    -119.0706759473      6.05E-04 Done RCA. Switching to DIIS
    3    -119.0713859459      4.49E-04
    4    -119.0724752436      5.78E-05
    5    -119.0724971376      1.20E-05
    6    -119.0724981369      4.37E-06 Convergence criterion met
 ---------------------------------------
 SCF time:  CPU 50.66 s  wall 17.19 s
 SCF   energy in the final basis set = -119.07249814
 Total energy in the final basis set = -119.07249814
 
 --------------------------------------------------------------
 
                    Orbital Energies (a.u.)
 --------------------------------------------------------------
 
 Alpha MOs
 -- Occupied --
-10.2860 -10.2637 -10.2637  -0.9007  -0.7962  -0.7162  -0.5424  -0.5362
 -0.5234  -0.4263  -0.4134  -0.4110  -0.3855
 -- Virtual --
  0.0634   0.0768   0.0894   0.1042   0.1259   0.1278   0.1378   0.1405
  0.1505   0.1703   0.1740   0.1992   0.2269   0.2294   0.2297   0.2664
  0.2704   0.2915   0.2963   0.3210   0.3314   0.3907   0.4517   0.4686
  0.4889   0.5121   0.5156   0.5484   0.5668   0.5789   0.5837   0.5918
  0.6409   0.6431   0.6620   0.6623   0.6647   0.6716   0.7061   0.7164
  0.7258   0.7809   0.8170   0.8186   0.8303   0.8903   0.9033   0.9948
  1.0389   1.0398   1.0581   1.0790   1.0837   1.1790   1.2266   1.2414
  1.2713   1.2792   1.2832   1.2856   1.3105   1.3215   1.3358   1.3479
  1.3650   1.4331   1.4594   1.4653   1.4676   1.5058   1.5254   1.5462
  1.5649   1.5913   1.5999   1.6350   1.6680   1.7021   1.7730   1.8016
  1.8735   2.4139   2.4403   2.4497   2.4732   2.5286   2.5333   2.6055
  2.6127   2.7368   2.7568   2.7709   2.7832   2.7974   2.8377   2.8899
  2.9256   2.9473   2.9674   3.0860   3.0935   3.1106   3.1231   3.1277
  3.1556   3.1595   3.1622   3.1962   3.1982   3.2007   3.2052   3.2748
  3.2823   3.3848   3.4014   3.4441   3.4542   3.4965   3.4996   3.5127
  3.5202   3.5352   3.5391   3.5632   3.5640   3.5686   3.6015   3.6319
  3.6512   3.6678   3.6826   3.7039   3.7153   3.7452   3.7509   3.7827
  3.8159   3.8727   3.8821   3.9194   3.9337   4.0164   4.0721   4.0817
  4.0836   4.1092   4.2084   4.2421   4.2461   4.2798   4.2885   4.2950
  4.3207   4.3255   4.3585   4.3643   4.3699   4.4402   4.4531   4.4577
  4.4813   4.5519   4.6084   4.6205   4.6742   4.7138   4.7549   4.8181
  4.9049   4.9683   4.9769   5.0085   5.0237   5.0668   5.0718   5.0730
  5.1667   5.2083   5.2201   5.2485   5.3949   5.4961   5.5235   5.5296
  5.6056   5.6224   5.6428   5.7208   5.7549   5.7701   5.8768   6.1265
  6.1746   6.4287   6.4494   6.4531   6.5276   6.5504  25.3052  25.4732
 25.4840
 --------------------------------------------------------------
 
 -----------------------------------------------------------------
                    Cartesian Multipole Moments
 -----------------------------------------------------------------
    Charge (ESU x 10^10)
                -0.0000
    Dipole Moment (Debye)
         X       0.0000      Y       0.0000      Z       0.0837
       Tot       0.0837
    Quadrupole Moments (Debye-Ang)
        XX     -20.3558     XY      -0.0000     YY     -22.5361
        XZ       0.0000     YZ      -0.0000     ZZ     -21.6173
    Octopole Moments (Debye-Ang^2)
       XXX       0.0001    XXY       0.0000    XYY       0.0000
       YYY       0.0000    XXZ       4.9832    XYZ       0.0000
       YYZ       0.1323    XZZ      -0.0000    YZZ      -0.0000
       ZZZ       2.7249
    Hexadecapole Moments (Debye-Ang^3)
      XXXX    -193.6358   XXXY      -0.0000   XXYY     -44.2175
      XYYY       0.0000   YYYY     -43.5652   XXXZ       0.0001
      XXYZ       0.0000   XYYZ      -0.0000   YYYZ      -0.0000
      XXZZ     -44.6137   XYZZ       0.0000   YYZZ     -17.0854
      XZZZ      -0.0000   YZZZ      -0.0000   ZZZZ     -70.4572
 -----------------------------------------------------------------
Archival summary:
1\1\centos77-c4\SP\ProcedureUnspecified\BasisUnspecified\38\shihchen\TueJul701:39:532020TueJul701:39:532020\0\\#,ProcedureUnspecified,BasisUnspecified,\\0,1\C\H,1,1.08926\H,1,1.08926,2,107.36\C,1,1.4507,2,109.067,3,118.047,0\H,4,1.09721,1,127.827,2,-58.4842,0\H,4,1.09862,1,126.955,2,62.8054,0\H,4,1.09862,1,126.955,2,-179.774,0\C,1,1.45071,2,109.067,3,-118.047,0\H,8,1.09721,1,127.827,2,58.4841,0\H,8,1.09862,1,126.955,2,-62.8055,0\H,8,1.09862,1,126.954,2,179.774,0\\\@

 Total job time:  27.33s(wall), 74.18s(cpu) 
 Tue Jul  7 01:39:53 2020

        *************************************************************
        *                                                           *
        *  Thank you very much for using Q-Chem.  Have a nice day.  *
        *                                                           *
        *************************************************************


