                  Welcome to Q-Chem
     A Quantum Leap Into The Future Of Chemistry


 Q-Chem 5.3 (devel), Q-Chem, Inc., Pleasanton, CA (2020)

 Yihan Shao,  Zhengting Gan,  E. Epifanovsky,  A. T. B. Gilbert,  M. Wormit,  
 J. Kussmann,  A. W. Lange,  A. Behn,  Jia Deng,  Xintian Feng,  D. Ghosh,  
 M. Goldey,  P. R. Horn,  L. D. Jacobson,  I. Kaliman,  T. Kus,  A. Landau,  
 Jie Liu,  E. I. Proynov,  R. M. Richard,  R. P. Steele,  E. J. Sundstrom,  
 H. L. Woodcock III,  P. M. Zimmerman,  D. Zuev,  B. Alam,  B. Albrecht,  
 E. Alguire,  S. A. Baeppler,  D. Barton,  Z. Benda,  Y. A. Bernard,  
 E. J. Berquist,  K. B. Bravaya,  H. Burton,  K. Carter-Fenk,  D. Casanova,  
 Chun-Min Chang,  Yunqing Chen,  A. Chien,  K. D. Closser,  M. P. Coons,  
 S. Coriani,  S. Dasgupta,  A. L. Dempwolff,  M. Diedenhofen,  Hainam Do,  
 R. G. Edgar,  Po-Tung Fang,  S. Faraji,  S. Fatehi,  Qingguo Feng,  
 J. Fosso-Tande,  J. Gayvert,  Qinghui Ge,  A. Ghysels,  G. Gidofalvi,  
 J. Gomes,  J. Gonthier,  A. Gunina,  D. Hait,  M. W. D. Hanson-Heine,  
 P. H. P. Harbach,  A. W. Hauser,  M. F. Herbst,  J. E. Herr,  
 E. G. Hohenstein,  Z. C. Holden,  Kerwin Hui,  B. C. Huynh,  T.-C. Jagau,  
 Hyunjun Ji,  B. Kaduk,  K. Khistyaev,  Jaehoon Kim,  P. Klunzinger,  K. Koh,  
 D. Kosenkov,  L. Koulias,  T. Kowalczyk,  C. M. Krauter,  A. Kunitsa,  
 Ka Un Lao,  A. Laurent,  K. V. Lawler,  Joonho Lee,  D. Lefrancois,  
 S. Lehtola,  D. S. Levine,  Yi-Pei Li,  You-Sheng Lin,  Fenglai Liu,  
 Kuan-Yu Liu,  E. Livshits,  M. Loipersberger,  A. Luenser,  P. Manohar,  
 E. Mansoor,  S. F. Manzer,  Shan-Ping Mao,  Yuezhi Mao,  N. Mardirossian,  
 A. V. Marenich,  T. Markovich,  L. A. Martinez-Martinez,  S. A. Maurer,  
 N. J. Mayhall,  S. C. McKenzie,  J.-M. Mewes,  P. Morgante,  A. F. Morrison,  
 J. W. Mullinax,  K. Nanda,  T. S. Nguyen-Beck,  R. Olivares-Amaya,  
 K. J. Oosterbaan,  J. A. Parkhill,  S. K. Paul,  F. Pavosevic,  Zheng Pei,  
 T. M. Perrine,  F. Plasser,  P. Pokhilko,  S. Prager,  A. Prociuk,  
 E. Ramos,  B. Rana,  D. R. Rehn,  F. Rob,  M. Scheurer,  M. Schneider,  
 N. Sergueev,  S. M. Sharada,  S. Sharma,  D. W. Small,  T. Stauch,  
 C. J. Stein,  T. Stein,  Yu-Chuan Su,  S. P. Veccham,  Zhen Tao,  
 A. J. W. Thom,  A. Tkatchenko,  T. Tsuchimochi,  N. M. Tubman,  L. Vogt,  
 M. L. Vidal,  O. Vydrov,  M. A. Watson,  J. Wenzel,  M. de Wergifosse,  
 T. A. Wesolowski,  A. White,  J. Witte,  A. Yamada,  Jun Yang,  K. Yao,  
 S. Yeganeh,  S. R. Yost,  Zhi-Qiang You,  A. Zech,  Igor Ying Zhang,  
 Xing Zhang,  Yan Zhao,  Ying Zhu,  B. R. Brooks,  G. K. L. Chan,  
 C. J. Cramer,  M. S. Gordon,  W. J. Hehre,  A. Klamt,  M. W. Schmidt,  
 C. D. Sherrill,  D. G. Truhlar,  A. Aspuru-Guzik,  R. Baer,  A. T. Bell,  
 N. A. Besley,  Jeng-Da Chai,  A. E. DePrince, III,  R. A. DiStasio Jr.,  
 A. Dreuw,  B. D. Dunietz,  T. R. Furlani,  Chao-Ping Hsu,  Yousung Jung,  
 Jing Kong,  D. S. Lambrecht,  WanZhen Liang,  C. Ochsenfeld,  
 V. A. Rassolov,  L. V. Slipchenko,  J. E. Subotnik,  T. Van Voorhis,  
 J. M. Herbert,  A. I. Krylov,  P. M. W. Gill,  M. Head-Gordon

 Contributors to earlier versions of Q-Chem not listed above: 
 R. D. Adamson,  B. Austin,  J. Baker,  G. J. O. Beran,  K. Brandhorst,  
 S. T. Brown,  E. F. C. Byrd,  A. K. Chakraborty,  C.-L. Cheng,  
 Siu Hung Chien,  D. M. Chipman,  D. L. Crittenden,  H. Dachsel,  
 R. J. Doerksen,  A. D. Dutoi,  L. Fusti-Molnar,  W. A. Goddard III,  
 A. Golubeva-Zadorozhnaya,  S. R. Gwaltney,  G. Hawkins,  A. Heyden,  
 S. Hirata,  G. Kedziora,  F. J. Keil,  C. Kelley,  Jihan Kim,  R. A. King,  
 R. Z. Khaliullin,  P. P. Korambath,  W. Kurlancheek,  A. M. Lee,  M. S. Lee,  
 S. V. Levchenko,  Ching Yeh Lin,  D. Liotard,  R. C. Lochan,  I. Lotan,  
 P. E. Maslen,  N. Nair,  D. P. O'Neill,  D. Neuhauser,  E. Neuscamman,  
 C. M. Oana,  R. Olson,  B. Peters,  R. Peverati,  P. A. Pieniazek,  
 Y. M. Rhee,  J. Ritchie,  M. A. Rohrdanz,  E. Rosta,  N. J. Russ,  
 H. F. Schaefer III,  N. E. Schultz,  N. Shenvi,  A. C. Simmonett,  A. Sodt,  
 D. Stuck,  K. S. Thanthiriwatte,  V. Vanovschi,  Tao Wang,  A. Warshel,  
 C. F. Williams,  Q. Wu,  X. Xu,  W. Zhang

 Please cite Q-Chem as follows:
 Y. Shao et al., Mol. Phys. 113, 184-215 (2015)
 DOI: 10.1080/00268976.2014.952696

 Q-Chem 5.3.0 for Intel X86 EM64T Linux

 Parts of Q-Chem use Armadillo 9.800.1 (Horizon Scraper).
 http://arma.sourceforge.net/

 Q-Chem begins on Tue Jul  7 00:45:13 2020  

Host: centos77-c4
0

     Scratch files written to /tmp/26963.centos77-h1/qchem91889//
Processing $rem in /opt/qchem-5.3.0-intel2020u1//config/preferences:
Processing $rem in /home/shihchengli/.qchemrc:

Checking the input file for inconsistencies... 	...done.

--------------------------------------------------------------
User input:
--------------------------------------------------------------
$rem
   JOBTYPE  sp
   EXCHANGE   omegaB97X-D
   BASIS   6-311+G(2df,2pd)
   UNRESTRICTED   False
   max_scf_cycles   250
   geom_opt_max_cycles   1500
   basis2 6-31G*
   scf_algorithm rca_diis
   SYM_IGNORE  TRUE
   print_input   true
   geom_opt_dmax   80
   pop_mulliken false
   XC_GRID 000075000302
$end

$molecule
0 1
C       1.5116003444     -0.0000007383     0.2669842394
C       -0.0000001841     0.0000032180     -0.1125375663
H       1.9037343933     -0.8854539577     0.7676271645
H       1.9037414458     0.8854491180     0.7676275568
H       1.9219543694     -0.0000043875     -0.7482098049
C       -1.5116007576     0.0000011541     0.2669837500
H       0.0000011212     -0.8309256061     -0.8272400737
H       -0.0000003749     0.8309361404     -0.8272353350
H       -1.9037338304     -0.8854481611     0.7676343043
H       -1.9219553424     -0.0000110996     -0.7482097240
H       -1.9037412453     0.8854549858     0.7676205077
$end
--------------------------------------------------------------
 ----------------------------------------------------------------
             Standard Nuclear Orientation (Angstroms)
    I     Atom           X                Y                Z
 ----------------------------------------------------------------
    1      C       1.5116003444    -0.0000007383     0.2669842394
    2      C      -0.0000001841     0.0000032180    -0.1125375663
    3      H       1.9037343933    -0.8854539577     0.7676271645
    4      H       1.9037414458     0.8854491180     0.7676275568
    5      H       1.9219543694    -0.0000043875    -0.7482098049
    6      C      -1.5116007576     0.0000011541     0.2669837500
    7      H       0.0000011212    -0.8309256061    -0.8272400737
    8      H      -0.0000003749     0.8309361404    -0.8272353350
    9      H      -1.9037338304    -0.8854481611     0.7676343043
   10      H      -1.9219553424    -0.0000110996    -0.7482097240
   11      H      -1.9037412453     0.8854549858     0.7676205077
 ----------------------------------------------------------------
 Nuclear Repulsion Energy =          80.11386110 hartrees
 There are       13 alpha and       13 beta electrons
 Requested basis set is 6-311+G(2df,2pd)
 There are 72 shells and 214 basis functions

 Total QAlloc Memory Limit   2000 MB
 Mega-Array Size       188 MB
 MEM_STATIC part       192 MB

                       Distance Matrix (Angstroms)
             C (  1)   C (  2)   H (  3)   H (  4)   H (  5)   C (  6)
   C (  2)  1.558516
   H (  3)  1.090156  2.276605
   H (  4)  1.090156  2.276607  1.770903
   H (  5)  1.094993  2.024349  1.755595  1.755597
   C (  6)  3.023201  1.558516  3.563592  3.563597  3.580491
   H (  7)  2.042718  1.096012  2.484105  3.018902  2.095371  2.042720
   H (  8)  2.042721  1.096012  3.018905  2.484108  2.095380  2.042720
   H (  9)  3.563590  2.276605  3.807468  4.199160  4.209238  1.090156
   H ( 10)  3.580492  2.024349  4.209237  4.209247  3.843910  1.094993
   H ( 11)  3.563597  2.276606  4.199165  3.807483  4.209243  1.090156
             H (  7)   H (  8)   H (  9)   H ( 10)
   H (  8)  1.661862
   H (  9)  2.484110  3.018905
   H ( 10)  2.095371  2.095383  1.755595
   H ( 11)  3.018903  2.484103  1.770903  1.755598
 
 A cutoff of  1.0D-09 yielded   2463 shell pairs
 There are     21796 function pairs (     26771 Cartesian)
 Smallest overlap matrix eigenvalue = 7.92E-05

 Scale SEOQF with 1.000000e-01/1.000000e-01/1.000000e-01

 Standard Electronic Orientation quadrupole field applied
 Nucleus-field energy     =     0.0000000015 hartrees
 Requested basis set is 6-31G(d)
 There are 28 shells and 58 basis functions
 A cutoff of  1.0D-09 yielded    391 shell pairs
 There are      1754 function pairs (      1947 Cartesian)
 Smallest overlap matrix eigenvalue = 7.22E-03
 Guess from superposition of atomic densities
 Warning:  Energy on first SCF cycle will be non-variational
 SAD guess density has 26.000000 electrons
 Long-range K will be added via erf
 Coulomb attenuation parameter = 0.2 bohr**(-1)
 A restricted hybrid HF-DFT SCF calculation will be
 performed using Relaxed Constraint Minimization + Pulay DIIS
 Exchange:     0.2220 Hartree-Fock + 1.0000 wB97X-D + LR-HF
 Correlation:  1.0000 wB97X-D
 Using Euler-Maclaurin-Lebedev (75,302) quadrature formula
 Dispersion:   Grimme D
 SCF converges when DIIS error is below 1.0E-04
 using 3 threads for integral computing
 -------------------------------------------------------
 OpenMP Integral computing Module                
 Release: version 1.0, May 2013, Q-Chem Inc. Pittsburgh 
 -------------------------------------------------------
 using 3 threads for integral computing
 -------------------------------------------------------
 OpenMP Integral computing Module                
 Release: version 1.0, May 2013, Q-Chem Inc. Pittsburgh 
 -------------------------------------------------------
 ---------------------------------------
  Cycle       Energy         DIIS Error
 ---------------------------------------
    1    -119.5701345939      9.88E-02
    2    -119.0218107465      8.21E-03
    3    -119.0402935437      2.68E-03
    4    -119.0511746122      1.86E-03
    5    -119.0520411394      3.16E-04 Done RCA. Switching to DIIS
    6    -119.0526588208      2.41E-04
    7    -119.0526841536      4.41E-06 Convergence criterion met
 ---------------------------------------
 SCF time:  CPU 21.21 s  wall 8.16 s
 SCF   energy in the small basis set = -119.05268415
 Total energy in the small basis set = -119.05268415
 ----------------------------------------------------
  Cycle       Energy    
 ----------------------------------------------------
    1     -16.5109887427     -1.65E+01
 Long-range K will be added via erf
 Coulomb attenuation parameter = 0.2 bohr**(-1)
 A restricted hybrid HF-DFT SCF calculation will be
 performed using Relaxed Constraint Minimization + Pulay DIIS
 Exchange:     0.2220 Hartree-Fock + 1.0000 wB97X-D + LR-HF
 Correlation:  1.0000 wB97X-D
 Using Euler-Maclaurin-Lebedev (75,302) quadrature formula
 Dispersion:   Grimme D
 SCF converges when DIIS error is below 1.0E-05
 Basis2 calculation detected. Using small basis as guess for larger.
 SCFMinFind is unable to tell whether the solution found is close.
 Resetting ReadMinima to 0 and attempting to follow guess.
 SCFMinFind following SCF Guess.
 using 3 threads for integral computing
 -------------------------------------------------------
 OpenMP Integral computing Module                
 Release: version 1.0, May 2013, Q-Chem Inc. Pittsburgh 
 -------------------------------------------------------
 using 3 threads for integral computing
 -------------------------------------------------------
 OpenMP Integral computing Module                
 Release: version 1.0, May 2013, Q-Chem Inc. Pittsburgh 
 -------------------------------------------------------
 ---------------------------------------
  Cycle       Energy         DIIS Error
 ---------------------------------------
    1    -119.0728756496      4.21E-03
    2    -119.0947185421      5.69E-04 Done RCA. Switching to DIIS
    3    -119.0955293856      3.86E-04
    4    -119.0963477381      4.87E-05
    5    -119.0963633844      1.53E-05
    6    -119.0963647895      4.20E-06 Convergence criterion met
 ---------------------------------------
 SCF time:  CPU 47.45 s  wall 15.84 s
 SCF   energy in the final basis set = -119.09636479
 Total energy in the final basis set = -119.09636479
 
 --------------------------------------------------------------
 
                    Orbital Energies (a.u.)
 --------------------------------------------------------------
 
 Alpha MOs
 -- Occupied --
-10.2803 -10.2760 -10.2760  -0.8750  -0.7942  -0.6721  -0.5356  -0.5046
 -0.5033  -0.4773  -0.4289  -0.3960  -0.3837
 -- Virtual --
  0.0609   0.0855   0.0957   0.0989   0.1100   0.1273   0.1315   0.1582
  0.1677   0.1733   0.2044   0.2185   0.2190   0.2213   0.2345   0.2478
  0.2565   0.2747   0.2751   0.3009   0.3204   0.3760   0.4657   0.4807
  0.4811   0.4925   0.5295   0.5361   0.5619   0.5653   0.5683   0.5905
  0.5939   0.5999   0.6284   0.6447   0.6636   0.6813   0.6965   0.7072
  0.7226   0.7576   0.8443   0.8507   0.8566   0.8859   0.9508   0.9529
  0.9610   0.9668   1.0274   1.0794   1.1395   1.1617   1.1624   1.1738
  1.2322   1.2414   1.2602   1.2773   1.2995   1.3044   1.3065   1.3308
  1.3528   1.3873   1.4219   1.4418   1.4469   1.4477   1.4566   1.4638
  1.4882   1.6018   1.6063   1.6272   1.6450   1.6651   1.7107   1.7619
  1.8025   2.4201   2.4535   2.4565   2.4927   2.5357   2.5777   2.6415
  2.6647   2.6955   2.7018   2.7995   2.8496   2.8666   2.9207   2.9431
  2.9501   2.9562   3.0055   3.0076   3.0515   3.0568   3.0850   3.1044
  3.1364   3.1401   3.1488   3.1844   3.2001   3.2067   3.2352   3.2533
  3.2707   3.2939   3.3002   3.3338   3.3398   3.3447   3.3692   3.4275
  3.4341   3.4395   3.5412   3.5605   3.5620   3.5763   3.6080   3.6144
  3.6345   3.6723   3.7117   3.7167   3.7187   3.7210   3.7392   3.8260
  3.8393   3.8570   3.8955   3.8990   3.9460   4.0068   4.0155   4.0505
  4.0901   4.0987   4.1400   4.1454   4.1594   4.1796   4.1947   4.2211
  4.2220   4.2241   4.2840   4.3520   4.3550   4.3813   4.4665   4.4877
  4.4900   4.5678   4.5751   4.6325   4.7340   4.7719   4.8872   4.8876
  4.8915   4.9188   4.9648   4.9901   5.0194   5.0600   5.1015   5.1189
  5.1715   5.1820   5.2050   5.2473   5.2918   5.3021   5.3253   5.3417
  5.3541   5.4307   5.4579   5.4592   5.6101   5.6727   5.6827   5.8400
  5.9864   6.3692   6.3903   6.3941   6.4166   6.4658  25.1972  25.3777
 25.4164
 --------------------------------------------------------------
 
 -----------------------------------------------------------------
                    Cartesian Multipole Moments
 -----------------------------------------------------------------
    Charge (ESU x 10^10)
                -0.0000
    Dipole Moment (Debye)
         X      -0.0000      Y      -0.0000      Z      -0.3359
       Tot       0.3359
    Quadrupole Moments (Debye-Ang)
        XX     -21.6818     XY      -0.0000     YY     -21.5565
        XZ       0.0000     YZ       0.0000     ZZ     -21.8664
    Octopole Moments (Debye-Ang^2)
       XXX       0.0000    XXY      -0.0000    XYY       0.0000
       YYY      -0.0000    XXZ      -2.0432    XYZ      -0.0000
       YYZ      -1.3580    XZZ       0.0000    YZZ      -0.0000
       ZZZ      -7.4880
    Hexadecapole Moments (Debye-Ang^3)
      XXXX    -277.8573   XXXY       0.0001   XXYY     -50.5141
      XYYY       0.0000   YYYY     -43.8580   XXXZ       0.0000
      XXYZ       0.0001   XYYZ      -0.0000   YYYZ       0.0000
      XXZZ     -51.9483   XYZZ       0.0000   YYZZ     -14.9300
      XZZZ      -0.0000   YZZZ       0.0000   ZZZZ     -52.5466
 -----------------------------------------------------------------
Archival summary:
1\1\centos77-c4\SP\ProcedureUnspecified\BasisUnspecified\38\shihchen\TueJul700:45:402020TueJul700:45:402020\0\\#,ProcedureUnspecified,BasisUnspecified,\\0,1\C\H,1,1.09601\H,1,1.09601,2,98.601\C,1,1.55852,2,99.1369,3,100.777,0\H,4,1.09016,1,117.433,2,-163.939,0\H,4,1.09016,1,117.433,2,63.6121,0\H,4,1.09499,1,97.9151,2,-50.1634,0\C,1,1.55852,2,99.1368,3,-100.777,0\H,8,1.09016,1,117.433,2,163.94,0\H,8,1.09016,1,117.433,2,-63.6116,0\H,8,1.09499,1,97.9151,2,50.1639,0\\\@

 Total job time:  26.83s(wall), 72.17s(cpu) 
 Tue Jul  7 00:45:40 2020

        *************************************************************
        *                                                           *
        *  Thank you very much for using Q-Chem.  Have a nice day.  *
        *                                                           *
        *************************************************************


