                  Welcome to Q-Chem
     A Quantum Leap Into The Future Of Chemistry


 Q-Chem 5.3 (devel), Q-Chem, Inc., Pleasanton, CA (2020)

 Yihan Shao,  Zhengting Gan,  E. Epifanovsky,  A. T. B. Gilbert,  M. Wormit,  
 J. Kussmann,  A. W. Lange,  A. Behn,  Jia Deng,  Xintian Feng,  D. Ghosh,  
 M. Goldey,  P. R. Horn,  L. D. Jacobson,  I. Kaliman,  T. Kus,  A. Landau,  
 Jie Liu,  E. I. Proynov,  R. M. Richard,  R. P. Steele,  E. J. Sundstrom,  
 H. L. Woodcock III,  P. M. Zimmerman,  D. Zuev,  B. Alam,  B. Albrecht,  
 E. Alguire,  S. A. Baeppler,  D. Barton,  Z. Benda,  Y. A. Bernard,  
 E. J. Berquist,  K. B. Bravaya,  H. Burton,  K. Carter-Fenk,  D. Casanova,  
 Chun-Min Chang,  Yunqing Chen,  A. Chien,  K. D. Closser,  M. P. Coons,  
 S. Coriani,  S. Dasgupta,  A. L. Dempwolff,  M. Diedenhofen,  Hainam Do,  
 R. G. Edgar,  Po-Tung Fang,  S. Faraji,  S. Fatehi,  Qingguo Feng,  
 J. Fosso-Tande,  J. Gayvert,  Qinghui Ge,  A. Ghysels,  G. Gidofalvi,  
 J. Gomes,  J. Gonthier,  A. Gunina,  D. Hait,  M. W. D. Hanson-Heine,  
 P. H. P. Harbach,  A. W. Hauser,  M. F. Herbst,  J. E. Herr,  
 E. G. Hohenstein,  Z. C. Holden,  Kerwin Hui,  B. C. Huynh,  T.-C. Jagau,  
 Hyunjun Ji,  B. Kaduk,  K. Khistyaev,  Jaehoon Kim,  P. Klunzinger,  K. Koh,  
 D. Kosenkov,  L. Koulias,  T. Kowalczyk,  C. M. Krauter,  A. Kunitsa,  
 Ka Un Lao,  A. Laurent,  K. V. Lawler,  Joonho Lee,  D. Lefrancois,  
 S. Lehtola,  D. S. Levine,  Yi-Pei Li,  You-Sheng Lin,  Fenglai Liu,  
 Kuan-Yu Liu,  E. Livshits,  M. Loipersberger,  A. Luenser,  P. Manohar,  
 E. Mansoor,  S. F. Manzer,  Shan-Ping Mao,  Yuezhi Mao,  N. Mardirossian,  
 A. V. Marenich,  T. Markovich,  L. A. Martinez-Martinez,  S. A. Maurer,  
 N. J. Mayhall,  S. C. McKenzie,  J.-M. Mewes,  P. Morgante,  A. F. Morrison,  
 J. W. Mullinax,  K. Nanda,  T. S. Nguyen-Beck,  R. Olivares-Amaya,  
 K. J. Oosterbaan,  J. A. Parkhill,  S. K. Paul,  F. Pavosevic,  Zheng Pei,  
 T. M. Perrine,  F. Plasser,  P. Pokhilko,  S. Prager,  A. Prociuk,  
 E. Ramos,  B. Rana,  D. R. Rehn,  F. Rob,  M. Scheurer,  M. Schneider,  
 N. Sergueev,  S. M. Sharada,  S. Sharma,  D. W. Small,  T. Stauch,  
 C. J. Stein,  T. Stein,  Yu-Chuan Su,  S. P. Veccham,  Zhen Tao,  
 A. J. W. Thom,  A. Tkatchenko,  T. Tsuchimochi,  N. M. Tubman,  L. Vogt,  
 M. L. Vidal,  O. Vydrov,  M. A. Watson,  J. Wenzel,  M. de Wergifosse,  
 T. A. Wesolowski,  A. White,  J. Witte,  A. Yamada,  Jun Yang,  K. Yao,  
 S. Yeganeh,  S. R. Yost,  Zhi-Qiang You,  A. Zech,  Igor Ying Zhang,  
 Xing Zhang,  Yan Zhao,  Ying Zhu,  B. R. Brooks,  G. K. L. Chan,  
 C. J. Cramer,  M. S. Gordon,  W. J. Hehre,  A. Klamt,  M. W. Schmidt,  
 C. D. Sherrill,  D. G. Truhlar,  A. Aspuru-Guzik,  R. Baer,  A. T. Bell,  
 N. A. Besley,  Jeng-Da Chai,  A. E. DePrince, III,  R. A. DiStasio Jr.,  
 A. Dreuw,  B. D. Dunietz,  T. R. Furlani,  Chao-Ping Hsu,  Yousung Jung,  
 Jing Kong,  D. S. Lambrecht,  WanZhen Liang,  C. Ochsenfeld,  
 V. A. Rassolov,  L. V. Slipchenko,  J. E. Subotnik,  T. Van Voorhis,  
 J. M. Herbert,  A. I. Krylov,  P. M. W. Gill,  M. Head-Gordon

 Contributors to earlier versions of Q-Chem not listed above: 
 R. D. Adamson,  B. Austin,  J. Baker,  G. J. O. Beran,  K. Brandhorst,  
 S. T. Brown,  E. F. C. Byrd,  A. K. Chakraborty,  C.-L. Cheng,  
 Siu Hung Chien,  D. M. Chipman,  D. L. Crittenden,  H. Dachsel,  
 R. J. Doerksen,  A. D. Dutoi,  L. Fusti-Molnar,  W. A. Goddard III,  
 A. Golubeva-Zadorozhnaya,  S. R. Gwaltney,  G. Hawkins,  A. Heyden,  
 S. Hirata,  G. Kedziora,  F. J. Keil,  C. Kelley,  Jihan Kim,  R. A. King,  
 R. Z. Khaliullin,  P. P. Korambath,  W. Kurlancheek,  A. M. Lee,  M. S. Lee,  
 S. V. Levchenko,  Ching Yeh Lin,  D. Liotard,  R. C. Lochan,  I. Lotan,  
 P. E. Maslen,  N. Nair,  D. P. O'Neill,  D. Neuhauser,  E. Neuscamman,  
 C. M. Oana,  R. Olson,  B. Peters,  R. Peverati,  P. A. Pieniazek,  
 Y. M. Rhee,  J. Ritchie,  M. A. Rohrdanz,  E. Rosta,  N. J. Russ,  
 H. F. Schaefer III,  N. E. Schultz,  N. Shenvi,  A. C. Simmonett,  A. Sodt,  
 D. Stuck,  K. S. Thanthiriwatte,  V. Vanovschi,  Tao Wang,  A. Warshel,  
 C. F. Williams,  Q. Wu,  X. Xu,  W. Zhang

 Please cite Q-Chem as follows:
 Y. Shao et al., Mol. Phys. 113, 184-215 (2015)
 DOI: 10.1080/00268976.2014.952696

 Q-Chem 5.3.0 for Intel X86 EM64T Linux

 Parts of Q-Chem use Armadillo 9.800.1 (Horizon Scraper).
 http://arma.sourceforge.net/

 Q-Chem begins on Tue Jul  7 02:02:39 2020  

Host: centos77-c4
0

     Scratch files written to /tmp/26963.centos77-h1/qchem107365//
Processing $rem in /opt/qchem-5.3.0-intel2020u1//config/preferences:
Processing $rem in /home/shihchengli/.qchemrc:

Checking the input file for inconsistencies... 	...done.

--------------------------------------------------------------
User input:
--------------------------------------------------------------
$rem
   JOBTYPE  sp
   EXCHANGE   omegaB97X-D
   BASIS   6-311+G(2df,2pd)
   UNRESTRICTED   False
   max_scf_cycles   250
   geom_opt_max_cycles   1500
   basis2 6-31G*
   scf_algorithm rca_diis
   SYM_IGNORE  TRUE
   print_input   true
   geom_opt_dmax   80
   pop_mulliken false
   XC_GRID 000075000302
$end

$molecule
0 1
C       1.2522124194     0.0000000182     0.2494413863
C       -0.0125289479     0.0000000814     -0.5872731157
H       1.3002062911     -0.9529317783     0.9499158169
H       1.3002063617     0.9529318648     0.9499158228
H       2.2129986438     -0.0000000147     -0.4132024826
C       -1.2821314637     0.0000001787     0.2694682326
H       -0.0160647699     -0.8738739735     -1.2430868032
H       -0.0160647765     0.8738739556     -1.2430867089
H       -1.3113232362     -0.8081087955     0.8578957258
H       -2.1161874186     0.0000008063     -0.3068380345
H       -1.3113231638     0.8081083230     0.8578951794
$end
--------------------------------------------------------------
 ----------------------------------------------------------------
             Standard Nuclear Orientation (Angstroms)
    I     Atom           X                Y                Z
 ----------------------------------------------------------------
    1      C       1.2522124194     0.0000000182     0.2494413863
    2      C      -0.0125289479     0.0000000814    -0.5872731157
    3      H       1.3002062911    -0.9529317783     0.9499158169
    4      H       1.3002063617     0.9529318648     0.9499158228
    5      H       2.2129986438    -0.0000000147    -0.4132024826
    6      C      -1.2821314637     0.0000001787     0.2694682326
    7      H      -0.0160647699    -0.8738739735    -1.2430868032
    8      H      -0.0160647765     0.8738739556    -1.2430867089
    9      H      -1.3113232362    -0.8081087955     0.8578957258
   10      H      -2.1161874186     0.0000008063    -0.3068380345
   11      H      -1.3113231638     0.8081083230     0.8578951794
 ----------------------------------------------------------------
 Nuclear Repulsion Energy =          82.85474540 hartrees
 There are       13 alpha and       13 beta electrons
 Requested basis set is 6-311+G(2df,2pd)
 There are 72 shells and 214 basis functions

 Total QAlloc Memory Limit   2000 MB
 Mega-Array Size       188 MB
 MEM_STATIC part       192 MB

                       Distance Matrix (Angstroms)
             C (  1)   C (  2)   H (  3)   H (  4)   H (  5)   C (  6)
   C (  2)  1.516464
   H (  3)  1.183658  2.234794
   H (  4)  1.183658  2.234794  1.905864
   H (  5)  1.167136  2.232325  1.897198  1.897198
   C (  6)  2.534423  1.531632  2.835411  2.835411  3.561176
   H (  7)  2.144720  1.092593  2.558922  3.143096  2.533986  2.157407
   H (  8)  2.144720  1.092593  3.143095  2.558922  2.533986  2.157406
   H (  9)  2.755898  2.104381  2.617160  3.151161  3.832698  1.000070
   H ( 10)  3.414025  2.122268  3.762879  3.762878  4.330493  1.013794
   H ( 11)  2.755897  2.104380  3.151161  2.617160  3.832698  1.000069
             H (  7)   H (  8)   H (  9)   H ( 10)
   H (  8)  1.747748
   H (  9)  2.469038  2.986786
   H ( 10)  2.459824  2.459823  1.630169
   H ( 11)  2.986785  2.469037  1.616217  1.630168
 
 A cutoff of  1.0D-09 yielded   2535 shell pairs
 There are     22595 function pairs (     27779 Cartesian)
 Smallest overlap matrix eigenvalue = 8.67E-05

 Scale SEOQF with 1.000000e-01/1.000000e-01/1.000000e-01

 Standard Electronic Orientation quadrupole field applied
 Nucleus-field energy     =     0.0000000006 hartrees
 Requested basis set is 6-31G(d)
 There are 28 shells and 58 basis functions
 A cutoff of  1.0D-09 yielded    402 shell pairs
 There are      1773 function pairs (      1968 Cartesian)
 Smallest overlap matrix eigenvalue = 6.70E-03
 Guess from superposition of atomic densities
 Warning:  Energy on first SCF cycle will be non-variational
 SAD guess density has 26.000000 electrons
 Long-range K will be added via erf
 Coulomb attenuation parameter = 0.2 bohr**(-1)
 A restricted hybrid HF-DFT SCF calculation will be
 performed using Relaxed Constraint Minimization + Pulay DIIS
 Exchange:     0.2220 Hartree-Fock + 1.0000 wB97X-D + LR-HF
 Correlation:  1.0000 wB97X-D
 Using Euler-Maclaurin-Lebedev (75,302) quadrature formula
 Dispersion:   Grimme D
 SCF converges when DIIS error is below 1.0E-04
 using 3 threads for integral computing
 -------------------------------------------------------
 OpenMP Integral computing Module                
 Release: version 1.0, May 2013, Q-Chem Inc. Pittsburgh 
 -------------------------------------------------------
 using 3 threads for integral computing
 -------------------------------------------------------
 OpenMP Integral computing Module                
 Release: version 1.0, May 2013, Q-Chem Inc. Pittsburgh 
 -------------------------------------------------------
 ---------------------------------------
  Cycle       Energy         DIIS Error
 ---------------------------------------
    1    -119.6197362369      1.02E-01
    2    -119.0349380387      9.41E-03
    3    -119.0580141907      2.71E-03
    4    -119.0723806019      1.87E-03
    5    -119.0732408586      3.02E-04 Done RCA. Switching to DIIS
    6    -119.0738661829      2.31E-04
    7    -119.0738893886      5.07E-06 Convergence criterion met
 ---------------------------------------
 SCF time:  CPU 20.92 s  wall 7.86 s
 SCF   energy in the small basis set = -119.07388939
 Total energy in the small basis set = -119.07388939
 ----------------------------------------------------
  Cycle       Energy    
 ----------------------------------------------------
    1     -16.5507856222     -1.66E+01
 Long-range K will be added via erf
 Coulomb attenuation parameter = 0.2 bohr**(-1)
 A restricted hybrid HF-DFT SCF calculation will be
 performed using Relaxed Constraint Minimization + Pulay DIIS
 Exchange:     0.2220 Hartree-Fock + 1.0000 wB97X-D + LR-HF
 Correlation:  1.0000 wB97X-D
 Using Euler-Maclaurin-Lebedev (75,302) quadrature formula
 Dispersion:   Grimme D
 SCF converges when DIIS error is below 1.0E-05
 Basis2 calculation detected. Using small basis as guess for larger.
 SCFMinFind is unable to tell whether the solution found is close.
 Resetting ReadMinima to 0 and attempting to follow guess.
 SCFMinFind following SCF Guess.
 using 3 threads for integral computing
 -------------------------------------------------------
 OpenMP Integral computing Module                
 Release: version 1.0, May 2013, Q-Chem Inc. Pittsburgh 
 -------------------------------------------------------
 using 3 threads for integral computing
 -------------------------------------------------------
 OpenMP Integral computing Module                
 Release: version 1.0, May 2013, Q-Chem Inc. Pittsburgh 
 -------------------------------------------------------
 ---------------------------------------
  Cycle       Energy         DIIS Error
 ---------------------------------------
    1    -119.0940907650      4.21E-03
    2    -119.1161089881      5.94E-04 Done RCA. Switching to DIIS
    3    -119.1169388026      4.14E-04
    4    -119.1178734807      4.80E-05
    5    -119.1178889965      1.44E-05
    6    -119.1178902307      4.23E-06 Convergence criterion met
 ---------------------------------------
 SCF time:  CPU 49.40 s  wall 16.49 s
 SCF   energy in the final basis set = -119.11789023
 Total energy in the final basis set = -119.11789023
 
 --------------------------------------------------------------
 
                    Orbital Energies (a.u.)
 --------------------------------------------------------------
 
 Alpha MOs
 -- Occupied --
-10.2916 -10.2746 -10.2365  -0.8839  -0.7810  -0.6752  -0.5484  -0.5269
 -0.4824  -0.4656  -0.4254  -0.4103  -0.4051
 -- Virtual --
  0.0686   0.0855   0.0908   0.0987   0.1249   0.1298   0.1334   0.1419
  0.1431   0.1699   0.1716   0.1908   0.2160   0.2364   0.2584   0.2651
  0.2748   0.2865   0.3090   0.3173   0.3353   0.3518   0.4592   0.4634
  0.4729   0.5098   0.5141   0.5175   0.5462   0.5597   0.5669   0.6003
  0.6196   0.6307   0.6399   0.6479   0.6599   0.6618   0.6813   0.7263
  0.7642   0.7705   0.8201   0.8643   0.8670   0.8714   0.8882   0.9467
  1.0176   1.0535   1.0569   1.1156   1.1580   1.1759   1.1781   1.2122
  1.2313   1.2373   1.2700   1.2786   1.2844   1.2945   1.3217   1.3663
  1.3746   1.3915   1.4183   1.4323   1.4677   1.4695   1.4785   1.5064
  1.5140   1.5717   1.5913   1.6136   1.6341   1.6375   1.7048   1.7238
  1.7851   2.3528   2.4247   2.4888   2.5163   2.5425   2.5603   2.6093
  2.6368   2.7426   2.8244   2.8259   2.8365   2.8498   2.9147   2.9238
  2.9422   2.9857   2.9879   3.0006   3.0153   3.0726   3.1086   3.1103
  3.1370   3.1517   3.1775   3.1805   3.1887   3.2090   3.2659   3.2721
  3.2957   3.3128   3.3516   3.3653   3.3705   3.3795   3.4250   3.4505
  3.4577   3.4866   3.4964   3.5028   3.5485   3.5667   3.5808   3.5935
  3.6579   3.6766   3.6994   3.7634   3.7673   3.8100   3.8669   3.8777
  3.9053   3.9194   3.9237   3.9547   3.9723   4.0106   4.0369   4.0687
  4.0741   4.0933   4.1081   4.1289   4.1379   4.1614   4.1938   4.2374
  4.2539   4.2849   4.2978   4.3385   4.3526   4.4018   4.4381   4.4486
  4.4513   4.5090   4.5825   4.6064   4.7280   4.7469   4.7810   4.7841
  4.8369   4.8585   4.9228   4.9636   5.0278   5.0502   5.0615   5.1017
  5.1274   5.2178   5.2317   5.2970   5.3110   5.3452   5.4173   5.4560
  5.4887   5.5152   5.5981   5.5998   5.6507   5.7187   5.7233   5.8368
  5.9614   6.1475   6.1982   6.4575   6.6024   6.6095  25.0820  25.2159
 25.7039
 --------------------------------------------------------------
 
 -----------------------------------------------------------------
                    Cartesian Multipole Moments
 -----------------------------------------------------------------
    Charge (ESU x 10^10)
                 0.0000
    Dipole Moment (Debye)
         X      -0.1951      Y       0.0000      Z      -0.0995
       Tot       0.2191
    Quadrupole Moments (Debye-Ang)
        XX     -22.1569     XY      -0.0000     YY     -21.3569
        XZ      -0.1967     YZ      -0.0000     ZZ     -21.8236
    Octopole Moments (Debye-Ang^2)
       XXX      -2.3267    XXY       0.0000    XYY      -0.6253
       YYY      -0.0000    XXZ      -1.5574    XYZ       0.0000
       YYZ       0.4904    XZZ      -0.6109    YZZ      -0.0000
       ZZZ      -0.4329
    Hexadecapole Moments (Debye-Ang^3)
      XXXX    -202.1427   XXXY      -0.0000   XXYY     -42.2746
      XYYY       0.0000   YYYY     -44.3488   XXXZ      -1.9601
      XXYZ       0.0000   XYYZ       0.2638   YYYZ       0.0000
      XXZZ     -45.3123   XYZZ       0.0000   YYZZ     -17.0948
      XZZZ      -0.6182   YZZZ       0.0000   ZZZZ     -72.3386
 -----------------------------------------------------------------
Archival summary:
1\1\centos77-c4\SP\ProcedureUnspecified\BasisUnspecified\38\shihchen\TueJul702:03:072020TueJul702:03:072020\0\\#,ProcedureUnspecified,BasisUnspecified,\\0,1\C\H,1,1.09259\H,1,1.09259,2,106.225\C,1,1.51646,2,109.505,3,118.163,0\H,4,1.16714,1,111.919,2,-58.0498,0\H,4,1.18366,1,111.121,2,-178.389,0\H,4,1.18366,1,111.121,2,62.2893,0\C,1,1.53163,2,109.455,3,-118.079,0\H,8,1.00007,1,110.69,2,-62.2365,0\H,8,1.00007,1,110.69,2,178.28,0\H,8,1.01379,1,111.345,2,58.0217,0\\\@

 Total job time:  27.27s(wall), 74.01s(cpu) 
 Tue Jul  7 02:03:07 2020

        *************************************************************
        *                                                           *
        *  Thank you very much for using Q-Chem.  Have a nice day.  *
        *                                                           *
        *************************************************************


