                  Welcome to Q-Chem
     A Quantum Leap Into The Future Of Chemistry


 Q-Chem 5.3 (devel), Q-Chem, Inc., Pleasanton, CA (2020)

 Yihan Shao,  Zhengting Gan,  E. Epifanovsky,  A. T. B. Gilbert,  M. Wormit,  
 J. Kussmann,  A. W. Lange,  A. Behn,  Jia Deng,  Xintian Feng,  D. Ghosh,  
 M. Goldey,  P. R. Horn,  L. D. Jacobson,  I. Kaliman,  T. Kus,  A. Landau,  
 Jie Liu,  E. I. Proynov,  R. M. Richard,  R. P. Steele,  E. J. Sundstrom,  
 H. L. Woodcock III,  P. M. Zimmerman,  D. Zuev,  B. Alam,  B. Albrecht,  
 E. Alguire,  S. A. Baeppler,  D. Barton,  Z. Benda,  Y. A. Bernard,  
 E. J. Berquist,  K. B. Bravaya,  H. Burton,  K. Carter-Fenk,  D. Casanova,  
 Chun-Min Chang,  Yunqing Chen,  A. Chien,  K. D. Closser,  M. P. Coons,  
 S. Coriani,  S. Dasgupta,  A. L. Dempwolff,  M. Diedenhofen,  Hainam Do,  
 R. G. Edgar,  Po-Tung Fang,  S. Faraji,  S. Fatehi,  Qingguo Feng,  
 J. Fosso-Tande,  J. Gayvert,  Qinghui Ge,  A. Ghysels,  G. Gidofalvi,  
 J. Gomes,  J. Gonthier,  A. Gunina,  D. Hait,  M. W. D. Hanson-Heine,  
 P. H. P. Harbach,  A. W. Hauser,  M. F. Herbst,  J. E. Herr,  
 E. G. Hohenstein,  Z. C. Holden,  Kerwin Hui,  B. C. Huynh,  T.-C. Jagau,  
 Hyunjun Ji,  B. Kaduk,  K. Khistyaev,  Jaehoon Kim,  P. Klunzinger,  K. Koh,  
 D. Kosenkov,  L. Koulias,  T. Kowalczyk,  C. M. Krauter,  A. Kunitsa,  
 Ka Un Lao,  A. Laurent,  K. V. Lawler,  Joonho Lee,  D. Lefrancois,  
 S. Lehtola,  D. S. Levine,  Yi-Pei Li,  You-Sheng Lin,  Fenglai Liu,  
 Kuan-Yu Liu,  E. Livshits,  M. Loipersberger,  A. Luenser,  P. Manohar,  
 E. Mansoor,  S. F. Manzer,  Shan-Ping Mao,  Yuezhi Mao,  N. Mardirossian,  
 A. V. Marenich,  T. Markovich,  L. A. Martinez-Martinez,  S. A. Maurer,  
 N. J. Mayhall,  S. C. McKenzie,  J.-M. Mewes,  P. Morgante,  A. F. Morrison,  
 J. W. Mullinax,  K. Nanda,  T. S. Nguyen-Beck,  R. Olivares-Amaya,  
 K. J. Oosterbaan,  J. A. Parkhill,  S. K. Paul,  F. Pavosevic,  Zheng Pei,  
 T. M. Perrine,  F. Plasser,  P. Pokhilko,  S. Prager,  A. Prociuk,  
 E. Ramos,  B. Rana,  D. R. Rehn,  F. Rob,  M. Scheurer,  M. Schneider,  
 N. Sergueev,  S. M. Sharada,  S. Sharma,  D. W. Small,  T. Stauch,  
 C. J. Stein,  T. Stein,  Yu-Chuan Su,  S. P. Veccham,  Zhen Tao,  
 A. J. W. Thom,  A. Tkatchenko,  T. Tsuchimochi,  N. M. Tubman,  L. Vogt,  
 M. L. Vidal,  O. Vydrov,  M. A. Watson,  J. Wenzel,  M. de Wergifosse,  
 T. A. Wesolowski,  A. White,  J. Witte,  A. Yamada,  Jun Yang,  K. Yao,  
 S. Yeganeh,  S. R. Yost,  Zhi-Qiang You,  A. Zech,  Igor Ying Zhang,  
 Xing Zhang,  Yan Zhao,  Ying Zhu,  B. R. Brooks,  G. K. L. Chan,  
 C. J. Cramer,  M. S. Gordon,  W. J. Hehre,  A. Klamt,  M. W. Schmidt,  
 C. D. Sherrill,  D. G. Truhlar,  A. Aspuru-Guzik,  R. Baer,  A. T. Bell,  
 N. A. Besley,  Jeng-Da Chai,  A. E. DePrince, III,  R. A. DiStasio Jr.,  
 A. Dreuw,  B. D. Dunietz,  T. R. Furlani,  Chao-Ping Hsu,  Yousung Jung,  
 Jing Kong,  D. S. Lambrecht,  WanZhen Liang,  C. Ochsenfeld,  
 V. A. Rassolov,  L. V. Slipchenko,  J. E. Subotnik,  T. Van Voorhis,  
 J. M. Herbert,  A. I. Krylov,  P. M. W. Gill,  M. Head-Gordon

 Contributors to earlier versions of Q-Chem not listed above: 
 R. D. Adamson,  B. Austin,  J. Baker,  G. J. O. Beran,  K. Brandhorst,  
 S. T. Brown,  E. F. C. Byrd,  A. K. Chakraborty,  C.-L. Cheng,  
 Siu Hung Chien,  D. M. Chipman,  D. L. Crittenden,  H. Dachsel,  
 R. J. Doerksen,  A. D. Dutoi,  L. Fusti-Molnar,  W. A. Goddard III,  
 A. Golubeva-Zadorozhnaya,  S. R. Gwaltney,  G. Hawkins,  A. Heyden,  
 S. Hirata,  G. Kedziora,  F. J. Keil,  C. Kelley,  Jihan Kim,  R. A. King,  
 R. Z. Khaliullin,  P. P. Korambath,  W. Kurlancheek,  A. M. Lee,  M. S. Lee,  
 S. V. Levchenko,  Ching Yeh Lin,  D. Liotard,  R. C. Lochan,  I. Lotan,  
 P. E. Maslen,  N. Nair,  D. P. O'Neill,  D. Neuhauser,  E. Neuscamman,  
 C. M. Oana,  R. Olson,  B. Peters,  R. Peverati,  P. A. Pieniazek,  
 Y. M. Rhee,  J. Ritchie,  M. A. Rohrdanz,  E. Rosta,  N. J. Russ,  
 H. F. Schaefer III,  N. E. Schultz,  N. Shenvi,  A. C. Simmonett,  A. Sodt,  
 D. Stuck,  K. S. Thanthiriwatte,  V. Vanovschi,  Tao Wang,  A. Warshel,  
 C. F. Williams,  Q. Wu,  X. Xu,  W. Zhang

 Please cite Q-Chem as follows:
 Y. Shao et al., Mol. Phys. 113, 184-215 (2015)
 DOI: 10.1080/00268976.2014.952696

 Q-Chem 5.3.0 for Intel X86 EM64T Linux

 Parts of Q-Chem use Armadillo 9.800.1 (Horizon Scraper).
 http://arma.sourceforge.net/

 Q-Chem begins on Tue Jul  7 01:54:32 2020  

Host: centos77-c4
0

     Scratch files written to /tmp/26963.centos77-h1/qchem105665//
Processing $rem in /opt/qchem-5.3.0-intel2020u1//config/preferences:
Processing $rem in /home/shihchengli/.qchemrc:

Checking the input file for inconsistencies... 	...done.

--------------------------------------------------------------
User input:
--------------------------------------------------------------
$rem
   JOBTYPE  sp
   EXCHANGE   omegaB97X-D
   BASIS   6-311+G(2df,2pd)
   UNRESTRICTED   False
   max_scf_cycles   250
   geom_opt_max_cycles   1500
   basis2 6-31G*
   scf_algorithm rca_diis
   SYM_IGNORE  TRUE
   print_input   true
   geom_opt_dmax   80
   pop_mulliken false
   XC_GRID 000075000302
$end

$molecule
0 1
C       1.2672010900     -0.0182651591     0.2591448412
C       0.0000001490     -0.0179904597     -0.5875681043
H       1.2555317575     -0.8879191034     0.9168150026
H       1.3551350233     0.8705724416     0.8897209518
H       2.1629291421     0.0587224752     -0.3579989493
C       -1.2672007083     -0.0182652387     0.2591450574
H       0.0000000870     -0.8879718891     -1.2492467575
H       -0.0000001755     0.8597404905     -1.2375032076
H       -1.2555313084     -0.8879198475     0.9168142342
H       -2.1629293551     0.0587237437     -0.3579978608
H       -1.3551357622     0.8705732125     0.8897198113
$end
--------------------------------------------------------------
 ----------------------------------------------------------------
             Standard Nuclear Orientation (Angstroms)
    I     Atom           X                Y                Z
 ----------------------------------------------------------------
    1      C       1.2672010900    -0.0182651591     0.2591448412
    2      C       0.0000001490    -0.0179904597    -0.5875681043
    3      H       1.2555317575    -0.8879191034     0.9168150026
    4      H       1.3551350233     0.8705724416     0.8897209518
    5      H       2.1629291421     0.0587224752    -0.3579989493
    6      C      -1.2672007083    -0.0182652387     0.2591450574
    7      H       0.0000000870    -0.8879718891    -1.2492467575
    8      H      -0.0000001755     0.8597404905    -1.2375032076
    9      H      -1.2555313084    -0.8879198475     0.9168142342
   10      H      -2.1629293551     0.0587237437    -0.3579978608
   11      H      -1.3551357622     0.8705732125     0.8897198113
 ----------------------------------------------------------------
 Nuclear Repulsion Energy =          82.73838108 hartrees
 There are       13 alpha and       13 beta electrons
 Requested basis set is 6-311+G(2df,2pd)
 There are 72 shells and 214 basis functions

 Total QAlloc Memory Limit   2000 MB
 Mega-Array Size       188 MB
 MEM_STATIC part       192 MB

                       Distance Matrix (Angstroms)
             C (  1)   C (  2)   H (  3)   H (  4)   H (  5)   C (  6)
   C (  2)  1.524048
   H (  3)  1.090396  2.143899
   H (  4)  1.093339  2.192788  1.761518
   H (  5)  1.090469  2.176430  1.828839  1.693646
   C (  6)  2.534402  1.524048  2.748273  2.839772  3.486056
   H (  7)  2.153470  1.093017  2.503634  3.082864  2.523651  2.153470
   H (  8)  2.148639  1.092166  3.044957  2.522220  2.468486  2.148638
   H (  9)  2.748273  2.143899  2.511063  3.147794  3.769238  1.090396
   H ( 10)  3.486056  2.176431  3.769238  3.820036  4.325858  1.090469
   H ( 11)  2.839773  2.192788  3.147795  2.710271  3.820037  1.093339
             H (  7)   H (  8)   H (  9)   H ( 10)
   H (  8)  1.747752
   H (  9)  2.503633  3.044956
   H ( 10)  2.523652  2.468485  1.828839
   H ( 11)  3.082864  2.522219  1.761520  1.693644
 
 A cutoff of  1.0D-09 yielded   2532 shell pairs
 There are     22578 function pairs (     27759 Cartesian)
 Smallest overlap matrix eigenvalue = 8.71E-05

 Scale SEOQF with 1.000000e-01/1.000000e-01/1.000000e-01

 Standard Electronic Orientation quadrupole field applied
 Nucleus-field energy     =     0.0000000006 hartrees
 Requested basis set is 6-31G(d)
 There are 28 shells and 58 basis functions
 A cutoff of  1.0D-09 yielded    402 shell pairs
 There are      1773 function pairs (      1968 Cartesian)
 Smallest overlap matrix eigenvalue = 6.80E-03
 Guess from superposition of atomic densities
 Warning:  Energy on first SCF cycle will be non-variational
 SAD guess density has 26.000000 electrons
 Long-range K will be added via erf
 Coulomb attenuation parameter = 0.2 bohr**(-1)
 A restricted hybrid HF-DFT SCF calculation will be
 performed using Relaxed Constraint Minimization + Pulay DIIS
 Exchange:     0.2220 Hartree-Fock + 1.0000 wB97X-D + LR-HF
 Correlation:  1.0000 wB97X-D
 Using Euler-Maclaurin-Lebedev (75,302) quadrature formula
 Dispersion:   Grimme D
 SCF converges when DIIS error is below 1.0E-04
 using 3 threads for integral computing
 -------------------------------------------------------
 OpenMP Integral computing Module                
 Release: version 1.0, May 2013, Q-Chem Inc. Pittsburgh 
 -------------------------------------------------------
 using 3 threads for integral computing
 -------------------------------------------------------
 OpenMP Integral computing Module                
 Release: version 1.0, May 2013, Q-Chem Inc. Pittsburgh 
 -------------------------------------------------------
 ---------------------------------------
  Cycle       Energy         DIIS Error
 ---------------------------------------
    1    -119.6201890504      1.00E-01
    2    -119.0631080978      9.02E-03
    3    -119.0843097303      2.47E-03
    4    -119.0982772993      1.69E-03
    5    -119.0989807485      2.68E-04 Done RCA. Switching to DIIS
    6    -119.0994967297      1.98E-04
    7    -119.0995137475      4.76E-06 Convergence criterion met
 ---------------------------------------
 SCF time:  CPU 20.51 s  wall 7.58 s
 SCF   energy in the small basis set = -119.09951375
 Total energy in the small basis set = -119.09951375
 ----------------------------------------------------
  Cycle       Energy    
 ----------------------------------------------------
    1     -16.5389008225     -1.65E+01
 Long-range K will be added via erf
 Coulomb attenuation parameter = 0.2 bohr**(-1)
 A restricted hybrid HF-DFT SCF calculation will be
 performed using Relaxed Constraint Minimization + Pulay DIIS
 Exchange:     0.2220 Hartree-Fock + 1.0000 wB97X-D + LR-HF
 Correlation:  1.0000 wB97X-D
 Using Euler-Maclaurin-Lebedev (75,302) quadrature formula
 Dispersion:   Grimme D
 SCF converges when DIIS error is below 1.0E-05
 Basis2 calculation detected. Using small basis as guess for larger.
 SCFMinFind is unable to tell whether the solution found is close.
 Resetting ReadMinima to 0 and attempting to follow guess.
 SCFMinFind following SCF Guess.
 using 3 threads for integral computing
 -------------------------------------------------------
 OpenMP Integral computing Module                
 Release: version 1.0, May 2013, Q-Chem Inc. Pittsburgh 
 -------------------------------------------------------
 using 3 threads for integral computing
 -------------------------------------------------------
 OpenMP Integral computing Module                
 Release: version 1.0, May 2013, Q-Chem Inc. Pittsburgh 
 -------------------------------------------------------
 ---------------------------------------
  Cycle       Energy         DIIS Error
 ---------------------------------------
    1    -119.1187595384      4.21E-03
    2    -119.1407999703      5.99E-04 Done RCA. Switching to DIIS
    3    -119.1416370627      4.20E-04
    4    -119.1426050101      4.57E-05
    5    -119.1426198370      1.02E-05
    6    -119.1426205393      3.86E-06 Convergence criterion met
 ---------------------------------------
 SCF time:  CPU 49.84 s  wall 16.73 s
 SCF   energy in the final basis set = -119.14262054
 Total energy in the final basis set = -119.14262054
 
 --------------------------------------------------------------
 
                    Orbital Energies (a.u.)
 --------------------------------------------------------------
 
 Alpha MOs
 -- Occupied --
-10.2741 -10.2652 -10.2652  -0.8814  -0.7775  -0.6781  -0.5497  -0.5210
 -0.4835  -0.4659  -0.4177  -0.4149  -0.4065
 -- Virtual --
  0.0691   0.0858   0.0910   0.0990   0.1250   0.1296   0.1336   0.1425
  0.1432   0.1705   0.1721   0.1915   0.2277   0.2428   0.2449   0.2619
  0.2845   0.2852   0.3109   0.3130   0.3345   0.3496   0.4574   0.4675
  0.4715   0.5045   0.5178   0.5191   0.5450   0.5611   0.5841   0.5847
  0.6253   0.6274   0.6375   0.6415   0.6562   0.6613   0.7094   0.7260
  0.7265   0.7668   0.8199   0.8610   0.8701   0.8724   0.8823   0.9585
  0.9982   1.0429   1.0623   1.1393   1.1447   1.1800   1.1856   1.2097
  1.2304   1.2347   1.2654   1.2775   1.2872   1.2969   1.3297   1.3755
  1.3808   1.3954   1.3998   1.4465   1.4686   1.4732   1.4750   1.4837
  1.5205   1.5739   1.6111   1.6241   1.6334   1.6468   1.6778   1.7090
  1.7464   2.3806   2.4656   2.4803   2.4972   2.5459   2.5597   2.5997
  2.6280   2.7130   2.8223   2.8232   2.8390   2.9119   2.9169   2.9287
  2.9398   2.9425   3.0061   3.0120   3.0477   3.0619   3.0926   3.1026
  3.1362   3.1416   3.1652   3.1822   3.2230   3.2293   3.2671   3.2839
  3.3151   3.3441   3.3456   3.3724   3.3844   3.3909   3.4151   3.4342
  3.4755   3.4905   3.5043   3.5060   3.5616   3.5786   3.5924   3.6187
  3.6256   3.6553   3.6865   3.7010   3.7670   3.7841   3.8832   3.8916
  3.9104   3.9347   3.9441   3.9609   3.9640   3.9664   4.0348   4.0756
  4.0859   4.0908   4.1158   4.1418   4.1445   4.1662   4.1764   4.1918
  4.2478   4.2579   4.2700   4.3686   4.3958   4.4162   4.4199   4.4270
  4.4351   4.5563   4.5893   4.6307   4.6786   4.7928   4.8208   4.8834
  4.9195   4.9440   4.9772   4.9779   5.0087   5.0434   5.0538   5.0988
  5.1313   5.2439   5.2493   5.2869   5.2998   5.3421   5.3465   5.3975
  5.4123   5.4184   5.4705   5.5126   5.5622   5.5629   5.6579   5.7493
  5.9554   6.3395   6.3777   6.4178   6.4273   6.4642  25.2052  25.4433
 25.4551
 --------------------------------------------------------------
 
 -----------------------------------------------------------------
                    Cartesian Multipole Moments
 -----------------------------------------------------------------
    Charge (ESU x 10^10)
                -0.0000
    Dipole Moment (Debye)
         X      -0.0000      Y       0.0914      Z      -0.0836
       Tot       0.1239
    Quadrupole Moments (Debye-Ang)
        XX     -22.1663     XY      -0.0000     YY     -21.3680
        XZ      -0.0000     YZ      -0.1596     ZZ     -21.8586
    Octopole Moments (Debye-Ang^2)
       XXX      -0.0000    XXY       1.6975    XYY      -0.0000
       YYY       0.7350    XXZ      -1.4913    XYZ       0.0000
       YYZ       0.4675    XZZ       0.0000    YZZ       0.0452
       ZZZ      -0.4012
    Hexadecapole Moments (Debye-Ang^3)
      XXXX    -202.3720   XXXY      -0.0000   XXYY     -42.1936
      XYYY       0.0000   YYYY     -44.1914   XXXZ      -0.0000
      XXYZ       0.0198   XYYZ      -0.0000   YYYZ      -0.0154
      XXZZ     -45.3756   XYZZ       0.0000   YYZZ     -17.0924
      XZZZ       0.0000   YZZZ      -0.0853   ZZZZ     -72.2216
 -----------------------------------------------------------------
Archival summary:
1\1\centos77-c4\SP\ProcedureUnspecified\BasisUnspecified\38\shihchen\TueJul701:55:002020TueJul701:55:002020\0\\#,ProcedureUnspecified,BasisUnspecified,\\0,1\C\H,1,1.09217\H,1,1.09302,2,106.226\C,1,1.52405,2,109.315,3,118.229,0\H,4,1.0904,1,109.046,2,179.153,0\H,4,1.09047,1,111.626,2,-54.0186,0\H,4,1.09334,1,112.777,2,59.7626,0\C,1,1.52405,2,109.315,3,-118.229,0\H,8,1.0904,1,109.046,2,-179.153,0\H,8,1.09047,1,111.626,2,54.0185,0\H,8,1.09334,1,112.777,2,-59.7625,0\\\@

 Total job time:  27.20s(wall), 73.90s(cpu) 
 Tue Jul  7 01:55:00 2020

        *************************************************************
        *                                                           *
        *  Thank you very much for using Q-Chem.  Have a nice day.  *
        *                                                           *
        *************************************************************


