                  Welcome to Q-Chem
     A Quantum Leap Into The Future Of Chemistry


 Q-Chem 5.3 (devel), Q-Chem, Inc., Pleasanton, CA (2020)

 Yihan Shao,  Zhengting Gan,  E. Epifanovsky,  A. T. B. Gilbert,  M. Wormit,  
 J. Kussmann,  A. W. Lange,  A. Behn,  Jia Deng,  Xintian Feng,  D. Ghosh,  
 M. Goldey,  P. R. Horn,  L. D. Jacobson,  I. Kaliman,  T. Kus,  A. Landau,  
 Jie Liu,  E. I. Proynov,  R. M. Richard,  R. P. Steele,  E. J. Sundstrom,  
 H. L. Woodcock III,  P. M. Zimmerman,  D. Zuev,  B. Alam,  B. Albrecht,  
 E. Alguire,  S. A. Baeppler,  D. Barton,  Z. Benda,  Y. A. Bernard,  
 E. J. Berquist,  K. B. Bravaya,  H. Burton,  K. Carter-Fenk,  D. Casanova,  
 Chun-Min Chang,  Yunqing Chen,  A. Chien,  K. D. Closser,  M. P. Coons,  
 S. Coriani,  S. Dasgupta,  A. L. Dempwolff,  M. Diedenhofen,  Hainam Do,  
 R. G. Edgar,  Po-Tung Fang,  S. Faraji,  S. Fatehi,  Qingguo Feng,  
 J. Fosso-Tande,  J. Gayvert,  Qinghui Ge,  A. Ghysels,  G. Gidofalvi,  
 J. Gomes,  J. Gonthier,  A. Gunina,  D. Hait,  M. W. D. Hanson-Heine,  
 P. H. P. Harbach,  A. W. Hauser,  M. F. Herbst,  J. E. Herr,  
 E. G. Hohenstein,  Z. C. Holden,  Kerwin Hui,  B. C. Huynh,  T.-C. Jagau,  
 Hyunjun Ji,  B. Kaduk,  K. Khistyaev,  Jaehoon Kim,  P. Klunzinger,  K. Koh,  
 D. Kosenkov,  L. Koulias,  T. Kowalczyk,  C. M. Krauter,  A. Kunitsa,  
 Ka Un Lao,  A. Laurent,  K. V. Lawler,  Joonho Lee,  D. Lefrancois,  
 S. Lehtola,  D. S. Levine,  Yi-Pei Li,  You-Sheng Lin,  Fenglai Liu,  
 Kuan-Yu Liu,  E. Livshits,  M. Loipersberger,  A. Luenser,  P. Manohar,  
 E. Mansoor,  S. F. Manzer,  Shan-Ping Mao,  Yuezhi Mao,  N. Mardirossian,  
 A. V. Marenich,  T. Markovich,  L. A. Martinez-Martinez,  S. A. Maurer,  
 N. J. Mayhall,  S. C. McKenzie,  J.-M. Mewes,  P. Morgante,  A. F. Morrison,  
 J. W. Mullinax,  K. Nanda,  T. S. Nguyen-Beck,  R. Olivares-Amaya,  
 K. J. Oosterbaan,  J. A. Parkhill,  S. K. Paul,  F. Pavosevic,  Zheng Pei,  
 T. M. Perrine,  F. Plasser,  P. Pokhilko,  S. Prager,  A. Prociuk,  
 E. Ramos,  B. Rana,  D. R. Rehn,  F. Rob,  M. Scheurer,  M. Schneider,  
 N. Sergueev,  S. M. Sharada,  S. Sharma,  D. W. Small,  T. Stauch,  
 C. J. Stein,  T. Stein,  Yu-Chuan Su,  S. P. Veccham,  Zhen Tao,  
 A. J. W. Thom,  A. Tkatchenko,  T. Tsuchimochi,  N. M. Tubman,  L. Vogt,  
 M. L. Vidal,  O. Vydrov,  M. A. Watson,  J. Wenzel,  M. de Wergifosse,  
 T. A. Wesolowski,  A. White,  J. Witte,  A. Yamada,  Jun Yang,  K. Yao,  
 S. Yeganeh,  S. R. Yost,  Zhi-Qiang You,  A. Zech,  Igor Ying Zhang,  
 Xing Zhang,  Yan Zhao,  Ying Zhu,  B. R. Brooks,  G. K. L. Chan,  
 C. J. Cramer,  M. S. Gordon,  W. J. Hehre,  A. Klamt,  M. W. Schmidt,  
 C. D. Sherrill,  D. G. Truhlar,  A. Aspuru-Guzik,  R. Baer,  A. T. Bell,  
 N. A. Besley,  Jeng-Da Chai,  A. E. DePrince, III,  R. A. DiStasio Jr.,  
 A. Dreuw,  B. D. Dunietz,  T. R. Furlani,  Chao-Ping Hsu,  Yousung Jung,  
 Jing Kong,  D. S. Lambrecht,  WanZhen Liang,  C. Ochsenfeld,  
 V. A. Rassolov,  L. V. Slipchenko,  J. E. Subotnik,  T. Van Voorhis,  
 J. M. Herbert,  A. I. Krylov,  P. M. W. Gill,  M. Head-Gordon

 Contributors to earlier versions of Q-Chem not listed above: 
 R. D. Adamson,  B. Austin,  J. Baker,  G. J. O. Beran,  K. Brandhorst,  
 S. T. Brown,  E. F. C. Byrd,  A. K. Chakraborty,  C.-L. Cheng,  
 Siu Hung Chien,  D. M. Chipman,  D. L. Crittenden,  H. Dachsel,  
 R. J. Doerksen,  A. D. Dutoi,  L. Fusti-Molnar,  W. A. Goddard III,  
 A. Golubeva-Zadorozhnaya,  S. R. Gwaltney,  G. Hawkins,  A. Heyden,  
 S. Hirata,  G. Kedziora,  F. J. Keil,  C. Kelley,  Jihan Kim,  R. A. King,  
 R. Z. Khaliullin,  P. P. Korambath,  W. Kurlancheek,  A. M. Lee,  M. S. Lee,  
 S. V. Levchenko,  Ching Yeh Lin,  D. Liotard,  R. C. Lochan,  I. Lotan,  
 P. E. Maslen,  N. Nair,  D. P. O'Neill,  D. Neuhauser,  E. Neuscamman,  
 C. M. Oana,  R. Olson,  B. Peters,  R. Peverati,  P. A. Pieniazek,  
 Y. M. Rhee,  J. Ritchie,  M. A. Rohrdanz,  E. Rosta,  N. J. Russ,  
 H. F. Schaefer III,  N. E. Schultz,  N. Shenvi,  A. C. Simmonett,  A. Sodt,  
 D. Stuck,  K. S. Thanthiriwatte,  V. Vanovschi,  Tao Wang,  A. Warshel,  
 C. F. Williams,  Q. Wu,  X. Xu,  W. Zhang

 Please cite Q-Chem as follows:
 Y. Shao et al., Mol. Phys. 113, 184-215 (2015)
 DOI: 10.1080/00268976.2014.952696

 Q-Chem 5.3.0 for Intel X86 EM64T Linux

 Parts of Q-Chem use Armadillo 9.800.1 (Horizon Scraper).
 http://arma.sourceforge.net/

 Q-Chem begins on Thu Jul  2 04:29:56 2020  

Host: centos77-c1
0

     Scratch files written to /tmp/26650.centos77-h1/qchem73778//
Processing $rem in /opt/qchem-5.3.0-intel2020u1//config/preferences:
Processing $rem in /home/shihchengli/.qchemrc:

Checking the input file for inconsistencies... 	...done.

--------------------------------------------------------------
User input:
--------------------------------------------------------------
$rem
   JOBTYPE  sp
   EXCHANGE   omegaB97X-D
   BASIS   6-311+G(2df,2pd)
   max_scf_cycles   250
   geom_opt_max_cycles   1500
   basis2 6-31G*
   scf_algorithm rca_diis
   SYM_IGNORE  TRUE
   print_input   true
   geom_opt_dmax   80
   pop_mulliken false
   XC_GRID 000075000302
$end

$molecule
0 1
C       1.3668447889     -0.0000003577     0.2617334863
C       -0.0000000651     0.0000015669     -0.4379873689
H       1.5341418651     -0.8837373936     0.8797545707
H       1.5341451128     0.8837358001     0.8797549394
H       2.1266137594     -0.0000022322     -0.5225908159
C       -1.3668449690     0.0000003036     0.2617333328
H       0.0000003838     -0.8636002840     -1.1091365076
H       -0.0000002086     0.8636043582     -1.1091353063
H       -1.5341410910     -0.8837352039     0.8797568333
H       -2.1266140604     -0.0000038658     -0.5225907044
H       -1.5341455765     0.8837379744     0.8797525596
$end
--------------------------------------------------------------
 ----------------------------------------------------------------
             Standard Nuclear Orientation (Angstroms)
    I     Atom           X                Y                Z
 ----------------------------------------------------------------
    1      C       1.3668447889    -0.0000003577     0.2617334863
    2      C      -0.0000000651     0.0000015669    -0.4379873689
    3      H       1.5341418651    -0.8837373936     0.8797545707
    4      H       1.5341451128     0.8837358001     0.8797549394
    5      H       2.1266137594    -0.0000022322    -0.5225908159
    6      C      -1.3668449690     0.0000003036     0.2617333328
    7      H       0.0000003838    -0.8636002840    -1.1091365076
    8      H      -0.0000002086     0.8636043582    -1.1091353063
    9      H      -1.5341410910    -0.8837352039     0.8797568333
   10      H      -2.1266140604    -0.0000038658    -0.5225907044
   11      H      -1.5341455765     0.8837379744     0.8797525596
 ----------------------------------------------------------------
 Nuclear Repulsion Energy =          81.47373305 hartrees
 There are       13 alpha and       13 beta electrons
 Requested basis set is 6-311+G(2df,2pd)
 There are 72 shells and 214 basis functions

 Total QAlloc Memory Limit   2000 MB
 Mega-Array Size       188 MB
 MEM_STATIC part       192 MB

                       Distance Matrix (Angstroms)
             C (  1)   C (  2)   H (  3)   H (  4)   H (  5)   C (  6)
   C (  2)  1.535537
   H (  3)  1.091297  2.207041
   H (  4)  1.091297  2.207042  1.767473
   H (  5)  1.091977  2.128296  1.760279  1.760280
   C (  6)  2.733690  1.535537  3.094942  3.094945  3.580422
   H (  7)  2.119753  1.093732  2.511908  3.059816  2.369034  2.119754
   H (  8)  2.119755  1.093732  3.059817  2.511910  2.369037  2.119754
   H (  9)  3.094941  2.207041  3.068283  3.540951  4.018543  1.091297
   H ( 10)  3.580422  2.128296  4.018543  4.018548  4.253228  1.091977
   H ( 11)  3.094945  2.207041  3.540954  3.068291  4.018547  1.091297
             H (  7)   H (  8)   H (  9)   H ( 10)
   H (  8)  1.727205
   H (  9)  2.511910  3.059816
   H ( 10)  2.369034  2.369038  1.760279
   H ( 11)  3.059816  2.511908  1.767473  1.760280
 
 A cutoff of  1.0D-09 yielded   2498 shell pairs
 There are     22266 function pairs (     27393 Cartesian)
 Smallest overlap matrix eigenvalue = 8.72E-05

 Scale SEOQF with 1.000000e-01/1.000000e-01/1.000000e-01

 Standard Electronic Orientation quadrupole field applied
 Nucleus-field energy     =     0.0000000009 hartrees
 Requested basis set is 6-31G(d)
 There are 28 shells and 58 basis functions
 A cutoff of  1.0D-09 yielded    402 shell pairs
 There are      1773 function pairs (      1968 Cartesian)
 Smallest overlap matrix eigenvalue = 7.06E-03
 Guess from superposition of atomic densities
 Warning:  Energy on first SCF cycle will be non-variational
 SAD guess density has 26.000000 electrons
 Long-range K will be added via erf
 Coulomb attenuation parameter = 0.2 bohr**(-1)
 A restricted hybrid HF-DFT SCF calculation will be
 performed using Relaxed Constraint Minimization + Pulay DIIS
 Exchange:     0.2220 Hartree-Fock + 1.0000 wB97X-D + LR-HF
 Correlation:  1.0000 wB97X-D
 Using Euler-Maclaurin-Lebedev (75,302) quadrature formula
 Dispersion:   Grimme D
 SCF converges when DIIS error is below 1.0E-04
 using 3 threads for integral computing
 -------------------------------------------------------
 OpenMP Integral computing Module                
 Release: version 1.0, May 2013, Q-Chem Inc. Pittsburgh 
 -------------------------------------------------------
 using 3 threads for integral computing
 -------------------------------------------------------
 OpenMP Integral computing Module                
 Release: version 1.0, May 2013, Q-Chem Inc. Pittsburgh 
 -------------------------------------------------------
 ---------------------------------------
  Cycle       Energy         DIIS Error
 ---------------------------------------
    1    -119.5825786190      9.93E-02
    2    -119.0623241118      8.75E-03
    3    -119.0826254447      2.53E-03
    4    -119.0954370889      1.73E-03
    5    -119.0961841019      2.89E-04 Done RCA. Switching to DIIS
    6    -119.0967197298      2.14E-04
    7    -119.0967396722      4.19E-06 Convergence criterion met
 ---------------------------------------
 SCF time:  CPU 17.64 s  wall 6.19 s
 SCF   energy in the small basis set = -119.09673967
 Total energy in the small basis set = -119.09673967
 ----------------------------------------------------
  Cycle       Energy    
 ----------------------------------------------------
    1     -16.5272959225     -1.65E+01
 Long-range K will be added via erf
 Coulomb attenuation parameter = 0.2 bohr**(-1)
 A restricted hybrid HF-DFT SCF calculation will be
 performed using Relaxed Constraint Minimization + Pulay DIIS
 Exchange:     0.2220 Hartree-Fock + 1.0000 wB97X-D + LR-HF
 Correlation:  1.0000 wB97X-D
 Using Euler-Maclaurin-Lebedev (75,302) quadrature formula
 Dispersion:   Grimme D
 SCF converges when DIIS error is below 1.0E-05
 Basis2 calculation detected. Using small basis as guess for larger.
 SCFMinFind is unable to tell whether the solution found is close.
 Resetting ReadMinima to 0 and attempting to follow guess.
 SCFMinFind following SCF Guess.
 using 3 threads for integral computing
 -------------------------------------------------------
 OpenMP Integral computing Module                
 Release: version 1.0, May 2013, Q-Chem Inc. Pittsburgh 
 -------------------------------------------------------
 using 3 threads for integral computing
 -------------------------------------------------------
 OpenMP Integral computing Module                
 Release: version 1.0, May 2013, Q-Chem Inc. Pittsburgh 
 -------------------------------------------------------
 ---------------------------------------
  Cycle       Energy         DIIS Error
 ---------------------------------------
    1    -119.1158964168      4.21E-03
    2    -119.1379120384      5.83E-04 Done RCA. Switching to DIIS
    3    -119.1387465431      3.98E-04
    4    -119.1396183614      4.60E-05
    5    -119.1396330749      1.19E-05
    6    -119.1396339509      4.15E-06 Convergence criterion met
 ---------------------------------------
 SCF time:  CPU 47.41 s  wall 15.84 s
 SCF   energy in the final basis set = -119.13963395
 Total energy in the final basis set = -119.13963395
 
 --------------------------------------------------------------
 
                    Orbital Energies (a.u.)
 --------------------------------------------------------------
 
 Alpha MOs
 -- Occupied --
-10.2757 -10.2677 -10.2677  -0.8750  -0.7846  -0.6744  -0.5408  -0.5152
 -0.4911  -0.4703  -0.4249  -0.4062  -0.4030
 -- Virtual --
  0.0668   0.0868   0.0934   0.0991   0.1192   0.1292   0.1327   0.1488
  0.1501   0.1739   0.1789   0.1950   0.2355   0.2372   0.2468   0.2539
  0.2733   0.2865   0.2966   0.3090   0.3287   0.3581   0.4604   0.4610
  0.4802   0.5076   0.5201   0.5274   0.5385   0.5740   0.5765   0.5910
  0.6086   0.6093   0.6397   0.6470   0.6480   0.6584   0.7000   0.7234
  0.7334   0.7658   0.8296   0.8462   0.8516   0.8668   0.9040   0.9679
  0.9724   1.0317   1.0483   1.1343   1.1542   1.1618   1.1713   1.2045
  1.2329   1.2467   1.2718   1.2789   1.2802   1.2809   1.3310   1.3386
  1.3702   1.3757   1.3829   1.4567   1.4599   1.4778   1.4793   1.4885
  1.5226   1.5588   1.6024   1.6361   1.6413   1.6593   1.6809   1.6875
  1.7668   2.3738   2.4795   2.4845   2.4849   2.5247   2.5557   2.5746
  2.6388   2.6947   2.7923   2.8320   2.8431   2.8992   2.9306   2.9439
  2.9511   2.9791   2.9824   3.0030   3.0498   3.0853   3.0999   3.1184
  3.1376   3.1379   3.1472   3.1818   3.1941   3.1945   3.2260   3.2889
  3.3116   3.3267   3.3280   3.3405   3.3579   3.3654   3.4006   3.4108
  3.4584   3.4604   3.5126   3.5541   3.5624   3.6023   3.6074   3.6138
  3.6339   3.6350   3.6656   3.7210   3.7418   3.8005   3.8318   3.8670
  3.8865   3.9059   3.9142   3.9414   3.9746   3.9865   4.0176   4.0360
  4.0892   4.1178   4.1190   4.1557   4.1566   4.1713   4.1765   4.1769
  4.2096   4.2803   4.2812   4.3612   4.4117   4.4123   4.4213   4.4629
  4.4645   4.5135   4.5662   4.5824   4.7490   4.8010   4.8246   4.8762
  4.9208   4.9253   4.9817   4.9826   5.0042   5.0500   5.0650   5.1011
  5.1314   5.1813   5.2347   5.2498   5.3023   5.3148   5.3204   5.3315
  5.3570   5.3812   5.4247   5.4644   5.5695   5.5967   5.6155   5.7889
  5.9336   6.3697   6.3782   6.3960   6.3993   6.4670  25.2124  25.4192
 25.4415
 --------------------------------------------------------------
 
 -----------------------------------------------------------------
                    Cartesian Multipole Moments
 -----------------------------------------------------------------
    Charge (ESU x 10^10)
                 0.0000
    Dipole Moment (Debye)
         X       0.0000      Y      -0.0000      Z      -0.1306
       Tot       0.1306
    Quadrupole Moments (Debye-Ang)
        XX     -22.0211     XY      -0.0000     YY     -21.4061
        XZ       0.0000     YZ       0.0000     ZZ     -21.7889
    Octopole Moments (Debye-Ang^2)
       XXX       0.0000    XXY      -0.0000    XYY       0.0000
       YYY      -0.0000    XXZ      -1.9950    XYZ      -0.0000
       YYZ       0.0117    XZZ       0.0000    YZZ      -0.0000
       ZZZ      -2.3221
    Hexadecapole Moments (Debye-Ang^3)
      XXXX    -233.1368   XXXY       0.0000   XXYY     -45.8323
      XYYY       0.0000   YYYY     -44.1203   XXXZ       0.0000
      XXYZ       0.0000   XYYZ      -0.0000   YYYZ       0.0000
      XXZZ     -47.3106   XYZZ       0.0000   YYZZ     -16.1396
      XZZZ      -0.0000   YZZZ       0.0000   ZZZZ     -64.9180
 -----------------------------------------------------------------
Archival summary:
1\1\centos77-c1\SP\ProcedureUnspecified\BasisUnspecified\38\shihchen\ThuJul204:30:212020ThuJul204:30:212020\0\\#,ProcedureUnspecified,BasisUnspecified,\\0,1\C\H,1,1.09373\H,1,1.09373,2,104.295\C,1,1.53554,2,106.238,3,112.009,0\H,4,1.0913,1,113.236,2,62.8765,0\H,4,1.0913,1,113.236,2,-173.527,0\H,4,1.09198,1,106.98,2,-55.3253,0\C,1,1.53554,2,106.238,3,-112.009,0\H,8,1.0913,1,113.236,2,173.527,0\H,8,1.0913,1,113.236,2,-62.8763,0\H,8,1.09198,1,106.98,2,55.3254,0\\\@

 Total job time:  24.82s(wall), 68.52s(cpu) 
 Thu Jul  2 04:30:21 2020

        *************************************************************
        *                                                           *
        *  Thank you very much for using Q-Chem.  Have a nice day.  *
        *                                                           *
        *************************************************************


