                  Welcome to Q-Chem
     A Quantum Leap Into The Future Of Chemistry


 Q-Chem 5.3 (devel), Q-Chem, Inc., Pleasanton, CA (2020)

 Yihan Shao,  Zhengting Gan,  E. Epifanovsky,  A. T. B. Gilbert,  M. Wormit,  
 J. Kussmann,  A. W. Lange,  A. Behn,  Jia Deng,  Xintian Feng,  D. Ghosh,  
 M. Goldey,  P. R. Horn,  L. D. Jacobson,  I. Kaliman,  T. Kus,  A. Landau,  
 Jie Liu,  E. I. Proynov,  R. M. Richard,  R. P. Steele,  E. J. Sundstrom,  
 H. L. Woodcock III,  P. M. Zimmerman,  D. Zuev,  B. Alam,  B. Albrecht,  
 E. Alguire,  S. A. Baeppler,  D. Barton,  Z. Benda,  Y. A. Bernard,  
 E. J. Berquist,  K. B. Bravaya,  H. Burton,  K. Carter-Fenk,  D. Casanova,  
 Chun-Min Chang,  Yunqing Chen,  A. Chien,  K. D. Closser,  M. P. Coons,  
 S. Coriani,  S. Dasgupta,  A. L. Dempwolff,  M. Diedenhofen,  Hainam Do,  
 R. G. Edgar,  Po-Tung Fang,  S. Faraji,  S. Fatehi,  Qingguo Feng,  
 J. Fosso-Tande,  J. Gayvert,  Qinghui Ge,  A. Ghysels,  G. Gidofalvi,  
 J. Gomes,  J. Gonthier,  A. Gunina,  D. Hait,  M. W. D. Hanson-Heine,  
 P. H. P. Harbach,  A. W. Hauser,  M. F. Herbst,  J. E. Herr,  
 E. G. Hohenstein,  Z. C. Holden,  Kerwin Hui,  B. C. Huynh,  T.-C. Jagau,  
 Hyunjun Ji,  B. Kaduk,  K. Khistyaev,  Jaehoon Kim,  P. Klunzinger,  K. Koh,  
 D. Kosenkov,  L. Koulias,  T. Kowalczyk,  C. M. Krauter,  A. Kunitsa,  
 Ka Un Lao,  A. Laurent,  K. V. Lawler,  Joonho Lee,  D. Lefrancois,  
 S. Lehtola,  D. S. Levine,  Yi-Pei Li,  You-Sheng Lin,  Fenglai Liu,  
 Kuan-Yu Liu,  E. Livshits,  M. Loipersberger,  A. Luenser,  P. Manohar,  
 E. Mansoor,  S. F. Manzer,  Shan-Ping Mao,  Yuezhi Mao,  N. Mardirossian,  
 A. V. Marenich,  T. Markovich,  L. A. Martinez-Martinez,  S. A. Maurer,  
 N. J. Mayhall,  S. C. McKenzie,  J.-M. Mewes,  P. Morgante,  A. F. Morrison,  
 J. W. Mullinax,  K. Nanda,  T. S. Nguyen-Beck,  R. Olivares-Amaya,  
 K. J. Oosterbaan,  J. A. Parkhill,  S. K. Paul,  F. Pavosevic,  Zheng Pei,  
 T. M. Perrine,  F. Plasser,  P. Pokhilko,  S. Prager,  A. Prociuk,  
 E. Ramos,  B. Rana,  D. R. Rehn,  F. Rob,  M. Scheurer,  M. Schneider,  
 N. Sergueev,  S. M. Sharada,  S. Sharma,  D. W. Small,  T. Stauch,  
 C. J. Stein,  T. Stein,  Yu-Chuan Su,  S. P. Veccham,  Zhen Tao,  
 A. J. W. Thom,  A. Tkatchenko,  T. Tsuchimochi,  N. M. Tubman,  L. Vogt,  
 M. L. Vidal,  O. Vydrov,  M. A. Watson,  J. Wenzel,  M. de Wergifosse,  
 T. A. Wesolowski,  A. White,  J. Witte,  A. Yamada,  Jun Yang,  K. Yao,  
 S. Yeganeh,  S. R. Yost,  Zhi-Qiang You,  A. Zech,  Igor Ying Zhang,  
 Xing Zhang,  Yan Zhao,  Ying Zhu,  B. R. Brooks,  G. K. L. Chan,  
 C. J. Cramer,  M. S. Gordon,  W. J. Hehre,  A. Klamt,  M. W. Schmidt,  
 C. D. Sherrill,  D. G. Truhlar,  A. Aspuru-Guzik,  R. Baer,  A. T. Bell,  
 N. A. Besley,  Jeng-Da Chai,  A. E. DePrince, III,  R. A. DiStasio Jr.,  
 A. Dreuw,  B. D. Dunietz,  T. R. Furlani,  Chao-Ping Hsu,  Yousung Jung,  
 Jing Kong,  D. S. Lambrecht,  WanZhen Liang,  C. Ochsenfeld,  
 V. A. Rassolov,  L. V. Slipchenko,  J. E. Subotnik,  T. Van Voorhis,  
 J. M. Herbert,  A. I. Krylov,  P. M. W. Gill,  M. Head-Gordon

 Contributors to earlier versions of Q-Chem not listed above: 
 R. D. Adamson,  B. Austin,  J. Baker,  G. J. O. Beran,  K. Brandhorst,  
 S. T. Brown,  E. F. C. Byrd,  A. K. Chakraborty,  C.-L. Cheng,  
 Siu Hung Chien,  D. M. Chipman,  D. L. Crittenden,  H. Dachsel,  
 R. J. Doerksen,  A. D. Dutoi,  L. Fusti-Molnar,  W. A. Goddard III,  
 A. Golubeva-Zadorozhnaya,  S. R. Gwaltney,  G. Hawkins,  A. Heyden,  
 S. Hirata,  G. Kedziora,  F. J. Keil,  C. Kelley,  Jihan Kim,  R. A. King,  
 R. Z. Khaliullin,  P. P. Korambath,  W. Kurlancheek,  A. M. Lee,  M. S. Lee,  
 S. V. Levchenko,  Ching Yeh Lin,  D. Liotard,  R. C. Lochan,  I. Lotan,  
 P. E. Maslen,  N. Nair,  D. P. O'Neill,  D. Neuhauser,  E. Neuscamman,  
 C. M. Oana,  R. Olson,  B. Peters,  R. Peverati,  P. A. Pieniazek,  
 Y. M. Rhee,  J. Ritchie,  M. A. Rohrdanz,  E. Rosta,  N. J. Russ,  
 H. F. Schaefer III,  N. E. Schultz,  N. Shenvi,  A. C. Simmonett,  A. Sodt,  
 D. Stuck,  K. S. Thanthiriwatte,  V. Vanovschi,  Tao Wang,  A. Warshel,  
 C. F. Williams,  Q. Wu,  X. Xu,  W. Zhang

 Please cite Q-Chem as follows:
 Y. Shao et al., Mol. Phys. 113, 184-215 (2015)
 DOI: 10.1080/00268976.2014.952696

 Q-Chem 5.3.0 for Intel X86 EM64T Linux

 Parts of Q-Chem use Armadillo 9.800.1 (Horizon Scraper).
 http://arma.sourceforge.net/

 Q-Chem begins on Tue Jul  7 00:32:23 2020  

Host: centos77-c4
0

     Scratch files written to /tmp/26963.centos77-h1/qchem88131//
Processing $rem in /opt/qchem-5.3.0-intel2020u1//config/preferences:
Processing $rem in /home/shihchengli/.qchemrc:

Checking the input file for inconsistencies... 	...done.

--------------------------------------------------------------
User input:
--------------------------------------------------------------
$rem
   JOBTYPE  sp
   EXCHANGE   omegaB97X-D
   BASIS   6-311+G(2df,2pd)
   UNRESTRICTED   False
   max_scf_cycles   250
   geom_opt_max_cycles   1500
   basis2 6-31G*
   scf_algorithm rca_diis
   SYM_IGNORE  TRUE
   print_input   true
   geom_opt_dmax   80
   pop_mulliken false
   XC_GRID 000075000302
$end

$molecule
0 1
C       1.2669094228     0.0524531614     0.2503254728
C       -0.0000001261     -0.1853158591     -0.5627719781
H       1.6644494915     -0.8673994235     0.6820076131
H       1.0448127562     0.7339797504     1.0749647859
H       2.0527781708     0.5067935435     -0.3539158496
C       -1.2669093502     0.0524561328     0.2503249401
H       -0.0000010763     -1.1847678104     -1.0046312849
H       0.0000007960     0.5184168051     -1.3983137439
H       -1.6644425473     -0.8673945256     0.6820177924
H       -2.0527819135     0.5067858011     -0.3539193584
H       -1.0448156844     0.7339930904     1.0749566295
$end
--------------------------------------------------------------
 ----------------------------------------------------------------
             Standard Nuclear Orientation (Angstroms)
    I     Atom           X                Y                Z
 ----------------------------------------------------------------
    1      C       1.2669094228     0.0524531614     0.2503254728
    2      C      -0.0000001261    -0.1853158591    -0.5627719781
    3      H       1.6644494915    -0.8673994235     0.6820076131
    4      H       1.0448127562     0.7339797504     1.0749647859
    5      H       2.0527781708     0.5067935435    -0.3539158496
    6      C      -1.2669093502     0.0524561328     0.2503249401
    7      H      -0.0000010763    -1.1847678104    -1.0046312849
    8      H       0.0000007960     0.5184168051    -1.3983137439
    9      H      -1.6644425473    -0.8673945256     0.6820177924
   10      H      -2.0527819135     0.5067858011    -0.3539193584
   11      H      -1.0448156844     0.7339930904     1.0749566295
 ----------------------------------------------------------------
 Nuclear Repulsion Energy =          82.79884652 hartrees
 There are       13 alpha and       13 beta electrons
 Requested basis set is 6-311+G(2df,2pd)
 There are 72 shells and 214 basis functions

 Total QAlloc Memory Limit   2000 MB
 Mega-Array Size       188 MB
 MEM_STATIC part       192 MB

                       Distance Matrix (Angstroms)
             C (  1)   C (  2)   H (  3)   H (  4)   H (  5)   C (  6)
   C (  2)  1.524048
   H (  3)  1.091108  2.187489
   H (  4)  1.092628  2.149167  1.761471
   H (  5)  1.090469  2.176358  1.764183  1.763323
   C (  6)  2.533819  1.524048  3.102475  2.547266  3.404681
   H (  7)  2.170413  1.092769  2.390788  3.016280  2.738378  2.170414
   H (  8)  2.130772  1.092415  3.003101  2.693549  2.303214  2.130772
   H (  9)  3.102467  2.187487  3.328892  3.171572  4.096252  1.091108
   H ( 10)  3.404685  2.176359  4.096259  3.418833  4.105560  1.090469
   H ( 11)  2.547270  2.149168  3.171590  2.089628  3.418828  1.092628
             H (  7)   H (  8)   H (  9)   H ( 10)
   H (  8)  1.748091
   H (  9)  2.390790  3.003102
   H ( 10)  2.738373  2.303218  1.764184
   H ( 11)  3.016284  2.693544  1.761471  1.763322
 
 A cutoff of  1.0D-09 yielded   2528 shell pairs
 There are     22534 function pairs (     27727 Cartesian)
 Smallest overlap matrix eigenvalue = 8.21E-05

 Scale SEOQF with 1.000000e-01/1.000000e-01/1.000000e-01

 Standard Electronic Orientation quadrupole field applied
 Nucleus-field energy     =     0.0000000006 hartrees
 Requested basis set is 6-31G(d)
 There are 28 shells and 58 basis functions
 A cutoff of  1.0D-09 yielded    400 shell pairs
 There are      1771 function pairs (      1966 Cartesian)
 Smallest overlap matrix eigenvalue = 6.32E-03
 Guess from superposition of atomic densities
 Warning:  Energy on first SCF cycle will be non-variational
 SAD guess density has 26.000000 electrons
 Long-range K will be added via erf
 Coulomb attenuation parameter = 0.2 bohr**(-1)
 A restricted hybrid HF-DFT SCF calculation will be
 performed using Relaxed Constraint Minimization + Pulay DIIS
 Exchange:     0.2220 Hartree-Fock + 1.0000 wB97X-D + LR-HF
 Correlation:  1.0000 wB97X-D
 Using Euler-Maclaurin-Lebedev (75,302) quadrature formula
 Dispersion:   Grimme D
 SCF converges when DIIS error is below 1.0E-04
 using 3 threads for integral computing
 -------------------------------------------------------
 OpenMP Integral computing Module                
 Release: version 1.0, May 2013, Q-Chem Inc. Pittsburgh 
 -------------------------------------------------------
 using 3 threads for integral computing
 -------------------------------------------------------
 OpenMP Integral computing Module                
 Release: version 1.0, May 2013, Q-Chem Inc. Pittsburgh 
 -------------------------------------------------------
 ---------------------------------------
  Cycle       Energy         DIIS Error
 ---------------------------------------
    1    -119.6288320357      1.00E-01
    2    -119.0588255584      9.05E-03
    3    -119.0800350899      2.45E-03
    4    -119.0940282509      1.68E-03
    5    -119.0947232848      2.64E-04 Done RCA. Switching to DIIS
    6    -119.0952337732      1.96E-04
    7    -119.0952504604      4.26E-06 Convergence criterion met
 ---------------------------------------
 SCF time:  CPU 18.96 s  wall 6.93 s
 SCF   energy in the small basis set = -119.09525046
 Total energy in the small basis set = -119.09525046
 ----------------------------------------------------
  Cycle       Energy    
 ----------------------------------------------------
    1     -16.5448884874     -1.65E+01
 Long-range K will be added via erf
 Coulomb attenuation parameter = 0.2 bohr**(-1)
 A restricted hybrid HF-DFT SCF calculation will be
 performed using Relaxed Constraint Minimization + Pulay DIIS
 Exchange:     0.2220 Hartree-Fock + 1.0000 wB97X-D + LR-HF
 Correlation:  1.0000 wB97X-D
 Using Euler-Maclaurin-Lebedev (75,302) quadrature formula
 Dispersion:   Grimme D
 SCF converges when DIIS error is below 1.0E-05
 Basis2 calculation detected. Using small basis as guess for larger.
 SCFMinFind is unable to tell whether the solution found is close.
 Resetting ReadMinima to 0 and attempting to follow guess.
 SCFMinFind following SCF Guess.
 using 3 threads for integral computing
 -------------------------------------------------------
 OpenMP Integral computing Module                
 Release: version 1.0, May 2013, Q-Chem Inc. Pittsburgh 
 -------------------------------------------------------
 using 3 threads for integral computing
 -------------------------------------------------------
 OpenMP Integral computing Module                
 Release: version 1.0, May 2013, Q-Chem Inc. Pittsburgh 
 -------------------------------------------------------
 ---------------------------------------
  Cycle       Energy         DIIS Error
 ---------------------------------------
    1    -119.1147141329      4.21E-03
    2    -119.1367147983      5.99E-04 Done RCA. Switching to DIIS
    3    -119.1375450275      4.22E-04
    4    -119.1385189764      4.54E-05
    5    -119.1385337484      1.02E-05
    6    -119.1385344467      3.98E-06 Convergence criterion met
 ---------------------------------------
 SCF time:  CPU 51.33 s  wall 17.35 s
 SCF   energy in the final basis set = -119.13853445
 Total energy in the final basis set = -119.13853445
 
 --------------------------------------------------------------
 
                    Orbital Energies (a.u.)
 --------------------------------------------------------------
 
 Alpha MOs
 -- Occupied --
-10.2725 -10.2640 -10.2640  -0.8815  -0.7762  -0.6782  -0.5450  -0.5281
 -0.4782  -0.4652  -0.4204  -0.4163  -0.4013
 -- Virtual --
  0.0714   0.0875   0.0919   0.1020   0.1229   0.1305   0.1323   0.1335
  0.1468   0.1649   0.1749   0.1888   0.2028   0.2370   0.2634   0.2769
  0.2870   0.2981   0.3172   0.3205   0.3441   0.3634   0.4541   0.4723
  0.4880   0.5006   0.5132   0.5157   0.5341   0.5449   0.5699   0.5904
  0.6134   0.6139   0.6313   0.6340   0.6549   0.6569   0.6945   0.7106
  0.7392   0.7478   0.8737   0.8799   0.8896   0.9024   0.9595   0.9608
  0.9799   0.9981   1.0608   1.1252   1.1401   1.1898   1.2160   1.2278
  1.2417   1.2459   1.2647   1.2812   1.2895   1.3196   1.3310   1.3547
  1.3725   1.3898   1.4187   1.4362   1.4521   1.4762   1.4843   1.5015
  1.5206   1.5639   1.5701   1.5777   1.6294   1.6404   1.6792   1.6939
  1.7106   2.3087   2.3932   2.4083   2.5076   2.5210   2.6195   2.6204
  2.7064   2.7175   2.7804   2.7959   2.8305   2.8693   2.9260   2.9311
  2.9609   2.9783   2.9979   3.0163   3.0549   3.0570   3.0937   3.1107
  3.1418   3.1451   3.1693   3.1843   3.2210   3.2356   3.2558   3.2891
  3.3125   3.3244   3.3425   3.3501   3.3932   3.3981   3.4208   3.4403
  3.4407   3.4836   3.4999   3.5560   3.5719   3.5858   3.6042   3.6194
  3.6374   3.6745   3.6919   3.7033   3.7679   3.7710   3.7892   3.8300
  3.8949   3.9137   3.9352   3.9478   4.0076   4.0405   4.0641   4.0721
  4.0742   4.1258   4.1472   4.1474   4.1615   4.1982   4.2100   4.2192
  4.2407   4.2751   4.2997   4.3101   4.3628   4.3848   4.4145   4.4295
  4.5025   4.5187   4.5673   4.5677   4.7229   4.7797   4.8321   4.9191
  4.9336   4.9512   4.9795   5.0171   5.0344   5.0522   5.0760   5.0836
  5.1206   5.1918   5.2202   5.2386   5.2637   5.2771   5.3374   5.3573
  5.3592   5.4042   5.4494   5.4609   5.5295   5.5456   5.6166   5.7459
  5.9613   6.3395   6.3791   6.3943   6.4152   6.5073  25.1016  25.4363
 25.4450
 --------------------------------------------------------------
 
 -----------------------------------------------------------------
                    Cartesian Multipole Moments
 -----------------------------------------------------------------
    Charge (ESU x 10^10)
                 0.0000
    Dipole Moment (Debye)
         X      -0.0000      Y      -0.0100      Z      -0.0888
       Tot       0.0894
    Quadrupole Moments (Debye-Ang)
        XX     -22.2829     XY      -0.0000     YY     -21.2977
        XZ      -0.0000     YZ      -0.1557     ZZ     -21.8427
    Octopole Moments (Debye-Ang^2)
       XXX      -0.0000    XXY       0.3630    XYY       0.0000
       YYY      -0.2395    XXZ      -1.2864    XYZ      -0.0000
       YYZ      -0.0035    XZZ      -0.0000    YZZ       1.0930
       ZZZ      -0.3326
    Hexadecapole Moments (Debye-Ang^3)
      XXXX    -204.7100   XXXY       0.0001   XXYY     -40.6659
      XYYY       0.0001   YYYY     -45.9613   XXXZ       0.0000
      XXYZ      -3.4556   XYYZ      -0.0000   YYYZ      -3.2187
      XXZZ     -45.4315   XYZZ       0.0000   YYZZ     -17.7062
      XZZZ      -0.0000   YZZZ      -3.1809   ZZZZ     -69.5566
 -----------------------------------------------------------------
Archival summary:
1\1\centos77-c4\SP\ProcedureUnspecified\BasisUnspecified\38\shihchen\TueJul700:32:502020TueJul700:32:502020\0\\#,ProcedureUnspecified,BasisUnspecified,\\0,1\C\H,1,1.09241\H,1,1.09277,2,106.255\C,1,1.52405,2,107.912,3,-119.117,0\H,4,1.09047,1,111.62,2,24.4063,0\H,4,1.09111,1,112.484,2,145.906,0\H,4,1.09263,1,109.329,2,-94.7037,0\C,1,1.52405,2,107.912,3,119.117,0\H,8,1.09047,1,111.62,2,-24.4056,0\H,8,1.09111,1,112.484,2,-145.905,0\H,8,1.09263,1,109.329,2,94.7045,0\\\@

 Total job time:  27.18s(wall), 73.86s(cpu) 
 Tue Jul  7 00:32:50 2020

        *************************************************************
        *                                                           *
        *  Thank you very much for using Q-Chem.  Have a nice day.  *
        *                                                           *
        *************************************************************


