                  Welcome to Q-Chem
     A Quantum Leap Into The Future Of Chemistry


 Q-Chem 5.3 (devel), Q-Chem, Inc., Pleasanton, CA (2020)

 Yihan Shao,  Zhengting Gan,  E. Epifanovsky,  A. T. B. Gilbert,  M. Wormit,  
 J. Kussmann,  A. W. Lange,  A. Behn,  Jia Deng,  Xintian Feng,  D. Ghosh,  
 M. Goldey,  P. R. Horn,  L. D. Jacobson,  I. Kaliman,  T. Kus,  A. Landau,  
 Jie Liu,  E. I. Proynov,  R. M. Richard,  R. P. Steele,  E. J. Sundstrom,  
 H. L. Woodcock III,  P. M. Zimmerman,  D. Zuev,  B. Alam,  B. Albrecht,  
 E. Alguire,  S. A. Baeppler,  D. Barton,  Z. Benda,  Y. A. Bernard,  
 E. J. Berquist,  K. B. Bravaya,  H. Burton,  K. Carter-Fenk,  D. Casanova,  
 Chun-Min Chang,  Yunqing Chen,  A. Chien,  K. D. Closser,  M. P. Coons,  
 S. Coriani,  S. Dasgupta,  A. L. Dempwolff,  M. Diedenhofen,  Hainam Do,  
 R. G. Edgar,  Po-Tung Fang,  S. Faraji,  S. Fatehi,  Qingguo Feng,  
 J. Fosso-Tande,  J. Gayvert,  Qinghui Ge,  A. Ghysels,  G. Gidofalvi,  
 J. Gomes,  J. Gonthier,  A. Gunina,  D. Hait,  M. W. D. Hanson-Heine,  
 P. H. P. Harbach,  A. W. Hauser,  M. F. Herbst,  J. E. Herr,  
 E. G. Hohenstein,  Z. C. Holden,  Kerwin Hui,  B. C. Huynh,  T.-C. Jagau,  
 Hyunjun Ji,  B. Kaduk,  K. Khistyaev,  Jaehoon Kim,  P. Klunzinger,  K. Koh,  
 D. Kosenkov,  L. Koulias,  T. Kowalczyk,  C. M. Krauter,  A. Kunitsa,  
 Ka Un Lao,  A. Laurent,  K. V. Lawler,  Joonho Lee,  D. Lefrancois,  
 S. Lehtola,  D. S. Levine,  Yi-Pei Li,  You-Sheng Lin,  Fenglai Liu,  
 Kuan-Yu Liu,  E. Livshits,  M. Loipersberger,  A. Luenser,  P. Manohar,  
 E. Mansoor,  S. F. Manzer,  Shan-Ping Mao,  Yuezhi Mao,  N. Mardirossian,  
 A. V. Marenich,  T. Markovich,  L. A. Martinez-Martinez,  S. A. Maurer,  
 N. J. Mayhall,  S. C. McKenzie,  J.-M. Mewes,  P. Morgante,  A. F. Morrison,  
 J. W. Mullinax,  K. Nanda,  T. S. Nguyen-Beck,  R. Olivares-Amaya,  
 K. J. Oosterbaan,  J. A. Parkhill,  S. K. Paul,  F. Pavosevic,  Zheng Pei,  
 T. M. Perrine,  F. Plasser,  P. Pokhilko,  S. Prager,  A. Prociuk,  
 E. Ramos,  B. Rana,  D. R. Rehn,  F. Rob,  M. Scheurer,  M. Schneider,  
 N. Sergueev,  S. M. Sharada,  S. Sharma,  D. W. Small,  T. Stauch,  
 C. J. Stein,  T. Stein,  Yu-Chuan Su,  S. P. Veccham,  Zhen Tao,  
 A. J. W. Thom,  A. Tkatchenko,  T. Tsuchimochi,  N. M. Tubman,  L. Vogt,  
 M. L. Vidal,  O. Vydrov,  M. A. Watson,  J. Wenzel,  M. de Wergifosse,  
 T. A. Wesolowski,  A. White,  J. Witte,  A. Yamada,  Jun Yang,  K. Yao,  
 S. Yeganeh,  S. R. Yost,  Zhi-Qiang You,  A. Zech,  Igor Ying Zhang,  
 Xing Zhang,  Yan Zhao,  Ying Zhu,  B. R. Brooks,  G. K. L. Chan,  
 C. J. Cramer,  M. S. Gordon,  W. J. Hehre,  A. Klamt,  M. W. Schmidt,  
 C. D. Sherrill,  D. G. Truhlar,  A. Aspuru-Guzik,  R. Baer,  A. T. Bell,  
 N. A. Besley,  Jeng-Da Chai,  A. E. DePrince, III,  R. A. DiStasio Jr.,  
 A. Dreuw,  B. D. Dunietz,  T. R. Furlani,  Chao-Ping Hsu,  Yousung Jung,  
 Jing Kong,  D. S. Lambrecht,  WanZhen Liang,  C. Ochsenfeld,  
 V. A. Rassolov,  L. V. Slipchenko,  J. E. Subotnik,  T. Van Voorhis,  
 J. M. Herbert,  A. I. Krylov,  P. M. W. Gill,  M. Head-Gordon

 Contributors to earlier versions of Q-Chem not listed above: 
 R. D. Adamson,  B. Austin,  J. Baker,  G. J. O. Beran,  K. Brandhorst,  
 S. T. Brown,  E. F. C. Byrd,  A. K. Chakraborty,  C.-L. Cheng,  
 Siu Hung Chien,  D. M. Chipman,  D. L. Crittenden,  H. Dachsel,  
 R. J. Doerksen,  A. D. Dutoi,  L. Fusti-Molnar,  W. A. Goddard III,  
 A. Golubeva-Zadorozhnaya,  S. R. Gwaltney,  G. Hawkins,  A. Heyden,  
 S. Hirata,  G. Kedziora,  F. J. Keil,  C. Kelley,  Jihan Kim,  R. A. King,  
 R. Z. Khaliullin,  P. P. Korambath,  W. Kurlancheek,  A. M. Lee,  M. S. Lee,  
 S. V. Levchenko,  Ching Yeh Lin,  D. Liotard,  R. C. Lochan,  I. Lotan,  
 P. E. Maslen,  N. Nair,  D. P. O'Neill,  D. Neuhauser,  E. Neuscamman,  
 C. M. Oana,  R. Olson,  B. Peters,  R. Peverati,  P. A. Pieniazek,  
 Y. M. Rhee,  J. Ritchie,  M. A. Rohrdanz,  E. Rosta,  N. J. Russ,  
 H. F. Schaefer III,  N. E. Schultz,  N. Shenvi,  A. C. Simmonett,  A. Sodt,  
 D. Stuck,  K. S. Thanthiriwatte,  V. Vanovschi,  Tao Wang,  A. Warshel,  
 C. F. Williams,  Q. Wu,  X. Xu,  W. Zhang

 Please cite Q-Chem as follows:
 Y. Shao et al., Mol. Phys. 113, 184-215 (2015)
 DOI: 10.1080/00268976.2014.952696

 Q-Chem 5.3.0 for Intel X86 EM64T Linux

 Parts of Q-Chem use Armadillo 9.800.1 (Horizon Scraper).
 http://arma.sourceforge.net/

 Q-Chem begins on Tue Jul  7 00:47:03 2020  

Host: centos77-c4
0

     Scratch files written to /tmp/26963.centos77-h1/qchem92429//
Processing $rem in /opt/qchem-5.3.0-intel2020u1//config/preferences:
Processing $rem in /home/shihchengli/.qchemrc:

Checking the input file for inconsistencies... 	...done.

--------------------------------------------------------------
User input:
--------------------------------------------------------------
$rem
   JOBTYPE  sp
   EXCHANGE   omegaB97X-D
   BASIS   6-311+G(2df,2pd)
   UNRESTRICTED   False
   max_scf_cycles   250
   geom_opt_max_cycles   1500
   basis2 6-31G*
   scf_algorithm rca_diis
   SYM_IGNORE  TRUE
   print_input   true
   geom_opt_dmax   80
   pop_mulliken false
   XC_GRID 000075000302
$end

$molecule
0 1
C       1.2618669039     -0.0476711252     0.2595405131
C       -0.0000000048     -0.0845122097     -0.5943068225
H       1.3784572794     -0.8509975228     0.9880555906
H       1.2117738764     0.8951678908     0.8102108101
H       2.1597379433     -0.0009754863     -0.3575247152
C       -1.2618669103     -0.0476714659     0.2595406100
H       0.0000002906     -0.8131055061     -1.4052037197
H       -0.0000004408     0.9065705548     -1.0600088494
H       -1.3784577012     -0.8509977632     0.9880556435
H       -2.1597377800     -0.0009744053     -0.3575247436
H       -1.2117735170     0.8951677048     0.8102107019
$end
--------------------------------------------------------------
 ----------------------------------------------------------------
             Standard Nuclear Orientation (Angstroms)
    I     Atom           X                Y                Z
 ----------------------------------------------------------------
    1      C       1.2618669039    -0.0476711252     0.2595405131
    2      C      -0.0000000048    -0.0845122097    -0.5943068225
    3      H       1.3784572794    -0.8509975228     0.9880555906
    4      H       1.2117738764     0.8951678908     0.8102108101
    5      H       2.1597379433    -0.0009754863    -0.3575247152
    6      C      -1.2618669103    -0.0476714659     0.2595406100
    7      H       0.0000002906    -0.8131055061    -1.4052037197
    8      H      -0.0000004408     0.9065705548    -1.0600088494
    9      H      -1.3784577012    -0.8509977632     0.9880556435
   10      H      -2.1597377800    -0.0009744053    -0.3575247436
   11      H      -1.2117735170     0.8951677048     0.8102107019
 ----------------------------------------------------------------
 Nuclear Repulsion Energy =          82.87708528 hartrees
 There are       13 alpha and       13 beta electrons
 Requested basis set is 6-311+G(2df,2pd)
 There are 72 shells and 214 basis functions

 Total QAlloc Memory Limit   2000 MB
 Mega-Array Size       188 MB
 MEM_STATIC part       192 MB

                       Distance Matrix (Angstroms)
             C (  1)   C (  2)   H (  3)   H (  4)   H (  5)   C (  6)
   C (  2)  1.524047
   H (  3)  1.090716  2.234170
   H (  4)  1.093020  2.097818  1.763096
   H (  5)  1.090469  2.174284  1.772998  1.750804
   C (  6)  2.523734  1.524047  2.854361  2.703901  3.477115
   H (  7)  2.224763  1.090139  2.762113  3.048714  2.534098  2.224763
   H (  8)  2.060121  1.095045  3.030472  2.228508  2.445730  2.060120
   H (  9)  2.854362  2.234170  2.756915  3.128901  3.879685  1.090716
   H ( 10)  3.477115  2.174284  3.879684  3.678827  4.319476  1.090469
   H ( 11)  2.703901  2.097817  3.128900  2.423547  3.678827  1.093020
             H (  7)   H (  8)   H (  9)   H ( 10)
   H (  8)  1.753980
   H (  9)  2.762114  3.030472
   H ( 10)  2.534099  2.445728  1.772999
   H ( 11)  3.048714  2.228507  1.763096  1.750804
 
 A cutoff of  1.0D-09 yielded   2534 shell pairs
 There are     22580 function pairs (     27761 Cartesian)
 Smallest overlap matrix eigenvalue = 8.89E-05

 Scale SEOQF with 1.000000e-01/1.000000e-01/1.000000e-01

 Standard Electronic Orientation quadrupole field applied
 Nucleus-field energy     =     0.0000000006 hartrees
 Requested basis set is 6-31G(d)
 There are 28 shells and 58 basis functions
 A cutoff of  1.0D-09 yielded    402 shell pairs
 There are      1773 function pairs (      1968 Cartesian)
 Smallest overlap matrix eigenvalue = 6.53E-03
 Guess from superposition of atomic densities
 Warning:  Energy on first SCF cycle will be non-variational
 SAD guess density has 26.000000 electrons
 Long-range K will be added via erf
 Coulomb attenuation parameter = 0.2 bohr**(-1)
 A restricted hybrid HF-DFT SCF calculation will be
 performed using Relaxed Constraint Minimization + Pulay DIIS
 Exchange:     0.2220 Hartree-Fock + 1.0000 wB97X-D + LR-HF
 Correlation:  1.0000 wB97X-D
 Using Euler-Maclaurin-Lebedev (75,302) quadrature formula
 Dispersion:   Grimme D
 SCF converges when DIIS error is below 1.0E-04
 using 3 threads for integral computing
 -------------------------------------------------------
 OpenMP Integral computing Module                
 Release: version 1.0, May 2013, Q-Chem Inc. Pittsburgh 
 -------------------------------------------------------
 using 3 threads for integral computing
 -------------------------------------------------------
 OpenMP Integral computing Module                
 Release: version 1.0, May 2013, Q-Chem Inc. Pittsburgh 
 -------------------------------------------------------
 ---------------------------------------
  Cycle       Energy         DIIS Error
 ---------------------------------------
    1    -119.6313258173      1.01E-01
    2    -119.0595975421      9.00E-03
    3    -119.0806793853      2.47E-03
    4    -119.0945743602      1.69E-03
    5    -119.0952784297      2.68E-04 Done RCA. Switching to DIIS
    6    -119.0957952941      1.98E-04
    7    -119.0958122479      4.58E-06 Convergence criterion met
 ---------------------------------------
 SCF time:  CPU 18.61 s  wall 6.73 s
 SCF   energy in the small basis set = -119.09581225
 Total energy in the small basis set = -119.09581225
 ----------------------------------------------------
  Cycle       Energy    
 ----------------------------------------------------
    1     -16.5410938855     -1.65E+01
 Long-range K will be added via erf
 Coulomb attenuation parameter = 0.2 bohr**(-1)
 A restricted hybrid HF-DFT SCF calculation will be
 performed using Relaxed Constraint Minimization + Pulay DIIS
 Exchange:     0.2220 Hartree-Fock + 1.0000 wB97X-D + LR-HF
 Correlation:  1.0000 wB97X-D
 Using Euler-Maclaurin-Lebedev (75,302) quadrature formula
 Dispersion:   Grimme D
 SCF converges when DIIS error is below 1.0E-05
 Basis2 calculation detected. Using small basis as guess for larger.
 SCFMinFind is unable to tell whether the solution found is close.
 Resetting ReadMinima to 0 and attempting to follow guess.
 SCFMinFind following SCF Guess.
 using 3 threads for integral computing
 -------------------------------------------------------
 OpenMP Integral computing Module                
 Release: version 1.0, May 2013, Q-Chem Inc. Pittsburgh 
 -------------------------------------------------------
 using 3 threads for integral computing
 -------------------------------------------------------
 OpenMP Integral computing Module                
 Release: version 1.0, May 2013, Q-Chem Inc. Pittsburgh 
 -------------------------------------------------------
 ---------------------------------------
  Cycle       Energy         DIIS Error
 ---------------------------------------
    1    -119.1151152194      4.21E-03
    2    -119.1371389141      5.99E-04 Done RCA. Switching to DIIS
    3    -119.1379732652      4.20E-04
    4    -119.1389406616      4.57E-05
    5    -119.1389554590      1.01E-05
    6    -119.1389561515      3.84E-06 Convergence criterion met
 ---------------------------------------
 SCF time:  CPU 51.35 s  wall 17.36 s
 SCF   energy in the final basis set = -119.13895615
 Total energy in the final basis set = -119.13895615
 
 --------------------------------------------------------------
 
                    Orbital Energies (a.u.)
 --------------------------------------------------------------
 
 Alpha MOs
 -- Occupied --
-10.2746 -10.2656 -10.2656  -0.8837  -0.7772  -0.6772  -0.5494  -0.5229
 -0.4853  -0.4606  -0.4209  -0.4172  -0.4029
 -- Virtual --
  0.0690   0.0859   0.0903   0.0973   0.1253   0.1298   0.1335   0.1380
  0.1436   0.1717   0.1721   0.1915   0.2317   0.2429   0.2442   0.2643
  0.2833   0.2855   0.3099   0.3130   0.3312   0.3494   0.4587   0.4695
  0.4705   0.5040   0.5134   0.5164   0.5420   0.5655   0.5856   0.5970
  0.6065   0.6254   0.6448   0.6457   0.6513   0.6642   0.7107   0.7239
  0.7257   0.7695   0.8181   0.8493   0.8676   0.8901   0.9086   0.9702
  1.0110   1.0359   1.0790   1.1247   1.1354   1.1757   1.1850   1.2023
  1.2304   1.2472   1.2479   1.2919   1.2975   1.3190   1.3240   1.3777
  1.3890   1.3954   1.4184   1.4351   1.4517   1.4613   1.4966   1.5137
  1.5347   1.5758   1.5818   1.6296   1.6313   1.6313   1.6644   1.7008
  1.7422   2.3767   2.4356   2.4746   2.5117   2.5751   2.5884   2.6121
  2.6710   2.7066   2.7754   2.8324   2.8657   2.8932   2.9176   2.9274
  2.9585   2.9685   3.0062   3.0072   3.0559   3.0625   3.0930   3.0966
  3.1252   3.1563   3.1790   3.1939   3.2223   3.2295   3.2563   3.3060
  3.3082   3.3166   3.3347   3.3596   3.3763   3.3941   3.4329   3.4337
  3.4696   3.4852   3.4981   3.5312   3.5656   3.5815   3.5932   3.6178
  3.6426   3.6574   3.6609   3.7031   3.8080   3.8274   3.8437   3.8911
  3.8948   3.9163   3.9454   3.9791   3.9795   4.0174   4.0276   4.0723
  4.0859   4.1036   4.1224   4.1375   4.1644   4.1819   4.1886   4.2138
  4.2303   4.2777   4.2873   4.3429   4.3622   4.4047   4.4259   4.4499
  4.4778   4.5620   4.5856   4.6397   4.6976   4.7986   4.8349   4.9032
  4.9329   4.9496   4.9640   4.9708   4.9842   5.0353   5.0889   5.1239
  5.1372   5.2269   5.2524   5.2547   5.2791   5.3572   5.3617   5.3744
  5.3863   5.3938   5.4947   5.5153   5.5433   5.5813   5.6758   5.7459
  5.9648   6.3830   6.3901   6.4032   6.4227   6.4817  25.1798  25.4394
 25.4554
 --------------------------------------------------------------
 
 -----------------------------------------------------------------
                    Cartesian Multipole Moments
 -----------------------------------------------------------------
    Charge (ESU x 10^10)
                -0.0000
    Dipole Moment (Debye)
         X      -0.0000      Y       0.1145      Z      -0.0923
       Tot       0.1471
    Quadrupole Moments (Debye-Ang)
        XX     -22.1924     XY      -0.0000     YY     -21.4267
        XZ      -0.0000     YZ      -0.0331     ZZ     -21.8163
    Octopole Moments (Debye-Ang^2)
       XXX       0.0000    XXY       0.5598    XYY      -0.0000
       YYY       2.8582    XXZ      -1.4379    XYZ       0.0000
       YYZ       0.5270    XZZ       0.0000    YZZ      -0.0776
       ZZZ      -0.4110
    Hexadecapole Moments (Debye-Ang^3)
      XXXX    -200.8775   XXXY      -0.0000   XXYY     -42.1080
      XYYY      -0.0000   YYYY     -44.1132   XXXZ       0.0000
      XXYZ      -0.9086   XYYZ       0.0000   YYYZ      -0.3453
      XXZZ     -44.9763   XYZZ      -0.0000   YYZZ     -17.3586
      XZZZ       0.0000   YZZZ       0.1274   ZZZZ     -71.7971
 -----------------------------------------------------------------
Archival summary:
1\1\centos77-c4\SP\ProcedureUnspecified\BasisUnspecified\38\shihchen\TueJul700:47:302020TueJul700:47:302020\0\\#,ProcedureUnspecified,BasisUnspecified,\\0,1\C\H,1,1.09014\H,1,1.09504,2,106.771\C,1,1.52405,2,115.652,3,-113.293,0\H,4,1.09047,1,111.453,2,48.9815,0\H,4,1.09072,1,116.417,2,-76.5329,0\H,4,1.09302,1,105.377,2,164.236,0\C,1,1.52405,2,115.652,3,113.293,0\H,8,1.09047,1,111.453,2,-48.9816,0\H,8,1.09072,1,116.417,2,76.5329,0\H,8,1.09302,1,105.377,2,-164.236,0\\\@

 Total job time:  27.10s(wall), 73.74s(cpu) 
 Tue Jul  7 00:47:30 2020

        *************************************************************
        *                                                           *
        *  Thank you very much for using Q-Chem.  Have a nice day.  *
        *                                                           *
        *************************************************************


