                  Welcome to Q-Chem
     A Quantum Leap Into The Future Of Chemistry


 Q-Chem 5.3 (devel), Q-Chem, Inc., Pleasanton, CA (2020)

 Yihan Shao,  Zhengting Gan,  E. Epifanovsky,  A. T. B. Gilbert,  M. Wormit,  
 J. Kussmann,  A. W. Lange,  A. Behn,  Jia Deng,  Xintian Feng,  D. Ghosh,  
 M. Goldey,  P. R. Horn,  L. D. Jacobson,  I. Kaliman,  T. Kus,  A. Landau,  
 Jie Liu,  E. I. Proynov,  R. M. Richard,  R. P. Steele,  E. J. Sundstrom,  
 H. L. Woodcock III,  P. M. Zimmerman,  D. Zuev,  B. Alam,  B. Albrecht,  
 E. Alguire,  S. A. Baeppler,  D. Barton,  Z. Benda,  Y. A. Bernard,  
 E. J. Berquist,  K. B. Bravaya,  H. Burton,  K. Carter-Fenk,  D. Casanova,  
 Chun-Min Chang,  Yunqing Chen,  A. Chien,  K. D. Closser,  M. P. Coons,  
 S. Coriani,  S. Dasgupta,  A. L. Dempwolff,  M. Diedenhofen,  Hainam Do,  
 R. G. Edgar,  Po-Tung Fang,  S. Faraji,  S. Fatehi,  Qingguo Feng,  
 J. Fosso-Tande,  J. Gayvert,  Qinghui Ge,  A. Ghysels,  G. Gidofalvi,  
 J. Gomes,  J. Gonthier,  A. Gunina,  D. Hait,  M. W. D. Hanson-Heine,  
 P. H. P. Harbach,  A. W. Hauser,  M. F. Herbst,  J. E. Herr,  
 E. G. Hohenstein,  Z. C. Holden,  Kerwin Hui,  B. C. Huynh,  T.-C. Jagau,  
 Hyunjun Ji,  B. Kaduk,  K. Khistyaev,  Jaehoon Kim,  P. Klunzinger,  K. Koh,  
 D. Kosenkov,  L. Koulias,  T. Kowalczyk,  C. M. Krauter,  A. Kunitsa,  
 Ka Un Lao,  A. Laurent,  K. V. Lawler,  Joonho Lee,  D. Lefrancois,  
 S. Lehtola,  D. S. Levine,  Yi-Pei Li,  You-Sheng Lin,  Fenglai Liu,  
 Kuan-Yu Liu,  E. Livshits,  M. Loipersberger,  A. Luenser,  P. Manohar,  
 E. Mansoor,  S. F. Manzer,  Shan-Ping Mao,  Yuezhi Mao,  N. Mardirossian,  
 A. V. Marenich,  T. Markovich,  L. A. Martinez-Martinez,  S. A. Maurer,  
 N. J. Mayhall,  S. C. McKenzie,  J.-M. Mewes,  P. Morgante,  A. F. Morrison,  
 J. W. Mullinax,  K. Nanda,  T. S. Nguyen-Beck,  R. Olivares-Amaya,  
 K. J. Oosterbaan,  J. A. Parkhill,  S. K. Paul,  F. Pavosevic,  Zheng Pei,  
 T. M. Perrine,  F. Plasser,  P. Pokhilko,  S. Prager,  A. Prociuk,  
 E. Ramos,  B. Rana,  D. R. Rehn,  F. Rob,  M. Scheurer,  M. Schneider,  
 N. Sergueev,  S. M. Sharada,  S. Sharma,  D. W. Small,  T. Stauch,  
 C. J. Stein,  T. Stein,  Yu-Chuan Su,  S. P. Veccham,  Zhen Tao,  
 A. J. W. Thom,  A. Tkatchenko,  T. Tsuchimochi,  N. M. Tubman,  L. Vogt,  
 M. L. Vidal,  O. Vydrov,  M. A. Watson,  J. Wenzel,  M. de Wergifosse,  
 T. A. Wesolowski,  A. White,  J. Witte,  A. Yamada,  Jun Yang,  K. Yao,  
 S. Yeganeh,  S. R. Yost,  Zhi-Qiang You,  A. Zech,  Igor Ying Zhang,  
 Xing Zhang,  Yan Zhao,  Ying Zhu,  B. R. Brooks,  G. K. L. Chan,  
 C. J. Cramer,  M. S. Gordon,  W. J. Hehre,  A. Klamt,  M. W. Schmidt,  
 C. D. Sherrill,  D. G. Truhlar,  A. Aspuru-Guzik,  R. Baer,  A. T. Bell,  
 N. A. Besley,  Jeng-Da Chai,  A. E. DePrince, III,  R. A. DiStasio Jr.,  
 A. Dreuw,  B. D. Dunietz,  T. R. Furlani,  Chao-Ping Hsu,  Yousung Jung,  
 Jing Kong,  D. S. Lambrecht,  WanZhen Liang,  C. Ochsenfeld,  
 V. A. Rassolov,  L. V. Slipchenko,  J. E. Subotnik,  T. Van Voorhis,  
 J. M. Herbert,  A. I. Krylov,  P. M. W. Gill,  M. Head-Gordon

 Contributors to earlier versions of Q-Chem not listed above: 
 R. D. Adamson,  B. Austin,  J. Baker,  G. J. O. Beran,  K. Brandhorst,  
 S. T. Brown,  E. F. C. Byrd,  A. K. Chakraborty,  C.-L. Cheng,  
 Siu Hung Chien,  D. M. Chipman,  D. L. Crittenden,  H. Dachsel,  
 R. J. Doerksen,  A. D. Dutoi,  L. Fusti-Molnar,  W. A. Goddard III,  
 A. Golubeva-Zadorozhnaya,  S. R. Gwaltney,  G. Hawkins,  A. Heyden,  
 S. Hirata,  G. Kedziora,  F. J. Keil,  C. Kelley,  Jihan Kim,  R. A. King,  
 R. Z. Khaliullin,  P. P. Korambath,  W. Kurlancheek,  A. M. Lee,  M. S. Lee,  
 S. V. Levchenko,  Ching Yeh Lin,  D. Liotard,  R. C. Lochan,  I. Lotan,  
 P. E. Maslen,  N. Nair,  D. P. O'Neill,  D. Neuhauser,  E. Neuscamman,  
 C. M. Oana,  R. Olson,  B. Peters,  R. Peverati,  P. A. Pieniazek,  
 Y. M. Rhee,  J. Ritchie,  M. A. Rohrdanz,  E. Rosta,  N. J. Russ,  
 H. F. Schaefer III,  N. E. Schultz,  N. Shenvi,  A. C. Simmonett,  A. Sodt,  
 D. Stuck,  K. S. Thanthiriwatte,  V. Vanovschi,  Tao Wang,  A. Warshel,  
 C. F. Williams,  Q. Wu,  X. Xu,  W. Zhang

 Please cite Q-Chem as follows:
 Y. Shao et al., Mol. Phys. 113, 184-215 (2015)
 DOI: 10.1080/00268976.2014.952696

 Q-Chem 5.3.0 for Intel X86 EM64T Linux

 Parts of Q-Chem use Armadillo 9.800.1 (Horizon Scraper).
 http://arma.sourceforge.net/

 Q-Chem begins on Tue Jul  7 01:26:07 2020  

Host: centos77-c4
0

     Scratch files written to /tmp/26963.centos77-h1/qchem100208//
Processing $rem in /opt/qchem-5.3.0-intel2020u1//config/preferences:
Processing $rem in /home/shihchengli/.qchemrc:

Checking the input file for inconsistencies... 	...done.

--------------------------------------------------------------
User input:
--------------------------------------------------------------
$rem
   JOBTYPE  sp
   EXCHANGE   omegaB97X-D
   BASIS   6-311+G(2df,2pd)
   UNRESTRICTED   False
   max_scf_cycles   250
   geom_opt_max_cycles   1500
   basis2 6-31G*
   scf_algorithm rca_diis
   SYM_IGNORE  TRUE
   print_input   true
   geom_opt_dmax   80
   pop_mulliken false
   XC_GRID 000075000302
$end

$molecule
0 1
C       1.2611425382     0.1342076206     0.2566216031
C       0.0000000550     0.0000000096     -0.5884987703
H       1.2671928242     -0.8174248382     0.7935143177
H       1.3412910422     0.9363446738     0.9918831843
H       2.1546266604     0.0497880495     -0.3627989676
C       -1.2611424152     -0.1342073413     0.2566216469
H       -0.4092065322     -0.7965510665     -1.2144484645
H       0.4092068584     0.7965509303     -1.2144484888
H       -1.3412909872     -0.9363446293     0.9918829318
H       -2.1546267698     -0.0497876863     -0.3627986280
H       -1.2671933346     0.8174249437     0.7935146544
$end
--------------------------------------------------------------
 ----------------------------------------------------------------
             Standard Nuclear Orientation (Angstroms)
    I     Atom           X                Y                Z
 ----------------------------------------------------------------
    1      C       1.2611425382     0.1342076206     0.2566216031
    2      C       0.0000000550     0.0000000096    -0.5884987703
    3      H       1.2671928242    -0.8174248382     0.7935143177
    4      H       1.3412910422     0.9363446738     0.9918831843
    5      H       2.1546266604     0.0497880495    -0.3627989676
    6      C      -1.2611424152    -0.1342073413     0.2566216469
    7      H      -0.4092065322    -0.7965510665    -1.2144484645
    8      H       0.4092068584     0.7965509303    -1.2144484888
    9      H      -1.3412909872    -0.9363446293     0.9918829318
   10      H      -2.1546267698    -0.0497876863    -0.3627986280
   11      H      -1.2671933346     0.8174249437     0.7935146544
 ----------------------------------------------------------------
 Nuclear Repulsion Energy =          83.06234912 hartrees
 There are       13 alpha and       13 beta electrons
 Requested basis set is 6-311+G(2df,2pd)
 There are 72 shells and 214 basis functions

 Total QAlloc Memory Limit   2000 MB
 Mega-Array Size       188 MB
 MEM_STATIC part       192 MB

                       Distance Matrix (Angstroms)
             C (  1)   C (  2)   H (  3)   H (  4)   H (  5)   C (  6)
   C (  2)  1.524047
   H (  3)  1.092655  2.045464
   H (  4)  1.091081  2.274513  1.766507
   H (  5)  1.090469  2.166988  1.696071  1.811812
   C (  6)  2.536527  1.524047  2.673484  2.908496  3.476351
   H (  7)  2.412556  1.092592  2.615849  3.306822  2.831049  1.824429
   H (  8)  1.824429  1.092592  2.715322  2.399213  2.080734  2.412556
   H (  9)  2.908496  2.274513  2.618717  3.271576  3.876733  1.091081
   H ( 10)  3.476351  2.166988  3.692584  3.876733  4.310404  1.090469
   H ( 11)  2.673485  2.045464  3.015932  2.618718  3.692584  1.092655
             H (  7)   H (  8)   H (  9)   H ( 10)
   H (  8)  1.791026
   H (  9)  2.399213  3.306821
   H ( 10)  2.080734  2.831049  1.811811
   H ( 11)  2.715322  2.615850  1.766507  1.696071
 
 A cutoff of  1.0D-09 yielded   2527 shell pairs
 There are     22475 function pairs (     27634 Cartesian)
 Smallest overlap matrix eigenvalue = 1.32E-04

 Scale SEOQF with 1.000000e-01/1.000000e-01/1.000000e-01

 Standard Electronic Orientation quadrupole field applied
 Nucleus-field energy     =     0.0000000006 hartrees
 Requested basis set is 6-31G(d)
 There are 28 shells and 58 basis functions
 A cutoff of  1.0D-09 yielded    402 shell pairs
 There are      1773 function pairs (      1968 Cartesian)
 Smallest overlap matrix eigenvalue = 7.80E-03
 Guess from superposition of atomic densities
 Warning:  Energy on first SCF cycle will be non-variational
 SAD guess density has 26.000000 electrons
 Long-range K will be added via erf
 Coulomb attenuation parameter = 0.2 bohr**(-1)
 A restricted hybrid HF-DFT SCF calculation will be
 performed using Relaxed Constraint Minimization + Pulay DIIS
 Exchange:     0.2220 Hartree-Fock + 1.0000 wB97X-D + LR-HF
 Correlation:  1.0000 wB97X-D
 Using Euler-Maclaurin-Lebedev (75,302) quadrature formula
 Dispersion:   Grimme D
 SCF converges when DIIS error is below 1.0E-04
 using 3 threads for integral computing
 -------------------------------------------------------
 OpenMP Integral computing Module                
 Release: version 1.0, May 2013, Q-Chem Inc. Pittsburgh 
 -------------------------------------------------------
 using 3 threads for integral computing
 -------------------------------------------------------
 OpenMP Integral computing Module                
 Release: version 1.0, May 2013, Q-Chem Inc. Pittsburgh 
 -------------------------------------------------------
 ---------------------------------------
  Cycle       Energy         DIIS Error
 ---------------------------------------
    1    -119.6777042495      1.02E-01
    2    -118.9894887662      9.11E-03
    3    -119.0113260073      2.62E-03
    4    -119.0255890386      1.82E-03
    5    -119.0264020083      2.87E-04 Done RCA. Switching to DIIS
    6    -119.0270066280      2.13E-04
    7    -119.0270265508      7.47E-06 Convergence criterion met
 ---------------------------------------
 SCF time:  CPU 18.90 s  wall 6.86 s
 SCF   energy in the small basis set = -119.02702655
 Total energy in the small basis set = -119.02702655
 ----------------------------------------------------
  Cycle       Energy    
 ----------------------------------------------------
    1     -16.5396404278     -1.65E+01
 Long-range K will be added via erf
 Coulomb attenuation parameter = 0.2 bohr**(-1)
 A restricted hybrid HF-DFT SCF calculation will be
 performed using Relaxed Constraint Minimization + Pulay DIIS
 Exchange:     0.2220 Hartree-Fock + 1.0000 wB97X-D + LR-HF
 Correlation:  1.0000 wB97X-D
 Using Euler-Maclaurin-Lebedev (75,302) quadrature formula
 Dispersion:   Grimme D
 SCF converges when DIIS error is below 1.0E-05
 Basis2 calculation detected. Using small basis as guess for larger.
 SCFMinFind is unable to tell whether the solution found is close.
 Resetting ReadMinima to 0 and attempting to follow guess.
 SCFMinFind following SCF Guess.
 using 3 threads for integral computing
 -------------------------------------------------------
 OpenMP Integral computing Module                
 Release: version 1.0, May 2013, Q-Chem Inc. Pittsburgh 
 -------------------------------------------------------
 using 3 threads for integral computing
 -------------------------------------------------------
 OpenMP Integral computing Module                
 Release: version 1.0, May 2013, Q-Chem Inc. Pittsburgh 
 -------------------------------------------------------
 ---------------------------------------
  Cycle       Energy         DIIS Error
 ---------------------------------------
    1    -119.0483503592      4.22E-03
    2    -119.0705707309      6.51E-04 Done RCA. Switching to DIIS
    3    -119.0715084918      4.72E-04
    4    -119.0727374308      4.79E-05
    5    -119.0727547379      1.27E-05
    6    -119.0727558555      4.78E-06 Convergence criterion met
 ---------------------------------------
 SCF time:  CPU 51.02 s  wall 17.23 s
 SCF   energy in the final basis set = -119.07275586
 Total energy in the final basis set = -119.07275586
 
 --------------------------------------------------------------
 
                    Orbital Energies (a.u.)
 --------------------------------------------------------------
 
 Alpha MOs
 -- Occupied --
-10.2726 -10.2698 -10.2698  -0.8900  -0.7872  -0.6771  -0.5549  -0.5291
 -0.5106  -0.4751  -0.4346  -0.3985  -0.3430
 -- Virtual --
  0.0683   0.0824   0.0901   0.0989   0.1243   0.1246   0.1298   0.1423
  0.1500   0.1601   0.1806   0.1911   0.2170   0.2228   0.2298   0.2444
  0.2828   0.2873   0.3127   0.3207   0.3269   0.3375   0.4571   0.4664
  0.4786   0.5067   0.5233   0.5332   0.5427   0.5571   0.5820   0.5971
  0.6059   0.6129   0.6420   0.6446   0.6633   0.6872   0.7072   0.7166
  0.7202   0.7774   0.7838   0.8168   0.8368   0.8955   0.9349   0.9736
  0.9971   1.0315   1.0716   1.1074   1.1095   1.1611   1.1770   1.2162
  1.2166   1.2275   1.2779   1.2847   1.3137   1.3374   1.3664   1.3733
  1.3828   1.3894   1.4087   1.4342   1.4571   1.4681   1.4904   1.5105
  1.5252   1.5619   1.5999   1.6160   1.6242   1.6443   1.6654   1.7033
  1.7565   2.3872   2.4171   2.4416   2.4704   2.5485   2.5954   2.6159
  2.6811   2.7404   2.7514   2.7939   2.8003   2.8818   2.8987   2.9266
  2.9371   3.0294   3.0419   3.0509   3.0537   3.0654   3.0781   3.0923
  3.1273   3.1352   3.1583   3.1694   3.2348   3.2546   3.2773   3.3124
  3.3241   3.3495   3.3608   3.3648   3.3960   3.4304   3.4331   3.4466
  3.4602   3.5010   3.5157   3.5437   3.5521   3.5644   3.5976   3.6201
  3.6415   3.6491   3.6590   3.6859   3.6947   3.7064   3.7922   3.8400
  3.8594   3.9023   3.9127   3.9614   3.9643   3.9879   4.0281   4.0640
  4.0934   4.1165   4.1442   4.1514   4.1838   4.1916   4.2022   4.2100
  4.2519   4.2681   4.2984   4.3236   4.3423   4.4362   4.4516   4.4692
  4.4891   4.5425   4.5513   4.6763   4.7477   4.7882   4.8123   4.9032
  4.9081   4.9817   4.9870   5.0179   5.0393   5.0467   5.1208   5.1253
  5.1908   5.2004   5.2386   5.2427   5.3179   5.3225   5.3399   5.3970
  5.4084   5.4569   5.4608   5.5601   5.5693   5.6187   5.6354   5.8006
  6.1523   6.3668   6.3741   6.4145   6.4490   6.5107  25.1790  25.4331
 25.4387
 --------------------------------------------------------------
 
 -----------------------------------------------------------------
                    Cartesian Multipole Moments
 -----------------------------------------------------------------
    Charge (ESU x 10^10)
                -0.0000
    Dipole Moment (Debye)
         X      -0.0000      Y       0.0000      Z       0.0360
       Tot       0.0360
    Quadrupole Moments (Debye-Ang)
        XX     -21.7700     XY       1.1207     YY     -21.7784
        XZ      -0.0000     YZ       0.0000     ZZ     -22.2280
    Octopole Moments (Debye-Ang^2)
       XXX      -0.0000    XXY       0.0000    XYY      -0.0000
       YYY      -0.0000    XXZ      -2.0467    XYZ       0.3422
       YYZ       1.2350    XZZ       0.0000    YZZ      -0.0000
       ZZZ       0.5572
    Hexadecapole Moments (Debye-Ang^3)
      XXXX    -202.5979   XXXY      -7.0456   XXYY     -41.9308
      XYYY      -6.9400   YYYY     -45.5291   XXXZ      -0.0000
      XXYZ       0.0000   XYYZ       0.0000   YYYZ      -0.0000
      XXZZ     -44.4554   XYZZ       0.3585   YYZZ     -18.1159
      XZZZ       0.0000   YZZZ       0.0000   ZZZZ     -73.4055
 -----------------------------------------------------------------
Archival summary:
1\1\centos77-c4\SP\ProcedureUnspecified\BasisUnspecified\38\shihchen\TueJul701:26:342020TueJul701:26:342020\0\\#,ProcedureUnspecified,BasisUnspecified,\\0,1\C\H,1,1.09259\H,1,1.09259,2,110.094\C,1,1.52405,2,133.773,3,-105.502,0\H,4,1.09047,1,110.868,2,61.5505,0\H,4,1.09108,1,119.948,2,-164.948,0\H,4,1.09265,1,101.558,2,-46.1621,0\C,1,1.52405,2,86.765,3,135.819,0\H,8,1.09047,1,110.868,2,-53.4359,0\H,8,1.09108,1,119.948,2,80.0655,0\H,8,1.09265,1,101.558,2,-161.148,0\\\@

 Total job time:  27.05s(wall), 73.61s(cpu) 
 Tue Jul  7 01:26:34 2020

        *************************************************************
        *                                                           *
        *  Thank you very much for using Q-Chem.  Have a nice day.  *
        *                                                           *
        *************************************************************


