                  Welcome to Q-Chem
     A Quantum Leap Into The Future Of Chemistry


 Q-Chem 5.3 (devel), Q-Chem, Inc., Pleasanton, CA (2020)

 Yihan Shao,  Zhengting Gan,  E. Epifanovsky,  A. T. B. Gilbert,  M. Wormit,  
 J. Kussmann,  A. W. Lange,  A. Behn,  Jia Deng,  Xintian Feng,  D. Ghosh,  
 M. Goldey,  P. R. Horn,  L. D. Jacobson,  I. Kaliman,  T. Kus,  A. Landau,  
 Jie Liu,  E. I. Proynov,  R. M. Richard,  R. P. Steele,  E. J. Sundstrom,  
 H. L. Woodcock III,  P. M. Zimmerman,  D. Zuev,  B. Alam,  B. Albrecht,  
 E. Alguire,  S. A. Baeppler,  D. Barton,  Z. Benda,  Y. A. Bernard,  
 E. J. Berquist,  K. B. Bravaya,  H. Burton,  K. Carter-Fenk,  D. Casanova,  
 Chun-Min Chang,  Yunqing Chen,  A. Chien,  K. D. Closser,  M. P. Coons,  
 S. Coriani,  S. Dasgupta,  A. L. Dempwolff,  M. Diedenhofen,  Hainam Do,  
 R. G. Edgar,  Po-Tung Fang,  S. Faraji,  S. Fatehi,  Qingguo Feng,  
 J. Fosso-Tande,  J. Gayvert,  Qinghui Ge,  A. Ghysels,  G. Gidofalvi,  
 J. Gomes,  J. Gonthier,  A. Gunina,  D. Hait,  M. W. D. Hanson-Heine,  
 P. H. P. Harbach,  A. W. Hauser,  M. F. Herbst,  J. E. Herr,  
 E. G. Hohenstein,  Z. C. Holden,  Kerwin Hui,  B. C. Huynh,  T.-C. Jagau,  
 Hyunjun Ji,  B. Kaduk,  K. Khistyaev,  Jaehoon Kim,  P. Klunzinger,  K. Koh,  
 D. Kosenkov,  L. Koulias,  T. Kowalczyk,  C. M. Krauter,  A. Kunitsa,  
 Ka Un Lao,  A. Laurent,  K. V. Lawler,  Joonho Lee,  D. Lefrancois,  
 S. Lehtola,  D. S. Levine,  Yi-Pei Li,  You-Sheng Lin,  Fenglai Liu,  
 Kuan-Yu Liu,  E. Livshits,  M. Loipersberger,  A. Luenser,  P. Manohar,  
 E. Mansoor,  S. F. Manzer,  Shan-Ping Mao,  Yuezhi Mao,  N. Mardirossian,  
 A. V. Marenich,  T. Markovich,  L. A. Martinez-Martinez,  S. A. Maurer,  
 N. J. Mayhall,  S. C. McKenzie,  J.-M. Mewes,  P. Morgante,  A. F. Morrison,  
 J. W. Mullinax,  K. Nanda,  T. S. Nguyen-Beck,  R. Olivares-Amaya,  
 K. J. Oosterbaan,  J. A. Parkhill,  S. K. Paul,  F. Pavosevic,  Zheng Pei,  
 T. M. Perrine,  F. Plasser,  P. Pokhilko,  S. Prager,  A. Prociuk,  
 E. Ramos,  B. Rana,  D. R. Rehn,  F. Rob,  M. Scheurer,  M. Schneider,  
 N. Sergueev,  S. M. Sharada,  S. Sharma,  D. W. Small,  T. Stauch,  
 C. J. Stein,  T. Stein,  Yu-Chuan Su,  S. P. Veccham,  Zhen Tao,  
 A. J. W. Thom,  A. Tkatchenko,  T. Tsuchimochi,  N. M. Tubman,  L. Vogt,  
 M. L. Vidal,  O. Vydrov,  M. A. Watson,  J. Wenzel,  M. de Wergifosse,  
 T. A. Wesolowski,  A. White,  J. Witte,  A. Yamada,  Jun Yang,  K. Yao,  
 S. Yeganeh,  S. R. Yost,  Zhi-Qiang You,  A. Zech,  Igor Ying Zhang,  
 Xing Zhang,  Yan Zhao,  Ying Zhu,  B. R. Brooks,  G. K. L. Chan,  
 C. J. Cramer,  M. S. Gordon,  W. J. Hehre,  A. Klamt,  M. W. Schmidt,  
 C. D. Sherrill,  D. G. Truhlar,  A. Aspuru-Guzik,  R. Baer,  A. T. Bell,  
 N. A. Besley,  Jeng-Da Chai,  A. E. DePrince, III,  R. A. DiStasio Jr.,  
 A. Dreuw,  B. D. Dunietz,  T. R. Furlani,  Chao-Ping Hsu,  Yousung Jung,  
 Jing Kong,  D. S. Lambrecht,  WanZhen Liang,  C. Ochsenfeld,  
 V. A. Rassolov,  L. V. Slipchenko,  J. E. Subotnik,  T. Van Voorhis,  
 J. M. Herbert,  A. I. Krylov,  P. M. W. Gill,  M. Head-Gordon

 Contributors to earlier versions of Q-Chem not listed above: 
 R. D. Adamson,  B. Austin,  J. Baker,  G. J. O. Beran,  K. Brandhorst,  
 S. T. Brown,  E. F. C. Byrd,  A. K. Chakraborty,  C.-L. Cheng,  
 Siu Hung Chien,  D. M. Chipman,  D. L. Crittenden,  H. Dachsel,  
 R. J. Doerksen,  A. D. Dutoi,  L. Fusti-Molnar,  W. A. Goddard III,  
 A. Golubeva-Zadorozhnaya,  S. R. Gwaltney,  G. Hawkins,  A. Heyden,  
 S. Hirata,  G. Kedziora,  F. J. Keil,  C. Kelley,  Jihan Kim,  R. A. King,  
 R. Z. Khaliullin,  P. P. Korambath,  W. Kurlancheek,  A. M. Lee,  M. S. Lee,  
 S. V. Levchenko,  Ching Yeh Lin,  D. Liotard,  R. C. Lochan,  I. Lotan,  
 P. E. Maslen,  N. Nair,  D. P. O'Neill,  D. Neuhauser,  E. Neuscamman,  
 C. M. Oana,  R. Olson,  B. Peters,  R. Peverati,  P. A. Pieniazek,  
 Y. M. Rhee,  J. Ritchie,  M. A. Rohrdanz,  E. Rosta,  N. J. Russ,  
 H. F. Schaefer III,  N. E. Schultz,  N. Shenvi,  A. C. Simmonett,  A. Sodt,  
 D. Stuck,  K. S. Thanthiriwatte,  V. Vanovschi,  Tao Wang,  A. Warshel,  
 C. F. Williams,  Q. Wu,  X. Xu,  W. Zhang

 Please cite Q-Chem as follows:
 Y. Shao et al., Mol. Phys. 113, 184-215 (2015)
 DOI: 10.1080/00268976.2014.952696

 Q-Chem 5.3.0 for Intel X86 EM64T Linux

 Parts of Q-Chem use Armadillo 9.800.1 (Horizon Scraper).
 http://arma.sourceforge.net/

 Q-Chem begins on Thu Jul  2 06:03:50 2020  

Host: centos77-c1
0

     Scratch files written to /tmp/26650.centos77-h1/qchem82449//
Processing $rem in /opt/qchem-5.3.0-intel2020u1//config/preferences:
Processing $rem in /home/shihchengli/.qchemrc:

Checking the input file for inconsistencies... 	...done.

--------------------------------------------------------------
User input:
--------------------------------------------------------------
$rem
   JOBTYPE  sp
   EXCHANGE   omegaB97X-D
   BASIS   6-311+G(2df,2pd)
   max_scf_cycles   250
   geom_opt_max_cycles   1500
   basis2 6-31G*
   scf_algorithm rca_diis
   SYM_IGNORE  TRUE
   print_input   true
   geom_opt_dmax   80
   pop_mulliken false
   XC_GRID 000075000302
$end

$molecule
0 1
C       1.2409297756     -0.0000016101     0.2851938243
C       -0.0078989482     -0.0000015285     -0.5873360382
H       1.2761788806     -0.8386879354     0.8921056493
H       1.2761789790     0.8386907902     0.8921095106
H       2.2528423985     -0.0000010674     -0.4013853725
C       -1.2929492604     -0.0000015213     0.2331554050
H       -0.0000650434     -0.8738615634     -1.2431249979
H       -0.0000650231     0.8738628529     -1.2431276719
H       -1.3340676780     -0.9221752149     0.9154563272
H       -2.0770164324     -0.0000004248     -0.3174615462
H       -1.3340677089     0.9221778886     0.9154599292
$end
--------------------------------------------------------------
 ----------------------------------------------------------------
             Standard Nuclear Orientation (Angstroms)
    I     Atom           X                Y                Z
 ----------------------------------------------------------------
    1      C       1.2409297756    -0.0000016101     0.2851938243
    2      C      -0.0078989482    -0.0000015285    -0.5873360382
    3      H       1.2761788806    -0.8386879354     0.8921056493
    4      H       1.2761789790     0.8386907902     0.8921095106
    5      H       2.2528423985    -0.0000010674    -0.4013853725
    6      C      -1.2929492604    -0.0000015213     0.2331554050
    7      H      -0.0000650434    -0.8738615634    -1.2431249979
    8      H      -0.0000650231     0.8738628529    -1.2431276719
    9      H      -1.3340676780    -0.9221752149     0.9154563272
   10      H      -2.0770164324    -0.0000004248    -0.3174615462
   11      H      -1.3340677089     0.9221778886     0.9154599292
 ----------------------------------------------------------------
 Nuclear Repulsion Energy =          82.85639872 hartrees
 There are       13 alpha and       13 beta electrons
 Requested basis set is 6-311+G(2df,2pd)
 There are 72 shells and 214 basis functions

 Total QAlloc Memory Limit   2000 MB
 Mega-Array Size       188 MB
 MEM_STATIC part       192 MB

                       Distance Matrix (Angstroms)
             C (  1)   C (  2)   H (  3)   H (  4)   H (  5)   C (  6)
   C (  2)  1.523444
   H (  3)  1.035847  2.130962
   H (  4)  1.035854  2.130967  1.677379
   H (  5)  1.222848  2.268376  1.824935  1.824940
   C (  6)  2.534413  1.524651  2.781731  2.781734  3.602122
   H (  7)  2.153940  1.092590  2.487819  3.020076  2.558857  2.148158
   H (  8)  2.153944  1.092595  3.020075  2.487825  2.558859  2.148162
   H (  9)  2.806821  2.206244  2.611686  3.148743  3.930700  1.147880
   H ( 10)  3.372234  2.086643  3.662017  3.662019  4.330672  0.958092
   H ( 11)  2.806824  2.206249  3.148743  2.611686  3.930702  1.147887
             H (  7)   H (  8)   H (  9)   H ( 10)
   H (  8)  1.747724
   H (  9)  2.537986  3.108826
   H ( 10)  2.436024  2.436026  1.709522
   H ( 11)  3.108828  2.537991  1.844353  1.709527
 
 A cutoff of  1.0D-09 yielded   2532 shell pairs
 There are     22604 function pairs (     27797 Cartesian)
 Smallest overlap matrix eigenvalue = 8.67E-05

 Scale SEOQF with 1.000000e-01/1.000000e-01/1.000000e-01

 Standard Electronic Orientation quadrupole field applied
 Nucleus-field energy     =     0.0000000006 hartrees
 Requested basis set is 6-31G(d)
 There are 28 shells and 58 basis functions
 A cutoff of  1.0D-09 yielded    402 shell pairs
 There are      1773 function pairs (      1968 Cartesian)
 Smallest overlap matrix eigenvalue = 6.73E-03
 Guess from superposition of atomic densities
 Warning:  Energy on first SCF cycle will be non-variational
 SAD guess density has 26.000000 electrons
 Long-range K will be added via erf
 Coulomb attenuation parameter = 0.2 bohr**(-1)
 A restricted hybrid HF-DFT SCF calculation will be
 performed using Relaxed Constraint Minimization + Pulay DIIS
 Exchange:     0.2220 Hartree-Fock + 1.0000 wB97X-D + LR-HF
 Correlation:  1.0000 wB97X-D
 Using Euler-Maclaurin-Lebedev (75,302) quadrature formula
 Dispersion:   Grimme D
 SCF converges when DIIS error is below 1.0E-04
 using 3 threads for integral computing
 -------------------------------------------------------
 OpenMP Integral computing Module                
 Release: version 1.0, May 2013, Q-Chem Inc. Pittsburgh 
 -------------------------------------------------------
 using 3 threads for integral computing
 -------------------------------------------------------
 OpenMP Integral computing Module                
 Release: version 1.0, May 2013, Q-Chem Inc. Pittsburgh 
 -------------------------------------------------------
 ---------------------------------------
  Cycle       Energy         DIIS Error
 ---------------------------------------
    1    -119.6142933987      1.01E-01
    2    -119.0337872463      9.25E-03
    3    -119.0562676650      2.53E-03
    4    -119.0711711472      1.73E-03
    5    -119.0719082985      2.74E-04 Done RCA. Switching to DIIS
    6    -119.0724512898      2.01E-04
    7    -119.0724689673      5.22E-06 Convergence criterion met
 ---------------------------------------
 SCF time:  CPU 20.84 s  wall 7.79 s
 SCF   energy in the small basis set = -119.07246897
 Total energy in the small basis set = -119.07246897
 ----------------------------------------------------
  Cycle       Energy    
 ----------------------------------------------------
    1     -16.5511709748     -1.66E+01
 Long-range K will be added via erf
 Coulomb attenuation parameter = 0.2 bohr**(-1)
 A restricted hybrid HF-DFT SCF calculation will be
 performed using Relaxed Constraint Minimization + Pulay DIIS
 Exchange:     0.2220 Hartree-Fock + 1.0000 wB97X-D + LR-HF
 Correlation:  1.0000 wB97X-D
 Using Euler-Maclaurin-Lebedev (75,302) quadrature formula
 Dispersion:   Grimme D
 SCF converges when DIIS error is below 1.0E-05
 Basis2 calculation detected. Using small basis as guess for larger.
 SCFMinFind is unable to tell whether the solution found is close.
 Resetting ReadMinima to 0 and attempting to follow guess.
 SCFMinFind following SCF Guess.
 using 3 threads for integral computing
 -------------------------------------------------------
 OpenMP Integral computing Module                
 Release: version 1.0, May 2013, Q-Chem Inc. Pittsburgh 
 -------------------------------------------------------
 using 3 threads for integral computing
 -------------------------------------------------------
 OpenMP Integral computing Module                
 Release: version 1.0, May 2013, Q-Chem Inc. Pittsburgh 
 -------------------------------------------------------
 ---------------------------------------
  Cycle       Energy         DIIS Error
 ---------------------------------------
    1    -119.0928934602      4.21E-03
    2    -119.1148824998      5.88E-04 Done RCA. Switching to DIIS
    3    -119.1156905664      4.12E-04
    4    -119.1166253178      4.57E-05
    5    -119.1166401841      9.66E-06 Convergence criterion met
 ---------------------------------------
 SCF time:  CPU 43.17 s  wall 14.52 s
 SCF   energy in the final basis set = -119.11664018
 Total energy in the final basis set = -119.11664018
 
 --------------------------------------------------------------
 
                    Orbital Energies (a.u.)
 --------------------------------------------------------------
 
 Alpha MOs
 -- Occupied --
-10.2750 -10.2659 -10.2629  -0.8831  -0.7820  -0.6807  -0.5476  -0.5293
 -0.4801  -0.4652  -0.4249  -0.4099  -0.4070
 -- Virtual --
  0.0686   0.0854   0.0908   0.0987   0.1248   0.1296   0.1333   0.1422
  0.1430   0.1687   0.1719   0.1910   0.2230   0.2291   0.2527   0.2640
  0.2778   0.2893   0.3104   0.3142   0.3372   0.3522   0.4571   0.4635
  0.4721   0.5094   0.5145   0.5185   0.5454   0.5620   0.5721   0.5941
  0.6088   0.6282   0.6386   0.6436   0.6592   0.6672   0.7117   0.7322
  0.7391   0.7679   0.8210   0.8640   0.8672   0.8721   0.8847   0.9574
  0.9974   1.0527   1.0573   1.1241   1.1485   1.1837   1.1859   1.2134
  1.2322   1.2328   1.2691   1.2761   1.2829   1.2933   1.3239   1.3525
  1.3788   1.3881   1.4231   1.4437   1.4567   1.4723   1.4781   1.4838
  1.5230   1.5630   1.5948   1.6183   1.6458   1.6837   1.6949   1.7193
  1.7480   2.3692   2.3773   2.4852   2.5303   2.5447   2.5846   2.6218
  2.6309   2.7210   2.8190   2.8315   2.8362   2.9064   2.9123   2.9194
  2.9362   2.9429   2.9919   3.0015   3.0474   3.0734   3.0872   3.0975
  3.1351   3.1353   3.1784   3.1985   3.2069   3.2458   3.2730   3.3042
  3.3047   3.3164   3.3420   3.3507   3.3622   3.3746   3.3890   3.4346
  3.4588   3.4788   3.4817   3.4976   3.5529   3.5578   3.6117   3.6117
  3.6344   3.6640   3.6810   3.7484   3.7534   3.7818   3.8658   3.8704
  3.9342   3.9403   3.9479   3.9646   3.9783   4.0119   4.0267   4.0769
  4.0781   4.0975   4.1241   4.1266   4.1605   4.1620   4.2014   4.2038
  4.2271   4.2423   4.2625   4.3559   4.3689   4.4056   4.4154   4.4323
  4.4340   4.5557   4.5756   4.6105   4.6520   4.7777   4.8042   4.8700
  4.8789   4.9033   4.9343   4.9612   5.0112   5.0294   5.0957   5.1128
  5.1554   5.2144   5.2691   5.2817   5.3285   5.3782   5.3975   5.4084
  5.4736   5.4743   5.5626   5.6217   5.6358   5.6974   5.7143   5.7391
  5.9477   6.2495   6.2537   6.4548   6.5148   6.5832  25.2026  25.4000
 25.4130
 --------------------------------------------------------------
 
 -----------------------------------------------------------------
                    Cartesian Multipole Moments
 -----------------------------------------------------------------
    Charge (ESU x 10^10)
                 0.0000
    Dipole Moment (Debye)
         X      -0.1649      Y      -0.0000      Z      -0.0760
       Tot       0.1815
    Quadrupole Moments (Debye-Ang)
        XX     -22.2914     XY       0.0000     YY     -21.3601
        XZ       0.2569     YZ      -0.0000     ZZ     -21.8093
    Octopole Moments (Debye-Ang^2)
       XXX      -0.9143    XXY      -0.0000    XYY      -0.0755
       YYY       0.0000    XXZ      -1.5291    XYZ       0.0000
       YYZ       0.4977    XZZ       0.2226    YZZ       0.0000
       ZZZ      -0.3695
    Hexadecapole Moments (Debye-Ang^3)
      XXXX    -203.7695   XXXY       0.0000   XXYY     -42.4202
      XYYY       0.0000   YYYY     -44.2253   XXXZ       1.3339
      XXYZ      -0.0000   XYYZ       0.4520   YYYZ      -0.0000
      XXZZ     -45.4452   XYZZ       0.0000   YYZZ     -17.0711
      XZZZ       1.7436   YZZZ      -0.0000   ZZZZ     -72.1841
 -----------------------------------------------------------------
Archival summary:
1\1\centos77-c1\SP\ProcedureUnspecified\BasisUnspecified\38\shihchen\ThuJul206:04:152020ThuJul206:04:152020\0\\#,ProcedureUnspecified,BasisUnspecified,\\0,1\C\H,1,1.09259\H,1,1.09259,2,106.223\C,1,1.52344,2,109.748,3,-118.577,0\H,4,1.03585,1,111.313,2,-61.4572,0\H,4,1.03585,1,111.313,2,177.834,0\H,4,1.22285,1,110.902,2,58.1883,0\C,1,1.52465,2,109.211,3,117.664,0\H,8,0.958092,1,112.363,2,-57.8839,0\H,8,1.14788,1,110.492,2,63.0637,0\H,8,1.14789,1,110.491,2,-178.831,0\\\@

 Total job time:  25.22s(wall), 67.59s(cpu) 
 Thu Jul  2 06:04:15 2020

        *************************************************************
        *                                                           *
        *  Thank you very much for using Q-Chem.  Have a nice day.  *
        *                                                           *
        *************************************************************


