                  Welcome to Q-Chem
     A Quantum Leap Into The Future Of Chemistry


 Q-Chem 5.3 (devel), Q-Chem, Inc., Pleasanton, CA (2020)

 Yihan Shao,  Zhengting Gan,  E. Epifanovsky,  A. T. B. Gilbert,  M. Wormit,  
 J. Kussmann,  A. W. Lange,  A. Behn,  Jia Deng,  Xintian Feng,  D. Ghosh,  
 M. Goldey,  P. R. Horn,  L. D. Jacobson,  I. Kaliman,  T. Kus,  A. Landau,  
 Jie Liu,  E. I. Proynov,  R. M. Richard,  R. P. Steele,  E. J. Sundstrom,  
 H. L. Woodcock III,  P. M. Zimmerman,  D. Zuev,  B. Alam,  B. Albrecht,  
 E. Alguire,  S. A. Baeppler,  D. Barton,  Z. Benda,  Y. A. Bernard,  
 E. J. Berquist,  K. B. Bravaya,  H. Burton,  K. Carter-Fenk,  D. Casanova,  
 Chun-Min Chang,  Yunqing Chen,  A. Chien,  K. D. Closser,  M. P. Coons,  
 S. Coriani,  S. Dasgupta,  A. L. Dempwolff,  M. Diedenhofen,  Hainam Do,  
 R. G. Edgar,  Po-Tung Fang,  S. Faraji,  S. Fatehi,  Qingguo Feng,  
 J. Fosso-Tande,  J. Gayvert,  Qinghui Ge,  A. Ghysels,  G. Gidofalvi,  
 J. Gomes,  J. Gonthier,  A. Gunina,  D. Hait,  M. W. D. Hanson-Heine,  
 P. H. P. Harbach,  A. W. Hauser,  M. F. Herbst,  J. E. Herr,  
 E. G. Hohenstein,  Z. C. Holden,  Kerwin Hui,  B. C. Huynh,  T.-C. Jagau,  
 Hyunjun Ji,  B. Kaduk,  K. Khistyaev,  Jaehoon Kim,  P. Klunzinger,  K. Koh,  
 D. Kosenkov,  L. Koulias,  T. Kowalczyk,  C. M. Krauter,  A. Kunitsa,  
 Ka Un Lao,  A. Laurent,  K. V. Lawler,  Joonho Lee,  D. Lefrancois,  
 S. Lehtola,  D. S. Levine,  Yi-Pei Li,  You-Sheng Lin,  Fenglai Liu,  
 Kuan-Yu Liu,  E. Livshits,  M. Loipersberger,  A. Luenser,  P. Manohar,  
 E. Mansoor,  S. F. Manzer,  Shan-Ping Mao,  Yuezhi Mao,  N. Mardirossian,  
 A. V. Marenich,  T. Markovich,  L. A. Martinez-Martinez,  S. A. Maurer,  
 N. J. Mayhall,  S. C. McKenzie,  J.-M. Mewes,  P. Morgante,  A. F. Morrison,  
 J. W. Mullinax,  K. Nanda,  T. S. Nguyen-Beck,  R. Olivares-Amaya,  
 K. J. Oosterbaan,  J. A. Parkhill,  S. K. Paul,  F. Pavosevic,  Zheng Pei,  
 T. M. Perrine,  F. Plasser,  P. Pokhilko,  S. Prager,  A. Prociuk,  
 E. Ramos,  B. Rana,  D. R. Rehn,  F. Rob,  M. Scheurer,  M. Schneider,  
 N. Sergueev,  S. M. Sharada,  S. Sharma,  D. W. Small,  T. Stauch,  
 C. J. Stein,  T. Stein,  Yu-Chuan Su,  S. P. Veccham,  Zhen Tao,  
 A. J. W. Thom,  A. Tkatchenko,  T. Tsuchimochi,  N. M. Tubman,  L. Vogt,  
 M. L. Vidal,  O. Vydrov,  M. A. Watson,  J. Wenzel,  M. de Wergifosse,  
 T. A. Wesolowski,  A. White,  J. Witte,  A. Yamada,  Jun Yang,  K. Yao,  
 S. Yeganeh,  S. R. Yost,  Zhi-Qiang You,  A. Zech,  Igor Ying Zhang,  
 Xing Zhang,  Yan Zhao,  Ying Zhu,  B. R. Brooks,  G. K. L. Chan,  
 C. J. Cramer,  M. S. Gordon,  W. J. Hehre,  A. Klamt,  M. W. Schmidt,  
 C. D. Sherrill,  D. G. Truhlar,  A. Aspuru-Guzik,  R. Baer,  A. T. Bell,  
 N. A. Besley,  Jeng-Da Chai,  A. E. DePrince, III,  R. A. DiStasio Jr.,  
 A. Dreuw,  B. D. Dunietz,  T. R. Furlani,  Chao-Ping Hsu,  Yousung Jung,  
 Jing Kong,  D. S. Lambrecht,  WanZhen Liang,  C. Ochsenfeld,  
 V. A. Rassolov,  L. V. Slipchenko,  J. E. Subotnik,  T. Van Voorhis,  
 J. M. Herbert,  A. I. Krylov,  P. M. W. Gill,  M. Head-Gordon

 Contributors to earlier versions of Q-Chem not listed above: 
 R. D. Adamson,  B. Austin,  J. Baker,  G. J. O. Beran,  K. Brandhorst,  
 S. T. Brown,  E. F. C. Byrd,  A. K. Chakraborty,  C.-L. Cheng,  
 Siu Hung Chien,  D. M. Chipman,  D. L. Crittenden,  H. Dachsel,  
 R. J. Doerksen,  A. D. Dutoi,  L. Fusti-Molnar,  W. A. Goddard III,  
 A. Golubeva-Zadorozhnaya,  S. R. Gwaltney,  G. Hawkins,  A. Heyden,  
 S. Hirata,  G. Kedziora,  F. J. Keil,  C. Kelley,  Jihan Kim,  R. A. King,  
 R. Z. Khaliullin,  P. P. Korambath,  W. Kurlancheek,  A. M. Lee,  M. S. Lee,  
 S. V. Levchenko,  Ching Yeh Lin,  D. Liotard,  R. C. Lochan,  I. Lotan,  
 P. E. Maslen,  N. Nair,  D. P. O'Neill,  D. Neuhauser,  E. Neuscamman,  
 C. M. Oana,  R. Olson,  B. Peters,  R. Peverati,  P. A. Pieniazek,  
 Y. M. Rhee,  J. Ritchie,  M. A. Rohrdanz,  E. Rosta,  N. J. Russ,  
 H. F. Schaefer III,  N. E. Schultz,  N. Shenvi,  A. C. Simmonett,  A. Sodt,  
 D. Stuck,  K. S. Thanthiriwatte,  V. Vanovschi,  Tao Wang,  A. Warshel,  
 C. F. Williams,  Q. Wu,  X. Xu,  W. Zhang

 Please cite Q-Chem as follows:
 Y. Shao et al., Mol. Phys. 113, 184-215 (2015)
 DOI: 10.1080/00268976.2014.952696

 Q-Chem 5.3.0 for Intel X86 EM64T Linux

 Parts of Q-Chem use Armadillo 9.800.1 (Horizon Scraper).
 http://arma.sourceforge.net/

 Q-Chem begins on Thu Jul  2 05:55:37 2020  

Host: centos77-c1
0

     Scratch files written to /tmp/26650.centos77-h1/qchem81645//
Processing $rem in /opt/qchem-5.3.0-intel2020u1//config/preferences:
Processing $rem in /home/shihchengli/.qchemrc:

Checking the input file for inconsistencies... 	...done.

--------------------------------------------------------------
User input:
--------------------------------------------------------------
$rem
   JOBTYPE  sp
   EXCHANGE   omegaB97X-D
   BASIS   6-311+G(2df,2pd)
   max_scf_cycles   250
   geom_opt_max_cycles   1500
   basis2 6-31G*
   scf_algorithm rca_diis
   SYM_IGNORE  TRUE
   print_input   true
   geom_opt_dmax   80
   pop_mulliken false
   XC_GRID 000075000302
$end

$molecule
0 1
C       1.2665638633     -0.0000000004     0.2549080710
C       -0.0000000688     0.0000000041     -0.5995454826
H       1.3049389215     -0.8784714584     0.8971521718
H       1.3049389095     0.8784714702     0.8971522036
H       2.1726183414     0.0000000076     -0.3715523990
C       -1.2665640403     -0.0000000735     0.2549081548
H       -0.0000000758     -0.8156468206     -1.2073647132
H       -0.0000001502     0.8156467076     -1.2073646137
H       -1.3049389848     -0.8784706381     0.8971516022
H       -2.1726177639     0.0000006467     -0.3715518089
H       -1.3049390126     0.8784708209     0.8971518329
$end
--------------------------------------------------------------
 ----------------------------------------------------------------
             Standard Nuclear Orientation (Angstroms)
    I     Atom           X                Y                Z
 ----------------------------------------------------------------
    1      C       1.2665638633    -0.0000000004     0.2549080710
    2      C      -0.0000000688     0.0000000041    -0.5995454826
    3      H       1.3049389215    -0.8784714584     0.8971521718
    4      H       1.3049389095     0.8784714702     0.8971522036
    5      H       2.1726183414     0.0000000076    -0.3715523990
    6      C      -1.2665640403    -0.0000000735     0.2549081548
    7      H      -0.0000000758    -0.8156468206    -1.2073647132
    8      H      -0.0000001502     0.8156467076    -1.2073646137
    9      H      -1.3049389848    -0.8784706381     0.8971516022
   10      H      -2.1726177639     0.0000006467    -0.3715518089
   11      H      -1.3049390126     0.8784708209     0.8971518329
 ----------------------------------------------------------------
 Nuclear Repulsion Energy =          83.25598445 hartrees
 There are       13 alpha and       13 beta electrons
 Requested basis set is 6-311+G(2df,2pd)
 There are 72 shells and 214 basis functions

 Total QAlloc Memory Limit   2000 MB
 Mega-Array Size       188 MB
 MEM_STATIC part       192 MB

                       Distance Matrix (Angstroms)
             C (  1)   C (  2)   H (  3)   H (  4)   H (  5)   C (  6)
   C (  2)  1.527833
   H (  3)  1.088881  2.171332
   H (  4)  1.088881  2.171332  1.756943
   H (  5)  1.101539  2.184548  1.770365  1.770365
   C (  6)  2.533128  1.527834  2.792278  2.792278  3.495773
   H (  7)  2.099454  1.017214  2.477056  3.000316  2.466603  2.099454
   H (  8)  2.099454  1.017214  3.000316  2.477055  2.466603  2.099454
   H (  9)  2.792278  2.171331  2.609878  3.146158  3.804566  1.088880
   H ( 10)  3.495772  2.184548  3.804566  3.804566  4.345236  1.101538
   H ( 11)  2.792278  2.171331  3.146158  2.609878  3.804567  1.088880
             H (  7)   H (  8)   H (  9)   H ( 10)
   H (  8)  1.631294
   H (  9)  2.477055  3.000315
   H ( 10)  2.466603  2.466603  1.770363
   H ( 11)  3.000315  2.477055  1.756941  1.770363
 
 A cutoff of  1.0D-09 yielded   2540 shell pairs
 There are     22602 function pairs (     27783 Cartesian)
 Smallest overlap matrix eigenvalue = 8.73E-05

 Scale SEOQF with 1.000000e-01/1.000000e-01/1.000000e-01

 Standard Electronic Orientation quadrupole field applied
 Nucleus-field energy     =     0.0000000006 hartrees
 Requested basis set is 6-31G(d)
 There are 28 shells and 58 basis functions
 A cutoff of  1.0D-09 yielded    402 shell pairs
 There are      1773 function pairs (      1968 Cartesian)
 Smallest overlap matrix eigenvalue = 6.60E-03
 Guess from superposition of atomic densities
 Warning:  Energy on first SCF cycle will be non-variational
 SAD guess density has 26.000000 electrons
 Long-range K will be added via erf
 Coulomb attenuation parameter = 0.2 bohr**(-1)
 A restricted hybrid HF-DFT SCF calculation will be
 performed using Relaxed Constraint Minimization + Pulay DIIS
 Exchange:     0.2220 Hartree-Fock + 1.0000 wB97X-D + LR-HF
 Correlation:  1.0000 wB97X-D
 Using Euler-Maclaurin-Lebedev (75,302) quadrature formula
 Dispersion:   Grimme D
 SCF converges when DIIS error is below 1.0E-04
 using 3 threads for integral computing
 -------------------------------------------------------
 OpenMP Integral computing Module                
 Release: version 1.0, May 2013, Q-Chem Inc. Pittsburgh 
 -------------------------------------------------------
 using 3 threads for integral computing
 -------------------------------------------------------
 OpenMP Integral computing Module                
 Release: version 1.0, May 2013, Q-Chem Inc. Pittsburgh 
 -------------------------------------------------------
 ---------------------------------------
  Cycle       Energy         DIIS Error
 ---------------------------------------
    1    -119.6898649896      1.03E-01
    2    -119.0559490453      9.26E-03
    3    -119.0783853824      2.62E-03
    4    -119.0926605593      1.80E-03
    5    -119.0934548281      3.03E-04 Done RCA. Switching to DIIS
    6    -119.0940183091      2.21E-04
    7    -119.0940392016      5.26E-06 Convergence criterion met
 ---------------------------------------
 SCF time:  CPU 18.43 s  wall 6.49 s
 SCF   energy in the small basis set = -119.09403920
 Total energy in the small basis set = -119.09403920
 ----------------------------------------------------
  Cycle       Energy    
 ----------------------------------------------------
    1     -16.5870810147     -1.66E+01
 Long-range K will be added via erf
 Coulomb attenuation parameter = 0.2 bohr**(-1)
 A restricted hybrid HF-DFT SCF calculation will be
 performed using Relaxed Constraint Minimization + Pulay DIIS
 Exchange:     0.2220 Hartree-Fock + 1.0000 wB97X-D + LR-HF
 Correlation:  1.0000 wB97X-D
 Using Euler-Maclaurin-Lebedev (75,302) quadrature formula
 Dispersion:   Grimme D
 SCF converges when DIIS error is below 1.0E-05
 Basis2 calculation detected. Using small basis as guess for larger.
 SCFMinFind is unable to tell whether the solution found is close.
 Resetting ReadMinima to 0 and attempting to follow guess.
 SCFMinFind following SCF Guess.
 using 3 threads for integral computing
 -------------------------------------------------------
 OpenMP Integral computing Module                
 Release: version 1.0, May 2013, Q-Chem Inc. Pittsburgh 
 -------------------------------------------------------
 using 3 threads for integral computing
 -------------------------------------------------------
 OpenMP Integral computing Module                
 Release: version 1.0, May 2013, Q-Chem Inc. Pittsburgh 
 -------------------------------------------------------
 ---------------------------------------
  Cycle       Energy         DIIS Error
 ---------------------------------------
    1    -119.1140934662      4.22E-03
    2    -119.1362266916      6.06E-04 Done RCA. Switching to DIIS
    3    -119.1371040779      4.16E-04
    4    -119.1380420667      4.41E-05
    5    -119.1380560067      7.71E-06 Convergence criterion met
 ---------------------------------------
 SCF time:  CPU 43.18 s  wall 14.43 s
 SCF   energy in the final basis set = -119.13805601
 Total energy in the final basis set = -119.13805601
 
 --------------------------------------------------------------
 
                    Orbital Energies (a.u.)
 --------------------------------------------------------------
 
 Alpha MOs
 -- Occupied --
-10.2645 -10.2645 -10.2572  -0.8849  -0.7750  -0.6892  -0.5530  -0.5217
 -0.4816  -0.4634  -0.4211  -0.4164  -0.4149
 -- Virtual --
  0.0689   0.0864   0.0914   0.0998   0.1254   0.1302   0.1337   0.1426
  0.1442   0.1698   0.1727   0.1915   0.2353   0.2444   0.2461   0.2798
  0.2824   0.2827   0.3117   0.3120   0.3401   0.3498   0.4617   0.4621
  0.4714   0.5115   0.5131   0.5196   0.5451   0.5644   0.5862   0.5952
  0.6239   0.6261   0.6412   0.6575   0.6594   0.6615   0.7117   0.7278
  0.7495   0.7775   0.8284   0.8670   0.8723   0.8744   0.8863   0.9641
  1.0028   1.0511   1.0702   1.1361   1.1387   1.1847   1.1925   1.2143
  1.2440   1.2489   1.2875   1.2894   1.2925   1.2926   1.3246   1.3779
  1.3825   1.3931   1.3940   1.4523   1.4686   1.4729   1.4918   1.5006
  1.5289   1.5770   1.6216   1.6394   1.6573   1.6679   1.6843   1.6955
  1.7863   2.3821   2.4338   2.4667   2.5146   2.5148   2.5772   2.6001
  2.6413   2.7115   2.8184   2.8305   2.8572   2.9237   2.9243   2.9326
  2.9489   2.9499   3.0180   3.0322   3.0545   3.0687   3.0868   3.0881
  3.1499   3.1633   3.1781   3.1982   3.2077   3.2308   3.2836   3.3101
  3.3326   3.3328   3.3413   3.3625   3.3778   3.3924   3.4356   3.4435
  3.4831   3.4890   3.5314   3.5319   3.5679   3.5793   3.5942   3.6165
  3.6423   3.6972   3.6974   3.7271   3.7936   3.8200   3.8848   3.8943
  3.9378   3.9426   3.9502   3.9685   3.9805   3.9915   4.0608   4.0905
  4.1031   4.1180   4.1201   4.1488   4.1613   4.1979   4.2038   4.2173
  4.2296   4.2886   4.2933   4.3806   4.3991   4.4189   4.4231   4.4572
  4.4955   4.6438   4.6447   4.6694   4.6875   4.8169   4.8254   4.9253
  4.9573   4.9987   4.9994   5.0178   5.0744   5.1024   5.1189   5.1265
  5.2108   5.2523   5.2552   5.3172   5.3457   5.3530   5.3713   5.4191
  5.4336   5.4714   5.5180   5.6081   5.6665   5.7022   5.7315   5.7487
  6.0903   6.3791   6.3951   6.3999   6.4072   6.6293  25.3683  25.4378
 25.4563
 --------------------------------------------------------------
 
 -----------------------------------------------------------------
                    Cartesian Multipole Moments
 -----------------------------------------------------------------
    Charge (ESU x 10^10)
                -0.0000
    Dipole Moment (Debye)
         X      -0.0000      Y       0.0000      Z      -0.1638
       Tot       0.1638
    Quadrupole Moments (Debye-Ang)
        XX     -22.2203     XY      -0.0000     YY     -21.2604
        XZ      -0.0000     YZ      -0.0000     ZZ     -21.6004
    Octopole Moments (Debye-Ang^2)
       XXX      -0.0000    XXY       0.0000    XYY      -0.0000
       YYY      -0.0000    XXZ      -1.6414    XYZ       0.0000
       YYZ       0.4722    XZZ      -0.0000    YZZ      -0.0000
       ZZZ      -0.7765
    Hexadecapole Moments (Debye-Ang^3)
      XXXX    -204.0218   XXXY      -0.0000   XXYY     -42.1232
      XYYY       0.0000   YYYY     -42.4187   XXXZ      -0.0000
      XXYZ      -0.0000   XYYZ       0.0000   YYYZ      -0.0000
      XXZZ     -45.0251   XYZZ       0.0000   YYZZ     -16.5989
      XZZZ      -0.0000   YZZZ      -0.0000   ZZZZ     -69.6930
 -----------------------------------------------------------------
Archival summary:
1\1\centos77-c1\SP\ProcedureUnspecified\BasisUnspecified\38\shihchen\ThuJul205:56:012020ThuJul205:56:012020\0\\#,ProcedureUnspecified,BasisUnspecified,\\0,1\C\H,1,1.01721\H,1,1.01721,2,106.613\C,1,1.52783,2,109.522,3,118.411,0\H,4,1.08888,1,111.044,2,-178.478,0\H,4,1.08888,1,111.044,2,61.8903,0\H,4,1.10154,1,111.335,2,-58.2937,0\C,1,1.52783,2,109.522,3,-118.411,0\H,8,1.08888,1,111.044,2,178.478,0\H,8,1.08888,1,111.044,2,-61.8903,0\H,8,1.10154,1,111.335,2,58.2936,0\\\@

 Total job time:  23.82s(wall), 65.16s(cpu) 
 Thu Jul  2 05:56:01 2020

        *************************************************************
        *                                                           *
        *  Thank you very much for using Q-Chem.  Have a nice day.  *
        *                                                           *
        *************************************************************


