                  Welcome to Q-Chem
     A Quantum Leap Into The Future Of Chemistry


 Q-Chem 5.3 (devel), Q-Chem, Inc., Pleasanton, CA (2020)

 Yihan Shao,  Zhengting Gan,  E. Epifanovsky,  A. T. B. Gilbert,  M. Wormit,  
 J. Kussmann,  A. W. Lange,  A. Behn,  Jia Deng,  Xintian Feng,  D. Ghosh,  
 M. Goldey,  P. R. Horn,  L. D. Jacobson,  I. Kaliman,  T. Kus,  A. Landau,  
 Jie Liu,  E. I. Proynov,  R. M. Richard,  R. P. Steele,  E. J. Sundstrom,  
 H. L. Woodcock III,  P. M. Zimmerman,  D. Zuev,  B. Alam,  B. Albrecht,  
 E. Alguire,  S. A. Baeppler,  D. Barton,  Z. Benda,  Y. A. Bernard,  
 E. J. Berquist,  K. B. Bravaya,  H. Burton,  K. Carter-Fenk,  D. Casanova,  
 Chun-Min Chang,  Yunqing Chen,  A. Chien,  K. D. Closser,  M. P. Coons,  
 S. Coriani,  S. Dasgupta,  A. L. Dempwolff,  M. Diedenhofen,  Hainam Do,  
 R. G. Edgar,  Po-Tung Fang,  S. Faraji,  S. Fatehi,  Qingguo Feng,  
 J. Fosso-Tande,  J. Gayvert,  Qinghui Ge,  A. Ghysels,  G. Gidofalvi,  
 J. Gomes,  J. Gonthier,  A. Gunina,  D. Hait,  M. W. D. Hanson-Heine,  
 P. H. P. Harbach,  A. W. Hauser,  M. F. Herbst,  J. E. Herr,  
 E. G. Hohenstein,  Z. C. Holden,  Kerwin Hui,  B. C. Huynh,  T.-C. Jagau,  
 Hyunjun Ji,  B. Kaduk,  K. Khistyaev,  Jaehoon Kim,  P. Klunzinger,  K. Koh,  
 D. Kosenkov,  L. Koulias,  T. Kowalczyk,  C. M. Krauter,  A. Kunitsa,  
 Ka Un Lao,  A. Laurent,  K. V. Lawler,  Joonho Lee,  D. Lefrancois,  
 S. Lehtola,  D. S. Levine,  Yi-Pei Li,  You-Sheng Lin,  Fenglai Liu,  
 Kuan-Yu Liu,  E. Livshits,  M. Loipersberger,  A. Luenser,  P. Manohar,  
 E. Mansoor,  S. F. Manzer,  Shan-Ping Mao,  Yuezhi Mao,  N. Mardirossian,  
 A. V. Marenich,  T. Markovich,  L. A. Martinez-Martinez,  S. A. Maurer,  
 N. J. Mayhall,  S. C. McKenzie,  J.-M. Mewes,  P. Morgante,  A. F. Morrison,  
 J. W. Mullinax,  K. Nanda,  T. S. Nguyen-Beck,  R. Olivares-Amaya,  
 K. J. Oosterbaan,  J. A. Parkhill,  S. K. Paul,  F. Pavosevic,  Zheng Pei,  
 T. M. Perrine,  F. Plasser,  P. Pokhilko,  S. Prager,  A. Prociuk,  
 E. Ramos,  B. Rana,  D. R. Rehn,  F. Rob,  M. Scheurer,  M. Schneider,  
 N. Sergueev,  S. M. Sharada,  S. Sharma,  D. W. Small,  T. Stauch,  
 C. J. Stein,  T. Stein,  Yu-Chuan Su,  S. P. Veccham,  Zhen Tao,  
 A. J. W. Thom,  A. Tkatchenko,  T. Tsuchimochi,  N. M. Tubman,  L. Vogt,  
 M. L. Vidal,  O. Vydrov,  M. A. Watson,  J. Wenzel,  M. de Wergifosse,  
 T. A. Wesolowski,  A. White,  J. Witte,  A. Yamada,  Jun Yang,  K. Yao,  
 S. Yeganeh,  S. R. Yost,  Zhi-Qiang You,  A. Zech,  Igor Ying Zhang,  
 Xing Zhang,  Yan Zhao,  Ying Zhu,  B. R. Brooks,  G. K. L. Chan,  
 C. J. Cramer,  M. S. Gordon,  W. J. Hehre,  A. Klamt,  M. W. Schmidt,  
 C. D. Sherrill,  D. G. Truhlar,  A. Aspuru-Guzik,  R. Baer,  A. T. Bell,  
 N. A. Besley,  Jeng-Da Chai,  A. E. DePrince, III,  R. A. DiStasio Jr.,  
 A. Dreuw,  B. D. Dunietz,  T. R. Furlani,  Chao-Ping Hsu,  Yousung Jung,  
 Jing Kong,  D. S. Lambrecht,  WanZhen Liang,  C. Ochsenfeld,  
 V. A. Rassolov,  L. V. Slipchenko,  J. E. Subotnik,  T. Van Voorhis,  
 J. M. Herbert,  A. I. Krylov,  P. M. W. Gill,  M. Head-Gordon

 Contributors to earlier versions of Q-Chem not listed above: 
 R. D. Adamson,  B. Austin,  J. Baker,  G. J. O. Beran,  K. Brandhorst,  
 S. T. Brown,  E. F. C. Byrd,  A. K. Chakraborty,  C.-L. Cheng,  
 Siu Hung Chien,  D. M. Chipman,  D. L. Crittenden,  H. Dachsel,  
 R. J. Doerksen,  A. D. Dutoi,  L. Fusti-Molnar,  W. A. Goddard III,  
 A. Golubeva-Zadorozhnaya,  S. R. Gwaltney,  G. Hawkins,  A. Heyden,  
 S. Hirata,  G. Kedziora,  F. J. Keil,  C. Kelley,  Jihan Kim,  R. A. King,  
 R. Z. Khaliullin,  P. P. Korambath,  W. Kurlancheek,  A. M. Lee,  M. S. Lee,  
 S. V. Levchenko,  Ching Yeh Lin,  D. Liotard,  R. C. Lochan,  I. Lotan,  
 P. E. Maslen,  N. Nair,  D. P. O'Neill,  D. Neuhauser,  E. Neuscamman,  
 C. M. Oana,  R. Olson,  B. Peters,  R. Peverati,  P. A. Pieniazek,  
 Y. M. Rhee,  J. Ritchie,  M. A. Rohrdanz,  E. Rosta,  N. J. Russ,  
 H. F. Schaefer III,  N. E. Schultz,  N. Shenvi,  A. C. Simmonett,  A. Sodt,  
 D. Stuck,  K. S. Thanthiriwatte,  V. Vanovschi,  Tao Wang,  A. Warshel,  
 C. F. Williams,  Q. Wu,  X. Xu,  W. Zhang

 Please cite Q-Chem as follows:
 Y. Shao et al., Mol. Phys. 113, 184-215 (2015)
 DOI: 10.1080/00268976.2014.952696

 Q-Chem 5.3.0 for Intel X86 EM64T Linux

 Parts of Q-Chem use Armadillo 9.800.1 (Horizon Scraper).
 http://arma.sourceforge.net/

 Q-Chem begins on Tue Jul  7 00:58:28 2020  

Host: centos77-c4
0

     Scratch files written to /tmp/26963.centos77-h1/qchem95479//
Processing $rem in /opt/qchem-5.3.0-intel2020u1//config/preferences:
Processing $rem in /home/shihchengli/.qchemrc:

Checking the input file for inconsistencies... 	...done.

--------------------------------------------------------------
User input:
--------------------------------------------------------------
$rem
   JOBTYPE  sp
   EXCHANGE   omegaB97X-D
   BASIS   6-311+G(2df,2pd)
   UNRESTRICTED   False
   max_scf_cycles   250
   geom_opt_max_cycles   1500
   basis2 6-31G*
   scf_algorithm rca_diis
   SYM_IGNORE  TRUE
   print_input   true
   geom_opt_dmax   80
   pop_mulliken false
   XC_GRID 000075000302
$end

$molecule
0 1
C       1.2618006783     -0.1154934849     0.2693039411
C       0.0000000991     -0.0000001767     -0.5775974510
H       1.4754785385     -0.8404301330     1.0521661971
H       1.1346384814     0.8738183559     0.7225207976
H       2.1425279311     0.0300655626     -0.3569982500
C       -1.2618003065     0.1154932381     0.2693043706
H       -0.2979168548     -0.8260780547     -1.2276724817
H       0.2979162730     0.8260789780     -1.2276711874
H       -1.1346387519     -0.8738183123     0.7225220860
H       -2.1425269292     -0.0300658215     -0.3569987829
H       -1.4754792195     0.8404305144     1.0521657795
$end
--------------------------------------------------------------
 ----------------------------------------------------------------
             Standard Nuclear Orientation (Angstroms)
    I     Atom           X                Y                Z
 ----------------------------------------------------------------
    1      C       1.2618006783    -0.1154934849     0.2693039411
    2      C       0.0000000991    -0.0000001767    -0.5775974510
    3      H       1.4754785385    -0.8404301330     1.0521661971
    4      H       1.1346384814     0.8738183559     0.7225207976
    5      H       2.1425279311     0.0300655626    -0.3569982500
    6      C      -1.2618003065     0.1154932381     0.2693043706
    7      H      -0.2979168548    -0.8260780547    -1.2276724817
    8      H       0.2979162730     0.8260789780    -1.2276711874
    9      H      -1.1346387519    -0.8738183123     0.7225220860
   10      H      -2.1425269292    -0.0300658215    -0.3569987829
   11      H      -1.4754792195     0.8404305144     1.0521657795
 ----------------------------------------------------------------
 Nuclear Repulsion Energy =          83.06864136 hartrees
 There are       13 alpha and       13 beta electrons
 Requested basis set is 6-311+G(2df,2pd)
 There are 72 shells and 214 basis functions

 Total QAlloc Memory Limit   2000 MB
 Mega-Array Size       188 MB
 MEM_STATIC part       192 MB

                       Distance Matrix (Angstroms)
             C (  1)   C (  2)   H (  3)   H (  4)   H (  5)   C (  6)
   C (  2)  1.524048
   H (  3)  1.088147  2.353612
   H (  4)  1.095588  1.934236  1.778619
   H (  5)  1.090469  2.154064  1.785627  1.700918
   C (  6)  2.534150  1.524048  3.003225  2.554091  3.462514
   H (  7)  2.275651  1.092592  2.888391  2.957214  2.728887  2.014092
   H (  8)  2.014092  1.092592  3.059667  2.122647  2.189589  2.275650
   H (  9)  2.554092  1.934237  2.631063  2.864237  3.566818  1.095588
   H ( 10)  3.462513  2.154064  3.966409  3.566817  4.285477  1.090469
   H ( 11)  3.003226  2.353612  3.396092  2.631063  3.966410  1.088147
             H (  7)   H (  8)   H (  9)   H ( 10)
   H (  8)  1.756314
   H (  9)  2.122650  2.957215
   H ( 10)  2.189588  2.728886  1.700918
   H ( 11)  3.059668  2.888390  1.778619  1.785626
 
 A cutoff of  1.0D-09 yielded   2536 shell pairs
 There are     22540 function pairs (     27711 Cartesian)
 Smallest overlap matrix eigenvalue = 9.62E-05

 Scale SEOQF with 1.000000e-01/1.000000e-01/1.000000e-01

 Standard Electronic Orientation quadrupole field applied
 Nucleus-field energy     =     0.0000000006 hartrees
 Requested basis set is 6-31G(d)
 There are 28 shells and 58 basis functions
 A cutoff of  1.0D-09 yielded    402 shell pairs
 There are      1773 function pairs (      1968 Cartesian)
 Smallest overlap matrix eigenvalue = 7.17E-03
 Guess from superposition of atomic densities
 Warning:  Energy on first SCF cycle will be non-variational
 SAD guess density has 26.000000 electrons
 Long-range K will be added via erf
 Coulomb attenuation parameter = 0.2 bohr**(-1)
 A restricted hybrid HF-DFT SCF calculation will be
 performed using Relaxed Constraint Minimization + Pulay DIIS
 Exchange:     0.2220 Hartree-Fock + 1.0000 wB97X-D + LR-HF
 Correlation:  1.0000 wB97X-D
 Using Euler-Maclaurin-Lebedev (75,302) quadrature formula
 Dispersion:   Grimme D
 SCF converges when DIIS error is below 1.0E-04
 using 3 threads for integral computing
 -------------------------------------------------------
 OpenMP Integral computing Module                
 Release: version 1.0, May 2013, Q-Chem Inc. Pittsburgh 
 -------------------------------------------------------
 using 3 threads for integral computing
 -------------------------------------------------------
 OpenMP Integral computing Module                
 Release: version 1.0, May 2013, Q-Chem Inc. Pittsburgh 
 -------------------------------------------------------
 ---------------------------------------
  Cycle       Energy         DIIS Error
 ---------------------------------------
    1    -119.6673815287      1.02E-01
    2    -119.0327340826      8.95E-03
    3    -119.0538067066      2.58E-03
    4    -119.0673729826      1.77E-03
    5    -119.0681474934      2.84E-04 Done RCA. Switching to DIIS
    6    -119.0687129090      2.11E-04
    7    -119.0687321037      5.15E-06 Convergence criterion met
 ---------------------------------------
 SCF time:  CPU 19.01 s  wall 6.90 s
 SCF   energy in the small basis set = -119.06873210
 Total energy in the small basis set = -119.06873210
 ----------------------------------------------------
  Cycle       Energy    
 ----------------------------------------------------
    1     -16.5428949974     -1.65E+01
 Long-range K will be added via erf
 Coulomb attenuation parameter = 0.2 bohr**(-1)
 A restricted hybrid HF-DFT SCF calculation will be
 performed using Relaxed Constraint Minimization + Pulay DIIS
 Exchange:     0.2220 Hartree-Fock + 1.0000 wB97X-D + LR-HF
 Correlation:  1.0000 wB97X-D
 Using Euler-Maclaurin-Lebedev (75,302) quadrature formula
 Dispersion:   Grimme D
 SCF converges when DIIS error is below 1.0E-05
 Basis2 calculation detected. Using small basis as guess for larger.
 SCFMinFind is unable to tell whether the solution found is close.
 Resetting ReadMinima to 0 and attempting to follow guess.
 SCFMinFind following SCF Guess.
 using 3 threads for integral computing
 -------------------------------------------------------
 OpenMP Integral computing Module                
 Release: version 1.0, May 2013, Q-Chem Inc. Pittsburgh 
 -------------------------------------------------------
 using 3 threads for integral computing
 -------------------------------------------------------
 OpenMP Integral computing Module                
 Release: version 1.0, May 2013, Q-Chem Inc. Pittsburgh 
 -------------------------------------------------------
 ---------------------------------------
  Cycle       Energy         DIIS Error
 ---------------------------------------
    1    -119.0889617662      4.21E-03
    2    -119.1109843041      6.07E-04 Done RCA. Switching to DIIS
    3    -119.1118424630      4.27E-04
    4    -119.1128396317      4.64E-05
    5    -119.1128549941      1.11E-05
    6    -119.1128558099      4.23E-06 Convergence criterion met
 ---------------------------------------
 SCF time:  CPU 51.53 s  wall 17.43 s
 SCF   energy in the final basis set = -119.11285581
 Total energy in the final basis set = -119.11285581
 
 --------------------------------------------------------------
 
                    Orbital Energies (a.u.)
 --------------------------------------------------------------
 
 Alpha MOs
 -- Occupied --
-10.2807 -10.2663 -10.2663  -0.8899  -0.7830  -0.6768  -0.5574  -0.5287
 -0.4773  -0.4696  -0.4188  -0.4036  -0.4011
 -- Virtual --
  0.0699   0.0852   0.0900   0.0966   0.1245   0.1289   0.1316   0.1389
  0.1411   0.1727   0.1730   0.1959   0.2285   0.2308   0.2484   0.2522
  0.2830   0.2906   0.3005   0.3156   0.3286   0.3479   0.4573   0.4675
  0.4761   0.5058   0.5074   0.5143   0.5503   0.5639   0.5885   0.5994
  0.6090   0.6245   0.6361   0.6614   0.6671   0.6806   0.7067   0.7125
  0.7181   0.7648   0.7902   0.8268   0.8589   0.9199   0.9230   0.9653
  0.9965   1.0529   1.0658   1.1005   1.1386   1.1461   1.1528   1.2052
  1.2311   1.2682   1.2765   1.3051   1.3123   1.3174   1.3436   1.3447
  1.3840   1.4152   1.4411   1.4441   1.4784   1.5014   1.5017   1.5059
  1.5449   1.5612   1.5751   1.6054   1.6290   1.6548   1.6738   1.6812
  1.7122   2.3564   2.4658   2.5073   2.5426   2.5948   2.6000   2.6427
  2.6433   2.6950   2.7169   2.8332   2.8921   2.9044   2.9084   2.9429
  2.9490   2.9863   3.0005   3.0398   3.0438   3.0659   3.0814   3.1035
  3.1241   3.1560   3.1826   3.1827   3.2518   3.2522   3.2838   3.2913
  3.3072   3.3095   3.3357   3.3438   3.3749   3.4157   3.4368   3.4457
  3.4743   3.5026   3.5332   3.5491   3.5537   3.5785   3.5786   3.6072
  3.6330   3.6397   3.6426   3.6832   3.7332   3.7570   3.7848   3.8153
  3.9052   3.9364   3.9593   3.9610   4.0081   4.0302   4.0478   4.0597
  4.0905   4.1235   4.1306   4.1716   4.1790   4.1796   4.2106   4.2434
  4.2769   4.2784   4.3265   4.3688   4.3764   4.4258   4.4300   4.5093
  4.5399   4.5750   4.6379   4.6512   4.7110   4.7521   4.7896   4.8510
  4.9132   4.9202   4.9820   4.9943   5.0216   5.0697   5.0718   5.1341
  5.1844   5.2007   5.2323   5.2540   5.2810   5.3293   5.3630   5.3680
  5.3771   5.4120   5.4780   5.5569   5.5680   5.6686   5.7495   5.8350
  6.1383   6.4070   6.4169   6.4209   6.4515   6.5223  25.1594  25.4427
 25.4469
 --------------------------------------------------------------
 
 -----------------------------------------------------------------
                    Cartesian Multipole Moments
 -----------------------------------------------------------------
    Charge (ESU x 10^10)
                -0.0000
    Dipole Moment (Debye)
         X      -0.0000      Y       0.0000      Z      -0.0451
       Tot       0.0451
    Quadrupole Moments (Debye-Ang)
        XX     -21.9960     XY       0.1619     YY     -21.6838
        XZ       0.0000     YZ      -0.0000     ZZ     -21.8857
    Octopole Moments (Debye-Ang^2)
       XXX       0.0000    XXY       0.0000    XYY      -0.0000
       YYY       0.0000    XXZ      -1.1940    XYZ      -1.7145
       YYZ       0.4000    XZZ      -0.0000    YZZ      -0.0000
       ZZZ      -0.4909
    Hexadecapole Moments (Debye-Ang^3)
      XXXX    -201.7920   XXXY       3.2117   XXYY     -42.0522
      XYYY       4.5411   YYYY     -44.3913   XXXZ       0.0000
      XXYZ       0.0000   XYYZ       0.0000   YYYZ      -0.0000
      XXZZ     -44.0928   XYZZ       0.2841   YYZZ     -17.5333
      XZZZ       0.0000   YZZZ       0.0000   ZZZZ     -71.4573
 -----------------------------------------------------------------
Archival summary:
1\1\centos77-c4\SP\ProcedureUnspecified\BasisUnspecified\38\shihchen\TueJul700:58:552020TueJul700:58:552020\0\\#,ProcedureUnspecified,BasisUnspecified,\\0,1\C\H,1,1.09259\H,1,1.09259,2,106.977\C,1,1.52405,2,99.333,3,125.38,0\H,4,1.08815,1,127.796,2,-177.24,0\H,4,1.09047,1,109.841,2,-39.3345,0\H,4,1.09559,1,93.747,2,65.0373,0\C,1,1.52405,2,119.939,3,-111.808,0\H,8,1.08815,1,127.796,2,-61.3822,0\H,8,1.09047,1,109.841,2,76.5227,0\H,8,1.09559,1,93.747,2,-179.105,0\\\@

 Total job time:  27.26s(wall), 74.18s(cpu) 
 Tue Jul  7 00:58:55 2020

        *************************************************************
        *                                                           *
        *  Thank you very much for using Q-Chem.  Have a nice day.  *
        *                                                           *
        *************************************************************


