                  Welcome to Q-Chem
     A Quantum Leap Into The Future Of Chemistry


 Q-Chem 5.3 (devel), Q-Chem, Inc., Pleasanton, CA (2020)

 Yihan Shao,  Zhengting Gan,  E. Epifanovsky,  A. T. B. Gilbert,  M. Wormit,  
 J. Kussmann,  A. W. Lange,  A. Behn,  Jia Deng,  Xintian Feng,  D. Ghosh,  
 M. Goldey,  P. R. Horn,  L. D. Jacobson,  I. Kaliman,  T. Kus,  A. Landau,  
 Jie Liu,  E. I. Proynov,  R. M. Richard,  R. P. Steele,  E. J. Sundstrom,  
 H. L. Woodcock III,  P. M. Zimmerman,  D. Zuev,  B. Alam,  B. Albrecht,  
 E. Alguire,  S. A. Baeppler,  D. Barton,  Z. Benda,  Y. A. Bernard,  
 E. J. Berquist,  K. B. Bravaya,  H. Burton,  K. Carter-Fenk,  D. Casanova,  
 Chun-Min Chang,  Yunqing Chen,  A. Chien,  K. D. Closser,  M. P. Coons,  
 S. Coriani,  S. Dasgupta,  A. L. Dempwolff,  M. Diedenhofen,  Hainam Do,  
 R. G. Edgar,  Po-Tung Fang,  S. Faraji,  S. Fatehi,  Qingguo Feng,  
 J. Fosso-Tande,  J. Gayvert,  Qinghui Ge,  A. Ghysels,  G. Gidofalvi,  
 J. Gomes,  J. Gonthier,  A. Gunina,  D. Hait,  M. W. D. Hanson-Heine,  
 P. H. P. Harbach,  A. W. Hauser,  M. F. Herbst,  J. E. Herr,  
 E. G. Hohenstein,  Z. C. Holden,  Kerwin Hui,  B. C. Huynh,  T.-C. Jagau,  
 Hyunjun Ji,  B. Kaduk,  K. Khistyaev,  Jaehoon Kim,  P. Klunzinger,  K. Koh,  
 D. Kosenkov,  L. Koulias,  T. Kowalczyk,  C. M. Krauter,  A. Kunitsa,  
 Ka Un Lao,  A. Laurent,  K. V. Lawler,  Joonho Lee,  D. Lefrancois,  
 S. Lehtola,  D. S. Levine,  Yi-Pei Li,  You-Sheng Lin,  Fenglai Liu,  
 Kuan-Yu Liu,  E. Livshits,  M. Loipersberger,  A. Luenser,  P. Manohar,  
 E. Mansoor,  S. F. Manzer,  Shan-Ping Mao,  Yuezhi Mao,  N. Mardirossian,  
 A. V. Marenich,  T. Markovich,  L. A. Martinez-Martinez,  S. A. Maurer,  
 N. J. Mayhall,  S. C. McKenzie,  J.-M. Mewes,  P. Morgante,  A. F. Morrison,  
 J. W. Mullinax,  K. Nanda,  T. S. Nguyen-Beck,  R. Olivares-Amaya,  
 K. J. Oosterbaan,  J. A. Parkhill,  S. K. Paul,  F. Pavosevic,  Zheng Pei,  
 T. M. Perrine,  F. Plasser,  P. Pokhilko,  S. Prager,  A. Prociuk,  
 E. Ramos,  B. Rana,  D. R. Rehn,  F. Rob,  M. Scheurer,  M. Schneider,  
 N. Sergueev,  S. M. Sharada,  S. Sharma,  D. W. Small,  T. Stauch,  
 C. J. Stein,  T. Stein,  Yu-Chuan Su,  S. P. Veccham,  Zhen Tao,  
 A. J. W. Thom,  A. Tkatchenko,  T. Tsuchimochi,  N. M. Tubman,  L. Vogt,  
 M. L. Vidal,  O. Vydrov,  M. A. Watson,  J. Wenzel,  M. de Wergifosse,  
 T. A. Wesolowski,  A. White,  J. Witte,  A. Yamada,  Jun Yang,  K. Yao,  
 S. Yeganeh,  S. R. Yost,  Zhi-Qiang You,  A. Zech,  Igor Ying Zhang,  
 Xing Zhang,  Yan Zhao,  Ying Zhu,  B. R. Brooks,  G. K. L. Chan,  
 C. J. Cramer,  M. S. Gordon,  W. J. Hehre,  A. Klamt,  M. W. Schmidt,  
 C. D. Sherrill,  D. G. Truhlar,  A. Aspuru-Guzik,  R. Baer,  A. T. Bell,  
 N. A. Besley,  Jeng-Da Chai,  A. E. DePrince, III,  R. A. DiStasio Jr.,  
 A. Dreuw,  B. D. Dunietz,  T. R. Furlani,  Chao-Ping Hsu,  Yousung Jung,  
 Jing Kong,  D. S. Lambrecht,  WanZhen Liang,  C. Ochsenfeld,  
 V. A. Rassolov,  L. V. Slipchenko,  J. E. Subotnik,  T. Van Voorhis,  
 J. M. Herbert,  A. I. Krylov,  P. M. W. Gill,  M. Head-Gordon

 Contributors to earlier versions of Q-Chem not listed above: 
 R. D. Adamson,  B. Austin,  J. Baker,  G. J. O. Beran,  K. Brandhorst,  
 S. T. Brown,  E. F. C. Byrd,  A. K. Chakraborty,  C.-L. Cheng,  
 Siu Hung Chien,  D. M. Chipman,  D. L. Crittenden,  H. Dachsel,  
 R. J. Doerksen,  A. D. Dutoi,  L. Fusti-Molnar,  W. A. Goddard III,  
 A. Golubeva-Zadorozhnaya,  S. R. Gwaltney,  G. Hawkins,  A. Heyden,  
 S. Hirata,  G. Kedziora,  F. J. Keil,  C. Kelley,  Jihan Kim,  R. A. King,  
 R. Z. Khaliullin,  P. P. Korambath,  W. Kurlancheek,  A. M. Lee,  M. S. Lee,  
 S. V. Levchenko,  Ching Yeh Lin,  D. Liotard,  R. C. Lochan,  I. Lotan,  
 P. E. Maslen,  N. Nair,  D. P. O'Neill,  D. Neuhauser,  E. Neuscamman,  
 C. M. Oana,  R. Olson,  B. Peters,  R. Peverati,  P. A. Pieniazek,  
 Y. M. Rhee,  J. Ritchie,  M. A. Rohrdanz,  E. Rosta,  N. J. Russ,  
 H. F. Schaefer III,  N. E. Schultz,  N. Shenvi,  A. C. Simmonett,  A. Sodt,  
 D. Stuck,  K. S. Thanthiriwatte,  V. Vanovschi,  Tao Wang,  A. Warshel,  
 C. F. Williams,  Q. Wu,  X. Xu,  W. Zhang

 Please cite Q-Chem as follows:
 Y. Shao et al., Mol. Phys. 113, 184-215 (2015)
 DOI: 10.1080/00268976.2014.952696

 Q-Chem 5.3.0 for Intel X86 EM64T Linux

 Parts of Q-Chem use Armadillo 9.800.1 (Horizon Scraper).
 http://arma.sourceforge.net/

 Q-Chem begins on Thu Jul  2 05:38:15 2020  

Host: centos77-c1
0

     Scratch files written to /tmp/26650.centos77-h1/qchem80056//
Processing $rem in /opt/qchem-5.3.0-intel2020u1//config/preferences:
Processing $rem in /home/shihchengli/.qchemrc:

Checking the input file for inconsistencies... 	...done.

--------------------------------------------------------------
User input:
--------------------------------------------------------------
$rem
   JOBTYPE  sp
   EXCHANGE   omegaB97X-D
   BASIS   6-311+G(2df,2pd)
   max_scf_cycles   250
   geom_opt_max_cycles   1500
   basis2 6-31G*
   scf_algorithm rca_diis
   SYM_IGNORE  TRUE
   print_input   true
   geom_opt_dmax   80
   pop_mulliken false
   XC_GRID 000075000302
$end

$molecule
0 1
C       1.2200953863     -0.0000031012     0.3050756190
C       -0.0482616479     -0.0000014562     -0.5807468404
H       1.3145681335     -1.0089999718     0.6989197648
H       1.3145811422     1.0089946780     0.6989158307
H       2.2062605526     0.0000116701     -0.1792469341
C       -1.3139747021     0.0000018471     0.2261353325
H       0.0373350335     -0.8721747783     -1.2332378340
H       0.0373350006     0.8721727924     -1.2332364371
H       -1.3315294555     -0.6931699560     1.0755382363
H       -2.1048872674     -0.0000037710     -0.5126105550
H       -1.3315222364     0.6931727130     1.0755388361
$end
--------------------------------------------------------------
 ----------------------------------------------------------------
             Standard Nuclear Orientation (Angstroms)
    I     Atom           X                Y                Z
 ----------------------------------------------------------------
    1      C       1.2200953863    -0.0000031012     0.3050756190
    2      C      -0.0482616479    -0.0000014562    -0.5807468404
    3      H       1.3145681335    -1.0089999718     0.6989197648
    4      H       1.3145811422     1.0089946780     0.6989158307
    5      H       2.2062605526     0.0000116701    -0.1792469341
    6      C      -1.3139747021     0.0000018471     0.2261353325
    7      H       0.0373350335    -0.8721747783    -1.2332378340
    8      H       0.0373350006     0.8721727924    -1.2332364371
    9      H      -1.3315294555    -0.6931699560     1.0755382363
   10      H      -2.1048872674    -0.0000037710    -0.5126105550
   11      H      -1.3315222364     0.6931727130     1.0755388361
 ----------------------------------------------------------------
 Nuclear Repulsion Energy =          82.80694067 hartrees
 There are       13 alpha and       13 beta electrons
 Requested basis set is 6-311+G(2df,2pd)
 There are 72 shells and 214 basis functions

 Total QAlloc Memory Limit   2000 MB
 Mega-Array Size       188 MB
 MEM_STATIC part       192 MB

                       Distance Matrix (Angstroms)
             C (  1)   C (  2)   H (  3)   H (  4)   H (  5)   C (  6)
   C (  2)  1.547065
   H (  3)  1.087250  2.124366
   H (  4)  1.087251  2.124371  2.017995
   H (  5)  1.098677  2.289994  1.607606  1.607579
   C (  6)  2.535299  1.501029  2.854969  2.854977  3.543500
   H (  7)  2.127443  1.092592  2.320189  2.983852  2.564341  2.171750
   H (  8)  2.127444  1.092592  2.983850  2.320192  2.564332  2.171747
   H (  9)  2.754066  2.206930  2.691361  3.168771  3.817191  1.096486
   H ( 10)  3.424050  2.057754  3.765442  3.765453  4.324017  1.082261
   H ( 11)  2.754062  2.206928  3.168758  2.691366  3.817180  1.096485
             H (  7)   H (  8)   H (  9)   H ( 10)
   H (  8)  1.744348
   H (  9)  2.690033  3.107174
   H ( 10)  2.422623  2.422625  1.897572
   H ( 11)  3.107174  2.690029  1.386343  1.897579
 
 A cutoff of  1.0D-09 yielded   2535 shell pairs
 There are     22595 function pairs (     27779 Cartesian)
 Smallest overlap matrix eigenvalue = 8.16E-05

 Scale SEOQF with 1.000000e-01/1.000000e-01/1.000000e-01

 Standard Electronic Orientation quadrupole field applied
 Nucleus-field energy     =     0.0000000006 hartrees
 Requested basis set is 6-31G(d)
 There are 28 shells and 58 basis functions
 A cutoff of  1.0D-09 yielded    402 shell pairs
 There are      1773 function pairs (      1968 Cartesian)
 Smallest overlap matrix eigenvalue = 6.88E-03
 Guess from superposition of atomic densities
 Warning:  Energy on first SCF cycle will be non-variational
 SAD guess density has 26.000000 electrons
 Long-range K will be added via erf
 Coulomb attenuation parameter = 0.2 bohr**(-1)
 A restricted hybrid HF-DFT SCF calculation will be
 performed using Relaxed Constraint Minimization + Pulay DIIS
 Exchange:     0.2220 Hartree-Fock + 1.0000 wB97X-D + LR-HF
 Correlation:  1.0000 wB97X-D
 Using Euler-Maclaurin-Lebedev (75,302) quadrature formula
 Dispersion:   Grimme D
 SCF converges when DIIS error is below 1.0E-04
 using 3 threads for integral computing
 -------------------------------------------------------
 OpenMP Integral computing Module                
 Release: version 1.0, May 2013, Q-Chem Inc. Pittsburgh 
 -------------------------------------------------------
 using 3 threads for integral computing
 -------------------------------------------------------
 OpenMP Integral computing Module                
 Release: version 1.0, May 2013, Q-Chem Inc. Pittsburgh 
 -------------------------------------------------------
 ---------------------------------------
  Cycle       Energy         DIIS Error
 ---------------------------------------
    1    -119.6489571168      1.01E-01
    2    -119.0040240621      9.46E-03
    3    -119.0274433685      2.58E-03
    4    -119.0433190820      1.77E-03
    5    -119.0440929064      2.80E-04 Done RCA. Switching to DIIS
    6    -119.0446760597      2.04E-04
    7    -119.0446945743      8.18E-06 Convergence criterion met
 ---------------------------------------
 SCF time:  CPU 21.86 s  wall 8.38 s
 SCF   energy in the small basis set = -119.04469457
 Total energy in the small basis set = -119.04469457
 ----------------------------------------------------
  Cycle       Energy    
 ----------------------------------------------------
    1     -16.5323721396     -1.65E+01
 Long-range K will be added via erf
 Coulomb attenuation parameter = 0.2 bohr**(-1)
 A restricted hybrid HF-DFT SCF calculation will be
 performed using Relaxed Constraint Minimization + Pulay DIIS
 Exchange:     0.2220 Hartree-Fock + 1.0000 wB97X-D + LR-HF
 Correlation:  1.0000 wB97X-D
 Using Euler-Maclaurin-Lebedev (75,302) quadrature formula
 Dispersion:   Grimme D
 SCF converges when DIIS error is below 1.0E-05
 Basis2 calculation detected. Using small basis as guess for larger.
 SCFMinFind is unable to tell whether the solution found is close.
 Resetting ReadMinima to 0 and attempting to follow guess.
 SCFMinFind following SCF Guess.
 using 3 threads for integral computing
 -------------------------------------------------------
 OpenMP Integral computing Module                
 Release: version 1.0, May 2013, Q-Chem Inc. Pittsburgh 
 -------------------------------------------------------
 using 3 threads for integral computing
 -------------------------------------------------------
 OpenMP Integral computing Module                
 Release: version 1.0, May 2013, Q-Chem Inc. Pittsburgh 
 -------------------------------------------------------
 ---------------------------------------
  Cycle       Energy         DIIS Error
 ---------------------------------------
    1    -119.0668734108      4.21E-03
    2    -119.0888102415      6.45E-04 Done RCA. Switching to DIIS
    3    -119.0897279672      4.66E-04
    4    -119.0909229110      4.78E-05
    5    -119.0909399685      1.12E-05
    6    -119.0909409322      4.27E-06 Convergence criterion met
 ---------------------------------------
 SCF time:  CPU 50.65 s  wall 17.13 s
 SCF   energy in the final basis set = -119.09094093
 Total energy in the final basis set = -119.09094093
 
 --------------------------------------------------------------
 
                    Orbital Energies (a.u.)
 --------------------------------------------------------------
 
 Alpha MOs
 -- Occupied --
-10.2747 -10.2663 -10.2661  -0.8841  -0.7840  -0.6850  -0.5561  -0.5442
 -0.4927  -0.4616  -0.4192  -0.3859  -0.3826
 -- Virtual --
  0.0687   0.0851   0.0886   0.0969   0.1192   0.1292   0.1337   0.1395
  0.1439   0.1636   0.1766   0.1916   0.2181   0.2320   0.2609   0.2652
  0.2712   0.2836   0.2921   0.3176   0.3283   0.3416   0.4577   0.4746
  0.4869   0.5008   0.5116   0.5292   0.5511   0.5645   0.5733   0.6168
  0.6213   0.6285   0.6442   0.6470   0.6583   0.6715   0.6984   0.7097
  0.7303   0.7652   0.7872   0.8397   0.8728   0.8818   0.9131   0.9353
  0.9826   1.0284   1.0806   1.0971   1.1206   1.1782   1.1858   1.2204
  1.2323   1.2632   1.2726   1.2863   1.2945   1.3140   1.3471   1.3760
  1.3767   1.3981   1.4183   1.4414   1.4554   1.4706   1.4842   1.4933
  1.5285   1.5481   1.5999   1.6032   1.6489   1.6514   1.6816   1.7317
  1.7851   2.3968   2.4769   2.5002   2.5118   2.5714   2.5945   2.6130
  2.6362   2.7458   2.7557   2.8020   2.8089   2.8234   2.8772   2.9261
  2.9379   2.9519   2.9709   2.9835   3.0232   3.0595   3.1016   3.1055
  3.1508   3.1588   3.1697   3.2101   3.2121   3.2309   3.2625   3.2638
  3.3001   3.3012   3.3542   3.3627   3.4081   3.4334   3.4573   3.4674
  3.5026   3.5271   3.5436   3.5537   3.5716   3.5934   3.6023   3.6105
  3.6200   3.6202   3.6785   3.7227   3.7272   3.7647   3.7802   3.8038
  3.8360   3.8838   3.9285   3.9494   3.9698   3.9761   4.0154   4.0392
  4.0604   4.0695   4.1074   4.1083   4.1248   4.1808   4.2180   4.2298
  4.2454   4.2564   4.3407   4.3635   4.3813   4.3923   4.3987   4.4518
  4.5413   4.5588   4.6045   4.6249   4.6551   4.7349   4.7468   4.8181
  4.8625   4.9181   4.9252   4.9486   4.9703   5.0049   5.0527   5.1336
  5.1800   5.2332   5.2772   5.2892   5.3060   5.3573   5.4446   5.4595
  5.5136   5.5167   5.6048   5.6227   5.6466   5.7435   5.7738   5.8969
  6.0118   6.3348   6.3707   6.4234   6.5140   6.5141  25.1905  25.3939
 25.4718
 --------------------------------------------------------------
 
 -----------------------------------------------------------------
                    Cartesian Multipole Moments
 -----------------------------------------------------------------
    Charge (ESU x 10^10)
                 0.0000
    Dipole Moment (Debye)
         X       0.1641      Y       0.0000      Z      -0.0736
       Tot       0.1799
    Quadrupole Moments (Debye-Ang)
        XX     -22.1122     XY       0.0001     YY     -21.6906
        XZ      -0.2428     YZ      -0.0000     ZZ     -21.8315
    Octopole Moments (Debye-Ang^2)
       XXX       3.6687    XXY       0.0001    XYY       3.2702
       YYY       0.0000    XXZ      -1.2338    XYZ      -0.0000
       YYZ      -0.2613    XZZ      -2.2227    YZZ      -0.0000
       ZZZ      -0.4333
    Hexadecapole Moments (Debye-Ang^3)
      XXXX    -204.5057   XXXY       0.0004   XXYY     -42.8115
      XYYY       0.0000   YYYY     -44.2576   XXXZ       2.0703
      XXYZ       0.0000   XYYZ       0.6375   YYYZ      -0.0000
      XXZZ     -45.0983   XYZZ      -0.0000   YYZZ     -18.2262
      XZZZ      -4.0846   YZZZ      -0.0000   ZZZZ     -72.0860
 -----------------------------------------------------------------
Archival summary:
1\1\centos77-c1\SP\ProcedureUnspecified\BasisUnspecified\38\shihchen\ThuJul205:38:442020ThuJul205:38:442020\0\\#,ProcedureUnspecified,BasisUnspecified,\\0,1\C\H,1,1.09259\H,1,1.09259,2,105.929\C,1,1.50103,2,112.773,3,-123.806,0\H,4,1.08226,1,104.436,2,59.969,0\H,4,1.09649,1,115.462,2,-75.5895,0\H,4,1.09649,1,115.462,2,-164.473,0\C,1,1.54707,2,106.124,3,112.528,0\H,8,1.08725,1,106.18,2,-161.113,0\H,8,1.08725,1,106.18,2,48.7204,0\H,8,1.09868,1,118.913,2,-56.1953,0\\\@

 Total job time:  28.39s(wall), 76.05s(cpu) 
 Thu Jul  2 05:38:44 2020

        *************************************************************
        *                                                           *
        *  Thank you very much for using Q-Chem.  Have a nice day.  *
        *                                                           *
        *************************************************************


