                  Welcome to Q-Chem
     A Quantum Leap Into The Future Of Chemistry


 Q-Chem 5.3 (devel), Q-Chem, Inc., Pleasanton, CA (2020)

 Yihan Shao,  Zhengting Gan,  E. Epifanovsky,  A. T. B. Gilbert,  M. Wormit,  
 J. Kussmann,  A. W. Lange,  A. Behn,  Jia Deng,  Xintian Feng,  D. Ghosh,  
 M. Goldey,  P. R. Horn,  L. D. Jacobson,  I. Kaliman,  T. Kus,  A. Landau,  
 Jie Liu,  E. I. Proynov,  R. M. Richard,  R. P. Steele,  E. J. Sundstrom,  
 H. L. Woodcock III,  P. M. Zimmerman,  D. Zuev,  B. Alam,  B. Albrecht,  
 E. Alguire,  S. A. Baeppler,  D. Barton,  Z. Benda,  Y. A. Bernard,  
 E. J. Berquist,  K. B. Bravaya,  H. Burton,  K. Carter-Fenk,  D. Casanova,  
 Chun-Min Chang,  Yunqing Chen,  A. Chien,  K. D. Closser,  M. P. Coons,  
 S. Coriani,  S. Dasgupta,  A. L. Dempwolff,  M. Diedenhofen,  Hainam Do,  
 R. G. Edgar,  Po-Tung Fang,  S. Faraji,  S. Fatehi,  Qingguo Feng,  
 J. Fosso-Tande,  J. Gayvert,  Qinghui Ge,  A. Ghysels,  G. Gidofalvi,  
 J. Gomes,  J. Gonthier,  A. Gunina,  D. Hait,  M. W. D. Hanson-Heine,  
 P. H. P. Harbach,  A. W. Hauser,  M. F. Herbst,  J. E. Herr,  
 E. G. Hohenstein,  Z. C. Holden,  Kerwin Hui,  B. C. Huynh,  T.-C. Jagau,  
 Hyunjun Ji,  B. Kaduk,  K. Khistyaev,  Jaehoon Kim,  P. Klunzinger,  K. Koh,  
 D. Kosenkov,  L. Koulias,  T. Kowalczyk,  C. M. Krauter,  A. Kunitsa,  
 Ka Un Lao,  A. Laurent,  K. V. Lawler,  Joonho Lee,  D. Lefrancois,  
 S. Lehtola,  D. S. Levine,  Yi-Pei Li,  You-Sheng Lin,  Fenglai Liu,  
 Kuan-Yu Liu,  E. Livshits,  M. Loipersberger,  A. Luenser,  P. Manohar,  
 E. Mansoor,  S. F. Manzer,  Shan-Ping Mao,  Yuezhi Mao,  N. Mardirossian,  
 A. V. Marenich,  T. Markovich,  L. A. Martinez-Martinez,  S. A. Maurer,  
 N. J. Mayhall,  S. C. McKenzie,  J.-M. Mewes,  P. Morgante,  A. F. Morrison,  
 J. W. Mullinax,  K. Nanda,  T. S. Nguyen-Beck,  R. Olivares-Amaya,  
 K. J. Oosterbaan,  J. A. Parkhill,  S. K. Paul,  F. Pavosevic,  Zheng Pei,  
 T. M. Perrine,  F. Plasser,  P. Pokhilko,  S. Prager,  A. Prociuk,  
 E. Ramos,  B. Rana,  D. R. Rehn,  F. Rob,  M. Scheurer,  M. Schneider,  
 N. Sergueev,  S. M. Sharada,  S. Sharma,  D. W. Small,  T. Stauch,  
 C. J. Stein,  T. Stein,  Yu-Chuan Su,  S. P. Veccham,  Zhen Tao,  
 A. J. W. Thom,  A. Tkatchenko,  T. Tsuchimochi,  N. M. Tubman,  L. Vogt,  
 M. L. Vidal,  O. Vydrov,  M. A. Watson,  J. Wenzel,  M. de Wergifosse,  
 T. A. Wesolowski,  A. White,  J. Witte,  A. Yamada,  Jun Yang,  K. Yao,  
 S. Yeganeh,  S. R. Yost,  Zhi-Qiang You,  A. Zech,  Igor Ying Zhang,  
 Xing Zhang,  Yan Zhao,  Ying Zhu,  B. R. Brooks,  G. K. L. Chan,  
 C. J. Cramer,  M. S. Gordon,  W. J. Hehre,  A. Klamt,  M. W. Schmidt,  
 C. D. Sherrill,  D. G. Truhlar,  A. Aspuru-Guzik,  R. Baer,  A. T. Bell,  
 N. A. Besley,  Jeng-Da Chai,  A. E. DePrince, III,  R. A. DiStasio Jr.,  
 A. Dreuw,  B. D. Dunietz,  T. R. Furlani,  Chao-Ping Hsu,  Yousung Jung,  
 Jing Kong,  D. S. Lambrecht,  WanZhen Liang,  C. Ochsenfeld,  
 V. A. Rassolov,  L. V. Slipchenko,  J. E. Subotnik,  T. Van Voorhis,  
 J. M. Herbert,  A. I. Krylov,  P. M. W. Gill,  M. Head-Gordon

 Contributors to earlier versions of Q-Chem not listed above: 
 R. D. Adamson,  B. Austin,  J. Baker,  G. J. O. Beran,  K. Brandhorst,  
 S. T. Brown,  E. F. C. Byrd,  A. K. Chakraborty,  C.-L. Cheng,  
 Siu Hung Chien,  D. M. Chipman,  D. L. Crittenden,  H. Dachsel,  
 R. J. Doerksen,  A. D. Dutoi,  L. Fusti-Molnar,  W. A. Goddard III,  
 A. Golubeva-Zadorozhnaya,  S. R. Gwaltney,  G. Hawkins,  A. Heyden,  
 S. Hirata,  G. Kedziora,  F. J. Keil,  C. Kelley,  Jihan Kim,  R. A. King,  
 R. Z. Khaliullin,  P. P. Korambath,  W. Kurlancheek,  A. M. Lee,  M. S. Lee,  
 S. V. Levchenko,  Ching Yeh Lin,  D. Liotard,  R. C. Lochan,  I. Lotan,  
 P. E. Maslen,  N. Nair,  D. P. O'Neill,  D. Neuhauser,  E. Neuscamman,  
 C. M. Oana,  R. Olson,  B. Peters,  R. Peverati,  P. A. Pieniazek,  
 Y. M. Rhee,  J. Ritchie,  M. A. Rohrdanz,  E. Rosta,  N. J. Russ,  
 H. F. Schaefer III,  N. E. Schultz,  N. Shenvi,  A. C. Simmonett,  A. Sodt,  
 D. Stuck,  K. S. Thanthiriwatte,  V. Vanovschi,  Tao Wang,  A. Warshel,  
 C. F. Williams,  Q. Wu,  X. Xu,  W. Zhang

 Please cite Q-Chem as follows:
 Y. Shao et al., Mol. Phys. 113, 184-215 (2015)
 DOI: 10.1080/00268976.2014.952696

 Q-Chem 5.3.0 for Intel X86 EM64T Linux

 Parts of Q-Chem use Armadillo 9.800.1 (Horizon Scraper).
 http://arma.sourceforge.net/

 Q-Chem begins on Tue Jul  7 01:13:58 2020  

Host: centos77-c4
0

     Scratch files written to /tmp/26963.centos77-h1/qchem98175//
Processing $rem in /opt/qchem-5.3.0-intel2020u1//config/preferences:
Processing $rem in /home/shihchengli/.qchemrc:

Checking the input file for inconsistencies... 	...done.

--------------------------------------------------------------
User input:
--------------------------------------------------------------
$rem
   JOBTYPE  sp
   EXCHANGE   omegaB97X-D
   BASIS   6-311+G(2df,2pd)
   UNRESTRICTED   False
   max_scf_cycles   250
   geom_opt_max_cycles   1500
   basis2 6-31G*
   scf_algorithm rca_diis
   SYM_IGNORE  TRUE
   print_input   true
   geom_opt_dmax   80
   pop_mulliken false
   XC_GRID 000075000302
$end

$molecule
0 1
C       1.2290042319     -0.0000002765     0.3848883468
C       0.0000000719     0.0000003861     -0.6629232410
H       1.4870410995     -0.8995478612     0.9407020340
H       1.4870407106     0.8995476076     0.9407017761
H       1.9401839779     0.0000002622     -0.4519111803
C       -1.2290044339     -0.0000002462     0.3848886640
H       -0.0000003652     -0.8809970775     -1.3123967191
H       0.0000001238     0.8809973425     -1.3123974088
H       -1.4870410770     -0.8995479191     0.9407022589
H       -1.9401833836     0.0000007368     -0.4519114003
H       -1.4870410166     0.8995477112     0.9407018888
$end
--------------------------------------------------------------
 ----------------------------------------------------------------
             Standard Nuclear Orientation (Angstroms)
    I     Atom           X                Y                Z
 ----------------------------------------------------------------
    1      C       1.2290042319    -0.0000002765     0.3848883468
    2      C       0.0000000719     0.0000003861    -0.6629232410
    3      H       1.4870410995    -0.8995478612     0.9407020340
    4      H       1.4870407106     0.8995476076     0.9407017761
    5      H       1.9401839779     0.0000002622    -0.4519111803
    6      C      -1.2290044339    -0.0000002462     0.3848886640
    7      H      -0.0000003652    -0.8809970775    -1.3123967191
    8      H       0.0000001238     0.8809973425    -1.3123974088
    9      H      -1.4870410770    -0.8995479191     0.9407022589
   10      H      -1.9401833836     0.0000007368    -0.4519114003
   11      H      -1.4870410166     0.8995477112     0.9407018888
 ----------------------------------------------------------------
 Nuclear Repulsion Energy =          80.92876176 hartrees
 There are       13 alpha and       13 beta electrons
 Requested basis set is 6-311+G(2df,2pd)
 There are 72 shells and 214 basis functions

 Total QAlloc Memory Limit   2000 MB
 Mega-Array Size       188 MB
 MEM_STATIC part       192 MB

                       Distance Matrix (Angstroms)
             C (  1)   C (  2)   H (  3)   H (  4)   H (  5)   C (  6)
   C (  2)  1.615042
   H (  3)  1.088438  2.364760
   H (  4)  1.088438  2.364760  1.799095
   H (  5)  1.098185  1.951625  1.718690  1.718690
   C (  6)  2.458009  1.615042  2.914621  2.914621  3.277802
   H (  7)  2.273188  1.094519  2.699646  3.233896  2.298022  2.273188
   H (  8)  2.273189  1.094519  3.233897  2.699646  2.298022  2.273189
   H (  9)  2.914621  2.364761  2.974082  3.475904  3.807155  1.088438
   H ( 10)  3.277802  1.951624  3.807155  3.807154  3.880367  1.098185
   H ( 11)  2.914621  2.364760  3.475904  2.974082  3.807155  1.088438
             H (  7)   H (  8)   H (  9)   H ( 10)
   H (  8)  1.761994
   H (  9)  2.699646  3.233897
   H ( 10)  2.298021  2.298022  1.718691
   H ( 11)  3.233896  2.699647  1.799096  1.718690
 
 A cutoff of  1.0D-09 yielded   2512 shell pairs
 There are     22414 function pairs (     27601 Cartesian)
 Smallest overlap matrix eigenvalue = 1.14E-04

 Scale SEOQF with 1.000000e-01/1.000000e-01/1.000000e-01

 Standard Electronic Orientation quadrupole field applied
 Nucleus-field energy     =     0.0000000003 hartrees
 Requested basis set is 6-31G(d)
 There are 28 shells and 58 basis functions
 A cutoff of  1.0D-09 yielded    403 shell pairs
 There are      1774 function pairs (      1969 Cartesian)
 Smallest overlap matrix eigenvalue = 7.57E-03
 Guess from superposition of atomic densities
 Warning:  Energy on first SCF cycle will be non-variational
 SAD guess density has 26.000000 electrons
 Long-range K will be added via erf
 Coulomb attenuation parameter = 0.2 bohr**(-1)
 A restricted hybrid HF-DFT SCF calculation will be
 performed using Relaxed Constraint Minimization + Pulay DIIS
 Exchange:     0.2220 Hartree-Fock + 1.0000 wB97X-D + LR-HF
 Correlation:  1.0000 wB97X-D
 Using Euler-Maclaurin-Lebedev (75,302) quadrature formula
 Dispersion:   Grimme D
 SCF converges when DIIS error is below 1.0E-04
 using 3 threads for integral computing
 -------------------------------------------------------
 OpenMP Integral computing Module                
 Release: version 1.0, May 2013, Q-Chem Inc. Pittsburgh 
 -------------------------------------------------------
 using 3 threads for integral computing
 -------------------------------------------------------
 OpenMP Integral computing Module                
 Release: version 1.0, May 2013, Q-Chem Inc. Pittsburgh 
 -------------------------------------------------------
 ---------------------------------------
  Cycle       Energy         DIIS Error
 ---------------------------------------
    1    -119.4282649250      9.43E-02
    2    -119.0084106388      8.88E-03
    3    -119.0283893761      2.33E-03
    4    -119.0425487194      1.63E-03
    5    -119.0431730794      2.01E-04 Done RCA. Switching to DIIS
    6    -119.0436909568      1.56E-04
    7    -119.0437015228      4.81E-06 Convergence criterion met
 ---------------------------------------
 SCF time:  CPU 21.34 s  wall 8.06 s
 SCF   energy in the small basis set = -119.04370152
 Total energy in the small basis set = -119.04370152
 ----------------------------------------------------
  Cycle       Energy    
 ----------------------------------------------------
    1     -16.4752041061     -1.65E+01
 Long-range K will be added via erf
 Coulomb attenuation parameter = 0.2 bohr**(-1)
 A restricted hybrid HF-DFT SCF calculation will be
 performed using Relaxed Constraint Minimization + Pulay DIIS
 Exchange:     0.2220 Hartree-Fock + 1.0000 wB97X-D + LR-HF
 Correlation:  1.0000 wB97X-D
 Using Euler-Maclaurin-Lebedev (75,302) quadrature formula
 Dispersion:   Grimme D
 SCF converges when DIIS error is below 1.0E-05
 Basis2 calculation detected. Using small basis as guess for larger.
 SCFMinFind is unable to tell whether the solution found is close.
 Resetting ReadMinima to 0 and attempting to follow guess.
 SCFMinFind following SCF Guess.
 using 3 threads for integral computing
 -------------------------------------------------------
 OpenMP Integral computing Module                
 Release: version 1.0, May 2013, Q-Chem Inc. Pittsburgh 
 -------------------------------------------------------
 using 3 threads for integral computing
 -------------------------------------------------------
 OpenMP Integral computing Module                
 Release: version 1.0, May 2013, Q-Chem Inc. Pittsburgh 
 -------------------------------------------------------
 ---------------------------------------
  Cycle       Energy         DIIS Error
 ---------------------------------------
    1    -119.0635442489      4.22E-03
    2    -119.0856992122      6.39E-04 Done RCA. Switching to DIIS
    3    -119.0865939952      4.60E-04
    4    -119.0877617283      4.90E-05
    5    -119.0877787386      1.18E-05
    6    -119.0877797354      4.90E-06 Convergence criterion met
 ---------------------------------------
 SCF time:  CPU 50.37 s  wall 17.02 s

 Q-Chem warning in module 0, line  198:

 OriOrb: Failure to resolve orbital degeneracies.


 Q-Chem warning in module 0, line  198:

 OriOrb: Failure to resolve orbital degeneracies.

 SCF   energy in the final basis set = -119.08777974
 Total energy in the final basis set = -119.08777974
 
 --------------------------------------------------------------
 
                    Orbital Energies (a.u.)
 --------------------------------------------------------------
 
 Alpha MOs
 -- Occupied --
-10.2977 -10.2652 -10.2651  -0.8656  -0.7704  -0.6872  -0.5366  -0.4920
 -0.4919  -0.4693  -0.4471  -0.4309  -0.3370
 -- Virtual --
  0.0666   0.0841   0.0864   0.1020   0.1260   0.1306   0.1318   0.1324
  0.1460   0.1690   0.1692   0.1905   0.2180   0.2363   0.2467   0.2543
  0.2795   0.2847   0.3061   0.3094   0.3355   0.3424   0.4401   0.4604
  0.4780   0.5061   0.5183   0.5307   0.5549   0.5608   0.5883   0.5905
  0.5952   0.6000   0.6469   0.6566   0.6743   0.6828   0.7008   0.7184
  0.7327   0.7611   0.7677   0.8111   0.8617   0.9032   0.9443   0.9502
  0.9957   1.0328   1.0371   1.1377   1.1424   1.1861   1.1878   1.1916
  1.2145   1.2149   1.2398   1.2476   1.2635   1.3003   1.3502   1.3569
  1.4103   1.4196   1.4362   1.4545   1.4659   1.4850   1.4889   1.4967
  1.5215   1.5355   1.5754   1.6070   1.6207   1.6371   1.6774   1.6987
  1.7011   2.3726   2.3939   2.4853   2.4945   2.5336   2.5445   2.5773
  2.6481   2.6491   2.7468   2.7545   2.7793   2.8173   2.8601   2.9335
  2.9361   2.9396   2.9891   3.0393   3.0610   3.0702   3.0767   3.0997
  3.1102   3.1792   3.1858   3.1920   3.1978   3.2444   3.2626   3.2727
  3.3265   3.3329   3.3541   3.3609   3.3757   3.3889   3.4047   3.4120
  3.4316   3.4662   3.5282   3.5485   3.5658   3.5774   3.5819   3.6197
  3.6383   3.6395   3.6468   3.6581   3.7115   3.7790   3.7888   3.8160
  3.8476   3.8499   3.8737   3.8908   3.9373   3.9578   3.9927   4.0413
  4.0946   4.0948   4.1015   4.1093   4.1141   4.1231   4.1846   4.2021
  4.2120   4.2358   4.2540   4.2768   4.2879   4.3707   4.4144   4.4156
  4.4943   4.5284   4.5470   4.6161   4.6888   4.7675   4.8093   4.8614
  4.8747   4.8908   4.9096   4.9505   4.9868   5.0583   5.0676   5.1407
  5.1423   5.1737   5.1981   5.2047   5.2626   5.3166   5.3337   5.3583
  5.3923   5.4092   5.4555   5.4616   5.4621   5.5040   5.5251   5.5762
  5.8065   6.3595   6.3893   6.4328   6.4367   6.4456  25.0601  25.3688
 25.4181
 --------------------------------------------------------------
 
 -----------------------------------------------------------------
                    Cartesian Multipole Moments
 -----------------------------------------------------------------
    Charge (ESU x 10^10)
                -0.0000
    Dipole Moment (Debye)
         X       0.0000      Y       0.0000      Z      -0.3701
       Tot       0.3701
    Quadrupole Moments (Debye-Ang)
        XX     -23.6668     XY      -0.0000     YY     -21.0511
        XZ       0.0000     YZ      -0.0000     ZZ     -20.9684
    Octopole Moments (Debye-Ang^2)
       XXX       0.0000    XXY       0.0000    XYY      -0.0000
       YYY      -0.0000    XXZ       0.3028    XYZ       0.0000
       YYZ      -0.2851    XZZ      -0.0000    YZZ      -0.0000
       ZZZ      -3.8700
    Hexadecapole Moments (Debye-Ang^3)
      XXXX    -219.1984   XXXY      -0.0000   XXYY     -39.6130
      XYYY       0.0000   YYYY     -43.6232   XXXZ       0.0000
      XXYZ      -0.0000   XYYZ       0.0000   YYYZ       0.0000
      XXZZ     -44.3940   XYZZ       0.0000   YYZZ     -17.9844
      XZZZ       0.0000   YZZZ      -0.0000   ZZZZ     -80.9774
 -----------------------------------------------------------------
Archival summary:
1\1\centos77-c4\SP\ProcedureUnspecified\BasisUnspecified\38\shihchen\TueJul701:14:272020TueJul701:14:272020\0\\#,ProcedureUnspecified,BasisUnspecified,\\0,1\C\H,1,1.09452\H,1,1.09452,2,107.204\C,1,1.61504,2,112.642,3,-124.46,0\H,4,1.08844,1,120.778,2,-45.1512,0\H,4,1.08844,1,120.778,2,166.567,0\H,4,1.09818,1,89.9107,2,60.708,0\C,1,1.61504,2,112.642,3,124.46,0\H,8,1.08844,1,120.778,2,45.1512,0\H,8,1.08844,1,120.778,2,-166.567,0\H,8,1.09818,1,89.9106,2,-60.708,0\\\@

 Total job time:  28.49s(wall), 76.94s(cpu) 
 Tue Jul  7 01:14:27 2020

        *************************************************************
        *                                                           *
        *  Thank you very much for using Q-Chem.  Have a nice day.  *
        *                                                           *
        *************************************************************


