                  Welcome to Q-Chem
     A Quantum Leap Into The Future Of Chemistry


 Q-Chem 5.3 (devel), Q-Chem, Inc., Pleasanton, CA (2020)

 Yihan Shao,  Zhengting Gan,  E. Epifanovsky,  A. T. B. Gilbert,  M. Wormit,  
 J. Kussmann,  A. W. Lange,  A. Behn,  Jia Deng,  Xintian Feng,  D. Ghosh,  
 M. Goldey,  P. R. Horn,  L. D. Jacobson,  I. Kaliman,  T. Kus,  A. Landau,  
 Jie Liu,  E. I. Proynov,  R. M. Richard,  R. P. Steele,  E. J. Sundstrom,  
 H. L. Woodcock III,  P. M. Zimmerman,  D. Zuev,  B. Alam,  B. Albrecht,  
 E. Alguire,  S. A. Baeppler,  D. Barton,  Z. Benda,  Y. A. Bernard,  
 E. J. Berquist,  K. B. Bravaya,  H. Burton,  K. Carter-Fenk,  D. Casanova,  
 Chun-Min Chang,  Yunqing Chen,  A. Chien,  K. D. Closser,  M. P. Coons,  
 S. Coriani,  S. Dasgupta,  A. L. Dempwolff,  M. Diedenhofen,  Hainam Do,  
 R. G. Edgar,  Po-Tung Fang,  S. Faraji,  S. Fatehi,  Qingguo Feng,  
 J. Fosso-Tande,  J. Gayvert,  Qinghui Ge,  A. Ghysels,  G. Gidofalvi,  
 J. Gomes,  J. Gonthier,  A. Gunina,  D. Hait,  M. W. D. Hanson-Heine,  
 P. H. P. Harbach,  A. W. Hauser,  M. F. Herbst,  J. E. Herr,  
 E. G. Hohenstein,  Z. C. Holden,  Kerwin Hui,  B. C. Huynh,  T.-C. Jagau,  
 Hyunjun Ji,  B. Kaduk,  K. Khistyaev,  Jaehoon Kim,  P. Klunzinger,  K. Koh,  
 D. Kosenkov,  L. Koulias,  T. Kowalczyk,  C. M. Krauter,  A. Kunitsa,  
 Ka Un Lao,  A. Laurent,  K. V. Lawler,  Joonho Lee,  D. Lefrancois,  
 S. Lehtola,  D. S. Levine,  Yi-Pei Li,  You-Sheng Lin,  Fenglai Liu,  
 Kuan-Yu Liu,  E. Livshits,  M. Loipersberger,  A. Luenser,  P. Manohar,  
 E. Mansoor,  S. F. Manzer,  Shan-Ping Mao,  Yuezhi Mao,  N. Mardirossian,  
 A. V. Marenich,  T. Markovich,  L. A. Martinez-Martinez,  S. A. Maurer,  
 N. J. Mayhall,  S. C. McKenzie,  J.-M. Mewes,  P. Morgante,  A. F. Morrison,  
 J. W. Mullinax,  K. Nanda,  T. S. Nguyen-Beck,  R. Olivares-Amaya,  
 K. J. Oosterbaan,  J. A. Parkhill,  S. K. Paul,  F. Pavosevic,  Zheng Pei,  
 T. M. Perrine,  F. Plasser,  P. Pokhilko,  S. Prager,  A. Prociuk,  
 E. Ramos,  B. Rana,  D. R. Rehn,  F. Rob,  M. Scheurer,  M. Schneider,  
 N. Sergueev,  S. M. Sharada,  S. Sharma,  D. W. Small,  T. Stauch,  
 C. J. Stein,  T. Stein,  Yu-Chuan Su,  S. P. Veccham,  Zhen Tao,  
 A. J. W. Thom,  A. Tkatchenko,  T. Tsuchimochi,  N. M. Tubman,  L. Vogt,  
 M. L. Vidal,  O. Vydrov,  M. A. Watson,  J. Wenzel,  M. de Wergifosse,  
 T. A. Wesolowski,  A. White,  J. Witte,  A. Yamada,  Jun Yang,  K. Yao,  
 S. Yeganeh,  S. R. Yost,  Zhi-Qiang You,  A. Zech,  Igor Ying Zhang,  
 Xing Zhang,  Yan Zhao,  Ying Zhu,  B. R. Brooks,  G. K. L. Chan,  
 C. J. Cramer,  M. S. Gordon,  W. J. Hehre,  A. Klamt,  M. W. Schmidt,  
 C. D. Sherrill,  D. G. Truhlar,  A. Aspuru-Guzik,  R. Baer,  A. T. Bell,  
 N. A. Besley,  Jeng-Da Chai,  A. E. DePrince, III,  R. A. DiStasio Jr.,  
 A. Dreuw,  B. D. Dunietz,  T. R. Furlani,  Chao-Ping Hsu,  Yousung Jung,  
 Jing Kong,  D. S. Lambrecht,  WanZhen Liang,  C. Ochsenfeld,  
 V. A. Rassolov,  L. V. Slipchenko,  J. E. Subotnik,  T. Van Voorhis,  
 J. M. Herbert,  A. I. Krylov,  P. M. W. Gill,  M. Head-Gordon

 Contributors to earlier versions of Q-Chem not listed above: 
 R. D. Adamson,  B. Austin,  J. Baker,  G. J. O. Beran,  K. Brandhorst,  
 S. T. Brown,  E. F. C. Byrd,  A. K. Chakraborty,  C.-L. Cheng,  
 Siu Hung Chien,  D. M. Chipman,  D. L. Crittenden,  H. Dachsel,  
 R. J. Doerksen,  A. D. Dutoi,  L. Fusti-Molnar,  W. A. Goddard III,  
 A. Golubeva-Zadorozhnaya,  S. R. Gwaltney,  G. Hawkins,  A. Heyden,  
 S. Hirata,  G. Kedziora,  F. J. Keil,  C. Kelley,  Jihan Kim,  R. A. King,  
 R. Z. Khaliullin,  P. P. Korambath,  W. Kurlancheek,  A. M. Lee,  M. S. Lee,  
 S. V. Levchenko,  Ching Yeh Lin,  D. Liotard,  R. C. Lochan,  I. Lotan,  
 P. E. Maslen,  N. Nair,  D. P. O'Neill,  D. Neuhauser,  E. Neuscamman,  
 C. M. Oana,  R. Olson,  B. Peters,  R. Peverati,  P. A. Pieniazek,  
 Y. M. Rhee,  J. Ritchie,  M. A. Rohrdanz,  E. Rosta,  N. J. Russ,  
 H. F. Schaefer III,  N. E. Schultz,  N. Shenvi,  A. C. Simmonett,  A. Sodt,  
 D. Stuck,  K. S. Thanthiriwatte,  V. Vanovschi,  Tao Wang,  A. Warshel,  
 C. F. Williams,  Q. Wu,  X. Xu,  W. Zhang

 Please cite Q-Chem as follows:
 Y. Shao et al., Mol. Phys. 113, 184-215 (2015)
 DOI: 10.1080/00268976.2014.952696

 Q-Chem 5.3.0 for Intel X86 EM64T Linux

 Parts of Q-Chem use Armadillo 9.800.1 (Horizon Scraper).
 http://arma.sourceforge.net/

 Q-Chem begins on Mon Jul 27 15:55:30 2020  

Host: centos77-c7
0

     Scratch files written to /tmp/29924.centos77-h1/qchem125195//
Processing $rem in /opt/qchem-5.3.0-intel2020u1//config/preferences:
Processing $rem in /home/shihchengli/.qchemrc:

Checking the input file for inconsistencies... 	...done.

--------------------------------------------------------------
User input:
--------------------------------------------------------------
$rem
   JOBTYPE  sp
   EXCHANGE   omegaB97X-D
   BASIS   6-311+G(2df,2pd)
   UNRESTRICTED   False
   max_scf_cycles   250
   geom_opt_max_cycles   1500
   basis2 6-31G*
   scf_algorithm rca_diis
   SYM_IGNORE  TRUE
   print_input   true
   geom_opt_dmax   80
   pop_mulliken false
   XC_GRID 000075000302
$end

$molecule
0 1
C       -4.4475596648     0.4484143559     0.0613568548
C       -3.3032450613     1.1101400559     0.0614771223
H       -5.1259607594     1.0460864165     -0.5387916280
H       -4.8431813316     -0.4663307613     0.4775234359
H       -3.4795110933     1.9924077321     -0.5451552874
H       -2.3152520897     0.9999122009     0.4835895024
$end
--------------------------------------------------------------
 ----------------------------------------------------------------
             Standard Nuclear Orientation (Angstroms)
    I     Atom           X                Y                Z
 ----------------------------------------------------------------
    1      C      -4.4475596648     0.4484143559     0.0613568548
    2      C      -3.3032450613     1.1101400559     0.0614771223
    3      H      -5.1259607594     1.0460864165    -0.5387916280
    4      H      -4.8431813316    -0.4663307613     0.4775234359
    5      H      -3.4795110933     1.9924077321    -0.5451552874
    6      H      -2.3152520897     0.9999122009     0.4835895024
 ----------------------------------------------------------------
 Nuclear Repulsion Energy =          33.66823110 hartrees
 There are        8 alpha and        8 beta electrons
 Requested basis set is 6-311+G(2df,2pd)
 There are 40 shells and 124 basis functions

 Total QAlloc Memory Limit   2000 MB
 Mega-Array Size       188 MB
 MEM_STATIC part       192 MB

                       Distance Matrix (Angstroms)
             C (  1)   C (  2)   H (  3)   H (  4)   H (  5)
   C (  2)  1.321869
   H (  3)  1.085181  1.920083
   H (  4)  1.080032  2.242712  1.843981
   H (  5)  1.920648  1.085112  1.899042  2.991799
   H (  6)  2.242580  1.080027  2.991234  2.922385  1.843600
 
 A cutoff of  1.0D-09 yielded    817 shell pairs
 There are      7917 function pairs (      9846 Cartesian)
 Smallest overlap matrix eigenvalue = 1.20E-04

 Scale SEOQF with 1.000000e-01/1.000000e-01/1.000000e-01

 Standard Electronic Orientation quadrupole field applied
 Nucleus-field energy     =     0.0000000099 hartrees
 Requested basis set is 6-31G(d)
 There are 16 shells and 36 basis functions
 A cutoff of  1.0D-09 yielded    136 shell pairs
 There are       710 function pairs (       795 Cartesian)
 Smallest overlap matrix eigenvalue = 4.73E-03
 Guess from superposition of atomic densities
 Warning:  Energy on first SCF cycle will be non-variational
 SAD guess density has 16.000000 electrons
 Long-range K will be added via erf
 Coulomb attenuation parameter = 0.2 bohr**(-1)
 A restricted hybrid HF-DFT SCF calculation will be
 performed using Relaxed Constraint Minimization + Pulay DIIS
 Exchange:     0.2220 Hartree-Fock + 1.0000 wB97X-D + LR-HF
 Correlation:  1.0000 wB97X-D
 Using Euler-Maclaurin-Lebedev (75,302) quadrature formula
 Dispersion:   Grimme D
 SCF converges when DIIS error is below 1.0E-04
 using 6 threads for integral computing
 -------------------------------------------------------
 OpenMP Integral computing Module                
 Release: version 1.0, May 2013, Q-Chem Inc. Pittsburgh 
 -------------------------------------------------------
 using 6 threads for integral computing
 -------------------------------------------------------
 OpenMP Integral computing Module                
 Release: version 1.0, May 2013, Q-Chem Inc. Pittsburgh 
 -------------------------------------------------------
 ---------------------------------------
  Cycle       Energy         DIIS Error
 ---------------------------------------
    1     -78.8382759751      1.27E-01
    2     -78.5125841112      1.12E-02
    3     -78.5271885988      4.29E-03
    4     -78.5339245831      2.74E-03
    5     -78.5347305019      7.26E-04 Done RCA. Switching to DIIS
    6     -78.5351663984      4.78E-04
    7     -78.5352051794      1.19E-06 Convergence criterion met
 ---------------------------------------
 SCF time:  CPU 7.83 s  wall 1.32 s
 SCF   energy in the small basis set = -78.53520518
 Total energy in the small basis set = -78.53520518
 ----------------------------------------------------
  Cycle       Energy    
 ----------------------------------------------------
    1     -10.5600964345     -1.06E+01
 Long-range K will be added via erf
 Coulomb attenuation parameter = 0.2 bohr**(-1)
 A restricted hybrid HF-DFT SCF calculation will be
 performed using Relaxed Constraint Minimization + Pulay DIIS
 Exchange:     0.2220 Hartree-Fock + 1.0000 wB97X-D + LR-HF
 Correlation:  1.0000 wB97X-D
 Using Euler-Maclaurin-Lebedev (75,302) quadrature formula
 Dispersion:   Grimme D
 SCF converges when DIIS error is below 1.0E-05
 Basis2 calculation detected. Using small basis as guess for larger.
 SCFMinFind is unable to tell whether the solution found is close.
 Resetting ReadMinima to 0 and attempting to follow guess.
 SCFMinFind following SCF Guess.
 using 6 threads for integral computing
 -------------------------------------------------------
 OpenMP Integral computing Module                
 Release: version 1.0, May 2013, Q-Chem Inc. Pittsburgh 
 -------------------------------------------------------
 using 6 threads for integral computing
 -------------------------------------------------------
 OpenMP Integral computing Module                
 Release: version 1.0, May 2013, Q-Chem Inc. Pittsburgh 
 -------------------------------------------------------
 ---------------------------------------
  Cycle       Energy         DIIS Error
 ---------------------------------------
    1     -78.5535855107      5.90E-03
    2     -78.5664346145      9.53E-04 Done RCA. Switching to DIIS
    3     -78.5672181631      6.00E-04
    4     -78.5678822431      4.87E-05
    5     -78.5678879840      5.41E-06 Convergence criterion met
 ---------------------------------------
 SCF time:  CPU 12.69 s  wall 2.13 s
 SCF   energy in the final basis set = -78.56788798
 Total energy in the final basis set = -78.56788798
 
 --------------------------------------------------------------
 
                    Orbital Energies (a.u.)
 --------------------------------------------------------------
 
 Alpha MOs
 -- Occupied --
-10.2854 -10.2844  -0.8726  -0.6734  -0.5696  -0.5075  -0.4249  -0.3631
 -- Virtual --
  0.0640   0.0801   0.0856   0.1012   0.1241   0.1321   0.1400   0.1802
  0.2010   0.2054   0.2432   0.2709   0.3328   0.3986   0.4616   0.4807
  0.5531   0.5593   0.5671   0.5812   0.5966   0.6329   0.6402   0.6647
  0.7232   0.7331   0.7467   0.7992   0.8205   0.8782   0.9895   1.0324
  1.0570   1.0707   1.0876   1.1377   1.2414   1.2733   1.3023   1.4076
  1.4401   1.4768   1.4854   1.5296   1.5490   1.5741   1.6156   1.7546
  2.3233   2.5329   2.5652   2.6536   2.7193   2.7598   2.7736   2.7850
  2.8069   2.8129   2.9076   2.9529   2.9842   3.0516   3.0595   3.0871
  3.0875   3.0883   3.1755   3.2054   3.2571   3.2651   3.3014   3.3453
  3.3984   3.4116   3.4481   3.5079   3.5189   3.6135   3.6251   3.6292
  3.7191   3.7591   3.8170   3.8329   3.9093   3.9525   4.0166   4.0237
  4.0908   4.0929   4.1411   4.1458   4.2351   4.3246   4.4851   4.5866
  4.7566   4.8145   4.8228   4.9059   4.9784   5.0044   5.0754   5.1033
  5.1750   5.2050   5.3472   5.5137   5.7077   5.7640   6.1513   6.3641
  6.6074   7.0246  24.8820  25.4798
 --------------------------------------------------------------
 
 -----------------------------------------------------------------
                    Cartesian Multipole Moments
 -----------------------------------------------------------------
    Charge (ESU x 10^10)
                 0.0000
    Dipole Moment (Debye)
         X      -0.0215      Y       0.0369      Z      -0.0282
       Tot       0.0511
    Quadrupole Moments (Debye-Ang)
        XX     -12.2539     XY       0.5152     YY     -13.1320
        XZ       0.8304     YZ      -1.2652     ZZ     -14.6050
    Octopole Moments (Debye-Ang^2)
       XXX     145.7430    XXY     -14.7909    XYY      50.9422
       YYY     -32.5330    XXZ      -5.7633    XYZ       6.1993
       YYZ      -2.5673    XZZ      56.7592    YZZ     -11.6149
       ZZZ      -1.9335
    Hexadecapole Moments (Debye-Ang^3)
      XXXX   -1204.8625   XXXY     139.5044   XXYY    -221.1721
      XYYY     116.5805   YYYY     -88.3866   XXXZ      31.8195
      XXYZ     -28.7049   XYYZ      10.6250   YYYZ      -3.2940
      XXZZ    -233.6869   XYZZ      41.9080   YYZZ     -18.6257
      XZZZ       6.4745   YZZZ       0.2464   ZZZZ     -23.0317
 -----------------------------------------------------------------
Archival summary:
1\1\centos77-c7\SP\ProcedureUnspecified\BasisUnspecified\24\shihchen\MonJul2715:55:342020MonJul2715:55:342020\0\\#,ProcedureUnspecified,BasisUnspecified,\\0,1\C\H,1,1.08003\H,1,1.08511,2,116.749\C,1,1.32187,2,137.804,3,-179.866,0\H,4,1.08003,1,137.821,2,-0.548255,0\H,4,1.08518,1,105.398,2,179.426,0\\\@

 Total job time:  4.36s(wall), 22.90s(cpu) 
 Mon Jul 27 15:55:34 2020

        *************************************************************
        *                                                           *
        *  Thank you very much for using Q-Chem.  Have a nice day.  *
        *                                                           *
        *************************************************************


