                  Welcome to Q-Chem
     A Quantum Leap Into The Future Of Chemistry


 Q-Chem 5.3 (devel), Q-Chem, Inc., Pleasanton, CA (2020)

 Yihan Shao,  Zhengting Gan,  E. Epifanovsky,  A. T. B. Gilbert,  M. Wormit,  
 J. Kussmann,  A. W. Lange,  A. Behn,  Jia Deng,  Xintian Feng,  D. Ghosh,  
 M. Goldey,  P. R. Horn,  L. D. Jacobson,  I. Kaliman,  T. Kus,  A. Landau,  
 Jie Liu,  E. I. Proynov,  R. M. Richard,  R. P. Steele,  E. J. Sundstrom,  
 H. L. Woodcock III,  P. M. Zimmerman,  D. Zuev,  B. Alam,  B. Albrecht,  
 E. Alguire,  S. A. Baeppler,  D. Barton,  Z. Benda,  Y. A. Bernard,  
 E. J. Berquist,  K. B. Bravaya,  H. Burton,  K. Carter-Fenk,  D. Casanova,  
 Chun-Min Chang,  Yunqing Chen,  A. Chien,  K. D. Closser,  M. P. Coons,  
 S. Coriani,  S. Dasgupta,  A. L. Dempwolff,  M. Diedenhofen,  Hainam Do,  
 R. G. Edgar,  Po-Tung Fang,  S. Faraji,  S. Fatehi,  Qingguo Feng,  
 J. Fosso-Tande,  J. Gayvert,  Qinghui Ge,  A. Ghysels,  G. Gidofalvi,  
 J. Gomes,  J. Gonthier,  A. Gunina,  D. Hait,  M. W. D. Hanson-Heine,  
 P. H. P. Harbach,  A. W. Hauser,  M. F. Herbst,  J. E. Herr,  
 E. G. Hohenstein,  Z. C. Holden,  Kerwin Hui,  B. C. Huynh,  T.-C. Jagau,  
 Hyunjun Ji,  B. Kaduk,  K. Khistyaev,  Jaehoon Kim,  P. Klunzinger,  K. Koh,  
 D. Kosenkov,  L. Koulias,  T. Kowalczyk,  C. M. Krauter,  A. Kunitsa,  
 Ka Un Lao,  A. Laurent,  K. V. Lawler,  Joonho Lee,  D. Lefrancois,  
 S. Lehtola,  D. S. Levine,  Yi-Pei Li,  You-Sheng Lin,  Fenglai Liu,  
 Kuan-Yu Liu,  E. Livshits,  M. Loipersberger,  A. Luenser,  P. Manohar,  
 E. Mansoor,  S. F. Manzer,  Shan-Ping Mao,  Yuezhi Mao,  N. Mardirossian,  
 A. V. Marenich,  T. Markovich,  L. A. Martinez-Martinez,  S. A. Maurer,  
 N. J. Mayhall,  S. C. McKenzie,  J.-M. Mewes,  P. Morgante,  A. F. Morrison,  
 J. W. Mullinax,  K. Nanda,  T. S. Nguyen-Beck,  R. Olivares-Amaya,  
 K. J. Oosterbaan,  J. A. Parkhill,  S. K. Paul,  F. Pavosevic,  Zheng Pei,  
 T. M. Perrine,  F. Plasser,  P. Pokhilko,  S. Prager,  A. Prociuk,  
 E. Ramos,  B. Rana,  D. R. Rehn,  F. Rob,  M. Scheurer,  M. Schneider,  
 N. Sergueev,  S. M. Sharada,  S. Sharma,  D. W. Small,  T. Stauch,  
 C. J. Stein,  T. Stein,  Yu-Chuan Su,  S. P. Veccham,  Zhen Tao,  
 A. J. W. Thom,  A. Tkatchenko,  T. Tsuchimochi,  N. M. Tubman,  L. Vogt,  
 M. L. Vidal,  O. Vydrov,  M. A. Watson,  J. Wenzel,  M. de Wergifosse,  
 T. A. Wesolowski,  A. White,  J. Witte,  A. Yamada,  Jun Yang,  K. Yao,  
 S. Yeganeh,  S. R. Yost,  Zhi-Qiang You,  A. Zech,  Igor Ying Zhang,  
 Xing Zhang,  Yan Zhao,  Ying Zhu,  B. R. Brooks,  G. K. L. Chan,  
 C. J. Cramer,  M. S. Gordon,  W. J. Hehre,  A. Klamt,  M. W. Schmidt,  
 C. D. Sherrill,  D. G. Truhlar,  A. Aspuru-Guzik,  R. Baer,  A. T. Bell,  
 N. A. Besley,  Jeng-Da Chai,  A. E. DePrince, III,  R. A. DiStasio Jr.,  
 A. Dreuw,  B. D. Dunietz,  T. R. Furlani,  Chao-Ping Hsu,  Yousung Jung,  
 Jing Kong,  D. S. Lambrecht,  WanZhen Liang,  C. Ochsenfeld,  
 V. A. Rassolov,  L. V. Slipchenko,  J. E. Subotnik,  T. Van Voorhis,  
 J. M. Herbert,  A. I. Krylov,  P. M. W. Gill,  M. Head-Gordon

 Contributors to earlier versions of Q-Chem not listed above: 
 R. D. Adamson,  B. Austin,  J. Baker,  G. J. O. Beran,  K. Brandhorst,  
 S. T. Brown,  E. F. C. Byrd,  A. K. Chakraborty,  C.-L. Cheng,  
 Siu Hung Chien,  D. M. Chipman,  D. L. Crittenden,  H. Dachsel,  
 R. J. Doerksen,  A. D. Dutoi,  L. Fusti-Molnar,  W. A. Goddard III,  
 A. Golubeva-Zadorozhnaya,  S. R. Gwaltney,  G. Hawkins,  A. Heyden,  
 S. Hirata,  G. Kedziora,  F. J. Keil,  C. Kelley,  Jihan Kim,  R. A. King,  
 R. Z. Khaliullin,  P. P. Korambath,  W. Kurlancheek,  A. M. Lee,  M. S. Lee,  
 S. V. Levchenko,  Ching Yeh Lin,  D. Liotard,  R. C. Lochan,  I. Lotan,  
 P. E. Maslen,  N. Nair,  D. P. O'Neill,  D. Neuhauser,  E. Neuscamman,  
 C. M. Oana,  R. Olson,  B. Peters,  R. Peverati,  P. A. Pieniazek,  
 Y. M. Rhee,  J. Ritchie,  M. A. Rohrdanz,  E. Rosta,  N. J. Russ,  
 H. F. Schaefer III,  N. E. Schultz,  N. Shenvi,  A. C. Simmonett,  A. Sodt,  
 D. Stuck,  K. S. Thanthiriwatte,  V. Vanovschi,  Tao Wang,  A. Warshel,  
 C. F. Williams,  Q. Wu,  X. Xu,  W. Zhang

 Please cite Q-Chem as follows:
 Y. Shao et al., Mol. Phys. 113, 184-215 (2015)
 DOI: 10.1080/00268976.2014.952696

 Q-Chem 5.3.0 for Intel X86 EM64T Linux

 Parts of Q-Chem use Armadillo 9.800.1 (Horizon Scraper).
 http://arma.sourceforge.net/

 Q-Chem begins on Mon Jul 27 16:02:50 2020  

Host: centos77-c7
0

     Scratch files written to /tmp/29924.centos77-h1/qchem129072//
Processing $rem in /opt/qchem-5.3.0-intel2020u1//config/preferences:
Processing $rem in /home/shihchengli/.qchemrc:

Checking the input file for inconsistencies... 	...done.

--------------------------------------------------------------
User input:
--------------------------------------------------------------
$rem
   JOBTYPE  sp
   EXCHANGE   omegaB97X-D
   BASIS   6-311+G(2df,2pd)
   UNRESTRICTED   False
   max_scf_cycles   250
   geom_opt_max_cycles   1500
   basis2 6-31G*
   scf_algorithm rca_diis
   SYM_IGNORE  TRUE
   print_input   true
   geom_opt_dmax   80
   pop_mulliken false
   XC_GRID 000075000302
$end

$molecule
0 1
C       -4.4724417605     0.5355715655     0.0001251320
C       -3.3657975521     1.1746452072     -0.0001155768
H       -5.5175957120     0.9592130379     -0.6292321018
H       -4.6277174950     -0.5834059455     0.6297483892
H       -3.2105171127     2.2936106061     -0.6297516594
H       -2.3206403676     0.7509955289     0.6292258168
$end
--------------------------------------------------------------
 ----------------------------------------------------------------
             Standard Nuclear Orientation (Angstroms)
    I     Atom           X                Y                Z
 ----------------------------------------------------------------
    1      C      -4.4724417605     0.5355715655     0.0001251320
    2      C      -3.3657975521     1.1746452072    -0.0001155768
    3      H      -5.5175957120     0.9592130379    -0.6292321018
    4      H      -4.6277174950    -0.5834059455     0.6297483892
    5      H      -3.2105171127     2.2936106061    -0.6297516594
    6      H      -2.3206403676     0.7509955289     0.6292258168
 ----------------------------------------------------------------
 Nuclear Repulsion Energy =          31.55997911 hartrees
 There are        8 alpha and        8 beta electrons
 Requested basis set is 6-311+G(2df,2pd)
 There are 40 shells and 124 basis functions

 Total QAlloc Memory Limit   2000 MB
 Mega-Array Size       188 MB
 MEM_STATIC part       192 MB

                       Distance Matrix (Angstroms)
             C (  1)   C (  2)   H (  3)   H (  4)   H (  5)
   C (  2)  1.277919
   H (  3)  1.291476  2.252206
   H (  4)  1.293308  2.253867  2.180960
   H (  5)  2.253863  1.293305  2.665188  3.445580
   H (  6)  2.252204  1.291473  3.442033  2.665189  2.180955
 
 A cutoff of  1.0D-09 yielded    804 shell pairs
 There are      7832 function pairs (      9745 Cartesian)
 Smallest overlap matrix eigenvalue = 1.04E-04

 Scale SEOQF with 1.000000e-02/1.000000e-01/1.000000e-01

 Standard Electronic Orientation quadrupole field applied
 Nucleus-field energy     =     0.0000000020 hartrees
 Requested basis set is 6-31G(d)
 There are 16 shells and 36 basis functions
 A cutoff of  1.0D-09 yielded    136 shell pairs
 There are       710 function pairs (       795 Cartesian)
 Smallest overlap matrix eigenvalue = 6.93E-03
 Guess from superposition of atomic densities
 Warning:  Energy on first SCF cycle will be non-variational
 SAD guess density has 16.000000 electrons
 Long-range K will be added via erf
 Coulomb attenuation parameter = 0.2 bohr**(-1)
 A restricted hybrid HF-DFT SCF calculation will be
 performed using Relaxed Constraint Minimization + Pulay DIIS
 Exchange:     0.2220 Hartree-Fock + 1.0000 wB97X-D + LR-HF
 Correlation:  1.0000 wB97X-D
 Using Euler-Maclaurin-Lebedev (75,302) quadrature formula
 Dispersion:   Grimme D
 SCF converges when DIIS error is below 1.0E-04
 using 6 threads for integral computing
 -------------------------------------------------------
 OpenMP Integral computing Module                
 Release: version 1.0, May 2013, Q-Chem Inc. Pittsburgh 
 -------------------------------------------------------
 using 6 threads for integral computing
 -------------------------------------------------------
 OpenMP Integral computing Module                
 Release: version 1.0, May 2013, Q-Chem Inc. Pittsburgh 
 -------------------------------------------------------
 ---------------------------------------
  Cycle       Energy         DIIS Error
 ---------------------------------------
    1     -78.4574797257      1.08E-01
    2     -78.4554277718      1.03E-02
    3     -78.4667374123      2.61E-03
    4     -78.4748999113      1.80E-03
    5     -78.4752383610      2.63E-04 Done RCA. Switching to DIIS
    6     -78.4755023351      1.96E-04
    7     -78.4755095586      1.55E-06 Convergence criterion met
 ---------------------------------------
 SCF time:  CPU 7.66 s  wall 1.29 s
 SCF   energy in the small basis set = -78.47550956
 Total energy in the small basis set = -78.47550956
 ----------------------------------------------------
  Cycle       Energy    
 ----------------------------------------------------
    1     -10.3394292606     -1.03E+01
 Long-range K will be added via erf
 Coulomb attenuation parameter = 0.2 bohr**(-1)
 A restricted hybrid HF-DFT SCF calculation will be
 performed using Relaxed Constraint Minimization + Pulay DIIS
 Exchange:     0.2220 Hartree-Fock + 1.0000 wB97X-D + LR-HF
 Correlation:  1.0000 wB97X-D
 Using Euler-Maclaurin-Lebedev (75,302) quadrature formula
 Dispersion:   Grimme D
 SCF converges when DIIS error is below 1.0E-05
 Basis2 calculation detected. Using small basis as guess for larger.
 SCFMinFind is unable to tell whether the solution found is close.
 Resetting ReadMinima to 0 and attempting to follow guess.
 SCFMinFind following SCF Guess.
 using 6 threads for integral computing
 -------------------------------------------------------
 OpenMP Integral computing Module                
 Release: version 1.0, May 2013, Q-Chem Inc. Pittsburgh 
 -------------------------------------------------------
 using 6 threads for integral computing
 -------------------------------------------------------
 OpenMP Integral computing Module                
 Release: version 1.0, May 2013, Q-Chem Inc. Pittsburgh 
 -------------------------------------------------------
 ---------------------------------------
  Cycle       Energy         DIIS Error
 ---------------------------------------
    1     -78.4933592942      5.83E-03
    2     -78.5052603216      8.62E-04 Done RCA. Switching to DIIS
    3     -78.5057273179      6.58E-04
    4     -78.5066058340      5.60E-05
    5     -78.5066149295      6.08E-06 Convergence criterion met
 ---------------------------------------
 SCF time:  CPU 12.42 s  wall 2.09 s
 SCF   energy in the final basis set = -78.50661493
 Total energy in the final basis set = -78.50661493
 
 --------------------------------------------------------------
 
                    Orbital Energies (a.u.)
 --------------------------------------------------------------
 
 Alpha MOs
 -- Occupied --
-10.3189 -10.3175  -0.8630  -0.6176  -0.5238  -0.4957  -0.3950  -0.3741
 -- Virtual --
  0.0706   0.0806   0.0812   0.0875   0.1220   0.1298   0.1350   0.1643
  0.1710   0.1754   0.1839   0.2312   0.3213   0.3899   0.4760   0.4803
  0.4941   0.5295   0.5401   0.5460   0.5816   0.6407   0.6453   0.6608
  0.6686   0.6996   0.7606   0.7932   0.8404   0.8488   0.8936   0.9223
  0.9978   1.0158   1.0563   1.0983   1.1786   1.1889   1.2793   1.3381
  1.3683   1.3710   1.3733   1.3906   1.3970   1.5563   1.6807   1.7691
  2.5633   2.5695   2.5766   2.6497   2.7020   2.7072   2.7178   2.7402
  2.7739   2.8055   2.8160   2.8887   2.9100   2.9238   2.9847   3.0283
  3.0360   3.0852   3.0940   3.1207   3.1391   3.1821   3.2367   3.2553
  3.3483   3.3507   3.3527   3.4002   3.4052   3.4264   3.5005   3.5293
  3.6004   3.6289   3.6776   3.7243   3.8447   3.8548   3.9191   3.9361
  3.9484   3.9708   4.0403   4.0497   4.0653   4.1544   4.1971   4.2390
  4.3255   4.3572   4.3676   4.5039   4.5119   4.5459   4.5928   4.6636
  4.7311   4.7964   4.8451   4.9280   5.0006   5.3640   5.6471   5.7262
  5.9752   6.1371  24.1287  25.0829
 --------------------------------------------------------------
 
 -----------------------------------------------------------------
                    Cartesian Multipole Moments
 -----------------------------------------------------------------
    Charge (ESU x 10^10)
                -0.0000
    Dipole Moment (Debye)
         X       0.0000      Y      -0.0000      Z      -0.0000
       Tot       0.0000
    Quadrupole Moments (Debye-Ang)
        XX     -12.9101     XY       0.4118     YY     -13.3855
        XZ       0.9790     YZ      -1.6921     ZZ     -15.0065
    Octopole Moments (Debye-Ang^2)
       XXX     151.7885    XXY     -14.2672    XYY      53.1638
       YYY     -34.3382    XXZ      -7.6736    XYZ       7.4686
       YYZ      -2.8939    XZZ      58.8122    YZZ     -12.8321
       ZZZ      -0.0002
    Hexadecapole Moments (Debye-Ang^3)
      XXXX   -1252.2424   XXXY     136.8847   XXYY    -239.2647
      XYYY     127.8103   YYYY     -98.7403   XXXZ      46.9449
      XXYZ     -32.3404   XYYZ       9.7670   YYYZ      -3.0999
      XXZZ    -245.0161   XYZZ      47.0004   YYZZ     -21.7167
      XZZZ      -2.0951   YZZZ       3.6680   ZZZZ     -27.3258
 -----------------------------------------------------------------
Archival summary:
1\1\centos77-c7\SP\ProcedureUnspecified\BasisUnspecified\24\shihchen\MonJul2716:02:542020MonJul2716:02:542020\0\\#,ProcedureUnspecified,BasisUnspecified,\\0,1\C\C,1,1.27792\H,1,1.29147,2,122.457\H,2,1.29148,1,122.457,3,-179.999,0\H,1,1.2933,2,122.462,3,-179.947,0\H,2,1.29331,1,122.462,3,-0.0540733,0\\\@

 Total job time:  4.30s(wall), 22.66s(cpu) 
 Mon Jul 27 16:02:54 2020

        *************************************************************
        *                                                           *
        *  Thank you very much for using Q-Chem.  Have a nice day.  *
        *                                                           *
        *************************************************************


