                  Welcome to Q-Chem
     A Quantum Leap Into The Future Of Chemistry


 Q-Chem 5.3 (devel), Q-Chem, Inc., Pleasanton, CA (2020)

 Yihan Shao,  Zhengting Gan,  E. Epifanovsky,  A. T. B. Gilbert,  M. Wormit,  
 J. Kussmann,  A. W. Lange,  A. Behn,  Jia Deng,  Xintian Feng,  D. Ghosh,  
 M. Goldey,  P. R. Horn,  L. D. Jacobson,  I. Kaliman,  T. Kus,  A. Landau,  
 Jie Liu,  E. I. Proynov,  R. M. Richard,  R. P. Steele,  E. J. Sundstrom,  
 H. L. Woodcock III,  P. M. Zimmerman,  D. Zuev,  B. Alam,  B. Albrecht,  
 E. Alguire,  S. A. Baeppler,  D. Barton,  Z. Benda,  Y. A. Bernard,  
 E. J. Berquist,  K. B. Bravaya,  H. Burton,  K. Carter-Fenk,  D. Casanova,  
 Chun-Min Chang,  Yunqing Chen,  A. Chien,  K. D. Closser,  M. P. Coons,  
 S. Coriani,  S. Dasgupta,  A. L. Dempwolff,  M. Diedenhofen,  Hainam Do,  
 R. G. Edgar,  Po-Tung Fang,  S. Faraji,  S. Fatehi,  Qingguo Feng,  
 J. Fosso-Tande,  J. Gayvert,  Qinghui Ge,  A. Ghysels,  G. Gidofalvi,  
 J. Gomes,  J. Gonthier,  A. Gunina,  D. Hait,  M. W. D. Hanson-Heine,  
 P. H. P. Harbach,  A. W. Hauser,  M. F. Herbst,  J. E. Herr,  
 E. G. Hohenstein,  Z. C. Holden,  Kerwin Hui,  B. C. Huynh,  T.-C. Jagau,  
 Hyunjun Ji,  B. Kaduk,  K. Khistyaev,  Jaehoon Kim,  P. Klunzinger,  K. Koh,  
 D. Kosenkov,  L. Koulias,  T. Kowalczyk,  C. M. Krauter,  A. Kunitsa,  
 Ka Un Lao,  A. Laurent,  K. V. Lawler,  Joonho Lee,  D. Lefrancois,  
 S. Lehtola,  D. S. Levine,  Yi-Pei Li,  You-Sheng Lin,  Fenglai Liu,  
 Kuan-Yu Liu,  E. Livshits,  M. Loipersberger,  A. Luenser,  P. Manohar,  
 E. Mansoor,  S. F. Manzer,  Shan-Ping Mao,  Yuezhi Mao,  N. Mardirossian,  
 A. V. Marenich,  T. Markovich,  L. A. Martinez-Martinez,  S. A. Maurer,  
 N. J. Mayhall,  S. C. McKenzie,  J.-M. Mewes,  P. Morgante,  A. F. Morrison,  
 J. W. Mullinax,  K. Nanda,  T. S. Nguyen-Beck,  R. Olivares-Amaya,  
 K. J. Oosterbaan,  J. A. Parkhill,  S. K. Paul,  F. Pavosevic,  Zheng Pei,  
 T. M. Perrine,  F. Plasser,  P. Pokhilko,  S. Prager,  A. Prociuk,  
 E. Ramos,  B. Rana,  D. R. Rehn,  F. Rob,  M. Scheurer,  M. Schneider,  
 N. Sergueev,  S. M. Sharada,  S. Sharma,  D. W. Small,  T. Stauch,  
 C. J. Stein,  T. Stein,  Yu-Chuan Su,  S. P. Veccham,  Zhen Tao,  
 A. J. W. Thom,  A. Tkatchenko,  T. Tsuchimochi,  N. M. Tubman,  L. Vogt,  
 M. L. Vidal,  O. Vydrov,  M. A. Watson,  J. Wenzel,  M. de Wergifosse,  
 T. A. Wesolowski,  A. White,  J. Witte,  A. Yamada,  Jun Yang,  K. Yao,  
 S. Yeganeh,  S. R. Yost,  Zhi-Qiang You,  A. Zech,  Igor Ying Zhang,  
 Xing Zhang,  Yan Zhao,  Ying Zhu,  B. R. Brooks,  G. K. L. Chan,  
 C. J. Cramer,  M. S. Gordon,  W. J. Hehre,  A. Klamt,  M. W. Schmidt,  
 C. D. Sherrill,  D. G. Truhlar,  A. Aspuru-Guzik,  R. Baer,  A. T. Bell,  
 N. A. Besley,  Jeng-Da Chai,  A. E. DePrince, III,  R. A. DiStasio Jr.,  
 A. Dreuw,  B. D. Dunietz,  T. R. Furlani,  Chao-Ping Hsu,  Yousung Jung,  
 Jing Kong,  D. S. Lambrecht,  WanZhen Liang,  C. Ochsenfeld,  
 V. A. Rassolov,  L. V. Slipchenko,  J. E. Subotnik,  T. Van Voorhis,  
 J. M. Herbert,  A. I. Krylov,  P. M. W. Gill,  M. Head-Gordon

 Contributors to earlier versions of Q-Chem not listed above: 
 R. D. Adamson,  B. Austin,  J. Baker,  G. J. O. Beran,  K. Brandhorst,  
 S. T. Brown,  E. F. C. Byrd,  A. K. Chakraborty,  C.-L. Cheng,  
 Siu Hung Chien,  D. M. Chipman,  D. L. Crittenden,  H. Dachsel,  
 R. J. Doerksen,  A. D. Dutoi,  L. Fusti-Molnar,  W. A. Goddard III,  
 A. Golubeva-Zadorozhnaya,  S. R. Gwaltney,  G. Hawkins,  A. Heyden,  
 S. Hirata,  G. Kedziora,  F. J. Keil,  C. Kelley,  Jihan Kim,  R. A. King,  
 R. Z. Khaliullin,  P. P. Korambath,  W. Kurlancheek,  A. M. Lee,  M. S. Lee,  
 S. V. Levchenko,  Ching Yeh Lin,  D. Liotard,  R. C. Lochan,  I. Lotan,  
 P. E. Maslen,  N. Nair,  D. P. O'Neill,  D. Neuhauser,  E. Neuscamman,  
 C. M. Oana,  R. Olson,  B. Peters,  R. Peverati,  P. A. Pieniazek,  
 Y. M. Rhee,  J. Ritchie,  M. A. Rohrdanz,  E. Rosta,  N. J. Russ,  
 H. F. Schaefer III,  N. E. Schultz,  N. Shenvi,  A. C. Simmonett,  A. Sodt,  
 D. Stuck,  K. S. Thanthiriwatte,  V. Vanovschi,  Tao Wang,  A. Warshel,  
 C. F. Williams,  Q. Wu,  X. Xu,  W. Zhang

 Please cite Q-Chem as follows:
 Y. Shao et al., Mol. Phys. 113, 184-215 (2015)
 DOI: 10.1080/00268976.2014.952696

 Q-Chem 5.3.0 for Intel X86 EM64T Linux

 Parts of Q-Chem use Armadillo 9.800.1 (Horizon Scraper).
 http://arma.sourceforge.net/

 Q-Chem begins on Mon Jul 27 15:56:44 2020  

Host: centos77-c7
0

     Scratch files written to /tmp/29924.centos77-h1/qchem125833//
Processing $rem in /opt/qchem-5.3.0-intel2020u1//config/preferences:
Processing $rem in /home/shihchengli/.qchemrc:

Checking the input file for inconsistencies... 	...done.

--------------------------------------------------------------
User input:
--------------------------------------------------------------
$rem
   JOBTYPE  sp
   EXCHANGE   omegaB97X-D
   BASIS   6-311+G(2df,2pd)
   UNRESTRICTED   False
   max_scf_cycles   250
   geom_opt_max_cycles   1500
   basis2 6-31G*
   scf_algorithm rca_diis
   SYM_IGNORE  TRUE
   print_input   true
   geom_opt_dmax   80
   pop_mulliken false
   XC_GRID 000075000302
$end

$molecule
0 1
C       -4.5479447256     0.6240801466     0.1610382296
C       -3.4027277926     1.2842425746     0.1618428860
H       -5.2739257020     0.8517498478     -0.6090642102
H       -4.5438320084     -0.4195072353     0.4490426384
H       -3.2449900303     2.0400832692     -0.5969134642
H       -2.5012897412     0.7499813973     0.4340539203
$end
--------------------------------------------------------------
 ----------------------------------------------------------------
             Standard Nuclear Orientation (Angstroms)
    I     Atom           X                Y                Z
 ----------------------------------------------------------------
    1      C      -4.5479447256     0.6240801466     0.1610382296
    2      C      -3.4027277926     1.2842425746     0.1618428860
    3      H      -5.2739257020     0.8517498478    -0.6090642102
    4      H      -4.5438320084    -0.4195072353     0.4490426384
    5      H      -3.2449900303     2.0400832692    -0.5969134642
    6      H      -2.5012897412     0.7499813973     0.4340539203
 ----------------------------------------------------------------
 Nuclear Repulsion Energy =          33.67132537 hartrees
 There are        8 alpha and        8 beta electrons
 Requested basis set is 6-311+G(2df,2pd)
 There are 40 shells and 124 basis functions

 Total QAlloc Memory Limit   2000 MB
 Mega-Array Size       188 MB
 MEM_STATIC part       192 MB

                       Distance Matrix (Angstroms)
             C (  1)   C (  2)   H (  3)   H (  4)   H (  5)
   C (  2)  1.321869
   H (  3)  1.082562  2.069476
   H (  4)  1.082607  2.070596  1.807961
   H (  5)  2.068151  1.082538  2.351354  2.971633
   H (  6)  2.068619  1.082647  2.964112  2.353701  1.811173
 
 A cutoff of  1.0D-09 yielded    818 shell pairs
 There are      7926 function pairs (      9855 Cartesian)
 Smallest overlap matrix eigenvalue = 1.17E-04

 Scale SEOQF with 1.000000e-02/1.000000e-01/1.000000e-01

 Standard Electronic Orientation quadrupole field applied
 Nucleus-field energy     =     0.0000000020 hartrees
 Requested basis set is 6-31G(d)
 There are 16 shells and 36 basis functions
 A cutoff of  1.0D-09 yielded    136 shell pairs
 There are       710 function pairs (       795 Cartesian)
 Smallest overlap matrix eigenvalue = 7.40E-03
 Guess from superposition of atomic densities
 Warning:  Energy on first SCF cycle will be non-variational
 SAD guess density has 16.000000 electrons
 Long-range K will be added via erf
 Coulomb attenuation parameter = 0.2 bohr**(-1)
 A restricted hybrid HF-DFT SCF calculation will be
 performed using Relaxed Constraint Minimization + Pulay DIIS
 Exchange:     0.2220 Hartree-Fock + 1.0000 wB97X-D + LR-HF
 Correlation:  1.0000 wB97X-D
 Using Euler-Maclaurin-Lebedev (75,302) quadrature formula
 Dispersion:   Grimme D
 SCF converges when DIIS error is below 1.0E-04
 using 6 threads for integral computing
 -------------------------------------------------------
 OpenMP Integral computing Module                
 Release: version 1.0, May 2013, Q-Chem Inc. Pittsburgh 
 -------------------------------------------------------
 using 6 threads for integral computing
 -------------------------------------------------------
 OpenMP Integral computing Module                
 Release: version 1.0, May 2013, Q-Chem Inc. Pittsburgh 
 -------------------------------------------------------
 ---------------------------------------
  Cycle       Energy         DIIS Error
 ---------------------------------------
    1     -78.8278875734      1.27E-01
    2     -78.5099265881      1.14E-02
    3     -78.5248602621      4.25E-03
    4     -78.5318205552      2.72E-03
    5     -78.5326146499      7.19E-04 Done RCA. Switching to DIIS
    6     -78.5330444180      4.73E-04
    7     -78.5330825040      3.00E-06 Convergence criterion met
 ---------------------------------------
 SCF time:  CPU 7.70 s  wall 1.30 s
 SCF   energy in the small basis set = -78.53308250
 Total energy in the small basis set = -78.53308250
 ----------------------------------------------------
  Cycle       Energy    
 ----------------------------------------------------
    1     -10.5585832639     -1.06E+01
 Long-range K will be added via erf
 Coulomb attenuation parameter = 0.2 bohr**(-1)
 A restricted hybrid HF-DFT SCF calculation will be
 performed using Relaxed Constraint Minimization + Pulay DIIS
 Exchange:     0.2220 Hartree-Fock + 1.0000 wB97X-D + LR-HF
 Correlation:  1.0000 wB97X-D
 Using Euler-Maclaurin-Lebedev (75,302) quadrature formula
 Dispersion:   Grimme D
 SCF converges when DIIS error is below 1.0E-05
 Basis2 calculation detected. Using small basis as guess for larger.
 SCFMinFind is unable to tell whether the solution found is close.
 Resetting ReadMinima to 0 and attempting to follow guess.
 SCFMinFind following SCF Guess.
 using 6 threads for integral computing
 -------------------------------------------------------
 OpenMP Integral computing Module                
 Release: version 1.0, May 2013, Q-Chem Inc. Pittsburgh 
 -------------------------------------------------------
 using 6 threads for integral computing
 -------------------------------------------------------
 OpenMP Integral computing Module                
 Release: version 1.0, May 2013, Q-Chem Inc. Pittsburgh 
 -------------------------------------------------------
 ---------------------------------------
  Cycle       Energy         DIIS Error
 ---------------------------------------
    1     -78.5512269903      5.91E-03
    2     -78.5640266609      9.60E-04 Done RCA. Switching to DIIS
    3     -78.5648284743      5.98E-04
    4     -78.5654896850      5.10E-05
    5     -78.5654958189      7.32E-06 Convergence criterion met
 ---------------------------------------
 SCF time:  CPU 12.71 s  wall 2.14 s
 SCF   energy in the final basis set = -78.56549582
 Total energy in the final basis set = -78.56549582
 
 --------------------------------------------------------------
 
                    Orbital Energies (a.u.)
 --------------------------------------------------------------
 
 Alpha MOs
 -- Occupied --
-10.2840 -10.2831  -0.8713  -0.6728  -0.5611  -0.5092  -0.4313  -0.3623
 -- Virtual --
  0.0465   0.0799   0.0890   0.1027   0.1228   0.1351   0.1446   0.1697
  0.2065   0.2147   0.2155   0.2876   0.3294   0.3892   0.4729   0.4748
  0.5149   0.5708   0.5813   0.5841   0.6097   0.6116   0.6359   0.6493
  0.6732   0.6962   0.7088   0.8095   0.8976   0.9383   0.9794   1.0169
  1.0455   1.0689   1.1110   1.1406   1.2639   1.2857   1.3304   1.4097
  1.4198   1.4202   1.4679   1.4823   1.5431   1.5509   1.6254   1.7126
  2.3257   2.4180   2.5583   2.5784   2.6132   2.7553   2.7929   2.7960
  2.8311   2.8838   2.9157   2.9828   2.9990   3.0005   3.0687   3.0799
  3.1014   3.1219   3.2061   3.2080   3.2382   3.2623   3.2763   3.3553
  3.4494   3.4559   3.4783   3.4986   3.5131   3.5491   3.5839   3.6278
  3.6828   3.7310   3.7656   3.8846   3.9161   3.9961   4.0121   4.0801
  4.1072   4.1213   4.1554   4.2002   4.2161   4.2886   4.4747   4.7266
  4.7327   4.7363   4.7599   4.8469   4.9404   4.9637   5.0258   5.0960
  5.1471   5.3411   5.3421   5.3728   5.3932   5.6688   6.2011   6.2423
  6.3259   6.4501  24.8317  25.4944
 --------------------------------------------------------------
 
 -----------------------------------------------------------------
                    Cartesian Multipole Moments
 -----------------------------------------------------------------
    Charge (ESU x 10^10)
                 0.0000
    Dipole Moment (Debye)
         X       0.2427      Y      -0.4239      Z      -0.6909
       Tot       0.8461
    Quadrupole Moments (Debye-Ang)
        XX     -14.9624     XY       2.1330     YY     -14.0668
        XZ       3.3979     YZ      -1.7990     ZZ     -14.4842
    Octopole Moments (Debye-Ang^2)
       XXX     167.5851    XXY     -22.8765    XYY      56.2768
       YYY     -39.4854    XXZ     -18.6491    XYZ       7.2724
       YYZ      -4.7497    XZZ      57.2772    YZZ     -13.3774
       ZZZ      -6.3047
    Hexadecapole Moments (Debye-Ang^3)
      XXXX   -1363.4060   XXXY     188.4899   XXYY    -253.2219
      XYYY     148.5462   YYYY    -109.8024   XXXZ     105.1222
      XXYZ     -31.6228   XYYZ      17.6242   YYYZ      -8.7235
      XXZZ    -239.8210   XYZZ      49.8711   YYZZ     -22.1557
      XZZZ      24.0512   YZZZ      -4.2489   ZZZZ     -24.8739
 -----------------------------------------------------------------
Archival summary:
1\1\centos77-c7\SP\ProcedureUnspecified\BasisUnspecified\24\shihchen\MonJul2715:56:482020MonJul2715:56:482020\0\\#,ProcedureUnspecified,BasisUnspecified,\\0,1\C\H,1,1.08256\H,1,1.08261,2,113.236\C,1,1.32187,2,118.45,3,145.511,0\H,4,1.08254,1,118.327,2,1.16908,0\H,4,1.08265,1,118.363,2,-142.609,0\\\@

 Total job time:  4.35s(wall), 22.88s(cpu) 
 Mon Jul 27 15:56:48 2020

        *************************************************************
        *                                                           *
        *  Thank you very much for using Q-Chem.  Have a nice day.  *
        *                                                           *
        *************************************************************


