                  Welcome to Q-Chem
     A Quantum Leap Into The Future Of Chemistry


 Q-Chem 5.3 (devel), Q-Chem, Inc., Pleasanton, CA (2020)

 Yihan Shao,  Zhengting Gan,  E. Epifanovsky,  A. T. B. Gilbert,  M. Wormit,  
 J. Kussmann,  A. W. Lange,  A. Behn,  Jia Deng,  Xintian Feng,  D. Ghosh,  
 M. Goldey,  P. R. Horn,  L. D. Jacobson,  I. Kaliman,  T. Kus,  A. Landau,  
 Jie Liu,  E. I. Proynov,  R. M. Richard,  R. P. Steele,  E. J. Sundstrom,  
 H. L. Woodcock III,  P. M. Zimmerman,  D. Zuev,  B. Alam,  B. Albrecht,  
 E. Alguire,  S. A. Baeppler,  D. Barton,  Z. Benda,  Y. A. Bernard,  
 E. J. Berquist,  K. B. Bravaya,  H. Burton,  K. Carter-Fenk,  D. Casanova,  
 Chun-Min Chang,  Yunqing Chen,  A. Chien,  K. D. Closser,  M. P. Coons,  
 S. Coriani,  S. Dasgupta,  A. L. Dempwolff,  M. Diedenhofen,  Hainam Do,  
 R. G. Edgar,  Po-Tung Fang,  S. Faraji,  S. Fatehi,  Qingguo Feng,  
 J. Fosso-Tande,  J. Gayvert,  Qinghui Ge,  A. Ghysels,  G. Gidofalvi,  
 J. Gomes,  J. Gonthier,  A. Gunina,  D. Hait,  M. W. D. Hanson-Heine,  
 P. H. P. Harbach,  A. W. Hauser,  M. F. Herbst,  J. E. Herr,  
 E. G. Hohenstein,  Z. C. Holden,  Kerwin Hui,  B. C. Huynh,  T.-C. Jagau,  
 Hyunjun Ji,  B. Kaduk,  K. Khistyaev,  Jaehoon Kim,  P. Klunzinger,  K. Koh,  
 D. Kosenkov,  L. Koulias,  T. Kowalczyk,  C. M. Krauter,  A. Kunitsa,  
 Ka Un Lao,  A. Laurent,  K. V. Lawler,  Joonho Lee,  D. Lefrancois,  
 S. Lehtola,  D. S. Levine,  Yi-Pei Li,  You-Sheng Lin,  Fenglai Liu,  
 Kuan-Yu Liu,  E. Livshits,  M. Loipersberger,  A. Luenser,  P. Manohar,  
 E. Mansoor,  S. F. Manzer,  Shan-Ping Mao,  Yuezhi Mao,  N. Mardirossian,  
 A. V. Marenich,  T. Markovich,  L. A. Martinez-Martinez,  S. A. Maurer,  
 N. J. Mayhall,  S. C. McKenzie,  J.-M. Mewes,  P. Morgante,  A. F. Morrison,  
 J. W. Mullinax,  K. Nanda,  T. S. Nguyen-Beck,  R. Olivares-Amaya,  
 K. J. Oosterbaan,  J. A. Parkhill,  S. K. Paul,  F. Pavosevic,  Zheng Pei,  
 T. M. Perrine,  F. Plasser,  P. Pokhilko,  S. Prager,  A. Prociuk,  
 E. Ramos,  B. Rana,  D. R. Rehn,  F. Rob,  M. Scheurer,  M. Schneider,  
 N. Sergueev,  S. M. Sharada,  S. Sharma,  D. W. Small,  T. Stauch,  
 C. J. Stein,  T. Stein,  Yu-Chuan Su,  S. P. Veccham,  Zhen Tao,  
 A. J. W. Thom,  A. Tkatchenko,  T. Tsuchimochi,  N. M. Tubman,  L. Vogt,  
 M. L. Vidal,  O. Vydrov,  M. A. Watson,  J. Wenzel,  M. de Wergifosse,  
 T. A. Wesolowski,  A. White,  J. Witte,  A. Yamada,  Jun Yang,  K. Yao,  
 S. Yeganeh,  S. R. Yost,  Zhi-Qiang You,  A. Zech,  Igor Ying Zhang,  
 Xing Zhang,  Yan Zhao,  Ying Zhu,  B. R. Brooks,  G. K. L. Chan,  
 C. J. Cramer,  M. S. Gordon,  W. J. Hehre,  A. Klamt,  M. W. Schmidt,  
 C. D. Sherrill,  D. G. Truhlar,  A. Aspuru-Guzik,  R. Baer,  A. T. Bell,  
 N. A. Besley,  Jeng-Da Chai,  A. E. DePrince, III,  R. A. DiStasio Jr.,  
 A. Dreuw,  B. D. Dunietz,  T. R. Furlani,  Chao-Ping Hsu,  Yousung Jung,  
 Jing Kong,  D. S. Lambrecht,  WanZhen Liang,  C. Ochsenfeld,  
 V. A. Rassolov,  L. V. Slipchenko,  J. E. Subotnik,  T. Van Voorhis,  
 J. M. Herbert,  A. I. Krylov,  P. M. W. Gill,  M. Head-Gordon

 Contributors to earlier versions of Q-Chem not listed above: 
 R. D. Adamson,  B. Austin,  J. Baker,  G. J. O. Beran,  K. Brandhorst,  
 S. T. Brown,  E. F. C. Byrd,  A. K. Chakraborty,  C.-L. Cheng,  
 Siu Hung Chien,  D. M. Chipman,  D. L. Crittenden,  H. Dachsel,  
 R. J. Doerksen,  A. D. Dutoi,  L. Fusti-Molnar,  W. A. Goddard III,  
 A. Golubeva-Zadorozhnaya,  S. R. Gwaltney,  G. Hawkins,  A. Heyden,  
 S. Hirata,  G. Kedziora,  F. J. Keil,  C. Kelley,  Jihan Kim,  R. A. King,  
 R. Z. Khaliullin,  P. P. Korambath,  W. Kurlancheek,  A. M. Lee,  M. S. Lee,  
 S. V. Levchenko,  Ching Yeh Lin,  D. Liotard,  R. C. Lochan,  I. Lotan,  
 P. E. Maslen,  N. Nair,  D. P. O'Neill,  D. Neuhauser,  E. Neuscamman,  
 C. M. Oana,  R. Olson,  B. Peters,  R. Peverati,  P. A. Pieniazek,  
 Y. M. Rhee,  J. Ritchie,  M. A. Rohrdanz,  E. Rosta,  N. J. Russ,  
 H. F. Schaefer III,  N. E. Schultz,  N. Shenvi,  A. C. Simmonett,  A. Sodt,  
 D. Stuck,  K. S. Thanthiriwatte,  V. Vanovschi,  Tao Wang,  A. Warshel,  
 C. F. Williams,  Q. Wu,  X. Xu,  W. Zhang

 Please cite Q-Chem as follows:
 Y. Shao et al., Mol. Phys. 113, 184-215 (2015)
 DOI: 10.1080/00268976.2014.952696

 Q-Chem 5.3.0 for Intel X86 EM64T Linux

 Parts of Q-Chem use Armadillo 9.800.1 (Horizon Scraper).
 http://arma.sourceforge.net/

 Q-Chem begins on Mon Jul 27 16:02:56 2020  

Host: centos77-c7
0

     Scratch files written to /tmp/29924.centos77-h1/qchem129111//
Processing $rem in /opt/qchem-5.3.0-intel2020u1//config/preferences:
Processing $rem in /home/shihchengli/.qchemrc:

Checking the input file for inconsistencies... 	...done.

--------------------------------------------------------------
User input:
--------------------------------------------------------------
$rem
   JOBTYPE  sp
   EXCHANGE   omegaB97X-D
   BASIS   6-311+G(2df,2pd)
   UNRESTRICTED   False
   max_scf_cycles   250
   geom_opt_max_cycles   1500
   basis2 6-31G*
   scf_algorithm rca_diis
   SYM_IGNORE  TRUE
   print_input   true
   geom_opt_dmax   80
   pop_mulliken false
   XC_GRID 000075000302
$end

$molecule
0 1
C       -4.4961003950     0.5216110083     0.0002444204
C       -3.3421357484     1.1885973973     -0.0002465824
H       -5.3202012033     0.8746415458     -0.5076172071
H       -4.6016594806     -0.3684871513     0.5074449828
H       -3.2365776853     2.0786983995     -0.5074442355
H       -2.5180354874     0.8355688004     0.5076186218
$end
--------------------------------------------------------------
 ----------------------------------------------------------------
             Standard Nuclear Orientation (Angstroms)
    I     Atom           X                Y                Z
 ----------------------------------------------------------------
    1      C      -4.4961003950     0.5216110083     0.0002444204
    2      C      -3.3421357484     1.1885973973    -0.0002465824
    3      H      -5.3202012033     0.8746415458    -0.5076172071
    4      H      -4.6016594806    -0.3684871513     0.5074449828
    5      H      -3.2365776853     2.0786983995    -0.5074442355
    6      H      -2.5180354874     0.8355688004     0.5076186218
 ----------------------------------------------------------------
 Nuclear Repulsion Energy =          34.16457330 hartrees
 There are        8 alpha and        8 beta electrons
 Requested basis set is 6-311+G(2df,2pd)
 There are 40 shells and 124 basis functions

 Total QAlloc Memory Limit   2000 MB
 Mega-Array Size       188 MB
 MEM_STATIC part       192 MB

                       Distance Matrix (Angstroms)
             C (  1)   C (  2)   H (  3)   H (  4)   H (  5)
   C (  2)  1.332856
   H (  3)  1.030386  2.066092
   H (  4)  1.029888  2.066074  1.758415
   H (  5)  2.066075  1.029889  2.406500  2.980296
   H (  6)  2.066093  1.030387  2.980665  2.406499  1.758416
 
 A cutoff of  1.0D-09 yielded    818 shell pairs
 There are      7926 function pairs (      9855 Cartesian)
 Smallest overlap matrix eigenvalue = 1.22E-04

 Scale SEOQF with 1.000000e-02/1.000000e-01/1.000000e-01

 Standard Electronic Orientation quadrupole field applied
 Nucleus-field energy     =     0.0000000019 hartrees
 Requested basis set is 6-31G(d)
 There are 16 shells and 36 basis functions
 A cutoff of  1.0D-09 yielded    136 shell pairs
 There are       710 function pairs (       795 Cartesian)
 Smallest overlap matrix eigenvalue = 8.04E-03
 Guess from superposition of atomic densities
 Warning:  Energy on first SCF cycle will be non-variational
 SAD guess density has 16.000000 electrons
 Long-range K will be added via erf
 Coulomb attenuation parameter = 0.2 bohr**(-1)
 A restricted hybrid HF-DFT SCF calculation will be
 performed using Relaxed Constraint Minimization + Pulay DIIS
 Exchange:     0.2220 Hartree-Fock + 1.0000 wB97X-D + LR-HF
 Correlation:  1.0000 wB97X-D
 Using Euler-Maclaurin-Lebedev (75,302) quadrature formula
 Dispersion:   Grimme D
 SCF converges when DIIS error is below 1.0E-04
 using 6 threads for integral computing
 -------------------------------------------------------
 OpenMP Integral computing Module                
 Release: version 1.0, May 2013, Q-Chem Inc. Pittsburgh 
 -------------------------------------------------------
 using 6 threads for integral computing
 -------------------------------------------------------
 OpenMP Integral computing Module                
 Release: version 1.0, May 2013, Q-Chem Inc. Pittsburgh 
 -------------------------------------------------------
 ---------------------------------------
  Cycle       Energy         DIIS Error
 ---------------------------------------
    1     -78.9069024552      1.32E-01
    2     -78.5206205885      1.18E-02
    3     -78.5371582778      5.03E-03
    4     -78.5436839019      3.05E-03
    5     -78.5446979735      9.52E-04 Done RCA. Switching to DIIS
    6     -78.5451772605      5.89E-04
    7     -78.5452348434      5.76E-07 Convergence criterion met
 ---------------------------------------
 SCF time:  CPU 7.73 s  wall 1.30 s
 SCF   energy in the small basis set = -78.54523484
 Total energy in the small basis set = -78.54523484
 ----------------------------------------------------
  Cycle       Energy    
 ----------------------------------------------------
    1     -10.6258634322     -1.06E+01
 Long-range K will be added via erf
 Coulomb attenuation parameter = 0.2 bohr**(-1)
 A restricted hybrid HF-DFT SCF calculation will be
 performed using Relaxed Constraint Minimization + Pulay DIIS
 Exchange:     0.2220 Hartree-Fock + 1.0000 wB97X-D + LR-HF
 Correlation:  1.0000 wB97X-D
 Using Euler-Maclaurin-Lebedev (75,302) quadrature formula
 Dispersion:   Grimme D
 SCF converges when DIIS error is below 1.0E-05
 Basis2 calculation detected. Using small basis as guess for larger.
 SCFMinFind is unable to tell whether the solution found is close.
 Resetting ReadMinima to 0 and attempting to follow guess.
 SCFMinFind following SCF Guess.
 using 6 threads for integral computing
 -------------------------------------------------------
 OpenMP Integral computing Module                
 Release: version 1.0, May 2013, Q-Chem Inc. Pittsburgh 
 -------------------------------------------------------
 using 6 threads for integral computing
 -------------------------------------------------------
 OpenMP Integral computing Module                
 Release: version 1.0, May 2013, Q-Chem Inc. Pittsburgh 
 -------------------------------------------------------
 ---------------------------------------
  Cycle       Energy         DIIS Error
 ---------------------------------------
    1     -78.5640629004      5.92E-03
    2     -78.5771638396      9.53E-04 Done RCA. Switching to DIIS
    3     -78.5779866041      5.66E-04
    4     -78.5785649965      4.63E-05
    5     -78.5785700177      4.80E-06 Convergence criterion met
 ---------------------------------------
 SCF time:  CPU 12.81 s  wall 2.15 s
 SCF   energy in the final basis set = -78.57857002
 Total energy in the final basis set = -78.57857002
 
 --------------------------------------------------------------
 
                    Orbital Energies (a.u.)
 --------------------------------------------------------------
 
 Alpha MOs
 -- Occupied --
-10.2723 -10.2714  -0.8685  -0.6912  -0.5727  -0.5118  -0.4520  -0.3583
 -- Virtual --
  0.0626   0.0805   0.0885   0.1023   0.1248   0.1286   0.1466   0.1797
  0.2047   0.2202   0.2534   0.2846   0.3511   0.3884   0.4681   0.4686
  0.5741   0.5775   0.5966   0.6005   0.6035   0.6272   0.6502   0.6746
  0.7214   0.7438   0.7654   0.7881   0.8121   0.9152   1.0048   1.0259
  1.1009   1.1030   1.1175   1.2179   1.2296   1.2605   1.2651   1.4517
  1.4565   1.4827   1.5002   1.5453   1.5624   1.6201   1.6769   1.8058
  2.2815   2.5011   2.5425   2.6166   2.6859   2.8001   2.8043   2.8159
  2.8366   2.8711   2.9651   2.9881   3.0242   3.0570   3.0748   3.0815
  3.0933   3.1004   3.1066   3.2106   3.2850   3.2851   3.3139   3.3217
  3.3350   3.4791   3.4856   3.4915   3.5830   3.6379   3.7101   3.7317
  3.7869   3.8447   3.8922   3.9064   3.9501   3.9870   4.0241   4.0610
  4.1274   4.1741   4.1982   4.1983   4.2567   4.4048   4.4270   4.7036
  4.8237   4.8659   4.8723   5.0789   5.1175   5.2109   5.2921   5.2976
  5.3036   5.3595   5.4358   5.6252   5.6427   5.7614   6.4249   6.5571
  6.5969   6.7710  24.9762  25.5741
 --------------------------------------------------------------
 
 -----------------------------------------------------------------
                    Cartesian Multipole Moments
 -----------------------------------------------------------------
    Charge (ESU x 10^10)
                 0.0000
    Dipole Moment (Debye)
         X       0.0000      Y       0.0000      Z       0.0000
       Tot       0.0000
    Quadrupole Moments (Debye-Ang)
        XX     -12.3571     XY       0.5641     YY     -13.0044
        XZ       0.7473     YZ      -1.2938     ZZ     -14.3884
    Octopole Moments (Debye-Ang^2)
       XXX     145.2864    XXY     -14.9885    XYY      51.9306
       YYY     -33.3603    XXZ      -5.8576    XYZ       5.7097
       YYZ      -2.2127    XZZ      56.3900    YZZ     -12.3036
       ZZZ       0.0000
    Hexadecapole Moments (Debye-Ang^3)
      XXXX   -1192.4673   XXXY     140.3596   XXYY    -231.4661
      XYYY     123.8928   YYYY     -90.0129   XXXZ      35.4280
      XXYZ     -24.8660   XYYZ       8.1951   YYYZ      -2.7951
      XXZZ    -233.5191   XYZZ      45.1583   YYZZ     -19.5122
      XZZZ      -0.8336   YZZZ       1.4475   ZZZZ     -22.1975
 -----------------------------------------------------------------
Archival summary:
1\1\centos77-c7\SP\ProcedureUnspecified\BasisUnspecified\24\shihchen\MonJul2716:03:002020MonJul2716:03:002020\0\\#,ProcedureUnspecified,BasisUnspecified,\\0,1\C\H,1,1.02989\H,1,1.03039,2,117.186\C,1,1.33286,2,121.427,3,-179.955,0\H,4,1.02989,1,121.427,2,-180,0\H,4,1.03039,1,121.387,2,-0.0476409,0\\\@

 Total job time:  4.33s(wall), 22.87s(cpu) 
 Mon Jul 27 16:03:00 2020

        *************************************************************
        *                                                           *
        *  Thank you very much for using Q-Chem.  Have a nice day.  *
        *                                                           *
        *************************************************************


