                  Welcome to Q-Chem
     A Quantum Leap Into The Future Of Chemistry


 Q-Chem 5.3 (devel), Q-Chem, Inc., Pleasanton, CA (2020)

 Yihan Shao,  Zhengting Gan,  E. Epifanovsky,  A. T. B. Gilbert,  M. Wormit,  
 J. Kussmann,  A. W. Lange,  A. Behn,  Jia Deng,  Xintian Feng,  D. Ghosh,  
 M. Goldey,  P. R. Horn,  L. D. Jacobson,  I. Kaliman,  T. Kus,  A. Landau,  
 Jie Liu,  E. I. Proynov,  R. M. Richard,  R. P. Steele,  E. J. Sundstrom,  
 H. L. Woodcock III,  P. M. Zimmerman,  D. Zuev,  B. Alam,  B. Albrecht,  
 E. Alguire,  S. A. Baeppler,  D. Barton,  Z. Benda,  Y. A. Bernard,  
 E. J. Berquist,  K. B. Bravaya,  H. Burton,  K. Carter-Fenk,  D. Casanova,  
 Chun-Min Chang,  Yunqing Chen,  A. Chien,  K. D. Closser,  M. P. Coons,  
 S. Coriani,  S. Dasgupta,  A. L. Dempwolff,  M. Diedenhofen,  Hainam Do,  
 R. G. Edgar,  Po-Tung Fang,  S. Faraji,  S. Fatehi,  Qingguo Feng,  
 J. Fosso-Tande,  J. Gayvert,  Qinghui Ge,  A. Ghysels,  G. Gidofalvi,  
 J. Gomes,  J. Gonthier,  A. Gunina,  D. Hait,  M. W. D. Hanson-Heine,  
 P. H. P. Harbach,  A. W. Hauser,  M. F. Herbst,  J. E. Herr,  
 E. G. Hohenstein,  Z. C. Holden,  Kerwin Hui,  B. C. Huynh,  T.-C. Jagau,  
 Hyunjun Ji,  B. Kaduk,  K. Khistyaev,  Jaehoon Kim,  P. Klunzinger,  K. Koh,  
 D. Kosenkov,  L. Koulias,  T. Kowalczyk,  C. M. Krauter,  A. Kunitsa,  
 Ka Un Lao,  A. Laurent,  K. V. Lawler,  Joonho Lee,  D. Lefrancois,  
 S. Lehtola,  D. S. Levine,  Yi-Pei Li,  You-Sheng Lin,  Fenglai Liu,  
 Kuan-Yu Liu,  E. Livshits,  M. Loipersberger,  A. Luenser,  P. Manohar,  
 E. Mansoor,  S. F. Manzer,  Shan-Ping Mao,  Yuezhi Mao,  N. Mardirossian,  
 A. V. Marenich,  T. Markovich,  L. A. Martinez-Martinez,  S. A. Maurer,  
 N. J. Mayhall,  S. C. McKenzie,  J.-M. Mewes,  P. Morgante,  A. F. Morrison,  
 J. W. Mullinax,  K. Nanda,  T. S. Nguyen-Beck,  R. Olivares-Amaya,  
 K. J. Oosterbaan,  J. A. Parkhill,  S. K. Paul,  F. Pavosevic,  Zheng Pei,  
 T. M. Perrine,  F. Plasser,  P. Pokhilko,  S. Prager,  A. Prociuk,  
 E. Ramos,  B. Rana,  D. R. Rehn,  F. Rob,  M. Scheurer,  M. Schneider,  
 N. Sergueev,  S. M. Sharada,  S. Sharma,  D. W. Small,  T. Stauch,  
 C. J. Stein,  T. Stein,  Yu-Chuan Su,  S. P. Veccham,  Zhen Tao,  
 A. J. W. Thom,  A. Tkatchenko,  T. Tsuchimochi,  N. M. Tubman,  L. Vogt,  
 M. L. Vidal,  O. Vydrov,  M. A. Watson,  J. Wenzel,  M. de Wergifosse,  
 T. A. Wesolowski,  A. White,  J. Witte,  A. Yamada,  Jun Yang,  K. Yao,  
 S. Yeganeh,  S. R. Yost,  Zhi-Qiang You,  A. Zech,  Igor Ying Zhang,  
 Xing Zhang,  Yan Zhao,  Ying Zhu,  B. R. Brooks,  G. K. L. Chan,  
 C. J. Cramer,  M. S. Gordon,  W. J. Hehre,  A. Klamt,  M. W. Schmidt,  
 C. D. Sherrill,  D. G. Truhlar,  A. Aspuru-Guzik,  R. Baer,  A. T. Bell,  
 N. A. Besley,  Jeng-Da Chai,  A. E. DePrince, III,  R. A. DiStasio Jr.,  
 A. Dreuw,  B. D. Dunietz,  T. R. Furlani,  Chao-Ping Hsu,  Yousung Jung,  
 Jing Kong,  D. S. Lambrecht,  WanZhen Liang,  C. Ochsenfeld,  
 V. A. Rassolov,  L. V. Slipchenko,  J. E. Subotnik,  T. Van Voorhis,  
 J. M. Herbert,  A. I. Krylov,  P. M. W. Gill,  M. Head-Gordon

 Contributors to earlier versions of Q-Chem not listed above: 
 R. D. Adamson,  B. Austin,  J. Baker,  G. J. O. Beran,  K. Brandhorst,  
 S. T. Brown,  E. F. C. Byrd,  A. K. Chakraborty,  C.-L. Cheng,  
 Siu Hung Chien,  D. M. Chipman,  D. L. Crittenden,  H. Dachsel,  
 R. J. Doerksen,  A. D. Dutoi,  L. Fusti-Molnar,  W. A. Goddard III,  
 A. Golubeva-Zadorozhnaya,  S. R. Gwaltney,  G. Hawkins,  A. Heyden,  
 S. Hirata,  G. Kedziora,  F. J. Keil,  C. Kelley,  Jihan Kim,  R. A. King,  
 R. Z. Khaliullin,  P. P. Korambath,  W. Kurlancheek,  A. M. Lee,  M. S. Lee,  
 S. V. Levchenko,  Ching Yeh Lin,  D. Liotard,  R. C. Lochan,  I. Lotan,  
 P. E. Maslen,  N. Nair,  D. P. O'Neill,  D. Neuhauser,  E. Neuscamman,  
 C. M. Oana,  R. Olson,  B. Peters,  R. Peverati,  P. A. Pieniazek,  
 Y. M. Rhee,  J. Ritchie,  M. A. Rohrdanz,  E. Rosta,  N. J. Russ,  
 H. F. Schaefer III,  N. E. Schultz,  N. Shenvi,  A. C. Simmonett,  A. Sodt,  
 D. Stuck,  K. S. Thanthiriwatte,  V. Vanovschi,  Tao Wang,  A. Warshel,  
 C. F. Williams,  Q. Wu,  X. Xu,  W. Zhang

 Please cite Q-Chem as follows:
 Y. Shao et al., Mol. Phys. 113, 184-215 (2015)
 DOI: 10.1080/00268976.2014.952696

 Q-Chem 5.3.0 for Intel X86 EM64T Linux

 Parts of Q-Chem use Armadillo 9.800.1 (Horizon Scraper).
 http://arma.sourceforge.net/

 Q-Chem begins on Mon Jul 27 16:01:42 2020  

Host: centos77-c7
0

     Scratch files written to /tmp/29924.centos77-h1/qchem128556//
Processing $rem in /opt/qchem-5.3.0-intel2020u1//config/preferences:
Processing $rem in /home/shihchengli/.qchemrc:

Checking the input file for inconsistencies... 	...done.

--------------------------------------------------------------
User input:
--------------------------------------------------------------
$rem
   JOBTYPE  sp
   EXCHANGE   omegaB97X-D
   BASIS   6-311+G(2df,2pd)
   UNRESTRICTED   False
   max_scf_cycles   250
   geom_opt_max_cycles   1500
   basis2 6-31G*
   scf_algorithm rca_diis
   SYM_IGNORE  TRUE
   print_input   true
   geom_opt_dmax   80
   pop_mulliken false
   XC_GRID 000075000302
$end

$molecule
0 1
C       -4.5780603553     0.4746234201     0.0005102005
C       -3.2601638323     1.2355645735     -0.0005460017
H       -5.3313168462     1.0042513505     -0.5910057480
H       -4.4949727592     -0.4432083094     0.5908070112
H       -3.3432734290     2.1534348765     -0.5907798088
H       -2.5069227778     0.7059640889     0.5910143469
$end
--------------------------------------------------------------
 ----------------------------------------------------------------
             Standard Nuclear Orientation (Angstroms)
    I     Atom           X                Y                Z
 ----------------------------------------------------------------
    1      C      -4.5780603553     0.4746234201     0.0005102005
    2      C      -3.2601638323     1.2355645735    -0.0005460017
    3      H      -5.3313168462     1.0042513505    -0.5910057480
    4      H      -4.4949727592    -0.4432083094     0.5908070112
    5      H      -3.3432734290     2.1534348765    -0.5907798088
    6      H      -2.5069227778     0.7059640889     0.5910143469
 ----------------------------------------------------------------
 Nuclear Repulsion Energy =          31.30662548 hartrees
 There are        8 alpha and        8 beta electrons
 Requested basis set is 6-311+G(2df,2pd)
 There are 40 shells and 124 basis functions

 Total QAlloc Memory Limit   2000 MB
 Mega-Array Size       188 MB
 MEM_STATIC part       192 MB

                       Distance Matrix (Angstroms)
             C (  1)   C (  2)   H (  3)   H (  4)   H (  5)
   C (  2)  1.521803
   H (  3)  1.094437  2.166062
   H (  4)  1.094426  2.166271  2.047265
   H (  5)  2.166271  1.094426  2.296288  3.076543
   H (  6)  2.166062  1.094437  3.076256  2.296288  2.047264
 
 A cutoff of  1.0D-09 yielded    814 shell pairs
 There are      7914 function pairs (      9843 Cartesian)
 Smallest overlap matrix eigenvalue = 2.34E-04

 Scale SEOQF with 1.000000e-02/1.000000e-01/1.000000e-01

 Standard Electronic Orientation quadrupole field applied
 Nucleus-field energy     =     0.0000000020 hartrees
 Requested basis set is 6-31G(d)
 There are 16 shells and 36 basis functions
 A cutoff of  1.0D-09 yielded    136 shell pairs
 There are       710 function pairs (       795 Cartesian)
 Smallest overlap matrix eigenvalue = 1.23E-02
 Guess from superposition of atomic densities
 Warning:  Energy on first SCF cycle will be non-variational
 SAD guess density has 16.000000 electrons
 Long-range K will be added via erf
 Coulomb attenuation parameter = 0.2 bohr**(-1)
 A restricted hybrid HF-DFT SCF calculation will be
 performed using Relaxed Constraint Minimization + Pulay DIIS
 Exchange:     0.2220 Hartree-Fock + 1.0000 wB97X-D + LR-HF
 Correlation:  1.0000 wB97X-D
 Using Euler-Maclaurin-Lebedev (75,302) quadrature formula
 Dispersion:   Grimme D
 SCF converges when DIIS error is below 1.0E-04
 using 6 threads for integral computing
 -------------------------------------------------------
 OpenMP Integral computing Module                
 Release: version 1.0, May 2013, Q-Chem Inc. Pittsburgh 
 -------------------------------------------------------
 using 6 threads for integral computing
 -------------------------------------------------------
 OpenMP Integral computing Module                
 Release: version 1.0, May 2013, Q-Chem Inc. Pittsburgh 
 -------------------------------------------------------
 ---------------------------------------
  Cycle       Energy         DIIS Error
 ---------------------------------------
    1     -78.5224036464      1.03E-01
    2     -78.4918045354      8.88E-03
    3     -78.5025031045      4.86E-03
    4     -78.5054692982      1.92E-03
    5     -78.5066484788      1.15E-03
    6     -78.5068038012      3.85E-04 Done RCA. Switching to DIIS
    7     -78.5068724729      2.31E-04
    8     -78.5068818327      7.81E-08 Convergence criterion met
 ---------------------------------------
 SCF time:  CPU 8.87 s  wall 1.50 s
 SCF   energy in the small basis set = -78.50688183
 Total energy in the small basis set = -78.50688183
 ----------------------------------------------------
  Cycle       Energy    
 ----------------------------------------------------
    1     -10.4362025922     -1.04E+01
 Long-range K will be added via erf
 Coulomb attenuation parameter = 0.2 bohr**(-1)
 A restricted hybrid HF-DFT SCF calculation will be
 performed using Relaxed Constraint Minimization + Pulay DIIS
 Exchange:     0.2220 Hartree-Fock + 1.0000 wB97X-D + LR-HF
 Correlation:  1.0000 wB97X-D
 Using Euler-Maclaurin-Lebedev (75,302) quadrature formula
 Dispersion:   Grimme D
 SCF converges when DIIS error is below 1.0E-05
 Basis2 calculation detected. Using small basis as guess for larger.
 SCFMinFind is unable to tell whether the solution found is close.
 Resetting ReadMinima to 0 and attempting to follow guess.
 SCFMinFind following SCF Guess.
 using 6 threads for integral computing
 -------------------------------------------------------
 OpenMP Integral computing Module                
 Release: version 1.0, May 2013, Q-Chem Inc. Pittsburgh 
 -------------------------------------------------------
 using 6 threads for integral computing
 -------------------------------------------------------
 OpenMP Integral computing Module                
 Release: version 1.0, May 2013, Q-Chem Inc. Pittsburgh 
 -------------------------------------------------------
 ---------------------------------------
  Cycle       Energy         DIIS Error
 ---------------------------------------
    1     -78.5245338657      5.93E-03
    2     -78.5376501403      1.01E-03
    3     -78.5387197389      2.95E-04 Done RCA. Switching to DIIS
    4     -78.5392730714      2.07E-04
    5     -78.5393533460      4.22E-06 Convergence criterion met
 ---------------------------------------
 SCF time:  CPU 13.70 s  wall 2.30 s
 SCF   energy in the final basis set = -78.53935335
 Total energy in the final basis set = -78.53935335
 
 --------------------------------------------------------------
 
                    Orbital Energies (a.u.)
 --------------------------------------------------------------
 
 Alpha MOs
 -- Occupied --
-10.3107 -10.3105  -0.8327  -0.6707  -0.5747  -0.4786  -0.4430  -0.3325
 -- Virtual --
  0.0329   0.0830   0.0896   0.0960   0.1256   0.1269   0.1330   0.1712
  0.1793   0.1981   0.2483   0.2634   0.3190   0.3350   0.4643   0.4693
  0.5510   0.5557   0.5592   0.5891   0.6100   0.6174   0.6226   0.6669
  0.6843   0.7124   0.7145   0.7486   0.8374   0.8531   0.8699   0.8841
  0.9918   1.0383   1.1497   1.1778   1.2164   1.2382   1.2534   1.3542
  1.3716   1.4278   1.4370   1.4555   1.5211   1.5876   1.6106   1.7900
  2.3678   2.5189   2.5771   2.6279   2.6330   2.6800   2.6835   2.7459
  2.8096   2.8160   2.8542   2.9333   2.9684   2.9888   2.9992   3.0579
  3.0674   3.0770   3.0836   3.1574   3.2087   3.2495   3.3119   3.3771
  3.3962   3.4092   3.4739   3.4917   3.5191   3.5656   3.6224   3.6361
  3.6610   3.6648   3.6666   3.6997   3.7444   3.7742   3.9034   3.9647
  3.9950   3.9983   4.0394   4.0489   4.1789   4.2503   4.2987   4.3304
  4.4794   4.6022   4.6435   4.6947   4.8063   4.8691   4.8964   4.9080
  4.9745   5.0782   5.3027   5.6364   5.6503   5.7802   5.8427   6.0972
  6.1973   6.7497  24.8111  25.0202
 --------------------------------------------------------------
 
 -----------------------------------------------------------------
                    Cartesian Multipole Moments
 -----------------------------------------------------------------
    Charge (ESU x 10^10)
                -0.0000
    Dipole Moment (Debye)
         X      -0.0000      Y       0.0001      Z       0.0001
       Tot       0.0001
    Quadrupole Moments (Debye-Ang)
        XX     -13.4138     XY      -0.1915     YY     -13.1895
        XZ       1.2411     YZ      -2.1462     ZZ     -14.8346
    Octopole Moments (Debye-Ang^2)
       XXX     157.7114    XXY      -9.9701    XYY      51.3641
       YYY     -33.8348    XXZ      -9.7293    XYZ       9.4729
       YYZ      -3.6703    XZZ      58.1385    YZZ     -12.6851
       ZZZ       0.0008
    Hexadecapole Moments (Debye-Ang^3)
      XXXX   -1301.0738   XXXY     112.9146   XXYY    -228.2147
      XYYY     122.1778   YYYY     -96.0487   XXXZ      58.8665
      XXYZ     -41.5319   XYYZ      14.2162   YYYZ      -5.4534
      XXZZ    -242.3866   XYZZ      45.8839   YYZZ     -20.9651
      XZZZ      -0.8004   YZZZ       1.4114   ZZZZ     -26.1398
 -----------------------------------------------------------------
Archival summary:
1\1\centos77-c7\SP\ProcedureUnspecified\BasisUnspecified\24\shihchen\MonJul2716:01:472020MonJul2716:01:472020\0\\#,ProcedureUnspecified,BasisUnspecified,\\0,1\C\H,1,1.09443\H,1,1.09444,2,138.556\C,1,1.5218,2,110.73,3,-179.837,0\H,4,1.09443,1,110.73,2,-179.996,0\H,4,1.09444,1,110.713,2,-0.118439,0\\\@

 Total job time:  4.70s(wall), 25.01s(cpu) 
 Mon Jul 27 16:01:47 2020

        *************************************************************
        *                                                           *
        *  Thank you very much for using Q-Chem.  Have a nice day.  *
        *                                                           *
        *************************************************************


