                  Welcome to Q-Chem
     A Quantum Leap Into The Future Of Chemistry


 Q-Chem 5.3 (devel), Q-Chem, Inc., Pleasanton, CA (2020)

 Yihan Shao,  Zhengting Gan,  E. Epifanovsky,  A. T. B. Gilbert,  M. Wormit,  
 J. Kussmann,  A. W. Lange,  A. Behn,  Jia Deng,  Xintian Feng,  D. Ghosh,  
 M. Goldey,  P. R. Horn,  L. D. Jacobson,  I. Kaliman,  T. Kus,  A. Landau,  
 Jie Liu,  E. I. Proynov,  R. M. Richard,  R. P. Steele,  E. J. Sundstrom,  
 H. L. Woodcock III,  P. M. Zimmerman,  D. Zuev,  B. Alam,  B. Albrecht,  
 E. Alguire,  S. A. Baeppler,  D. Barton,  Z. Benda,  Y. A. Bernard,  
 E. J. Berquist,  K. B. Bravaya,  H. Burton,  K. Carter-Fenk,  D. Casanova,  
 Chun-Min Chang,  Yunqing Chen,  A. Chien,  K. D. Closser,  M. P. Coons,  
 S. Coriani,  S. Dasgupta,  A. L. Dempwolff,  M. Diedenhofen,  Hainam Do,  
 R. G. Edgar,  Po-Tung Fang,  S. Faraji,  S. Fatehi,  Qingguo Feng,  
 J. Fosso-Tande,  J. Gayvert,  Qinghui Ge,  A. Ghysels,  G. Gidofalvi,  
 J. Gomes,  J. Gonthier,  A. Gunina,  D. Hait,  M. W. D. Hanson-Heine,  
 P. H. P. Harbach,  A. W. Hauser,  M. F. Herbst,  J. E. Herr,  
 E. G. Hohenstein,  Z. C. Holden,  Kerwin Hui,  B. C. Huynh,  T.-C. Jagau,  
 Hyunjun Ji,  B. Kaduk,  K. Khistyaev,  Jaehoon Kim,  P. Klunzinger,  K. Koh,  
 D. Kosenkov,  L. Koulias,  T. Kowalczyk,  C. M. Krauter,  A. Kunitsa,  
 Ka Un Lao,  A. Laurent,  K. V. Lawler,  Joonho Lee,  D. Lefrancois,  
 S. Lehtola,  D. S. Levine,  Yi-Pei Li,  You-Sheng Lin,  Fenglai Liu,  
 Kuan-Yu Liu,  E. Livshits,  M. Loipersberger,  A. Luenser,  P. Manohar,  
 E. Mansoor,  S. F. Manzer,  Shan-Ping Mao,  Yuezhi Mao,  N. Mardirossian,  
 A. V. Marenich,  T. Markovich,  L. A. Martinez-Martinez,  S. A. Maurer,  
 N. J. Mayhall,  S. C. McKenzie,  J.-M. Mewes,  P. Morgante,  A. F. Morrison,  
 J. W. Mullinax,  K. Nanda,  T. S. Nguyen-Beck,  R. Olivares-Amaya,  
 K. J. Oosterbaan,  J. A. Parkhill,  S. K. Paul,  F. Pavosevic,  Zheng Pei,  
 T. M. Perrine,  F. Plasser,  P. Pokhilko,  S. Prager,  A. Prociuk,  
 E. Ramos,  B. Rana,  D. R. Rehn,  F. Rob,  M. Scheurer,  M. Schneider,  
 N. Sergueev,  S. M. Sharada,  S. Sharma,  D. W. Small,  T. Stauch,  
 C. J. Stein,  T. Stein,  Yu-Chuan Su,  S. P. Veccham,  Zhen Tao,  
 A. J. W. Thom,  A. Tkatchenko,  T. Tsuchimochi,  N. M. Tubman,  L. Vogt,  
 M. L. Vidal,  O. Vydrov,  M. A. Watson,  J. Wenzel,  M. de Wergifosse,  
 T. A. Wesolowski,  A. White,  J. Witte,  A. Yamada,  Jun Yang,  K. Yao,  
 S. Yeganeh,  S. R. Yost,  Zhi-Qiang You,  A. Zech,  Igor Ying Zhang,  
 Xing Zhang,  Yan Zhao,  Ying Zhu,  B. R. Brooks,  G. K. L. Chan,  
 C. J. Cramer,  M. S. Gordon,  W. J. Hehre,  A. Klamt,  M. W. Schmidt,  
 C. D. Sherrill,  D. G. Truhlar,  A. Aspuru-Guzik,  R. Baer,  A. T. Bell,  
 N. A. Besley,  Jeng-Da Chai,  A. E. DePrince, III,  R. A. DiStasio Jr.,  
 A. Dreuw,  B. D. Dunietz,  T. R. Furlani,  Chao-Ping Hsu,  Yousung Jung,  
 Jing Kong,  D. S. Lambrecht,  WanZhen Liang,  C. Ochsenfeld,  
 V. A. Rassolov,  L. V. Slipchenko,  J. E. Subotnik,  T. Van Voorhis,  
 J. M. Herbert,  A. I. Krylov,  P. M. W. Gill,  M. Head-Gordon

 Contributors to earlier versions of Q-Chem not listed above: 
 R. D. Adamson,  B. Austin,  J. Baker,  G. J. O. Beran,  K. Brandhorst,  
 S. T. Brown,  E. F. C. Byrd,  A. K. Chakraborty,  C.-L. Cheng,  
 Siu Hung Chien,  D. M. Chipman,  D. L. Crittenden,  H. Dachsel,  
 R. J. Doerksen,  A. D. Dutoi,  L. Fusti-Molnar,  W. A. Goddard III,  
 A. Golubeva-Zadorozhnaya,  S. R. Gwaltney,  G. Hawkins,  A. Heyden,  
 S. Hirata,  G. Kedziora,  F. J. Keil,  C. Kelley,  Jihan Kim,  R. A. King,  
 R. Z. Khaliullin,  P. P. Korambath,  W. Kurlancheek,  A. M. Lee,  M. S. Lee,  
 S. V. Levchenko,  Ching Yeh Lin,  D. Liotard,  R. C. Lochan,  I. Lotan,  
 P. E. Maslen,  N. Nair,  D. P. O'Neill,  D. Neuhauser,  E. Neuscamman,  
 C. M. Oana,  R. Olson,  B. Peters,  R. Peverati,  P. A. Pieniazek,  
 Y. M. Rhee,  J. Ritchie,  M. A. Rohrdanz,  E. Rosta,  N. J. Russ,  
 H. F. Schaefer III,  N. E. Schultz,  N. Shenvi,  A. C. Simmonett,  A. Sodt,  
 D. Stuck,  K. S. Thanthiriwatte,  V. Vanovschi,  Tao Wang,  A. Warshel,  
 C. F. Williams,  Q. Wu,  X. Xu,  W. Zhang

 Please cite Q-Chem as follows:
 Y. Shao et al., Mol. Phys. 113, 184-215 (2015)
 DOI: 10.1080/00268976.2014.952696

 Q-Chem 5.3.0 for Intel X86 EM64T Linux

 Parts of Q-Chem use Armadillo 9.800.1 (Horizon Scraper).
 http://arma.sourceforge.net/

 Q-Chem begins on Mon Jul 27 16:03:06 2020  

Host: centos77-c7
0

     Scratch files written to /tmp/29924.centos77-h1/qchem129198//
Processing $rem in /opt/qchem-5.3.0-intel2020u1//config/preferences:
Processing $rem in /home/shihchengli/.qchemrc:

Checking the input file for inconsistencies... 	...done.

--------------------------------------------------------------
User input:
--------------------------------------------------------------
$rem
   JOBTYPE  sp
   EXCHANGE   omegaB97X-D
   BASIS   6-311+G(2df,2pd)
   UNRESTRICTED   False
   max_scf_cycles   250
   geom_opt_max_cycles   1500
   basis2 6-31G*
   scf_algorithm rca_diis
   SYM_IGNORE  TRUE
   print_input   true
   geom_opt_dmax   80
   pop_mulliken false
   XC_GRID 000075000302
$end

$molecule
0 1
C       -4.5055582427     0.5160171922     0.0003023690
C       -3.3326782366     1.1941907062     -0.0003046054
H       -5.2425592458     0.8386304254     -0.4581023751
H       -4.5938007031     -0.2825915128     0.4576589512
H       -3.2444366974     1.9928039976     -0.4576589260
H       -2.5956768744     0.8715791915     0.4581045863
$end
--------------------------------------------------------------
 ----------------------------------------------------------------
             Standard Nuclear Orientation (Angstroms)
    I     Atom           X                Y                Z
 ----------------------------------------------------------------
    1      C      -4.5055582427     0.5160171922     0.0003023690
    2      C      -3.3326782366     1.1941907062    -0.0003046054
    3      H      -5.2425592458     0.8386304254    -0.4581023751
    4      H      -4.5938007031    -0.2825915128     0.4576589512
    5      H      -3.2444366974     1.9928039976    -0.4576589260
    6      H      -2.5956768744     0.8715791915     0.4581045863
 ----------------------------------------------------------------
 Nuclear Repulsion Energy =          35.65473665 hartrees
 There are        8 alpha and        8 beta electrons
 Requested basis set is 6-311+G(2df,2pd)
 There are 40 shells and 124 basis functions

 Total QAlloc Memory Limit   2000 MB
 Mega-Array Size       188 MB
 MEM_STATIC part       192 MB

                       Distance Matrix (Angstroms)
             C (  1)   C (  2)   H (  3)   H (  4)   H (  5)
   C (  2)  1.354831
   H (  3)  0.925951  1.995908
   H (  4)  0.924520  1.995256  1.586394
   H (  5)  1.995258  0.924523  2.307512  2.799288
   H (  6)  1.995909  0.925953  2.801162  2.307511  1.586398
 
 A cutoff of  1.0D-09 yielded    820 shell pairs
 There are      7944 function pairs (      9873 Cartesian)
 Smallest overlap matrix eigenvalue = 1.34E-04

 Scale SEOQF with 1.000000e-02/1.000000e-01/1.000000e-01

 Standard Electronic Orientation quadrupole field applied
 Nucleus-field energy     =     0.0000000019 hartrees
 Requested basis set is 6-31G(d)
 There are 16 shells and 36 basis functions
 A cutoff of  1.0D-09 yielded    136 shell pairs
 There are       710 function pairs (       795 Cartesian)
 Smallest overlap matrix eigenvalue = 8.19E-03
 Guess from superposition of atomic densities
 Warning:  Energy on first SCF cycle will be non-variational
 SAD guess density has 16.000000 electrons
 Long-range K will be added via erf
 Coulomb attenuation parameter = 0.2 bohr**(-1)
 A restricted hybrid HF-DFT SCF calculation will be
 performed using Relaxed Constraint Minimization + Pulay DIIS
 Exchange:     0.2220 Hartree-Fock + 1.0000 wB97X-D + LR-HF
 Correlation:  1.0000 wB97X-D
 Using Euler-Maclaurin-Lebedev (75,302) quadrature formula
 Dispersion:   Grimme D
 SCF converges when DIIS error is below 1.0E-04
 using 6 threads for integral computing
 -------------------------------------------------------
 OpenMP Integral computing Module                
 Release: version 1.0, May 2013, Q-Chem Inc. Pittsburgh 
 -------------------------------------------------------
 using 6 threads for integral computing
 -------------------------------------------------------
 OpenMP Integral computing Module                
 Release: version 1.0, May 2013, Q-Chem Inc. Pittsburgh 
 -------------------------------------------------------
 ---------------------------------------
  Cycle       Energy         DIIS Error
 ---------------------------------------
    1     -79.0729130578      1.49E-01
    2     -78.4303115525      1.29E-02
    3     -78.4516504416      7.00E-03
    4     -78.4571106824      2.90E-03
    5     -78.4590021483      1.62E-03
    6     -78.4592905733      6.48E-04 Done RCA. Switching to DIIS
    7     -78.4593936594      3.60E-04
    8     -78.4594141004      1.23E-07 Convergence criterion met
 ---------------------------------------
 SCF time:  CPU 8.94 s  wall 1.51 s
 SCF   energy in the small basis set = -78.45941410
 Total energy in the small basis set = -78.45941410
 ----------------------------------------------------
  Cycle       Energy    
 ----------------------------------------------------
    1     -10.7808751239     -1.08E+01
 Long-range K will be added via erf
 Coulomb attenuation parameter = 0.2 bohr**(-1)
 A restricted hybrid HF-DFT SCF calculation will be
 performed using Relaxed Constraint Minimization + Pulay DIIS
 Exchange:     0.2220 Hartree-Fock + 1.0000 wB97X-D + LR-HF
 Correlation:  1.0000 wB97X-D
 Using Euler-Maclaurin-Lebedev (75,302) quadrature formula
 Dispersion:   Grimme D
 SCF converges when DIIS error is below 1.0E-05
 Basis2 calculation detected. Using small basis as guess for larger.
 SCFMinFind is unable to tell whether the solution found is close.
 Resetting ReadMinima to 0 and attempting to follow guess.
 SCFMinFind following SCF Guess.
 using 6 threads for integral computing
 -------------------------------------------------------
 OpenMP Integral computing Module                
 Release: version 1.0, May 2013, Q-Chem Inc. Pittsburgh 
 -------------------------------------------------------
 using 6 threads for integral computing
 -------------------------------------------------------
 OpenMP Integral computing Module                
 Release: version 1.0, May 2013, Q-Chem Inc. Pittsburgh 
 -------------------------------------------------------
 ---------------------------------------
  Cycle       Energy         DIIS Error
 ---------------------------------------
    1     -78.4836461898      5.96E-03
    2     -78.4970015257      9.49E-04 Done RCA. Switching to DIIS
    3     -78.4978549839      5.10E-04
    4     -78.4982971118      4.26E-05
    5     -78.4983010759      4.77E-06 Convergence criterion met
 ---------------------------------------
 SCF time:  CPU 12.90 s  wall 2.17 s
 SCF   energy in the final basis set = -78.49830108
 Total energy in the final basis set = -78.49830108
 
 --------------------------------------------------------------
 
                    Orbital Energies (a.u.)
 --------------------------------------------------------------
 
 Alpha MOs
 -- Occupied --
-10.2500 -10.2492  -0.8796  -0.7265  -0.5974  -0.5162  -0.4810  -0.3535
 -- Virtual --
  0.0590   0.0779   0.0886   0.1025   0.1255   0.1281   0.1489   0.1776
  0.2040   0.2420   0.2846   0.3095   0.3562   0.3926   0.4629   0.4649
  0.5831   0.5892   0.5927   0.6031   0.6362   0.6685   0.6755   0.7083
  0.7491   0.7639   0.7693   0.7764   0.8458   0.9597   1.0697   1.0771
  1.1370   1.1421   1.1497   1.2150   1.2602   1.2736   1.2768   1.4588
  1.5117   1.5234   1.5570   1.5719   1.5975   1.7066   1.7627   1.8097
  2.1780   2.4811   2.5328   2.6315   2.6720   2.8083   2.8214   2.8438
  2.8658   2.9422   2.9604   3.0269   3.0542   3.0641   3.0648   3.0777
  3.1253   3.1738   3.1875   3.2522   3.2727   3.2899   3.3087   3.3092
  3.3609   3.4353   3.4854   3.6468   3.6634   3.6819   3.6866   3.7954
  3.8267   3.8930   3.9445   4.0095   4.0212   4.0771   4.1254   4.1780
  4.1806   4.2929   4.3256   4.3406   4.3920   4.5680   4.6265   4.8116
  4.9600   4.9811   5.2009   5.3701   5.5218   5.5336   5.6672   5.6676
  5.7289   5.7626   5.8355   5.9133   6.1125   6.1961   6.7839   6.8049
  6.9065   7.3125  25.0564  25.7444
 --------------------------------------------------------------
 
 -----------------------------------------------------------------
                    Cartesian Multipole Moments
 -----------------------------------------------------------------
    Charge (ESU x 10^10)
                -0.0000
    Dipole Moment (Debye)
         X      -0.0000      Y      -0.0000      Z       0.0000
       Tot       0.0000
    Quadrupole Moments (Debye-Ang)
        XX     -12.0485     XY       0.6284     YY     -12.7705
        XZ       0.6638     YZ      -1.1492     ZZ     -14.0734
    Octopole Moments (Debye-Ang^2)
       XXX     141.6596    XXY     -15.2287    XYY      51.1238
       YYY     -32.7603    XXZ      -5.2032    XYZ       5.0714
       YYZ      -1.9653    XZZ      55.1554    YZZ     -12.0343
       ZZZ       0.0000
    Hexadecapole Moments (Debye-Ang^3)
      XXXX   -1160.6375   XXXY     140.9248   XXYY    -227.2476
      XYYY     121.7011   YYYY     -86.4020   XXXZ      31.3872
      XXYZ     -22.1679   XYYZ       7.5449   YYYZ      -2.7228
      XXZZ    -227.9064   XYZZ      44.2112   YYZZ     -18.6303
      XZZZ      -0.4300   YZZZ       0.7413   ZZZZ     -20.4524
 -----------------------------------------------------------------
Archival summary:
1\1\centos77-c7\SP\ProcedureUnspecified\BasisUnspecified\24\shihchen\MonJul2716:03:112020MonJul2716:03:112020\0\\#,ProcedureUnspecified,BasisUnspecified,\\0,1\C\H,1,0.92452\H,1,0.925951,2,118.028\C,1,1.35483,2,121.013,3,-179.957,0\H,4,0.924523,1,121.013,2,-180,0\H,4,0.925953,1,120.959,2,-0.0450679,0\\\@

 Total job time:  4.61s(wall), 24.30s(cpu) 
 Mon Jul 27 16:03:11 2020

        *************************************************************
        *                                                           *
        *  Thank you very much for using Q-Chem.  Have a nice day.  *
        *                                                           *
        *************************************************************


