                  Welcome to Q-Chem
     A Quantum Leap Into The Future Of Chemistry


 Q-Chem 5.3 (devel), Q-Chem, Inc., Pleasanton, CA (2020)

 Yihan Shao,  Zhengting Gan,  E. Epifanovsky,  A. T. B. Gilbert,  M. Wormit,  
 J. Kussmann,  A. W. Lange,  A. Behn,  Jia Deng,  Xintian Feng,  D. Ghosh,  
 M. Goldey,  P. R. Horn,  L. D. Jacobson,  I. Kaliman,  T. Kus,  A. Landau,  
 Jie Liu,  E. I. Proynov,  R. M. Richard,  R. P. Steele,  E. J. Sundstrom,  
 H. L. Woodcock III,  P. M. Zimmerman,  D. Zuev,  B. Alam,  B. Albrecht,  
 E. Alguire,  S. A. Baeppler,  D. Barton,  Z. Benda,  Y. A. Bernard,  
 E. J. Berquist,  K. B. Bravaya,  H. Burton,  K. Carter-Fenk,  D. Casanova,  
 Chun-Min Chang,  Yunqing Chen,  A. Chien,  K. D. Closser,  M. P. Coons,  
 S. Coriani,  S. Dasgupta,  A. L. Dempwolff,  M. Diedenhofen,  Hainam Do,  
 R. G. Edgar,  Po-Tung Fang,  S. Faraji,  S. Fatehi,  Qingguo Feng,  
 J. Fosso-Tande,  J. Gayvert,  Qinghui Ge,  A. Ghysels,  G. Gidofalvi,  
 J. Gomes,  J. Gonthier,  A. Gunina,  D. Hait,  M. W. D. Hanson-Heine,  
 P. H. P. Harbach,  A. W. Hauser,  M. F. Herbst,  J. E. Herr,  
 E. G. Hohenstein,  Z. C. Holden,  Kerwin Hui,  B. C. Huynh,  T.-C. Jagau,  
 Hyunjun Ji,  B. Kaduk,  K. Khistyaev,  Jaehoon Kim,  P. Klunzinger,  K. Koh,  
 D. Kosenkov,  L. Koulias,  T. Kowalczyk,  C. M. Krauter,  A. Kunitsa,  
 Ka Un Lao,  A. Laurent,  K. V. Lawler,  Joonho Lee,  D. Lefrancois,  
 S. Lehtola,  D. S. Levine,  Yi-Pei Li,  You-Sheng Lin,  Fenglai Liu,  
 Kuan-Yu Liu,  E. Livshits,  M. Loipersberger,  A. Luenser,  P. Manohar,  
 E. Mansoor,  S. F. Manzer,  Shan-Ping Mao,  Yuezhi Mao,  N. Mardirossian,  
 A. V. Marenich,  T. Markovich,  L. A. Martinez-Martinez,  S. A. Maurer,  
 N. J. Mayhall,  S. C. McKenzie,  J.-M. Mewes,  P. Morgante,  A. F. Morrison,  
 J. W. Mullinax,  K. Nanda,  T. S. Nguyen-Beck,  R. Olivares-Amaya,  
 K. J. Oosterbaan,  J. A. Parkhill,  S. K. Paul,  F. Pavosevic,  Zheng Pei,  
 T. M. Perrine,  F. Plasser,  P. Pokhilko,  S. Prager,  A. Prociuk,  
 E. Ramos,  B. Rana,  D. R. Rehn,  F. Rob,  M. Scheurer,  M. Schneider,  
 N. Sergueev,  S. M. Sharada,  S. Sharma,  D. W. Small,  T. Stauch,  
 C. J. Stein,  T. Stein,  Yu-Chuan Su,  S. P. Veccham,  Zhen Tao,  
 A. J. W. Thom,  A. Tkatchenko,  T. Tsuchimochi,  N. M. Tubman,  L. Vogt,  
 M. L. Vidal,  O. Vydrov,  M. A. Watson,  J. Wenzel,  M. de Wergifosse,  
 T. A. Wesolowski,  A. White,  J. Witte,  A. Yamada,  Jun Yang,  K. Yao,  
 S. Yeganeh,  S. R. Yost,  Zhi-Qiang You,  A. Zech,  Igor Ying Zhang,  
 Xing Zhang,  Yan Zhao,  Ying Zhu,  B. R. Brooks,  G. K. L. Chan,  
 C. J. Cramer,  M. S. Gordon,  W. J. Hehre,  A. Klamt,  M. W. Schmidt,  
 C. D. Sherrill,  D. G. Truhlar,  A. Aspuru-Guzik,  R. Baer,  A. T. Bell,  
 N. A. Besley,  Jeng-Da Chai,  A. E. DePrince, III,  R. A. DiStasio Jr.,  
 A. Dreuw,  B. D. Dunietz,  T. R. Furlani,  Chao-Ping Hsu,  Yousung Jung,  
 Jing Kong,  D. S. Lambrecht,  WanZhen Liang,  C. Ochsenfeld,  
 V. A. Rassolov,  L. V. Slipchenko,  J. E. Subotnik,  T. Van Voorhis,  
 J. M. Herbert,  A. I. Krylov,  P. M. W. Gill,  M. Head-Gordon

 Contributors to earlier versions of Q-Chem not listed above: 
 R. D. Adamson,  B. Austin,  J. Baker,  G. J. O. Beran,  K. Brandhorst,  
 S. T. Brown,  E. F. C. Byrd,  A. K. Chakraborty,  C.-L. Cheng,  
 Siu Hung Chien,  D. M. Chipman,  D. L. Crittenden,  H. Dachsel,  
 R. J. Doerksen,  A. D. Dutoi,  L. Fusti-Molnar,  W. A. Goddard III,  
 A. Golubeva-Zadorozhnaya,  S. R. Gwaltney,  G. Hawkins,  A. Heyden,  
 S. Hirata,  G. Kedziora,  F. J. Keil,  C. Kelley,  Jihan Kim,  R. A. King,  
 R. Z. Khaliullin,  P. P. Korambath,  W. Kurlancheek,  A. M. Lee,  M. S. Lee,  
 S. V. Levchenko,  Ching Yeh Lin,  D. Liotard,  R. C. Lochan,  I. Lotan,  
 P. E. Maslen,  N. Nair,  D. P. O'Neill,  D. Neuhauser,  E. Neuscamman,  
 C. M. Oana,  R. Olson,  B. Peters,  R. Peverati,  P. A. Pieniazek,  
 Y. M. Rhee,  J. Ritchie,  M. A. Rohrdanz,  E. Rosta,  N. J. Russ,  
 H. F. Schaefer III,  N. E. Schultz,  N. Shenvi,  A. C. Simmonett,  A. Sodt,  
 D. Stuck,  K. S. Thanthiriwatte,  V. Vanovschi,  Tao Wang,  A. Warshel,  
 C. F. Williams,  Q. Wu,  X. Xu,  W. Zhang

 Please cite Q-Chem as follows:
 Y. Shao et al., Mol. Phys. 113, 184-215 (2015)
 DOI: 10.1080/00268976.2014.952696

 Q-Chem 5.3.0 for Intel X86 EM64T Linux

 Parts of Q-Chem use Armadillo 9.800.1 (Horizon Scraper).
 http://arma.sourceforge.net/

 Q-Chem begins on Mon Jul 27 15:58:06 2020  

Host: centos77-c7
0

     Scratch files written to /tmp/29924.centos77-h1/qchem126600//
Processing $rem in /opt/qchem-5.3.0-intel2020u1//config/preferences:
Processing $rem in /home/shihchengli/.qchemrc:

Checking the input file for inconsistencies... 	...done.

--------------------------------------------------------------
User input:
--------------------------------------------------------------
$rem
   JOBTYPE  sp
   EXCHANGE   omegaB97X-D
   BASIS   6-311+G(2df,2pd)
   UNRESTRICTED   False
   max_scf_cycles   250
   geom_opt_max_cycles   1500
   basis2 6-31G*
   scf_algorithm rca_diis
   SYM_IGNORE  TRUE
   print_input   true
   geom_opt_dmax   80
   pop_mulliken false
   XC_GRID 000075000302
$end

$molecule
0 1
C       -4.4880090238     0.5186664996     -0.0040525062
C       -3.3445113144     1.1817965917     -0.0069292989
H       -5.2326879438     0.6768883041     -0.7736538710
H       -4.7369194628     -0.1886750632     0.7767350321
H       -3.3101603174     2.2450417439     -0.2077715659
H       -2.4024219379     0.6969119241     0.2156722099
$end
--------------------------------------------------------------
 ----------------------------------------------------------------
             Standard Nuclear Orientation (Angstroms)
    I     Atom           X                Y                Z
 ----------------------------------------------------------------
    1      C      -4.4880090238     0.5186664996    -0.0040525062
    2      C      -3.3445113144     1.1817965917    -0.0069292989
    3      H      -5.2326879438     0.6768883041    -0.7736538710
    4      H      -4.7369194628    -0.1886750632     0.7767350321
    5      H      -3.3101603174     2.2450417439    -0.2077715659
    6      H      -2.4024219379     0.6969119241     0.2156722099
 ----------------------------------------------------------------
 Nuclear Repulsion Energy =          33.52586619 hartrees
 There are        8 alpha and        8 beta electrons
 Requested basis set is 6-311+G(2df,2pd)
 There are 40 shells and 124 basis functions

 Total QAlloc Memory Limit   2000 MB
 Mega-Array Size       188 MB
 MEM_STATIC part       192 MB

                       Distance Matrix (Angstroms)
             C (  1)   C (  2)   H (  3)   H (  4)   H (  5)
   C (  2)  1.321869
   H (  3)  1.082528  2.099526
   H (  4)  1.082551  2.105023  1.843554
   H (  5)  2.099810  1.082593  2.544689  2.987955
   H (  6)  2.104691  1.082680  2.998262  2.559089  1.843909
 
 A cutoff of  1.0D-09 yielded    818 shell pairs
 There are      7926 function pairs (      9855 Cartesian)
 Smallest overlap matrix eigenvalue = 1.26E-04

 Scale SEOQF with 1.000000e-02/1.000000e-01/1.000000e-01

 Standard Electronic Orientation quadrupole field applied
 Nucleus-field energy     =     0.0000000019 hartrees
 Requested basis set is 6-31G(d)
 There are 16 shells and 36 basis functions
 A cutoff of  1.0D-09 yielded    136 shell pairs
 There are       710 function pairs (       795 Cartesian)
 Smallest overlap matrix eigenvalue = 7.87E-03
 Guess from superposition of atomic densities
 Warning:  Energy on first SCF cycle will be non-variational
 SAD guess density has 16.000000 electrons
 Long-range K will be added via erf
 Coulomb attenuation parameter = 0.2 bohr**(-1)
 A restricted hybrid HF-DFT SCF calculation will be
 performed using Relaxed Constraint Minimization + Pulay DIIS
 Exchange:     0.2220 Hartree-Fock + 1.0000 wB97X-D + LR-HF
 Correlation:  1.0000 wB97X-D
 Using Euler-Maclaurin-Lebedev (75,302) quadrature formula
 Dispersion:   Grimme D
 SCF converges when DIIS error is below 1.0E-04
 using 6 threads for integral computing
 -------------------------------------------------------
 OpenMP Integral computing Module                
 Release: version 1.0, May 2013, Q-Chem Inc. Pittsburgh 
 -------------------------------------------------------
 using 6 threads for integral computing
 -------------------------------------------------------
 OpenMP Integral computing Module                
 Release: version 1.0, May 2013, Q-Chem Inc. Pittsburgh 
 -------------------------------------------------------
 ---------------------------------------
  Cycle       Energy         DIIS Error
 ---------------------------------------
    1     -78.8123437144      1.25E-01
    2     -78.4915683610      1.13E-02
    3     -78.5064163215      4.24E-03
    4     -78.5134116940      2.70E-03
    5     -78.5141987037      7.20E-04 Done RCA. Switching to DIIS
    6     -78.5146248229      4.72E-04
    7     -78.5146629091      1.49E-06 Convergence criterion met
 ---------------------------------------
 SCF time:  CPU 7.74 s  wall 1.30 s
 SCF   energy in the small basis set = -78.51466291
 Total energy in the small basis set = -78.51466291
 ----------------------------------------------------
  Cycle       Energy    
 ----------------------------------------------------
    1     -10.5551498024     -1.06E+01
 Long-range K will be added via erf
 Coulomb attenuation parameter = 0.2 bohr**(-1)
 A restricted hybrid HF-DFT SCF calculation will be
 performed using Relaxed Constraint Minimization + Pulay DIIS
 Exchange:     0.2220 Hartree-Fock + 1.0000 wB97X-D + LR-HF
 Correlation:  1.0000 wB97X-D
 Using Euler-Maclaurin-Lebedev (75,302) quadrature formula
 Dispersion:   Grimme D
 SCF converges when DIIS error is below 1.0E-05
 Basis2 calculation detected. Using small basis as guess for larger.
 SCFMinFind is unable to tell whether the solution found is close.
 Resetting ReadMinima to 0 and attempting to follow guess.
 SCFMinFind following SCF Guess.
 using 6 threads for integral computing
 -------------------------------------------------------
 OpenMP Integral computing Module                
 Release: version 1.0, May 2013, Q-Chem Inc. Pittsburgh 
 -------------------------------------------------------
 using 6 threads for integral computing
 -------------------------------------------------------
 OpenMP Integral computing Module                
 Release: version 1.0, May 2013, Q-Chem Inc. Pittsburgh 
 -------------------------------------------------------
 ---------------------------------------
  Cycle       Energy         DIIS Error
 ---------------------------------------
    1     -78.5328957468      5.92E-03
    2     -78.5460296221      9.95E-04 Done RCA. Switching to DIIS
    3     -78.5468845937      6.35E-04
    4     -78.5476347394      4.96E-05
    5     -78.5476413335      5.79E-06 Convergence criterion met
 ---------------------------------------
 SCF time:  CPU 12.87 s  wall 2.16 s
 SCF   energy in the final basis set = -78.54764133
 Total energy in the final basis set = -78.54764133
 
 --------------------------------------------------------------
 
                    Orbital Energies (a.u.)
 --------------------------------------------------------------
 
 Alpha MOs
 -- Occupied --
-10.2846 -10.2836  -0.8675  -0.6763  -0.5536  -0.5110  -0.4740  -0.3200
 -- Virtual --
  0.0347   0.0800   0.0881   0.1030   0.1156   0.1393   0.1451   0.1685
  0.2051   0.2285   0.2289   0.2572   0.3294   0.3808   0.4694   0.4892
  0.5667   0.5821   0.5883   0.5916   0.6071   0.6121   0.6332   0.6590
  0.6597   0.6645   0.6914   0.7918   0.9223   0.9371   0.9765   1.0063
  1.0200   1.0621   1.1395   1.1908   1.2133   1.3027   1.3352   1.3476
  1.4273   1.4671   1.4691   1.4730   1.5583   1.5813   1.6120   1.6150
  2.4164   2.4994   2.5491   2.6412   2.6854   2.7232   2.7521   2.7934
  2.8510   2.8800   2.9220   2.9500   2.9712   3.0209   3.0677   3.0857
  3.0875   3.1121   3.1212   3.2641   3.2666   3.2819   3.2894   3.3215
  3.3354   3.4083   3.4120   3.4723   3.5544   3.5816   3.6416   3.6975
  3.7227   3.7413   3.7754   3.8715   3.8846   3.9377   3.9838   4.0769
  4.1033   4.1399   4.1709   4.2039   4.2532   4.2569   4.4131   4.5322
  4.7620   4.8114   4.8259   4.8567   4.8829   5.0148   5.0868   5.1263
  5.1312   5.2093   5.3510   5.4318   5.5718   5.7488   6.2776   6.2968
  6.3035   6.3636  24.8797  25.4395
 --------------------------------------------------------------
 
 -----------------------------------------------------------------
                    Cartesian Multipole Moments
 -----------------------------------------------------------------
    Charge (ESU x 10^10)
                -0.0000
    Dipole Moment (Debye)
         X      -0.0118      Y       0.0202      Z       0.0313
       Tot       0.0391
    Quadrupole Moments (Debye-Ang)
        XX     -12.6749     XY       0.4341     YY     -13.3724
        XZ       0.3440     YZ      -0.7669     ZZ     -14.3522
    Octopole Moments (Debye-Ang^2)
       XXX     150.6614    XXY     -15.7198    XYY      53.6479
       YYY     -32.0859    XXZ      -3.6321    XYZ       3.7507
       YYZ      -0.6829    XZZ      54.6160    YZZ     -13.1344
       ZZZ       0.2292
    Hexadecapole Moments (Debye-Ang^3)
      XXXX   -1247.8778   XXXY     154.3286   XXYY    -242.2323
      XYYY     118.9376   YYYY     -86.1926   XXXZ      24.9619
      XXYZ     -17.7103   XYYZ       2.9728   YYYZ       0.9143
      XXZZ    -220.7761   XYZZ      47.2247   YYZZ     -21.8305
      XZZZ      -1.5853   YZZZ       1.4161   ZZZZ     -23.2391
 -----------------------------------------------------------------
Archival summary:
1\1\centos77-c7\SP\ProcedureUnspecified\BasisUnspecified\24\shihchen\MonJul2715:58:112020MonJul2715:58:112020\0\\#,ProcedureUnspecified,BasisUnspecified,\\0,1\C\H,1,1.08253\H,1,1.08255,2,116.749\C,1,1.32187,2,121.346,3,-178.557,0\H,4,1.08259,1,121.369,2,44.0157,0\H,4,1.08268,1,121.844,2,-137.599,0\\\@

 Total job time:  4.38s(wall), 23.07s(cpu) 
 Mon Jul 27 15:58:11 2020

        *************************************************************
        *                                                           *
        *  Thank you very much for using Q-Chem.  Have a nice day.  *
        *                                                           *
        *************************************************************


