                  Welcome to Q-Chem
     A Quantum Leap Into The Future Of Chemistry


 Q-Chem 5.3 (devel), Q-Chem, Inc., Pleasanton, CA (2020)

 Yihan Shao,  Zhengting Gan,  E. Epifanovsky,  A. T. B. Gilbert,  M. Wormit,  
 J. Kussmann,  A. W. Lange,  A. Behn,  Jia Deng,  Xintian Feng,  D. Ghosh,  
 M. Goldey,  P. R. Horn,  L. D. Jacobson,  I. Kaliman,  T. Kus,  A. Landau,  
 Jie Liu,  E. I. Proynov,  R. M. Richard,  R. P. Steele,  E. J. Sundstrom,  
 H. L. Woodcock III,  P. M. Zimmerman,  D. Zuev,  B. Alam,  B. Albrecht,  
 E. Alguire,  S. A. Baeppler,  D. Barton,  Z. Benda,  Y. A. Bernard,  
 E. J. Berquist,  K. B. Bravaya,  H. Burton,  K. Carter-Fenk,  D. Casanova,  
 Chun-Min Chang,  Yunqing Chen,  A. Chien,  K. D. Closser,  M. P. Coons,  
 S. Coriani,  S. Dasgupta,  A. L. Dempwolff,  M. Diedenhofen,  Hainam Do,  
 R. G. Edgar,  Po-Tung Fang,  S. Faraji,  S. Fatehi,  Qingguo Feng,  
 J. Fosso-Tande,  J. Gayvert,  Qinghui Ge,  A. Ghysels,  G. Gidofalvi,  
 J. Gomes,  J. Gonthier,  A. Gunina,  D. Hait,  M. W. D. Hanson-Heine,  
 P. H. P. Harbach,  A. W. Hauser,  M. F. Herbst,  J. E. Herr,  
 E. G. Hohenstein,  Z. C. Holden,  Kerwin Hui,  B. C. Huynh,  T.-C. Jagau,  
 Hyunjun Ji,  B. Kaduk,  K. Khistyaev,  Jaehoon Kim,  P. Klunzinger,  K. Koh,  
 D. Kosenkov,  L. Koulias,  T. Kowalczyk,  C. M. Krauter,  A. Kunitsa,  
 Ka Un Lao,  A. Laurent,  K. V. Lawler,  Joonho Lee,  D. Lefrancois,  
 S. Lehtola,  D. S. Levine,  Yi-Pei Li,  You-Sheng Lin,  Fenglai Liu,  
 Kuan-Yu Liu,  E. Livshits,  M. Loipersberger,  A. Luenser,  P. Manohar,  
 E. Mansoor,  S. F. Manzer,  Shan-Ping Mao,  Yuezhi Mao,  N. Mardirossian,  
 A. V. Marenich,  T. Markovich,  L. A. Martinez-Martinez,  S. A. Maurer,  
 N. J. Mayhall,  S. C. McKenzie,  J.-M. Mewes,  P. Morgante,  A. F. Morrison,  
 J. W. Mullinax,  K. Nanda,  T. S. Nguyen-Beck,  R. Olivares-Amaya,  
 K. J. Oosterbaan,  J. A. Parkhill,  S. K. Paul,  F. Pavosevic,  Zheng Pei,  
 T. M. Perrine,  F. Plasser,  P. Pokhilko,  S. Prager,  A. Prociuk,  
 E. Ramos,  B. Rana,  D. R. Rehn,  F. Rob,  M. Scheurer,  M. Schneider,  
 N. Sergueev,  S. M. Sharada,  S. Sharma,  D. W. Small,  T. Stauch,  
 C. J. Stein,  T. Stein,  Yu-Chuan Su,  S. P. Veccham,  Zhen Tao,  
 A. J. W. Thom,  A. Tkatchenko,  T. Tsuchimochi,  N. M. Tubman,  L. Vogt,  
 M. L. Vidal,  O. Vydrov,  M. A. Watson,  J. Wenzel,  M. de Wergifosse,  
 T. A. Wesolowski,  A. White,  J. Witte,  A. Yamada,  Jun Yang,  K. Yao,  
 S. Yeganeh,  S. R. Yost,  Zhi-Qiang You,  A. Zech,  Igor Ying Zhang,  
 Xing Zhang,  Yan Zhao,  Ying Zhu,  B. R. Brooks,  G. K. L. Chan,  
 C. J. Cramer,  M. S. Gordon,  W. J. Hehre,  A. Klamt,  M. W. Schmidt,  
 C. D. Sherrill,  D. G. Truhlar,  A. Aspuru-Guzik,  R. Baer,  A. T. Bell,  
 N. A. Besley,  Jeng-Da Chai,  A. E. DePrince, III,  R. A. DiStasio Jr.,  
 A. Dreuw,  B. D. Dunietz,  T. R. Furlani,  Chao-Ping Hsu,  Yousung Jung,  
 Jing Kong,  D. S. Lambrecht,  WanZhen Liang,  C. Ochsenfeld,  
 V. A. Rassolov,  L. V. Slipchenko,  J. E. Subotnik,  T. Van Voorhis,  
 J. M. Herbert,  A. I. Krylov,  P. M. W. Gill,  M. Head-Gordon

 Contributors to earlier versions of Q-Chem not listed above: 
 R. D. Adamson,  B. Austin,  J. Baker,  G. J. O. Beran,  K. Brandhorst,  
 S. T. Brown,  E. F. C. Byrd,  A. K. Chakraborty,  C.-L. Cheng,  
 Siu Hung Chien,  D. M. Chipman,  D. L. Crittenden,  H. Dachsel,  
 R. J. Doerksen,  A. D. Dutoi,  L. Fusti-Molnar,  W. A. Goddard III,  
 A. Golubeva-Zadorozhnaya,  S. R. Gwaltney,  G. Hawkins,  A. Heyden,  
 S. Hirata,  G. Kedziora,  F. J. Keil,  C. Kelley,  Jihan Kim,  R. A. King,  
 R. Z. Khaliullin,  P. P. Korambath,  W. Kurlancheek,  A. M. Lee,  M. S. Lee,  
 S. V. Levchenko,  Ching Yeh Lin,  D. Liotard,  R. C. Lochan,  I. Lotan,  
 P. E. Maslen,  N. Nair,  D. P. O'Neill,  D. Neuhauser,  E. Neuscamman,  
 C. M. Oana,  R. Olson,  B. Peters,  R. Peverati,  P. A. Pieniazek,  
 Y. M. Rhee,  J. Ritchie,  M. A. Rohrdanz,  E. Rosta,  N. J. Russ,  
 H. F. Schaefer III,  N. E. Schultz,  N. Shenvi,  A. C. Simmonett,  A. Sodt,  
 D. Stuck,  K. S. Thanthiriwatte,  V. Vanovschi,  Tao Wang,  A. Warshel,  
 C. F. Williams,  Q. Wu,  X. Xu,  W. Zhang

 Please cite Q-Chem as follows:
 Y. Shao et al., Mol. Phys. 113, 184-215 (2015)
 DOI: 10.1080/00268976.2014.952696

 Q-Chem 5.3.0 for Intel X86 EM64T Linux

 Parts of Q-Chem use Armadillo 9.800.1 (Horizon Scraper).
 http://arma.sourceforge.net/

 Q-Chem begins on Mon Jul 27 16:00:00 2020  

Host: centos77-c7
0

     Scratch files written to /tmp/29924.centos77-h1/qchem127596//
Processing $rem in /opt/qchem-5.3.0-intel2020u1//config/preferences:
Processing $rem in /home/shihchengli/.qchemrc:

Checking the input file for inconsistencies... 	...done.

--------------------------------------------------------------
User input:
--------------------------------------------------------------
$rem
   JOBTYPE  sp
   EXCHANGE   omegaB97X-D
   BASIS   6-311+G(2df,2pd)
   UNRESTRICTED   False
   max_scf_cycles   250
   geom_opt_max_cycles   1500
   basis2 6-31G*
   scf_algorithm rca_diis
   SYM_IGNORE  TRUE
   print_input   true
   geom_opt_dmax   80
   pop_mulliken false
   XC_GRID 000075000302
$end

$molecule
0 1
C       -4.5140193609     0.5110086023     -0.0000503132
C       -3.3242214690     1.1992077944     0.0000610731
H       -5.4430731529     0.7848033308     -0.4959745507
H       -4.7411075839     -0.4304080737     0.4961251757
H       -3.0971241482     2.1406098794     -0.4961378957
H       -2.3951642852     0.9254084669     0.4959765109
$end
--------------------------------------------------------------
 ----------------------------------------------------------------
             Standard Nuclear Orientation (Angstroms)
    I     Atom           X                Y                Z
 ----------------------------------------------------------------
    1      C      -4.5140193609     0.5110086023    -0.0000503132
    2      C      -3.3242214690     1.1992077944     0.0000610731
    3      H      -5.4430731529     0.7848033308    -0.4959745507
    4      H      -4.7411075839    -0.4304080737     0.4961251757
    5      H      -3.0971241482     2.1406098794    -0.4961378957
    6      H      -2.3951642852     0.9254084669     0.4959765109
 ----------------------------------------------------------------
 Nuclear Repulsion Energy =          32.59954540 hartrees
 There are        8 alpha and        8 beta electrons
 Requested basis set is 6-311+G(2df,2pd)
 There are 40 shells and 124 basis functions

 Total QAlloc Memory Limit   2000 MB
 Mega-Array Size       188 MB
 MEM_STATIC part       192 MB

                       Distance Matrix (Angstroms)
             C (  1)   C (  2)   H (  3)   H (  4)   H (  5)
   C (  2)  1.374495
   H (  3)  1.088138  2.215246
   H (  4)  1.088129  2.215693  1.718650
   H (  5)  2.215693  1.088129  2.709555  3.208956
   H (  6)  2.215246  1.088139  3.208346  2.709555  1.718649
 
 A cutoff of  1.0D-09 yielded    812 shell pairs
 There are      7912 function pairs (      9841 Cartesian)
 Smallest overlap matrix eigenvalue = 1.58E-04

 Scale SEOQF with 1.000000e-02/1.000000e-01/1.000000e-01

 Standard Electronic Orientation quadrupole field applied
 Nucleus-field energy     =     0.0000000020 hartrees
 Requested basis set is 6-31G(d)
 There are 16 shells and 36 basis functions
 A cutoff of  1.0D-09 yielded    136 shell pairs
 There are       710 function pairs (       795 Cartesian)
 Smallest overlap matrix eigenvalue = 9.93E-03
 Guess from superposition of atomic densities
 Warning:  Energy on first SCF cycle will be non-variational
 SAD guess density has 16.000000 electrons
 Long-range K will be added via erf
 Coulomb attenuation parameter = 0.2 bohr**(-1)
 A restricted hybrid HF-DFT SCF calculation will be
 performed using Relaxed Constraint Minimization + Pulay DIIS
 Exchange:     0.2220 Hartree-Fock + 1.0000 wB97X-D + LR-HF
 Correlation:  1.0000 wB97X-D
 Using Euler-Maclaurin-Lebedev (75,302) quadrature formula
 Dispersion:   Grimme D
 SCF converges when DIIS error is below 1.0E-04
 using 6 threads for integral computing
 -------------------------------------------------------
 OpenMP Integral computing Module                
 Release: version 1.0, May 2013, Q-Chem Inc. Pittsburgh 
 -------------------------------------------------------
 using 6 threads for integral computing
 -------------------------------------------------------
 OpenMP Integral computing Module                
 Release: version 1.0, May 2013, Q-Chem Inc. Pittsburgh 
 -------------------------------------------------------
 ---------------------------------------
  Cycle       Energy         DIIS Error
 ---------------------------------------
    1     -78.7125976271      1.17E-01
    2     -78.5253272083      9.70E-03
    3     -78.5368214148      4.04E-03
    4     -78.5418840073      2.58E-03
    5     -78.5426117496      6.73E-04 Done RCA. Switching to DIIS
    6     -78.5430119384      4.44E-04
    7     -78.5430460241      5.81E-07 Convergence criterion met
 ---------------------------------------
 SCF time:  CPU 7.71 s  wall 1.30 s
 SCF   energy in the small basis set = -78.54304602
 Total energy in the small basis set = -78.54304602
 ----------------------------------------------------
  Cycle       Energy    
 ----------------------------------------------------
    1     -10.5120822550     -1.05E+01
 Long-range K will be added via erf
 Coulomb attenuation parameter = 0.2 bohr**(-1)
 A restricted hybrid HF-DFT SCF calculation will be
 performed using Relaxed Constraint Minimization + Pulay DIIS
 Exchange:     0.2220 Hartree-Fock + 1.0000 wB97X-D + LR-HF
 Correlation:  1.0000 wB97X-D
 Using Euler-Maclaurin-Lebedev (75,302) quadrature formula
 Dispersion:   Grimme D
 SCF converges when DIIS error is below 1.0E-05
 Basis2 calculation detected. Using small basis as guess for larger.
 SCFMinFind is unable to tell whether the solution found is close.
 Resetting ReadMinima to 0 and attempting to follow guess.
 SCFMinFind following SCF Guess.
 using 6 threads for integral computing
 -------------------------------------------------------
 OpenMP Integral computing Module                
 Release: version 1.0, May 2013, Q-Chem Inc. Pittsburgh 
 -------------------------------------------------------
 using 6 threads for integral computing
 -------------------------------------------------------
 OpenMP Integral computing Module                
 Release: version 1.0, May 2013, Q-Chem Inc. Pittsburgh 
 -------------------------------------------------------
 ---------------------------------------
  Cycle       Energy         DIIS Error
 ---------------------------------------
    1     -78.5600181098      5.89E-03
    2     -78.5728513999      9.12E-04 Done RCA. Switching to DIIS
    3     -78.5735825543      5.73E-04
    4     -78.5742035699      5.08E-05
    5     -78.5742099102      5.81E-06 Convergence criterion met
 ---------------------------------------
 SCF time:  CPU 12.58 s  wall 2.11 s
 SCF   energy in the final basis set = -78.57420991
 Total energy in the final basis set = -78.57420991
 
 --------------------------------------------------------------
 
                    Orbital Energies (a.u.)
 --------------------------------------------------------------
 
 Alpha MOs
 -- Occupied --
-10.2977 -10.2971  -0.8511  -0.6939  -0.5347  -0.5304  -0.4296  -0.3538
 -- Virtual --
  0.0514   0.0775   0.0831   0.1074   0.1253   0.1305   0.1466   0.1760
  0.2052   0.2158   0.2244   0.2590   0.3417   0.3820   0.4609   0.4831
  0.5640   0.5679   0.5693   0.5839   0.6005   0.6415   0.6468   0.6691
  0.6928   0.7109   0.7210   0.7522   0.7917   0.8941   1.0435   1.0586
  1.0669   1.0760   1.1043   1.1619   1.1729   1.1995   1.2938   1.4000
  1.4097   1.4528   1.4843   1.5418   1.5978   1.6392   1.6669   1.7425
  2.3553   2.4324   2.4569   2.5519   2.7342   2.7651   2.7820   2.7830
  2.7832   2.7921   2.9720   2.9966   3.0072   3.0213   3.0363   3.0490
  3.0517   3.1511   3.1564   3.2529   3.2641   3.2752   3.3381   3.3762
  3.3825   3.3998   3.4295   3.4514   3.4894   3.5294   3.5546   3.6577
  3.6648   3.7332   3.8958   3.9222   3.9509   3.9588   3.9930   3.9944
  4.0282   4.0316   4.0805   4.1838   4.2000   4.2398   4.2615   4.5248
  4.7525   4.7902   4.8008   4.8674   4.9233   4.9393   5.0212   5.0612
  5.1583   5.2275   5.3014   5.3274   5.4429   5.5076   6.2534   6.2565
  6.3730   6.8700  24.8768  25.2636
 --------------------------------------------------------------
 
 -----------------------------------------------------------------
                    Cartesian Multipole Moments
 -----------------------------------------------------------------
    Charge (ESU x 10^10)
                 0.0000
    Dipole Moment (Debye)
         X       0.0000      Y      -0.0000      Z      -0.0000
       Tot       0.0000
    Quadrupole Moments (Debye-Ang)
        XX     -11.7928     XY       1.3017     YY     -13.2908
        XZ       0.6422     YZ      -1.1139     ZZ     -14.9534
    Octopole Moments (Debye-Ang^2)
       XXX     138.6524    XXY     -20.2867    XYY      54.3144
       YYY     -34.0953    XXZ      -5.0332    XYZ       4.9146
       YYZ      -1.9051    XZZ      58.6042    YZZ     -12.7868
       ZZZ      -0.0002
    Hexadecapole Moments (Debye-Ang^3)
      XXXX   -1144.8342   XXXY     168.2783   XXYY    -246.3500
      XYYY     127.4835   YYYY     -94.1831   XXXZ      30.9382
      XXYZ     -21.3931   XYYZ       6.5357   YYYZ      -2.3884
      XXZZ    -243.6283   XYZZ      46.5517   YYZZ     -20.7846
      XZZZ      -0.9812   YZZZ       1.6963   ZZZZ     -23.4167
 -----------------------------------------------------------------
Archival summary:
1\1\centos77-c7\SP\ProcedureUnspecified\BasisUnspecified\24\shihchen\MonJul2716:00:042020MonJul2716:00:042020\0\\#,ProcedureUnspecified,BasisUnspecified,\\0,1\C\H,1,1.08813\H,1,1.08814,2,104.319\C,1,1.3745,2,127.865,3,-179.952,0\H,4,1.08813,1,127.865,2,179.998,0\H,4,1.08814,1,127.816,2,-0.0584957,0\\\@

 Total job time:  4.26s(wall), 22.52s(cpu) 
 Mon Jul 27 16:00:04 2020

        *************************************************************
        *                                                           *
        *  Thank you very much for using Q-Chem.  Have a nice day.  *
        *                                                           *
        *************************************************************


