                  Welcome to Q-Chem
     A Quantum Leap Into The Future Of Chemistry


 Q-Chem 5.3 (devel), Q-Chem, Inc., Pleasanton, CA (2020)

 Yihan Shao,  Zhengting Gan,  E. Epifanovsky,  A. T. B. Gilbert,  M. Wormit,  
 J. Kussmann,  A. W. Lange,  A. Behn,  Jia Deng,  Xintian Feng,  D. Ghosh,  
 M. Goldey,  P. R. Horn,  L. D. Jacobson,  I. Kaliman,  T. Kus,  A. Landau,  
 Jie Liu,  E. I. Proynov,  R. M. Richard,  R. P. Steele,  E. J. Sundstrom,  
 H. L. Woodcock III,  P. M. Zimmerman,  D. Zuev,  B. Alam,  B. Albrecht,  
 E. Alguire,  S. A. Baeppler,  D. Barton,  Z. Benda,  Y. A. Bernard,  
 E. J. Berquist,  K. B. Bravaya,  H. Burton,  K. Carter-Fenk,  D. Casanova,  
 Chun-Min Chang,  Yunqing Chen,  A. Chien,  K. D. Closser,  M. P. Coons,  
 S. Coriani,  S. Dasgupta,  A. L. Dempwolff,  M. Diedenhofen,  Hainam Do,  
 R. G. Edgar,  Po-Tung Fang,  S. Faraji,  S. Fatehi,  Qingguo Feng,  
 J. Fosso-Tande,  J. Gayvert,  Qinghui Ge,  A. Ghysels,  G. Gidofalvi,  
 J. Gomes,  J. Gonthier,  A. Gunina,  D. Hait,  M. W. D. Hanson-Heine,  
 P. H. P. Harbach,  A. W. Hauser,  M. F. Herbst,  J. E. Herr,  
 E. G. Hohenstein,  Z. C. Holden,  Kerwin Hui,  B. C. Huynh,  T.-C. Jagau,  
 Hyunjun Ji,  B. Kaduk,  K. Khistyaev,  Jaehoon Kim,  P. Klunzinger,  K. Koh,  
 D. Kosenkov,  L. Koulias,  T. Kowalczyk,  C. M. Krauter,  A. Kunitsa,  
 Ka Un Lao,  A. Laurent,  K. V. Lawler,  Joonho Lee,  D. Lefrancois,  
 S. Lehtola,  D. S. Levine,  Yi-Pei Li,  You-Sheng Lin,  Fenglai Liu,  
 Kuan-Yu Liu,  E. Livshits,  M. Loipersberger,  A. Luenser,  P. Manohar,  
 E. Mansoor,  S. F. Manzer,  Shan-Ping Mao,  Yuezhi Mao,  N. Mardirossian,  
 A. V. Marenich,  T. Markovich,  L. A. Martinez-Martinez,  S. A. Maurer,  
 N. J. Mayhall,  S. C. McKenzie,  J.-M. Mewes,  P. Morgante,  A. F. Morrison,  
 J. W. Mullinax,  K. Nanda,  T. S. Nguyen-Beck,  R. Olivares-Amaya,  
 K. J. Oosterbaan,  J. A. Parkhill,  S. K. Paul,  F. Pavosevic,  Zheng Pei,  
 T. M. Perrine,  F. Plasser,  P. Pokhilko,  S. Prager,  A. Prociuk,  
 E. Ramos,  B. Rana,  D. R. Rehn,  F. Rob,  M. Scheurer,  M. Schneider,  
 N. Sergueev,  S. M. Sharada,  S. Sharma,  D. W. Small,  T. Stauch,  
 C. J. Stein,  T. Stein,  Yu-Chuan Su,  S. P. Veccham,  Zhen Tao,  
 A. J. W. Thom,  A. Tkatchenko,  T. Tsuchimochi,  N. M. Tubman,  L. Vogt,  
 M. L. Vidal,  O. Vydrov,  M. A. Watson,  J. Wenzel,  M. de Wergifosse,  
 T. A. Wesolowski,  A. White,  J. Witte,  A. Yamada,  Jun Yang,  K. Yao,  
 S. Yeganeh,  S. R. Yost,  Zhi-Qiang You,  A. Zech,  Igor Ying Zhang,  
 Xing Zhang,  Yan Zhao,  Ying Zhu,  B. R. Brooks,  G. K. L. Chan,  
 C. J. Cramer,  M. S. Gordon,  W. J. Hehre,  A. Klamt,  M. W. Schmidt,  
 C. D. Sherrill,  D. G. Truhlar,  A. Aspuru-Guzik,  R. Baer,  A. T. Bell,  
 N. A. Besley,  Jeng-Da Chai,  A. E. DePrince, III,  R. A. DiStasio Jr.,  
 A. Dreuw,  B. D. Dunietz,  T. R. Furlani,  Chao-Ping Hsu,  Yousung Jung,  
 Jing Kong,  D. S. Lambrecht,  WanZhen Liang,  C. Ochsenfeld,  
 V. A. Rassolov,  L. V. Slipchenko,  J. E. Subotnik,  T. Van Voorhis,  
 J. M. Herbert,  A. I. Krylov,  P. M. W. Gill,  M. Head-Gordon

 Contributors to earlier versions of Q-Chem not listed above: 
 R. D. Adamson,  B. Austin,  J. Baker,  G. J. O. Beran,  K. Brandhorst,  
 S. T. Brown,  E. F. C. Byrd,  A. K. Chakraborty,  C.-L. Cheng,  
 Siu Hung Chien,  D. M. Chipman,  D. L. Crittenden,  H. Dachsel,  
 R. J. Doerksen,  A. D. Dutoi,  L. Fusti-Molnar,  W. A. Goddard III,  
 A. Golubeva-Zadorozhnaya,  S. R. Gwaltney,  G. Hawkins,  A. Heyden,  
 S. Hirata,  G. Kedziora,  F. J. Keil,  C. Kelley,  Jihan Kim,  R. A. King,  
 R. Z. Khaliullin,  P. P. Korambath,  W. Kurlancheek,  A. M. Lee,  M. S. Lee,  
 S. V. Levchenko,  Ching Yeh Lin,  D. Liotard,  R. C. Lochan,  I. Lotan,  
 P. E. Maslen,  N. Nair,  D. P. O'Neill,  D. Neuhauser,  E. Neuscamman,  
 C. M. Oana,  R. Olson,  B. Peters,  R. Peverati,  P. A. Pieniazek,  
 Y. M. Rhee,  J. Ritchie,  M. A. Rohrdanz,  E. Rosta,  N. J. Russ,  
 H. F. Schaefer III,  N. E. Schultz,  N. Shenvi,  A. C. Simmonett,  A. Sodt,  
 D. Stuck,  K. S. Thanthiriwatte,  V. Vanovschi,  Tao Wang,  A. Warshel,  
 C. F. Williams,  Q. Wu,  X. Xu,  W. Zhang

 Please cite Q-Chem as follows:
 Y. Shao et al., Mol. Phys. 113, 184-215 (2015)
 DOI: 10.1080/00268976.2014.952696

 Q-Chem 5.3.0 for Intel X86 EM64T Linux

 Parts of Q-Chem use Armadillo 9.800.1 (Horizon Scraper).
 http://arma.sourceforge.net/

 Q-Chem begins on Mon Jul 27 16:01:48 2020  

Host: centos77-c7
0

     Scratch files written to /tmp/29924.centos77-h1/qchem128595//
Processing $rem in /opt/qchem-5.3.0-intel2020u1//config/preferences:
Processing $rem in /home/shihchengli/.qchemrc:

Checking the input file for inconsistencies... 	...done.

--------------------------------------------------------------
User input:
--------------------------------------------------------------
$rem
   JOBTYPE  sp
   EXCHANGE   omegaB97X-D
   BASIS   6-311+G(2df,2pd)
   UNRESTRICTED   False
   max_scf_cycles   250
   geom_opt_max_cycles   1500
   basis2 6-31G*
   scf_algorithm rca_diis
   SYM_IGNORE  TRUE
   print_input   true
   geom_opt_dmax   80
   pop_mulliken false
   XC_GRID 000075000302
$end

$molecule
0 1
C       -4.5997476240     0.4622034145     0.0006224053
C       -3.2384846089     1.2479983852     -0.0006355840
H       -5.3194476281     1.0300163652     -0.6026158381
H       -4.4666849888     -0.4458117297     0.6023426502
H       -3.3715511385     2.1560209091     -0.6023439029
H       -2.5187940118     0.6802026557     0.6026302694
$end
--------------------------------------------------------------
 ----------------------------------------------------------------
             Standard Nuclear Orientation (Angstroms)
    I     Atom           X                Y                Z
 ----------------------------------------------------------------
    1      C      -4.5997476240     0.4622034145     0.0006224053
    2      C      -3.2384846089     1.2479983852    -0.0006355840
    3      H      -5.3194476281     1.0300163652    -0.6026158381
    4      H      -4.4666849888    -0.4458117297     0.6023426502
    5      H      -3.3715511385     2.1560209091    -0.6023439029
    6      H      -2.5187940118     0.6802026557     0.6026302694
 ----------------------------------------------------------------
 Nuclear Repulsion Energy =          30.84757483 hartrees
 There are        8 alpha and        8 beta electrons
 Requested basis set is 6-311+G(2df,2pd)
 There are 40 shells and 124 basis functions

 Total QAlloc Memory Limit   2000 MB
 Mega-Array Size       188 MB
 MEM_STATIC part       192 MB

                       Distance Matrix (Angstroms)
             C (  1)   C (  2)   H (  3)   H (  4)   H (  5)
   C (  2)  1.571786
   H (  3)  1.097395  2.177224
   H (  4)  1.097390  2.177396  2.087390
   H (  5)  2.177396  1.097390  2.249930  3.069222
   H (  6)  2.177224  1.097395  3.068982  2.249931  2.087390
 
 A cutoff of  1.0D-09 yielded    814 shell pairs
 There are      7914 function pairs (      9843 Cartesian)
 Smallest overlap matrix eigenvalue = 2.72E-04

 Scale SEOQF with 1.000000e-02/1.000000e-01/1.000000e-01

 Standard Electronic Orientation quadrupole field applied
 Nucleus-field energy     =     0.0000000020 hartrees
 Requested basis set is 6-31G(d)
 There are 16 shells and 36 basis functions
 A cutoff of  1.0D-09 yielded    136 shell pairs
 There are       710 function pairs (       795 Cartesian)
 Smallest overlap matrix eigenvalue = 1.34E-02
 Guess from superposition of atomic densities
 Warning:  Energy on first SCF cycle will be non-variational
 SAD guess density has 16.000000 electrons
 Long-range K will be added via erf
 Coulomb attenuation parameter = 0.2 bohr**(-1)
 A restricted hybrid HF-DFT SCF calculation will be
 performed using Relaxed Constraint Minimization + Pulay DIIS
 Exchange:     0.2220 Hartree-Fock + 1.0000 wB97X-D + LR-HF
 Correlation:  1.0000 wB97X-D
 Using Euler-Maclaurin-Lebedev (75,302) quadrature formula
 Dispersion:   Grimme D
 SCF converges when DIIS error is below 1.0E-04
 using 6 threads for integral computing
 -------------------------------------------------------
 OpenMP Integral computing Module                
 Release: version 1.0, May 2013, Q-Chem Inc. Pittsburgh 
 -------------------------------------------------------
 using 6 threads for integral computing
 -------------------------------------------------------
 OpenMP Integral computing Module                
 Release: version 1.0, May 2013, Q-Chem Inc. Pittsburgh 
 -------------------------------------------------------
 ---------------------------------------
  Cycle       Energy         DIIS Error
 ---------------------------------------
    1     -78.4648181525      9.94E-02
    2     -78.4698141446      8.59E-03
    3     -78.4802242437      4.71E-03
    4     -78.4828885594      1.75E-03
    5     -78.4839769712      1.03E-03
    6     -78.4841028700      3.59E-04 Done RCA. Switching to DIIS
    7     -78.4841561741      2.12E-04
    8     -78.4841640978      6.09E-08 Convergence criterion met
 ---------------------------------------
 SCF time:  CPU 9.04 s  wall 1.52 s
 SCF   energy in the small basis set = -78.48416410
 Total energy in the small basis set = -78.48416410
 ----------------------------------------------------
  Cycle       Energy    
 ----------------------------------------------------
    1     -10.4110574108     -1.04E+01
 Long-range K will be added via erf
 Coulomb attenuation parameter = 0.2 bohr**(-1)
 A restricted hybrid HF-DFT SCF calculation will be
 performed using Relaxed Constraint Minimization + Pulay DIIS
 Exchange:     0.2220 Hartree-Fock + 1.0000 wB97X-D + LR-HF
 Correlation:  1.0000 wB97X-D
 Using Euler-Maclaurin-Lebedev (75,302) quadrature formula
 Dispersion:   Grimme D
 SCF converges when DIIS error is below 1.0E-05
 Basis2 calculation detected. Using small basis as guess for larger.
 SCFMinFind is unable to tell whether the solution found is close.
 Resetting ReadMinima to 0 and attempting to follow guess.
 SCFMinFind following SCF Guess.
 using 6 threads for integral computing
 -------------------------------------------------------
 OpenMP Integral computing Module                
 Release: version 1.0, May 2013, Q-Chem Inc. Pittsburgh 
 -------------------------------------------------------
 using 6 threads for integral computing
 -------------------------------------------------------
 OpenMP Integral computing Module                
 Release: version 1.0, May 2013, Q-Chem Inc. Pittsburgh 
 -------------------------------------------------------
 ---------------------------------------
  Cycle       Energy         DIIS Error
 ---------------------------------------
    1     -78.5025097249      5.93E-03
    2     -78.5157153790      1.03E-03
    3     -78.5168499494      3.07E-04 Done RCA. Switching to DIIS
    4     -78.5174231131      2.13E-04
    5     -78.5175092483      4.58E-06 Convergence criterion met
 ---------------------------------------
 SCF time:  CPU 13.77 s  wall 2.31 s
 SCF   energy in the final basis set = -78.51750925
 Total energy in the final basis set = -78.51750925
 
 --------------------------------------------------------------
 
                    Orbital Energies (a.u.)
 --------------------------------------------------------------
 
 Alpha MOs
 -- Occupied --
-10.3165 -10.3163  -0.8266  -0.6705  -0.5779  -0.4859  -0.4271  -0.3269
 -- Virtual --
  0.0255   0.0824   0.0895   0.0944   0.1252   0.1273   0.1276   0.1696
  0.1744   0.1954   0.2409   0.2693   0.3001   0.3331   0.4611   0.4713
  0.5461   0.5471   0.5509   0.5786   0.6146   0.6210   0.6350   0.6654
  0.6806   0.7033   0.7093   0.7426   0.8096   0.8164   0.8600   0.9124
  0.9687   1.0285   1.1725   1.1774   1.2063   1.2389   1.2485   1.3286
  1.3563   1.4249   1.4353   1.4536   1.5223   1.5931   1.6047   1.7658
  2.3761   2.4688   2.5693   2.5933   2.6447   2.6493   2.6513   2.7549
  2.8087   2.8227   2.8296   2.9163   2.9290   2.9914   3.0458   3.0523
  3.0573   3.0661   3.0702   3.1340   3.1845   3.2855   3.2924   3.3725
  3.4145   3.4686   3.4718   3.4748   3.4957   3.5560   3.5762   3.5976
  3.6055   3.6098   3.6181   3.7074   3.7423   3.7990   3.8945   3.9381
  3.9584   3.9933   4.0008   4.0256   4.2046   4.2077   4.2338   4.3299
  4.3968   4.5825   4.6198   4.6346   4.7591   4.7699   4.8358   4.8619
  5.0865   5.1163   5.3693   5.5515   5.7228   5.7285   5.8119   6.0368
  6.3426   6.8499  24.7820  24.9296
 --------------------------------------------------------------
 
 -----------------------------------------------------------------
                    Cartesian Multipole Moments
 -----------------------------------------------------------------
    Charge (ESU x 10^10)
                 0.0000
    Dipole Moment (Debye)
         X      -0.0000      Y       0.0000      Z       0.0000
       Tot       0.0000
    Quadrupole Moments (Debye-Ang)
        XX     -13.6730     XY      -0.3837     YY     -13.2269
        XZ       1.3438     YZ      -2.3230     ZZ     -14.9054
    Octopole Moments (Debye-Ang^2)
       XXX     160.7584    XXY      -8.6846    XYY      51.1818
       YYY     -33.9311    XXZ     -10.5336    XYZ      10.2534
       YYZ      -3.9728    XZZ      58.4159    YZZ     -12.7456
       ZZZ       0.0003
    Hexadecapole Moments (Debye-Ang^3)
      XXXX   -1327.7375   XXXY     105.9399   XXYY    -227.0786
      XYYY     121.4631   YYYY     -97.3814   XXXZ      63.6394
      XXYZ     -44.9948   XYYZ      15.5769   YYYZ      -6.0231
      XXZZ    -243.9724   XYZZ      45.8766   YYZZ     -21.2316
      XZZZ      -0.7253   YZZZ       1.2922   ZZZZ     -26.8444
 -----------------------------------------------------------------
Archival summary:
1\1\centos77-c7\SP\ProcedureUnspecified\BasisUnspecified\24\shihchen\MonJul2716:01:532020MonJul2716:01:532020\0\\#,ProcedureUnspecified,BasisUnspecified,\\0,1\C\H,1,1.09739\H,1,1.0974,2,144.004\C,1,1.57179,2,108.004,3,179.777,0\H,4,1.09739,1,108.004,2,-180,0\H,4,1.0974,1,107.991,2,0.136079,0\\\@

 Total job time:  4.81s(wall), 25.32s(cpu) 
 Mon Jul 27 16:01:53 2020

        *************************************************************
        *                                                           *
        *  Thank you very much for using Q-Chem.  Have a nice day.  *
        *                                                           *
        *************************************************************


