                  Welcome to Q-Chem
     A Quantum Leap Into The Future Of Chemistry


 Q-Chem 5.3 (devel), Q-Chem, Inc., Pleasanton, CA (2020)

 Yihan Shao,  Zhengting Gan,  E. Epifanovsky,  A. T. B. Gilbert,  M. Wormit,  
 J. Kussmann,  A. W. Lange,  A. Behn,  Jia Deng,  Xintian Feng,  D. Ghosh,  
 M. Goldey,  P. R. Horn,  L. D. Jacobson,  I. Kaliman,  T. Kus,  A. Landau,  
 Jie Liu,  E. I. Proynov,  R. M. Richard,  R. P. Steele,  E. J. Sundstrom,  
 H. L. Woodcock III,  P. M. Zimmerman,  D. Zuev,  B. Alam,  B. Albrecht,  
 E. Alguire,  S. A. Baeppler,  D. Barton,  Z. Benda,  Y. A. Bernard,  
 E. J. Berquist,  K. B. Bravaya,  H. Burton,  K. Carter-Fenk,  D. Casanova,  
 Chun-Min Chang,  Yunqing Chen,  A. Chien,  K. D. Closser,  M. P. Coons,  
 S. Coriani,  S. Dasgupta,  A. L. Dempwolff,  M. Diedenhofen,  Hainam Do,  
 R. G. Edgar,  Po-Tung Fang,  S. Faraji,  S. Fatehi,  Qingguo Feng,  
 J. Fosso-Tande,  J. Gayvert,  Qinghui Ge,  A. Ghysels,  G. Gidofalvi,  
 J. Gomes,  J. Gonthier,  A. Gunina,  D. Hait,  M. W. D. Hanson-Heine,  
 P. H. P. Harbach,  A. W. Hauser,  M. F. Herbst,  J. E. Herr,  
 E. G. Hohenstein,  Z. C. Holden,  Kerwin Hui,  B. C. Huynh,  T.-C. Jagau,  
 Hyunjun Ji,  B. Kaduk,  K. Khistyaev,  Jaehoon Kim,  P. Klunzinger,  K. Koh,  
 D. Kosenkov,  L. Koulias,  T. Kowalczyk,  C. M. Krauter,  A. Kunitsa,  
 Ka Un Lao,  A. Laurent,  K. V. Lawler,  Joonho Lee,  D. Lefrancois,  
 S. Lehtola,  D. S. Levine,  Yi-Pei Li,  You-Sheng Lin,  Fenglai Liu,  
 Kuan-Yu Liu,  E. Livshits,  M. Loipersberger,  A. Luenser,  P. Manohar,  
 E. Mansoor,  S. F. Manzer,  Shan-Ping Mao,  Yuezhi Mao,  N. Mardirossian,  
 A. V. Marenich,  T. Markovich,  L. A. Martinez-Martinez,  S. A. Maurer,  
 N. J. Mayhall,  S. C. McKenzie,  J.-M. Mewes,  P. Morgante,  A. F. Morrison,  
 J. W. Mullinax,  K. Nanda,  T. S. Nguyen-Beck,  R. Olivares-Amaya,  
 K. J. Oosterbaan,  J. A. Parkhill,  S. K. Paul,  F. Pavosevic,  Zheng Pei,  
 T. M. Perrine,  F. Plasser,  P. Pokhilko,  S. Prager,  A. Prociuk,  
 E. Ramos,  B. Rana,  D. R. Rehn,  F. Rob,  M. Scheurer,  M. Schneider,  
 N. Sergueev,  S. M. Sharada,  S. Sharma,  D. W. Small,  T. Stauch,  
 C. J. Stein,  T. Stein,  Yu-Chuan Su,  S. P. Veccham,  Zhen Tao,  
 A. J. W. Thom,  A. Tkatchenko,  T. Tsuchimochi,  N. M. Tubman,  L. Vogt,  
 M. L. Vidal,  O. Vydrov,  M. A. Watson,  J. Wenzel,  M. de Wergifosse,  
 T. A. Wesolowski,  A. White,  J. Witte,  A. Yamada,  Jun Yang,  K. Yao,  
 S. Yeganeh,  S. R. Yost,  Zhi-Qiang You,  A. Zech,  Igor Ying Zhang,  
 Xing Zhang,  Yan Zhao,  Ying Zhu,  B. R. Brooks,  G. K. L. Chan,  
 C. J. Cramer,  M. S. Gordon,  W. J. Hehre,  A. Klamt,  M. W. Schmidt,  
 C. D. Sherrill,  D. G. Truhlar,  A. Aspuru-Guzik,  R. Baer,  A. T. Bell,  
 N. A. Besley,  Jeng-Da Chai,  A. E. DePrince, III,  R. A. DiStasio Jr.,  
 A. Dreuw,  B. D. Dunietz,  T. R. Furlani,  Chao-Ping Hsu,  Yousung Jung,  
 Jing Kong,  D. S. Lambrecht,  WanZhen Liang,  C. Ochsenfeld,  
 V. A. Rassolov,  L. V. Slipchenko,  J. E. Subotnik,  T. Van Voorhis,  
 J. M. Herbert,  A. I. Krylov,  P. M. W. Gill,  M. Head-Gordon

 Contributors to earlier versions of Q-Chem not listed above: 
 R. D. Adamson,  B. Austin,  J. Baker,  G. J. O. Beran,  K. Brandhorst,  
 S. T. Brown,  E. F. C. Byrd,  A. K. Chakraborty,  C.-L. Cheng,  
 Siu Hung Chien,  D. M. Chipman,  D. L. Crittenden,  H. Dachsel,  
 R. J. Doerksen,  A. D. Dutoi,  L. Fusti-Molnar,  W. A. Goddard III,  
 A. Golubeva-Zadorozhnaya,  S. R. Gwaltney,  G. Hawkins,  A. Heyden,  
 S. Hirata,  G. Kedziora,  F. J. Keil,  C. Kelley,  Jihan Kim,  R. A. King,  
 R. Z. Khaliullin,  P. P. Korambath,  W. Kurlancheek,  A. M. Lee,  M. S. Lee,  
 S. V. Levchenko,  Ching Yeh Lin,  D. Liotard,  R. C. Lochan,  I. Lotan,  
 P. E. Maslen,  N. Nair,  D. P. O'Neill,  D. Neuhauser,  E. Neuscamman,  
 C. M. Oana,  R. Olson,  B. Peters,  R. Peverati,  P. A. Pieniazek,  
 Y. M. Rhee,  J. Ritchie,  M. A. Rohrdanz,  E. Rosta,  N. J. Russ,  
 H. F. Schaefer III,  N. E. Schultz,  N. Shenvi,  A. C. Simmonett,  A. Sodt,  
 D. Stuck,  K. S. Thanthiriwatte,  V. Vanovschi,  Tao Wang,  A. Warshel,  
 C. F. Williams,  Q. Wu,  X. Xu,  W. Zhang

 Please cite Q-Chem as follows:
 Y. Shao et al., Mol. Phys. 113, 184-215 (2015)
 DOI: 10.1080/00268976.2014.952696

 Q-Chem 5.3.0 for Intel X86 EM64T Linux

 Parts of Q-Chem use Armadillo 9.800.1 (Horizon Scraper).
 http://arma.sourceforge.net/

 Q-Chem begins on Mon Jul 27 16:04:11 2020  

Host: centos77-c7
0

     Scratch files written to /tmp/29924.centos77-h1/qchem129837//
Processing $rem in /opt/qchem-5.3.0-intel2020u1//config/preferences:
Processing $rem in /home/shihchengli/.qchemrc:

Checking the input file for inconsistencies... 	...done.

--------------------------------------------------------------
User input:
--------------------------------------------------------------
$rem
   JOBTYPE  sp
   EXCHANGE   omegaB97X-D
   BASIS   6-311+G(2df,2pd)
   UNRESTRICTED   False
   max_scf_cycles   250
   geom_opt_max_cycles   1500
   basis2 6-31G*
   scf_algorithm rca_diis
   SYM_IGNORE  TRUE
   print_input   true
   geom_opt_dmax   80
   pop_mulliken false
   XC_GRID 000075000302
$end

$molecule
0 1
C       -4.4525382152     0.4575389880     0.0548979470
C       -3.3080333100     1.1189352603     0.0544591833
H       -5.4441375207     0.8887920848     -0.5601972293
H       -4.5580187852     -0.3399703492     0.5054806176
H       -3.1866778052     2.1929172646     -0.5596430840
H       -2.5653043637     0.8124167516     0.5050025655
$end
--------------------------------------------------------------
 ----------------------------------------------------------------
             Standard Nuclear Orientation (Angstroms)
    I     Atom           X                Y                Z
 ----------------------------------------------------------------
    1      C      -4.4525382152     0.4575389880     0.0548979470
    2      C      -3.3080333100     1.1189352603     0.0544591833
    3      H      -5.4441375207     0.8887920848    -0.5601972293
    4      H      -4.5580187852    -0.3399703492     0.5054806176
    5      H      -3.1866778052     2.1929172646    -0.5596430840
    6      H      -2.5653043637     0.8124167516     0.5050025655
 ----------------------------------------------------------------
 Nuclear Repulsion Energy =          33.81729040 hartrees
 There are        8 alpha and        8 beta electrons
 Requested basis set is 6-311+G(2df,2pd)
 There are 40 shells and 124 basis functions

 Total QAlloc Memory Limit   2000 MB
 Mega-Array Size       188 MB
 MEM_STATIC part       192 MB

                       Distance Matrix (Angstroms)
             C (  1)   C (  2)   H (  3)   H (  4)   H (  5)
   C (  2)  1.321869
   H (  3)  1.244022  2.234661
   H (  4)  0.922048  1.973395  1.852224
   H (  5)  2.234189  1.243095  2.607080  3.070926
   H (  6)  1.972355  0.921189  3.070532  2.301935  1.850772
 
 A cutoff of  1.0D-09 yielded    814 shell pairs
 There are      7914 function pairs (      9843 Cartesian)
 Smallest overlap matrix eigenvalue = 1.19E-04

 Scale SEOQF with 1.000000e-02/1.000000e-01/1.000000e-01

 Standard Electronic Orientation quadrupole field applied
 Nucleus-field energy     =     0.0000000019 hartrees
 Requested basis set is 6-31G(d)
 There are 16 shells and 36 basis functions
 A cutoff of  1.0D-09 yielded    136 shell pairs
 There are       710 function pairs (       795 Cartesian)
 Smallest overlap matrix eigenvalue = 7.52E-03
 Guess from superposition of atomic densities
 Warning:  Energy on first SCF cycle will be non-variational
 SAD guess density has 16.000000 electrons
 Long-range K will be added via erf
 Coulomb attenuation parameter = 0.2 bohr**(-1)
 A restricted hybrid HF-DFT SCF calculation will be
 performed using Relaxed Constraint Minimization + Pulay DIIS
 Exchange:     0.2220 Hartree-Fock + 1.0000 wB97X-D + LR-HF
 Correlation:  1.0000 wB97X-D
 Using Euler-Maclaurin-Lebedev (75,302) quadrature formula
 Dispersion:   Grimme D
 SCF converges when DIIS error is below 1.0E-04
 using 6 threads for integral computing
 -------------------------------------------------------
 OpenMP Integral computing Module                
 Release: version 1.0, May 2013, Q-Chem Inc. Pittsburgh 
 -------------------------------------------------------
 using 6 threads for integral computing
 -------------------------------------------------------
 OpenMP Integral computing Module                
 Release: version 1.0, May 2013, Q-Chem Inc. Pittsburgh 
 -------------------------------------------------------
 ---------------------------------------
  Cycle       Energy         DIIS Error
 ---------------------------------------
    1     -78.8000973816      1.30E-01
    2     -78.4536594788      1.21E-02
    3     -78.4708039291      4.32E-03
    4     -78.4793534175      2.77E-03
    5     -78.4801909731      7.04E-04 Done RCA. Switching to DIIS
    6     -78.4806608298      4.69E-04
    7     -78.4806990624      7.30E-06 Convergence criterion met
 ---------------------------------------
 SCF time:  CPU 7.73 s  wall 1.30 s
 SCF   energy in the small basis set = -78.48069906
 Total energy in the small basis set = -78.48069906
 ----------------------------------------------------
  Cycle       Energy    
 ----------------------------------------------------
    1     -10.5833614699     -1.06E+01
 Long-range K will be added via erf
 Coulomb attenuation parameter = 0.2 bohr**(-1)
 A restricted hybrid HF-DFT SCF calculation will be
 performed using Relaxed Constraint Minimization + Pulay DIIS
 Exchange:     0.2220 Hartree-Fock + 1.0000 wB97X-D + LR-HF
 Correlation:  1.0000 wB97X-D
 Using Euler-Maclaurin-Lebedev (75,302) quadrature formula
 Dispersion:   Grimme D
 SCF converges when DIIS error is below 1.0E-05
 Basis2 calculation detected. Using small basis as guess for larger.
 SCFMinFind is unable to tell whether the solution found is close.
 Resetting ReadMinima to 0 and attempting to follow guess.
 SCFMinFind following SCF Guess.
 using 6 threads for integral computing
 -------------------------------------------------------
 OpenMP Integral computing Module                
 Release: version 1.0, May 2013, Q-Chem Inc. Pittsburgh 
 -------------------------------------------------------
 using 6 threads for integral computing
 -------------------------------------------------------
 OpenMP Integral computing Module                
 Release: version 1.0, May 2013, Q-Chem Inc. Pittsburgh 
 -------------------------------------------------------
 ---------------------------------------
  Cycle       Energy         DIIS Error
 ---------------------------------------
    1     -78.5015998478      5.90E-03
    2     -78.5142615150      9.18E-04 Done RCA. Switching to DIIS
    3     -78.5149805348      5.83E-04
    4     -78.5156205236      4.94E-05
    5     -78.5156265957      5.25E-06 Convergence criterion met
 ---------------------------------------
 SCF time:  CPU 12.71 s  wall 2.14 s
 SCF   energy in the final basis set = -78.51562660
 Total energy in the final basis set = -78.51562660
 
 --------------------------------------------------------------
 
                    Orbital Energies (a.u.)
 --------------------------------------------------------------
 
 Alpha MOs
 -- Occupied --
-10.2821 -10.2811  -0.8734  -0.6922  -0.5748  -0.4993  -0.4325  -0.3630
 -- Virtual --
  0.0633   0.0790   0.0882   0.0989   0.1239   0.1282   0.1437   0.1783
  0.1796   0.2031   0.2560   0.2626   0.3420   0.3975   0.4460   0.4898
  0.5427   0.5635   0.5798   0.5958   0.5998   0.6332   0.6575   0.6612
  0.7188   0.7531   0.7652   0.8045   0.8223   0.8876   0.9767   1.0062
  1.0444   1.0783   1.1453   1.1967   1.2080   1.2444   1.2662   1.3718
  1.4026   1.4611   1.5101   1.5122   1.5496   1.6243   1.6934   1.8865
  2.2903   2.5081   2.5614   2.6112   2.6902   2.7278   2.8141   2.8154
  2.8203   2.8567   2.9345   2.9586   2.9907   3.0205   3.0385   3.0621
  3.0674   3.1054   3.1176   3.2088   3.2421   3.2546   3.3367   3.3376
  3.3448   3.3532   3.3645   3.4616   3.5674   3.5850   3.5894   3.6657
  3.7467   3.8273   3.8279   3.8709   3.9347   3.9700   4.0073   4.0765
  4.0933   4.1075   4.1441   4.1552   4.2217   4.3210   4.3613   4.4300
  4.5526   4.6503   4.7582   4.8338   4.9392   4.9835   5.0872   5.1061
  5.3928   5.5658   5.6100   5.7174   5.7213   5.8362   6.1622   6.3883
  6.6736   6.8476  24.7292  25.4104
 --------------------------------------------------------------
 
 -----------------------------------------------------------------
                    Cartesian Multipole Moments
 -----------------------------------------------------------------
    Charge (ESU x 10^10)
                 0.0000
    Dipole Moment (Debye)
         X       0.0785      Y      -0.1344      Z       0.1099
       Tot       0.1905
    Quadrupole Moments (Debye-Ang)
        XX     -13.1566     XY       1.0642     YY     -13.3099
        XZ       0.3684     YZ      -1.2902     ZZ     -14.4839
    Octopole Moments (Debye-Ang^2)
       XXX     150.4623    XXY     -16.6822    XYY      52.9021
       YYY     -32.8956    XXZ      -4.9005    XYZ       5.7762
       YYZ      -2.6500    XZZ      56.5656    YZZ     -12.0422
       ZZZ      -0.6319
    Hexadecapole Moments (Debye-Ang^3)
      XXXX   -1221.2477   XXXY     144.2069   XXYY    -234.8865
      XYYY     121.5713   YYYY     -89.1328   XXXZ      35.1419
      XXYZ     -25.6567   XYYZ       9.7355   YYYZ      -3.6664
      XXZZ    -233.9235   XYZZ      43.8953   YYZZ     -19.4108
      XZZZ       1.3461   YZZZ       1.4240   ZZZZ     -23.2958
 -----------------------------------------------------------------
Archival summary:
1\1\centos77-c7\SP\ProcedureUnspecified\BasisUnspecified\24\shihchen\MonJul2716:04:162020MonJul2716:04:162020\0\\#,ProcedureUnspecified,BasisUnspecified,\\0,1\C\H,1,0.921189\H,1,1.2431,2,116.768\C,1,1.32187,2,122.103,3,-179.955,0\H,4,0.922048,1,122.139,2,-0.0472375,0\H,4,1.24402,1,121.099,2,-179.996,0\\\@

 Total job time:  4.37s(wall), 22.93s(cpu) 
 Mon Jul 27 16:04:16 2020

        *************************************************************
        *                                                           *
        *  Thank you very much for using Q-Chem.  Have a nice day.  *
        *                                                           *
        *************************************************************


