                  Welcome to Q-Chem
     A Quantum Leap Into The Future Of Chemistry


 Q-Chem 5.3 (devel), Q-Chem, Inc., Pleasanton, CA (2020)

 Yihan Shao,  Zhengting Gan,  E. Epifanovsky,  A. T. B. Gilbert,  M. Wormit,  
 J. Kussmann,  A. W. Lange,  A. Behn,  Jia Deng,  Xintian Feng,  D. Ghosh,  
 M. Goldey,  P. R. Horn,  L. D. Jacobson,  I. Kaliman,  T. Kus,  A. Landau,  
 Jie Liu,  E. I. Proynov,  R. M. Richard,  R. P. Steele,  E. J. Sundstrom,  
 H. L. Woodcock III,  P. M. Zimmerman,  D. Zuev,  B. Alam,  B. Albrecht,  
 E. Alguire,  S. A. Baeppler,  D. Barton,  Z. Benda,  Y. A. Bernard,  
 E. J. Berquist,  K. B. Bravaya,  H. Burton,  K. Carter-Fenk,  D. Casanova,  
 Chun-Min Chang,  Yunqing Chen,  A. Chien,  K. D. Closser,  M. P. Coons,  
 S. Coriani,  S. Dasgupta,  A. L. Dempwolff,  M. Diedenhofen,  Hainam Do,  
 R. G. Edgar,  Po-Tung Fang,  S. Faraji,  S. Fatehi,  Qingguo Feng,  
 J. Fosso-Tande,  J. Gayvert,  Qinghui Ge,  A. Ghysels,  G. Gidofalvi,  
 J. Gomes,  J. Gonthier,  A. Gunina,  D. Hait,  M. W. D. Hanson-Heine,  
 P. H. P. Harbach,  A. W. Hauser,  M. F. Herbst,  J. E. Herr,  
 E. G. Hohenstein,  Z. C. Holden,  Kerwin Hui,  B. C. Huynh,  T.-C. Jagau,  
 Hyunjun Ji,  B. Kaduk,  K. Khistyaev,  Jaehoon Kim,  P. Klunzinger,  K. Koh,  
 D. Kosenkov,  L. Koulias,  T. Kowalczyk,  C. M. Krauter,  A. Kunitsa,  
 Ka Un Lao,  A. Laurent,  K. V. Lawler,  Joonho Lee,  D. Lefrancois,  
 S. Lehtola,  D. S. Levine,  Yi-Pei Li,  You-Sheng Lin,  Fenglai Liu,  
 Kuan-Yu Liu,  E. Livshits,  M. Loipersberger,  A. Luenser,  P. Manohar,  
 E. Mansoor,  S. F. Manzer,  Shan-Ping Mao,  Yuezhi Mao,  N. Mardirossian,  
 A. V. Marenich,  T. Markovich,  L. A. Martinez-Martinez,  S. A. Maurer,  
 N. J. Mayhall,  S. C. McKenzie,  J.-M. Mewes,  P. Morgante,  A. F. Morrison,  
 J. W. Mullinax,  K. Nanda,  T. S. Nguyen-Beck,  R. Olivares-Amaya,  
 K. J. Oosterbaan,  J. A. Parkhill,  S. K. Paul,  F. Pavosevic,  Zheng Pei,  
 T. M. Perrine,  F. Plasser,  P. Pokhilko,  S. Prager,  A. Prociuk,  
 E. Ramos,  B. Rana,  D. R. Rehn,  F. Rob,  M. Scheurer,  M. Schneider,  
 N. Sergueev,  S. M. Sharada,  S. Sharma,  D. W. Small,  T. Stauch,  
 C. J. Stein,  T. Stein,  Yu-Chuan Su,  S. P. Veccham,  Zhen Tao,  
 A. J. W. Thom,  A. Tkatchenko,  T. Tsuchimochi,  N. M. Tubman,  L. Vogt,  
 M. L. Vidal,  O. Vydrov,  M. A. Watson,  J. Wenzel,  M. de Wergifosse,  
 T. A. Wesolowski,  A. White,  J. Witte,  A. Yamada,  Jun Yang,  K. Yao,  
 S. Yeganeh,  S. R. Yost,  Zhi-Qiang You,  A. Zech,  Igor Ying Zhang,  
 Xing Zhang,  Yan Zhao,  Ying Zhu,  B. R. Brooks,  G. K. L. Chan,  
 C. J. Cramer,  M. S. Gordon,  W. J. Hehre,  A. Klamt,  M. W. Schmidt,  
 C. D. Sherrill,  D. G. Truhlar,  A. Aspuru-Guzik,  R. Baer,  A. T. Bell,  
 N. A. Besley,  Jeng-Da Chai,  A. E. DePrince, III,  R. A. DiStasio Jr.,  
 A. Dreuw,  B. D. Dunietz,  T. R. Furlani,  Chao-Ping Hsu,  Yousung Jung,  
 Jing Kong,  D. S. Lambrecht,  WanZhen Liang,  C. Ochsenfeld,  
 V. A. Rassolov,  L. V. Slipchenko,  J. E. Subotnik,  T. Van Voorhis,  
 J. M. Herbert,  A. I. Krylov,  P. M. W. Gill,  M. Head-Gordon

 Contributors to earlier versions of Q-Chem not listed above: 
 R. D. Adamson,  B. Austin,  J. Baker,  G. J. O. Beran,  K. Brandhorst,  
 S. T. Brown,  E. F. C. Byrd,  A. K. Chakraborty,  C.-L. Cheng,  
 Siu Hung Chien,  D. M. Chipman,  D. L. Crittenden,  H. Dachsel,  
 R. J. Doerksen,  A. D. Dutoi,  L. Fusti-Molnar,  W. A. Goddard III,  
 A. Golubeva-Zadorozhnaya,  S. R. Gwaltney,  G. Hawkins,  A. Heyden,  
 S. Hirata,  G. Kedziora,  F. J. Keil,  C. Kelley,  Jihan Kim,  R. A. King,  
 R. Z. Khaliullin,  P. P. Korambath,  W. Kurlancheek,  A. M. Lee,  M. S. Lee,  
 S. V. Levchenko,  Ching Yeh Lin,  D. Liotard,  R. C. Lochan,  I. Lotan,  
 P. E. Maslen,  N. Nair,  D. P. O'Neill,  D. Neuhauser,  E. Neuscamman,  
 C. M. Oana,  R. Olson,  B. Peters,  R. Peverati,  P. A. Pieniazek,  
 Y. M. Rhee,  J. Ritchie,  M. A. Rohrdanz,  E. Rosta,  N. J. Russ,  
 H. F. Schaefer III,  N. E. Schultz,  N. Shenvi,  A. C. Simmonett,  A. Sodt,  
 D. Stuck,  K. S. Thanthiriwatte,  V. Vanovschi,  Tao Wang,  A. Warshel,  
 C. F. Williams,  Q. Wu,  X. Xu,  W. Zhang

 Please cite Q-Chem as follows:
 Y. Shao et al., Mol. Phys. 113, 184-215 (2015)
 DOI: 10.1080/00268976.2014.952696

 Q-Chem 5.3.0 for Intel X86 EM64T Linux

 Parts of Q-Chem use Armadillo 9.800.1 (Horizon Scraper).
 http://arma.sourceforge.net/

 Q-Chem begins on Mon Jul 27 15:59:11 2020  

Host: centos77-c7
0

     Scratch files written to /tmp/29924.centos77-h1/qchem127155//
Processing $rem in /opt/qchem-5.3.0-intel2020u1//config/preferences:
Processing $rem in /home/shihchengli/.qchemrc:

Checking the input file for inconsistencies... 	...done.

--------------------------------------------------------------
User input:
--------------------------------------------------------------
$rem
   JOBTYPE  sp
   EXCHANGE   omegaB97X-D
   BASIS   6-311+G(2df,2pd)
   UNRESTRICTED   False
   max_scf_cycles   250
   geom_opt_max_cycles   1500
   basis2 6-31G*
   scf_algorithm rca_diis
   SYM_IGNORE  TRUE
   print_input   true
   geom_opt_dmax   80
   pop_mulliken false
   XC_GRID 000075000302
$end

$molecule
0 1
C       -4.4552721435     0.4713127429     0.0456135928
C       -3.3829646218     1.2388973642     -0.0456133639
H       -5.2770766746     0.9063660980     -0.5118280720
H       -4.6501907942     -0.4651225022     0.5493936457
H       -3.1880457444     2.1753320847     -0.5493942666
H       -2.5611600214     0.8038442125     0.5118284640
$end
--------------------------------------------------------------
 ----------------------------------------------------------------
             Standard Nuclear Orientation (Angstroms)
    I     Atom           X                Y                Z
 ----------------------------------------------------------------
    1      C      -4.4552721435     0.4713127429     0.0456135928
    2      C      -3.3829646218     1.2388973642    -0.0456133639
    3      H      -5.2770766746     0.9063660980    -0.5118280720
    4      H      -4.6501907942    -0.4651225022     0.5493936457
    5      H      -3.1880457444     2.1753320847    -0.5493942666
    6      H      -2.5611600214     0.8038442125     0.5118284640
 ----------------------------------------------------------------
 Nuclear Repulsion Energy =          33.58439727 hartrees
 There are        8 alpha and        8 beta electrons
 Requested basis set is 6-311+G(2df,2pd)
 There are 40 shells and 124 basis functions

 Total QAlloc Memory Limit   2000 MB
 Mega-Array Size       188 MB
 MEM_STATIC part       192 MB

                       Distance Matrix (Angstroms)
             C (  1)   C (  2)   H (  3)   H (  4)   H (  5)
   C (  2)  1.321874
   H (  3)  1.084147  1.978786
   H (  4)  1.081064  2.205352  1.843952
   H (  5)  2.205352  1.081064  2.444532  3.212040
   H (  6)  1.978786  1.084147  2.904236  2.444532  1.843952
 
 A cutoff of  1.0D-09 yielded    813 shell pairs
 There are      7889 function pairs (      9812 Cartesian)
 Smallest overlap matrix eigenvalue = 1.22E-04

 Scale SEOQF with 1.000000e-02/1.000000e-01/1.000000e-01

 Standard Electronic Orientation quadrupole field applied
 Nucleus-field energy     =     0.0000000020 hartrees
 Requested basis set is 6-31G(d)
 There are 16 shells and 36 basis functions
 A cutoff of  1.0D-09 yielded    136 shell pairs
 There are       710 function pairs (       795 Cartesian)
 Smallest overlap matrix eigenvalue = 7.20E-03
 Guess from superposition of atomic densities
 Warning:  Energy on first SCF cycle will be non-variational
 SAD guess density has 16.000000 electrons
 Long-range K will be added via erf
 Coulomb attenuation parameter = 0.2 bohr**(-1)
 A restricted hybrid HF-DFT SCF calculation will be
 performed using Relaxed Constraint Minimization + Pulay DIIS
 Exchange:     0.2220 Hartree-Fock + 1.0000 wB97X-D + LR-HF
 Correlation:  1.0000 wB97X-D
 Using Euler-Maclaurin-Lebedev (75,302) quadrature formula
 Dispersion:   Grimme D
 SCF converges when DIIS error is below 1.0E-04
 using 6 threads for integral computing
 -------------------------------------------------------
 OpenMP Integral computing Module                
 Release: version 1.0, May 2013, Q-Chem Inc. Pittsburgh 
 -------------------------------------------------------
 using 6 threads for integral computing
 -------------------------------------------------------
 OpenMP Integral computing Module                
 Release: version 1.0, May 2013, Q-Chem Inc. Pittsburgh 
 -------------------------------------------------------
 ---------------------------------------
  Cycle       Energy         DIIS Error
 ---------------------------------------
    1     -78.8215999731      1.26E-01
    2     -78.5196161112      1.14E-02
    3     -78.5346168116      4.35E-03
    4     -78.5414493241      2.76E-03
    5     -78.5422724280      7.46E-04 Done RCA. Switching to DIIS
    6     -78.5427107544      4.87E-04
    7     -78.5427511070      7.26E-07 Convergence criterion met
 ---------------------------------------
 SCF time:  CPU 7.76 s  wall 1.31 s
 SCF   energy in the small basis set = -78.54275111
 Total energy in the small basis set = -78.54275111
 ----------------------------------------------------
  Cycle       Energy    
 ----------------------------------------------------
    1     -10.5575719682     -1.06E+01
 Long-range K will be added via erf
 Coulomb attenuation parameter = 0.2 bohr**(-1)
 A restricted hybrid HF-DFT SCF calculation will be
 performed using Relaxed Constraint Minimization + Pulay DIIS
 Exchange:     0.2220 Hartree-Fock + 1.0000 wB97X-D + LR-HF
 Correlation:  1.0000 wB97X-D
 Using Euler-Maclaurin-Lebedev (75,302) quadrature formula
 Dispersion:   Grimme D
 SCF converges when DIIS error is below 1.0E-05
 Basis2 calculation detected. Using small basis as guess for larger.
 SCFMinFind is unable to tell whether the solution found is close.
 Resetting ReadMinima to 0 and attempting to follow guess.
 SCFMinFind following SCF Guess.
 using 6 threads for integral computing
 -------------------------------------------------------
 OpenMP Integral computing Module                
 Release: version 1.0, May 2013, Q-Chem Inc. Pittsburgh 
 -------------------------------------------------------
 using 6 threads for integral computing
 -------------------------------------------------------
 OpenMP Integral computing Module                
 Release: version 1.0, May 2013, Q-Chem Inc. Pittsburgh 
 -------------------------------------------------------
 ---------------------------------------
  Cycle       Energy         DIIS Error
 ---------------------------------------
    1     -78.5606836358      5.91E-03
    2     -78.5735984192      9.56E-04 Done RCA. Switching to DIIS
    3     -78.5743955325      5.99E-04
    4     -78.5750603204      4.83E-05
    5     -78.5750660565      4.93E-06 Convergence criterion met
 ---------------------------------------
 SCF time:  CPU 12.74 s  wall 2.14 s
 SCF   energy in the final basis set = -78.57506606
 Total energy in the final basis set = -78.57506606
 
 --------------------------------------------------------------
 
                    Orbital Energies (a.u.)
 --------------------------------------------------------------
 
 Alpha MOs
 -- Occupied --
-10.2837 -10.2827  -0.8674  -0.6750  -0.5621  -0.5202  -0.4221  -0.3619
 -- Virtual --
  0.0640   0.0794   0.0871   0.1011   0.1242   0.1313   0.1437   0.1804
  0.2053   0.2087   0.2281   0.2747   0.3330   0.3840   0.4720   0.4730
  0.5625   0.5651   0.5679   0.5970   0.6013   0.6205   0.6566   0.6717
  0.7002   0.7314   0.7781   0.7845   0.7944   0.8970   0.9879   1.0031
  1.0380   1.0916   1.1278   1.1521   1.2201   1.2881   1.3097   1.3896
  1.4250   1.4519   1.4562   1.4876   1.5551   1.5651   1.6502   1.7789
  2.3973   2.4793   2.5603   2.6422   2.6856   2.7474   2.7653   2.7843
  2.8076   2.9361   2.9434   2.9639   3.0012   3.0061   3.0423   3.0774
  3.1015   3.1067   3.1255   3.1991   3.2741   3.2995   3.3267   3.3409
  3.3451   3.3488   3.4276   3.4637   3.5796   3.6347   3.6709   3.6890
  3.6919   3.7287   3.7775   3.9038   3.9221   3.9520   3.9978   4.0163
  4.0945   4.1235   4.1288   4.1978   4.2568   4.2864   4.4185   4.5573
  4.7716   4.7973   4.8561   4.8764   5.0085   5.0128   5.0899   5.0902
  5.1483   5.2598   5.2637   5.3094   5.4535   6.0081   6.2556   6.3656
  6.4889   6.5535  24.9486  25.4624
 --------------------------------------------------------------
 
 -----------------------------------------------------------------
                    Cartesian Multipole Moments
 -----------------------------------------------------------------
    Charge (ESU x 10^10)
                -0.0000
    Dipole Moment (Debye)
         X       0.0000      Y      -0.0000      Z      -0.0000
       Tot       0.0000
    Quadrupole Moments (Debye-Ang)
        XX     -13.1412     XY       0.8554     YY     -12.5145
        XZ       0.3635     YZ      -1.6137     ZZ     -14.5294
    Octopole Moments (Debye-Ang^2)
       XXX     154.5060    XXY     -17.9416    XYY      50.5086
       YYY     -32.1036    XXZ      -2.8495    XYZ       6.6352
       YYZ      -2.7598    XZZ      56.9423    YZZ     -12.4241
       ZZZ      -0.0000
    Hexadecapole Moments (Debye-Ang^3)
      XXXX   -1266.4760   XXXY     160.8495   XXYY    -228.1907
      XYYY     120.1524   YYYY     -90.6058   XXXZ      17.5810
      XXYZ     -27.3878   XYYZ       9.7356   YYYZ      -3.2162
      XXZZ    -235.7464   XYZZ      45.4579   YYZZ     -20.2966
      XZZZ      -0.2205   YZZZ       2.4443   ZZZZ     -23.2398
 -----------------------------------------------------------------
Archival summary:
1\1\centos77-c7\SP\ProcedureUnspecified\BasisUnspecified\24\shihchen\MonJul2715:59:152020MonJul2715:59:152020\0\\#,ProcedureUnspecified,BasisUnspecified,\\0,1\C\H,1,1.08106\H,1,1.08415,2,116.778\C,1,1.32187,2,132.954,3,-179.916,0\H,4,1.08106,1,132.954,2,180,0\H,4,1.08415,1,110.268,2,-0.0800674,0\\\@

 Total job time:  4.35s(wall), 22.87s(cpu) 
 Mon Jul 27 15:59:15 2020

        *************************************************************
        *                                                           *
        *  Thank you very much for using Q-Chem.  Have a nice day.  *
        *                                                           *
        *************************************************************


