                  Welcome to Q-Chem
     A Quantum Leap Into The Future Of Chemistry


 Q-Chem 5.3 (devel), Q-Chem, Inc., Pleasanton, CA (2020)

 Yihan Shao,  Zhengting Gan,  E. Epifanovsky,  A. T. B. Gilbert,  M. Wormit,  
 J. Kussmann,  A. W. Lange,  A. Behn,  Jia Deng,  Xintian Feng,  D. Ghosh,  
 M. Goldey,  P. R. Horn,  L. D. Jacobson,  I. Kaliman,  T. Kus,  A. Landau,  
 Jie Liu,  E. I. Proynov,  R. M. Richard,  R. P. Steele,  E. J. Sundstrom,  
 H. L. Woodcock III,  P. M. Zimmerman,  D. Zuev,  B. Alam,  B. Albrecht,  
 E. Alguire,  S. A. Baeppler,  D. Barton,  Z. Benda,  Y. A. Bernard,  
 E. J. Berquist,  K. B. Bravaya,  H. Burton,  K. Carter-Fenk,  D. Casanova,  
 Chun-Min Chang,  Yunqing Chen,  A. Chien,  K. D. Closser,  M. P. Coons,  
 S. Coriani,  S. Dasgupta,  A. L. Dempwolff,  M. Diedenhofen,  Hainam Do,  
 R. G. Edgar,  Po-Tung Fang,  S. Faraji,  S. Fatehi,  Qingguo Feng,  
 J. Fosso-Tande,  J. Gayvert,  Qinghui Ge,  A. Ghysels,  G. Gidofalvi,  
 J. Gomes,  J. Gonthier,  A. Gunina,  D. Hait,  M. W. D. Hanson-Heine,  
 P. H. P. Harbach,  A. W. Hauser,  M. F. Herbst,  J. E. Herr,  
 E. G. Hohenstein,  Z. C. Holden,  Kerwin Hui,  B. C. Huynh,  T.-C. Jagau,  
 Hyunjun Ji,  B. Kaduk,  K. Khistyaev,  Jaehoon Kim,  P. Klunzinger,  K. Koh,  
 D. Kosenkov,  L. Koulias,  T. Kowalczyk,  C. M. Krauter,  A. Kunitsa,  
 Ka Un Lao,  A. Laurent,  K. V. Lawler,  Joonho Lee,  D. Lefrancois,  
 S. Lehtola,  D. S. Levine,  Yi-Pei Li,  You-Sheng Lin,  Fenglai Liu,  
 Kuan-Yu Liu,  E. Livshits,  M. Loipersberger,  A. Luenser,  P. Manohar,  
 E. Mansoor,  S. F. Manzer,  Shan-Ping Mao,  Yuezhi Mao,  N. Mardirossian,  
 A. V. Marenich,  T. Markovich,  L. A. Martinez-Martinez,  S. A. Maurer,  
 N. J. Mayhall,  S. C. McKenzie,  J.-M. Mewes,  P. Morgante,  A. F. Morrison,  
 J. W. Mullinax,  K. Nanda,  T. S. Nguyen-Beck,  R. Olivares-Amaya,  
 K. J. Oosterbaan,  J. A. Parkhill,  S. K. Paul,  F. Pavosevic,  Zheng Pei,  
 T. M. Perrine,  F. Plasser,  P. Pokhilko,  S. Prager,  A. Prociuk,  
 E. Ramos,  B. Rana,  D. R. Rehn,  F. Rob,  M. Scheurer,  M. Schneider,  
 N. Sergueev,  S. M. Sharada,  S. Sharma,  D. W. Small,  T. Stauch,  
 C. J. Stein,  T. Stein,  Yu-Chuan Su,  S. P. Veccham,  Zhen Tao,  
 A. J. W. Thom,  A. Tkatchenko,  T. Tsuchimochi,  N. M. Tubman,  L. Vogt,  
 M. L. Vidal,  O. Vydrov,  M. A. Watson,  J. Wenzel,  M. de Wergifosse,  
 T. A. Wesolowski,  A. White,  J. Witte,  A. Yamada,  Jun Yang,  K. Yao,  
 S. Yeganeh,  S. R. Yost,  Zhi-Qiang You,  A. Zech,  Igor Ying Zhang,  
 Xing Zhang,  Yan Zhao,  Ying Zhu,  B. R. Brooks,  G. K. L. Chan,  
 C. J. Cramer,  M. S. Gordon,  W. J. Hehre,  A. Klamt,  M. W. Schmidt,  
 C. D. Sherrill,  D. G. Truhlar,  A. Aspuru-Guzik,  R. Baer,  A. T. Bell,  
 N. A. Besley,  Jeng-Da Chai,  A. E. DePrince, III,  R. A. DiStasio Jr.,  
 A. Dreuw,  B. D. Dunietz,  T. R. Furlani,  Chao-Ping Hsu,  Yousung Jung,  
 Jing Kong,  D. S. Lambrecht,  WanZhen Liang,  C. Ochsenfeld,  
 V. A. Rassolov,  L. V. Slipchenko,  J. E. Subotnik,  T. Van Voorhis,  
 J. M. Herbert,  A. I. Krylov,  P. M. W. Gill,  M. Head-Gordon

 Contributors to earlier versions of Q-Chem not listed above: 
 R. D. Adamson,  B. Austin,  J. Baker,  G. J. O. Beran,  K. Brandhorst,  
 S. T. Brown,  E. F. C. Byrd,  A. K. Chakraborty,  C.-L. Cheng,  
 Siu Hung Chien,  D. M. Chipman,  D. L. Crittenden,  H. Dachsel,  
 R. J. Doerksen,  A. D. Dutoi,  L. Fusti-Molnar,  W. A. Goddard III,  
 A. Golubeva-Zadorozhnaya,  S. R. Gwaltney,  G. Hawkins,  A. Heyden,  
 S. Hirata,  G. Kedziora,  F. J. Keil,  C. Kelley,  Jihan Kim,  R. A. King,  
 R. Z. Khaliullin,  P. P. Korambath,  W. Kurlancheek,  A. M. Lee,  M. S. Lee,  
 S. V. Levchenko,  Ching Yeh Lin,  D. Liotard,  R. C. Lochan,  I. Lotan,  
 P. E. Maslen,  N. Nair,  D. P. O'Neill,  D. Neuhauser,  E. Neuscamman,  
 C. M. Oana,  R. Olson,  B. Peters,  R. Peverati,  P. A. Pieniazek,  
 Y. M. Rhee,  J. Ritchie,  M. A. Rohrdanz,  E. Rosta,  N. J. Russ,  
 H. F. Schaefer III,  N. E. Schultz,  N. Shenvi,  A. C. Simmonett,  A. Sodt,  
 D. Stuck,  K. S. Thanthiriwatte,  V. Vanovschi,  Tao Wang,  A. Warshel,  
 C. F. Williams,  Q. Wu,  X. Xu,  W. Zhang

 Please cite Q-Chem as follows:
 Y. Shao et al., Mol. Phys. 113, 184-215 (2015)
 DOI: 10.1080/00268976.2014.952696

 Q-Chem 5.3.0 for Intel X86 EM64T Linux

 Parts of Q-Chem use Armadillo 9.800.1 (Horizon Scraper).
 http://arma.sourceforge.net/

 Q-Chem begins on Mon Jul 27 16:00:23 2020  

Host: centos77-c7
0

     Scratch files written to /tmp/29924.centos77-h1/qchem127807//
Processing $rem in /opt/qchem-5.3.0-intel2020u1//config/preferences:
Processing $rem in /home/shihchengli/.qchemrc:

Checking the input file for inconsistencies... 	...done.

--------------------------------------------------------------
User input:
--------------------------------------------------------------
$rem
   JOBTYPE  sp
   EXCHANGE   omegaB97X-D
   BASIS   6-311+G(2df,2pd)
   UNRESTRICTED   False
   max_scf_cycles   250
   geom_opt_max_cycles   1500
   basis2 6-31G*
   scf_algorithm rca_diis
   SYM_IGNORE  TRUE
   print_input   true
   geom_opt_dmax   80
   pop_mulliken false
   XC_GRID 000075000302
$end

$molecule
0 1
C       -4.5310412919     0.5016768037     0.0004337494
C       -3.3865334950     1.1630680033     -0.0000151771
H       -5.3536893909     0.9309522790     -0.5541399212
H       -4.5696040383     -0.4260575055     0.5538895534
H       -3.1959627753     2.1020120445     -0.5074658770
H       -2.4778790086     0.8589783752     0.5072976725
$end
--------------------------------------------------------------
 ----------------------------------------------------------------
             Standard Nuclear Orientation (Angstroms)
    I     Atom           X                Y                Z
 ----------------------------------------------------------------
    1      C      -4.5310412919     0.5016768037     0.0004337494
    2      C      -3.3865334950     1.1630680033    -0.0000151771
    3      H      -5.3536893909     0.9309522790    -0.5541399212
    4      H      -4.5696040383    -0.4260575055     0.5538895534
    5      H      -3.1959627753     2.1020120445    -0.5074658770
    6      H      -2.4778790086     0.8589783752     0.5072976725
 ----------------------------------------------------------------
 Nuclear Repulsion Energy =          33.54277036 hartrees
 There are        8 alpha and        8 beta electrons
 Requested basis set is 6-311+G(2df,2pd)
 There are 40 shells and 124 basis functions

 Total QAlloc Memory Limit   2000 MB
 Mega-Array Size       188 MB
 MEM_STATIC part       192 MB

                       Distance Matrix (Angstroms)
             C (  1)   C (  2)   H (  3)   H (  4)   H (  5)
   C (  2)  1.321869
   H (  3)  1.081008  2.056851
   H (  4)  1.080968  2.057131  1.919374
   H (  5)  2.145104  1.084177  2.455472  3.066676
   H (  6)  2.144773  1.084200  3.066287  2.455362  1.757988
 
 A cutoff of  1.0D-09 yielded    814 shell pairs
 There are      7914 function pairs (      9843 Cartesian)
 Smallest overlap matrix eigenvalue = 1.18E-04

 Scale SEOQF with 1.000000e-02/1.000000e-01/1.000000e-01

 Standard Electronic Orientation quadrupole field applied
 Nucleus-field energy     =     0.0000000019 hartrees
 Requested basis set is 6-31G(d)
 There are 16 shells and 36 basis functions
 A cutoff of  1.0D-09 yielded    136 shell pairs
 There are       710 function pairs (       795 Cartesian)
 Smallest overlap matrix eigenvalue = 7.81E-03
 Guess from superposition of atomic densities
 Warning:  Energy on first SCF cycle will be non-variational
 SAD guess density has 16.000000 electrons
 Long-range K will be added via erf
 Coulomb attenuation parameter = 0.2 bohr**(-1)
 A restricted hybrid HF-DFT SCF calculation will be
 performed using Relaxed Constraint Minimization + Pulay DIIS
 Exchange:     0.2220 Hartree-Fock + 1.0000 wB97X-D + LR-HF
 Correlation:  1.0000 wB97X-D
 Using Euler-Maclaurin-Lebedev (75,302) quadrature formula
 Dispersion:   Grimme D
 SCF converges when DIIS error is below 1.0E-04
 using 6 threads for integral computing
 -------------------------------------------------------
 OpenMP Integral computing Module                
 Release: version 1.0, May 2013, Q-Chem Inc. Pittsburgh 
 -------------------------------------------------------
 using 6 threads for integral computing
 -------------------------------------------------------
 OpenMP Integral computing Module                
 Release: version 1.0, May 2013, Q-Chem Inc. Pittsburgh 
 -------------------------------------------------------
 ---------------------------------------
  Cycle       Energy         DIIS Error
 ---------------------------------------
    1     -78.8155593418      1.25E-01
    2     -78.5279755030      1.13E-02
    3     -78.5428803647      4.27E-03
    4     -78.5497781005      2.72E-03
    5     -78.5505725077      7.24E-04 Done RCA. Switching to DIIS
    6     -78.5510006367      4.91E-04
    7     -78.5510412116      2.16E-06 Convergence criterion met
 ---------------------------------------
 SCF time:  CPU 7.80 s  wall 1.31 s
 SCF   energy in the small basis set = -78.55104121
 Total energy in the small basis set = -78.55104121
 ----------------------------------------------------
  Cycle       Energy    
 ----------------------------------------------------
    1     -10.5575579047     -1.06E+01
 Long-range K will be added via erf
 Coulomb attenuation parameter = 0.2 bohr**(-1)
 A restricted hybrid HF-DFT SCF calculation will be
 performed using Relaxed Constraint Minimization + Pulay DIIS
 Exchange:     0.2220 Hartree-Fock + 1.0000 wB97X-D + LR-HF
 Correlation:  1.0000 wB97X-D
 Using Euler-Maclaurin-Lebedev (75,302) quadrature formula
 Dispersion:   Grimme D
 SCF converges when DIIS error is below 1.0E-05
 Basis2 calculation detected. Using small basis as guess for larger.
 SCFMinFind is unable to tell whether the solution found is close.
 Resetting ReadMinima to 0 and attempting to follow guess.
 SCFMinFind following SCF Guess.
 using 6 threads for integral computing
 -------------------------------------------------------
 OpenMP Integral computing Module                
 Release: version 1.0, May 2013, Q-Chem Inc. Pittsburgh 
 -------------------------------------------------------
 using 6 threads for integral computing
 -------------------------------------------------------
 OpenMP Integral computing Module                
 Release: version 1.0, May 2013, Q-Chem Inc. Pittsburgh 
 -------------------------------------------------------
 ---------------------------------------
  Cycle       Energy         DIIS Error
 ---------------------------------------
    1     -78.5688527845      5.91E-03
    2     -78.5817312852      9.52E-04 Done RCA. Switching to DIIS
    3     -78.5825182381      5.97E-04
    4     -78.5831776314      4.89E-05
    5     -78.5831833236      9.43E-06 Convergence criterion met
 ---------------------------------------
 SCF time:  CPU 12.64 s  wall 2.12 s
 SCF   energy in the final basis set = -78.58318332
 Total energy in the final basis set = -78.58318332
 
 --------------------------------------------------------------
 
                    Orbital Energies (a.u.)
 --------------------------------------------------------------
 
 Alpha MOs
 -- Occupied --
-10.2836 -10.2816  -0.8656  -0.6760  -0.5628  -0.5083  -0.4364  -0.3613
 -- Virtual --
  0.0641   0.0808   0.0884   0.1012   0.1243   0.1295   0.1445   0.1805
  0.2041   0.2069   0.2360   0.2696   0.3450   0.3863   0.4726   0.4739
  0.5659   0.5664   0.5804   0.5904   0.5976   0.6189   0.6435   0.6725
  0.7111   0.7238   0.7622   0.7957   0.8095   0.8975   0.9254   1.0488
  1.0610   1.0883   1.1172   1.1690   1.2435   1.2538   1.2753   1.4346
  1.4396   1.4448   1.4607   1.5127   1.5637   1.6058   1.6455   1.8000
  2.3540   2.5141   2.5470   2.6050   2.7005   2.7599   2.7631   2.7857
  2.8130   2.8561   2.9489   2.9685   2.9947   3.0297   3.0584   3.0655
  3.0729   3.0952   3.0974   3.2109   3.2500   3.2824   3.3339   3.3501
  3.3503   3.4121   3.4545   3.4852   3.5628   3.6117   3.6620   3.7038
  3.7385   3.7617   3.8438   3.8885   3.9225   3.9460   3.9519   4.0052
  4.0872   4.1180   4.1217   4.2176   4.2500   4.2996   4.3698   4.5943
  4.7115   4.7420   4.8860   4.9055   4.9266   4.9941   5.0617   5.1146
  5.1568   5.2569   5.3199   5.4189   5.5382   5.7043   6.1682   6.4581
  6.5401   6.5702  24.8654  25.4651
 --------------------------------------------------------------
 
 -----------------------------------------------------------------
                    Cartesian Multipole Moments
 -----------------------------------------------------------------
    Charge (ESU x 10^10)
                -0.0000
    Dipole Moment (Debye)
         X       0.0690      Y       0.0390      Z      -0.0010
       Tot       0.0793
    Quadrupole Moments (Debye-Ang)
        XX     -13.0477     XY       0.4391     YY     -13.0516
        XZ       0.7903     YZ      -1.3620     ZZ     -14.5394
    Octopole Moments (Debye-Ang^2)
       XXX     151.7005    XXY     -13.9943    XYY      52.6038
       YYY     -33.1851    XXZ      -6.4232    XYZ       6.1479
       YYZ      -2.0912    XZZ      57.2429    YZZ     -12.2837
       ZZZ      -0.0083
    Hexadecapole Moments (Debye-Ang^3)
      XXXX   -1247.8860   XXXY     132.9848   XXYY    -235.5394
      XYYY     124.3931   YYYY     -90.5561   XXXZ      40.2292
      XXYZ     -27.4134   XYYZ       7.7987   YYYZ      -2.1886
      XXZZ    -238.3201   XYZZ      45.2250   YYZZ     -19.7138
      XZZZ      -1.0227   YZZZ       1.8305   ZZZZ     -23.1294
 -----------------------------------------------------------------
Archival summary:
1\1\centos77-c7\SP\ProcedureUnspecified\BasisUnspecified\24\shihchen\MonJul2716:00:272020MonJul2716:00:272020\0\\#,ProcedureUnspecified,BasisUnspecified,\\0,1\C\H,1,1.08418\H,1,1.0842,2,108.336\C,1,1.32187,2,125.85,3,179.997,0\H,4,1.08097,1,117.418,2,179.959,0\H,4,1.08101,1,117.389,2,0.0529146,0\\\@

 Total job time:  4.33s(wall), 22.82s(cpu) 
 Mon Jul 27 16:00:27 2020

        *************************************************************
        *                                                           *
        *  Thank you very much for using Q-Chem.  Have a nice day.  *
        *                                                           *
        *************************************************************


