                  Welcome to Q-Chem
     A Quantum Leap Into The Future Of Chemistry


 Q-Chem 5.3 (devel), Q-Chem, Inc., Pleasanton, CA (2020)

 Yihan Shao,  Zhengting Gan,  E. Epifanovsky,  A. T. B. Gilbert,  M. Wormit,  
 J. Kussmann,  A. W. Lange,  A. Behn,  Jia Deng,  Xintian Feng,  D. Ghosh,  
 M. Goldey,  P. R. Horn,  L. D. Jacobson,  I. Kaliman,  T. Kus,  A. Landau,  
 Jie Liu,  E. I. Proynov,  R. M. Richard,  R. P. Steele,  E. J. Sundstrom,  
 H. L. Woodcock III,  P. M. Zimmerman,  D. Zuev,  B. Alam,  B. Albrecht,  
 E. Alguire,  S. A. Baeppler,  D. Barton,  Z. Benda,  Y. A. Bernard,  
 E. J. Berquist,  K. B. Bravaya,  H. Burton,  K. Carter-Fenk,  D. Casanova,  
 Chun-Min Chang,  Yunqing Chen,  A. Chien,  K. D. Closser,  M. P. Coons,  
 S. Coriani,  S. Dasgupta,  A. L. Dempwolff,  M. Diedenhofen,  Hainam Do,  
 R. G. Edgar,  Po-Tung Fang,  S. Faraji,  S. Fatehi,  Qingguo Feng,  
 J. Fosso-Tande,  J. Gayvert,  Qinghui Ge,  A. Ghysels,  G. Gidofalvi,  
 J. Gomes,  J. Gonthier,  A. Gunina,  D. Hait,  M. W. D. Hanson-Heine,  
 P. H. P. Harbach,  A. W. Hauser,  M. F. Herbst,  J. E. Herr,  
 E. G. Hohenstein,  Z. C. Holden,  Kerwin Hui,  B. C. Huynh,  T.-C. Jagau,  
 Hyunjun Ji,  B. Kaduk,  K. Khistyaev,  Jaehoon Kim,  P. Klunzinger,  K. Koh,  
 D. Kosenkov,  L. Koulias,  T. Kowalczyk,  C. M. Krauter,  A. Kunitsa,  
 Ka Un Lao,  A. Laurent,  K. V. Lawler,  Joonho Lee,  D. Lefrancois,  
 S. Lehtola,  D. S. Levine,  Yi-Pei Li,  You-Sheng Lin,  Fenglai Liu,  
 Kuan-Yu Liu,  E. Livshits,  M. Loipersberger,  A. Luenser,  P. Manohar,  
 E. Mansoor,  S. F. Manzer,  Shan-Ping Mao,  Yuezhi Mao,  N. Mardirossian,  
 A. V. Marenich,  T. Markovich,  L. A. Martinez-Martinez,  S. A. Maurer,  
 N. J. Mayhall,  S. C. McKenzie,  J.-M. Mewes,  P. Morgante,  A. F. Morrison,  
 J. W. Mullinax,  K. Nanda,  T. S. Nguyen-Beck,  R. Olivares-Amaya,  
 K. J. Oosterbaan,  J. A. Parkhill,  S. K. Paul,  F. Pavosevic,  Zheng Pei,  
 T. M. Perrine,  F. Plasser,  P. Pokhilko,  S. Prager,  A. Prociuk,  
 E. Ramos,  B. Rana,  D. R. Rehn,  F. Rob,  M. Scheurer,  M. Schneider,  
 N. Sergueev,  S. M. Sharada,  S. Sharma,  D. W. Small,  T. Stauch,  
 C. J. Stein,  T. Stein,  Yu-Chuan Su,  S. P. Veccham,  Zhen Tao,  
 A. J. W. Thom,  A. Tkatchenko,  T. Tsuchimochi,  N. M. Tubman,  L. Vogt,  
 M. L. Vidal,  O. Vydrov,  M. A. Watson,  J. Wenzel,  M. de Wergifosse,  
 T. A. Wesolowski,  A. White,  J. Witte,  A. Yamada,  Jun Yang,  K. Yao,  
 S. Yeganeh,  S. R. Yost,  Zhi-Qiang You,  A. Zech,  Igor Ying Zhang,  
 Xing Zhang,  Yan Zhao,  Ying Zhu,  B. R. Brooks,  G. K. L. Chan,  
 C. J. Cramer,  M. S. Gordon,  W. J. Hehre,  A. Klamt,  M. W. Schmidt,  
 C. D. Sherrill,  D. G. Truhlar,  A. Aspuru-Guzik,  R. Baer,  A. T. Bell,  
 N. A. Besley,  Jeng-Da Chai,  A. E. DePrince, III,  R. A. DiStasio Jr.,  
 A. Dreuw,  B. D. Dunietz,  T. R. Furlani,  Chao-Ping Hsu,  Yousung Jung,  
 Jing Kong,  D. S. Lambrecht,  WanZhen Liang,  C. Ochsenfeld,  
 V. A. Rassolov,  L. V. Slipchenko,  J. E. Subotnik,  T. Van Voorhis,  
 J. M. Herbert,  A. I. Krylov,  P. M. W. Gill,  M. Head-Gordon

 Contributors to earlier versions of Q-Chem not listed above: 
 R. D. Adamson,  B. Austin,  J. Baker,  G. J. O. Beran,  K. Brandhorst,  
 S. T. Brown,  E. F. C. Byrd,  A. K. Chakraborty,  C.-L. Cheng,  
 Siu Hung Chien,  D. M. Chipman,  D. L. Crittenden,  H. Dachsel,  
 R. J. Doerksen,  A. D. Dutoi,  L. Fusti-Molnar,  W. A. Goddard III,  
 A. Golubeva-Zadorozhnaya,  S. R. Gwaltney,  G. Hawkins,  A. Heyden,  
 S. Hirata,  G. Kedziora,  F. J. Keil,  C. Kelley,  Jihan Kim,  R. A. King,  
 R. Z. Khaliullin,  P. P. Korambath,  W. Kurlancheek,  A. M. Lee,  M. S. Lee,  
 S. V. Levchenko,  Ching Yeh Lin,  D. Liotard,  R. C. Lochan,  I. Lotan,  
 P. E. Maslen,  N. Nair,  D. P. O'Neill,  D. Neuhauser,  E. Neuscamman,  
 C. M. Oana,  R. Olson,  B. Peters,  R. Peverati,  P. A. Pieniazek,  
 Y. M. Rhee,  J. Ritchie,  M. A. Rohrdanz,  E. Rosta,  N. J. Russ,  
 H. F. Schaefer III,  N. E. Schultz,  N. Shenvi,  A. C. Simmonett,  A. Sodt,  
 D. Stuck,  K. S. Thanthiriwatte,  V. Vanovschi,  Tao Wang,  A. Warshel,  
 C. F. Williams,  Q. Wu,  X. Xu,  W. Zhang

 Please cite Q-Chem as follows:
 Y. Shao et al., Mol. Phys. 113, 184-215 (2015)
 DOI: 10.1080/00268976.2014.952696

 Q-Chem 5.3.0 for Intel X86 EM64T Linux

 Parts of Q-Chem use Armadillo 9.800.1 (Horizon Scraper).
 http://arma.sourceforge.net/

 Q-Chem begins on Mon Jul 27 15:59:25 2020  

Host: centos77-c7
0

     Scratch files written to /tmp/29924.centos77-h1/qchem127314//
Processing $rem in /opt/qchem-5.3.0-intel2020u1//config/preferences:
Processing $rem in /home/shihchengli/.qchemrc:

Checking the input file for inconsistencies... 	...done.

--------------------------------------------------------------
User input:
--------------------------------------------------------------
$rem
   JOBTYPE  sp
   EXCHANGE   omegaB97X-D
   BASIS   6-311+G(2df,2pd)
   UNRESTRICTED   False
   max_scf_cycles   250
   geom_opt_max_cycles   1500
   basis2 6-31G*
   scf_algorithm rca_diis
   SYM_IGNORE  TRUE
   print_input   true
   geom_opt_dmax   80
   pop_mulliken false
   XC_GRID 000075000302
$end

$molecule
0 1
C       -4.3868544236     0.4018599996     0.1124080555
C       -3.4513821114     1.3083498010     -0.1124083158
H       -5.1301161414     0.9326691306     -0.4759820804
H       -4.6987315076     -0.5246356378     0.5686419125
H       -3.1395049728     2.2348449094     -0.5686431017
H       -2.7081208432     0.7775417972     0.4759835300
$end
--------------------------------------------------------------
 ----------------------------------------------------------------
             Standard Nuclear Orientation (Angstroms)
    I     Atom           X                Y                Z
 ----------------------------------------------------------------
    1      C      -4.3868544236     0.4018599996     0.1124080555
    2      C      -3.4513821114     1.3083498010    -0.1124083158
    3      H      -5.1301161414     0.9326691306    -0.4759820804
    4      H      -4.6987315076    -0.5246356378     0.5686419125
    5      H      -3.1395049728     2.2348449094    -0.5686431017
    6      H      -2.7081208432     0.7775417972     0.4759835300
 ----------------------------------------------------------------
 Nuclear Repulsion Energy =          33.86976734 hartrees
 There are        8 alpha and        8 beta electrons
 Requested basis set is 6-311+G(2df,2pd)
 There are 40 shells and 124 basis functions

 Total QAlloc Memory Limit   2000 MB
 Mega-Array Size       188 MB
 MEM_STATIC part       192 MB

                       Distance Matrix (Angstroms)
             C (  1)   C (  2)   H (  3)   H (  4)   H (  5)
   C (  2)  1.321883
   H (  3)  1.086462  1.758258
   H (  4)  1.078801  2.319385  1.844199
   H (  5)  2.319385  1.078801  2.380500  3.367393
   H (  6)  1.758258  1.086462  2.606984  2.380500  1.844199
 
 A cutoff of  1.0D-09 yielded    812 shell pairs
 There are      7888 function pairs (      9809 Cartesian)
 Smallest overlap matrix eigenvalue = 1.33E-04

 Scale SEOQF with 1.000000e-01/1.000000e-01/1.000000e-01

 Standard Electronic Orientation quadrupole field applied
 Nucleus-field energy     =     0.0000000102 hartrees
 Requested basis set is 6-31G(d)
 There are 16 shells and 36 basis functions
 A cutoff of  1.0D-09 yielded    136 shell pairs
 There are       710 function pairs (       795 Cartesian)
 Smallest overlap matrix eigenvalue = 4.47E-03
 Guess from superposition of atomic densities
 Warning:  Energy on first SCF cycle will be non-variational
 SAD guess density has 16.000000 electrons
 Long-range K will be added via erf
 Coulomb attenuation parameter = 0.2 bohr**(-1)
 A restricted hybrid HF-DFT SCF calculation will be
 performed using Relaxed Constraint Minimization + Pulay DIIS
 Exchange:     0.2220 Hartree-Fock + 1.0000 wB97X-D + LR-HF
 Correlation:  1.0000 wB97X-D
 Using Euler-Maclaurin-Lebedev (75,302) quadrature formula
 Dispersion:   Grimme D
 SCF converges when DIIS error is below 1.0E-04
 using 6 threads for integral computing
 -------------------------------------------------------
 OpenMP Integral computing Module                
 Release: version 1.0, May 2013, Q-Chem Inc. Pittsburgh 
 -------------------------------------------------------
 using 6 threads for integral computing
 -------------------------------------------------------
 OpenMP Integral computing Module                
 Release: version 1.0, May 2013, Q-Chem Inc. Pittsburgh 
 -------------------------------------------------------
 ---------------------------------------
  Cycle       Energy         DIIS Error
 ---------------------------------------
    1     -78.8701376013      1.29E-01
    2     -78.4546929882      1.16E-02
    3     -78.4704709517      4.71E-03
    4     -78.4772459365      3.03E-03
    5     -78.4782287974      8.07E-04 Done RCA. Switching to DIIS
    6     -78.4787563330      5.29E-04
    7     -78.4788038889      1.05E-06 Convergence criterion met
 ---------------------------------------
 SCF time:  CPU 7.74 s  wall 1.30 s
 SCF   energy in the small basis set = -78.47880389
 Total energy in the small basis set = -78.47880389
 ----------------------------------------------------
  Cycle       Energy    
 ----------------------------------------------------
    1     -10.5571415027     -1.06E+01
 Long-range K will be added via erf
 Coulomb attenuation parameter = 0.2 bohr**(-1)
 A restricted hybrid HF-DFT SCF calculation will be
 performed using Relaxed Constraint Minimization + Pulay DIIS
 Exchange:     0.2220 Hartree-Fock + 1.0000 wB97X-D + LR-HF
 Correlation:  1.0000 wB97X-D
 Using Euler-Maclaurin-Lebedev (75,302) quadrature formula
 Dispersion:   Grimme D
 SCF converges when DIIS error is below 1.0E-05
 Basis2 calculation detected. Using small basis as guess for larger.
 SCFMinFind is unable to tell whether the solution found is close.
 Resetting ReadMinima to 0 and attempting to follow guess.
 SCFMinFind following SCF Guess.
 using 6 threads for integral computing
 -------------------------------------------------------
 OpenMP Integral computing Module                
 Release: version 1.0, May 2013, Q-Chem Inc. Pittsburgh 
 -------------------------------------------------------
 using 6 threads for integral computing
 -------------------------------------------------------
 OpenMP Integral computing Module                
 Release: version 1.0, May 2013, Q-Chem Inc. Pittsburgh 
 -------------------------------------------------------
 ---------------------------------------
  Cycle       Energy         DIIS Error
 ---------------------------------------
    1     -78.4980379079      5.91E-03
    2     -78.5111444193      1.02E-03
    3     -78.5121507957      2.63E-04 Done RCA. Switching to DIIS
    4     -78.5127499342      1.95E-04
    5     -78.5128189519      5.48E-06 Convergence criterion met
 ---------------------------------------
 SCF time:  CPU 14.04 s  wall 2.36 s
 SCF   energy in the final basis set = -78.51281895
 Total energy in the final basis set = -78.51281895
 
 --------------------------------------------------------------
 
                    Orbital Energies (a.u.)
 --------------------------------------------------------------
 
 Alpha MOs
 -- Occupied --
-10.2880 -10.2870  -0.8821  -0.6758  -0.5668  -0.5503  -0.3672  -0.3613
 -- Virtual --
  0.0626   0.0743   0.0817   0.0994   0.1234   0.1353   0.1378   0.1791
  0.1973   0.2086   0.2164   0.2827   0.2983   0.3719   0.4734   0.4816
  0.5125   0.5560   0.5854   0.5927   0.5933   0.6365   0.6658   0.6783
  0.7169   0.7186   0.7436   0.8006   0.8257   0.9128   0.9440   0.9841
  1.0388   1.0739   1.0862   1.1937   1.2282   1.3065   1.3237   1.3946
  1.3958   1.4309   1.4704   1.4724   1.5324   1.5659   1.6962   1.7536
  2.3808   2.5491   2.6100   2.6245   2.6315   2.7133   2.7519   2.7974
  2.8029   2.8102   2.9242   2.9312   2.9622   3.0170   3.0435   3.0951
  3.1677   3.1876   3.1963   3.2131   3.2639   3.2816   3.3306   3.3501
  3.3683   3.3856   3.3942   3.5267   3.5280   3.5571   3.5874   3.6288
  3.7057   3.7432   3.7801   3.8867   3.9206   3.9554   3.9990   4.0355
  4.0385   4.1124   4.1439   4.1733   4.2436   4.3842   4.4702   4.4843
  4.6233   4.7372   4.8199   4.8851   4.9776   5.0545   5.1213   5.1861
  5.3641   5.3671   5.3967   5.4289   5.7219   5.8972   6.0369   6.5454
  6.6690   6.7802  25.1430  25.4224
 --------------------------------------------------------------
 
 -----------------------------------------------------------------
                    Cartesian Multipole Moments
 -----------------------------------------------------------------
    Charge (ESU x 10^10)
                -0.0000
    Dipole Moment (Debye)
         X      -0.0000      Y       0.0000      Z       0.0000
       Tot       0.0000
    Quadrupole Moments (Debye-Ang)
        XX     -14.2370     XY       1.1927     YY     -11.7716
        XZ      -0.2374     YZ      -1.9360     ZZ     -14.5234
    Octopole Moments (Debye-Ang^2)
       XXX     167.3897    XXY     -21.5226    XYY      48.1741
       YYY     -30.1979    XXZ       1.8611    XYZ       7.3844
       YYZ      -3.3110    XZZ      56.9191    YZZ     -12.4191
       ZZZ       0.0000
    Hexadecapole Moments (Debye-Ang^3)
      XXXX   -1366.5496   XXXY     187.3600   XXYY    -220.7053
      XYYY     114.7191   YYYY     -89.6421   XXXZ     -10.6685
      XXYZ     -28.5476   XYYZ      11.2107   YYYZ      -3.3109
      XXZZ    -235.1159   XYZZ      45.4392   YYZZ     -20.9475
      XZZZ       0.7438   YZZZ       3.6143   ZZZZ     -23.7731
 -----------------------------------------------------------------
Archival summary:
1\1\centos77-c7\SP\ProcedureUnspecified\BasisUnspecified\24\shihchen\MonJul2715:59:302020MonJul2715:59:302020\0\\#,ProcedureUnspecified,BasisUnspecified,\\0,1\C\H,1,1.0788\H,1,1.08646,2,116.798\C,1,1.32188,2,149.935,3,179.858,0\H,4,1.0788,1,149.935,2,180,0\H,4,1.08646,1,93.2671,2,0.126557,0\\\@

 Total job time:  4.60s(wall), 24.28s(cpu) 
 Mon Jul 27 15:59:30 2020

        *************************************************************
        *                                                           *
        *  Thank you very much for using Q-Chem.  Have a nice day.  *
        *                                                           *
        *************************************************************


