                  Welcome to Q-Chem
     A Quantum Leap Into The Future Of Chemistry


 Q-Chem 5.3 (devel), Q-Chem, Inc., Pleasanton, CA (2020)

 Yihan Shao,  Zhengting Gan,  E. Epifanovsky,  A. T. B. Gilbert,  M. Wormit,  
 J. Kussmann,  A. W. Lange,  A. Behn,  Jia Deng,  Xintian Feng,  D. Ghosh,  
 M. Goldey,  P. R. Horn,  L. D. Jacobson,  I. Kaliman,  T. Kus,  A. Landau,  
 Jie Liu,  E. I. Proynov,  R. M. Richard,  R. P. Steele,  E. J. Sundstrom,  
 H. L. Woodcock III,  P. M. Zimmerman,  D. Zuev,  B. Alam,  B. Albrecht,  
 E. Alguire,  S. A. Baeppler,  D. Barton,  Z. Benda,  Y. A. Bernard,  
 E. J. Berquist,  K. B. Bravaya,  H. Burton,  K. Carter-Fenk,  D. Casanova,  
 Chun-Min Chang,  Yunqing Chen,  A. Chien,  K. D. Closser,  M. P. Coons,  
 S. Coriani,  S. Dasgupta,  A. L. Dempwolff,  M. Diedenhofen,  Hainam Do,  
 R. G. Edgar,  Po-Tung Fang,  S. Faraji,  S. Fatehi,  Qingguo Feng,  
 J. Fosso-Tande,  J. Gayvert,  Qinghui Ge,  A. Ghysels,  G. Gidofalvi,  
 J. Gomes,  J. Gonthier,  A. Gunina,  D. Hait,  M. W. D. Hanson-Heine,  
 P. H. P. Harbach,  A. W. Hauser,  M. F. Herbst,  J. E. Herr,  
 E. G. Hohenstein,  Z. C. Holden,  Kerwin Hui,  B. C. Huynh,  T.-C. Jagau,  
 Hyunjun Ji,  B. Kaduk,  K. Khistyaev,  Jaehoon Kim,  P. Klunzinger,  K. Koh,  
 D. Kosenkov,  L. Koulias,  T. Kowalczyk,  C. M. Krauter,  A. Kunitsa,  
 Ka Un Lao,  A. Laurent,  K. V. Lawler,  Joonho Lee,  D. Lefrancois,  
 S. Lehtola,  D. S. Levine,  Yi-Pei Li,  You-Sheng Lin,  Fenglai Liu,  
 Kuan-Yu Liu,  E. Livshits,  M. Loipersberger,  A. Luenser,  P. Manohar,  
 E. Mansoor,  S. F. Manzer,  Shan-Ping Mao,  Yuezhi Mao,  N. Mardirossian,  
 A. V. Marenich,  T. Markovich,  L. A. Martinez-Martinez,  S. A. Maurer,  
 N. J. Mayhall,  S. C. McKenzie,  J.-M. Mewes,  P. Morgante,  A. F. Morrison,  
 J. W. Mullinax,  K. Nanda,  T. S. Nguyen-Beck,  R. Olivares-Amaya,  
 K. J. Oosterbaan,  J. A. Parkhill,  S. K. Paul,  F. Pavosevic,  Zheng Pei,  
 T. M. Perrine,  F. Plasser,  P. Pokhilko,  S. Prager,  A. Prociuk,  
 E. Ramos,  B. Rana,  D. R. Rehn,  F. Rob,  M. Scheurer,  M. Schneider,  
 N. Sergueev,  S. M. Sharada,  S. Sharma,  D. W. Small,  T. Stauch,  
 C. J. Stein,  T. Stein,  Yu-Chuan Su,  S. P. Veccham,  Zhen Tao,  
 A. J. W. Thom,  A. Tkatchenko,  T. Tsuchimochi,  N. M. Tubman,  L. Vogt,  
 M. L. Vidal,  O. Vydrov,  M. A. Watson,  J. Wenzel,  M. de Wergifosse,  
 T. A. Wesolowski,  A. White,  J. Witte,  A. Yamada,  Jun Yang,  K. Yao,  
 S. Yeganeh,  S. R. Yost,  Zhi-Qiang You,  A. Zech,  Igor Ying Zhang,  
 Xing Zhang,  Yan Zhao,  Ying Zhu,  B. R. Brooks,  G. K. L. Chan,  
 C. J. Cramer,  M. S. Gordon,  W. J. Hehre,  A. Klamt,  M. W. Schmidt,  
 C. D. Sherrill,  D. G. Truhlar,  A. Aspuru-Guzik,  R. Baer,  A. T. Bell,  
 N. A. Besley,  Jeng-Da Chai,  A. E. DePrince, III,  R. A. DiStasio Jr.,  
 A. Dreuw,  B. D. Dunietz,  T. R. Furlani,  Chao-Ping Hsu,  Yousung Jung,  
 Jing Kong,  D. S. Lambrecht,  WanZhen Liang,  C. Ochsenfeld,  
 V. A. Rassolov,  L. V. Slipchenko,  J. E. Subotnik,  T. Van Voorhis,  
 J. M. Herbert,  A. I. Krylov,  P. M. W. Gill,  M. Head-Gordon

 Contributors to earlier versions of Q-Chem not listed above: 
 R. D. Adamson,  B. Austin,  J. Baker,  G. J. O. Beran,  K. Brandhorst,  
 S. T. Brown,  E. F. C. Byrd,  A. K. Chakraborty,  C.-L. Cheng,  
 Siu Hung Chien,  D. M. Chipman,  D. L. Crittenden,  H. Dachsel,  
 R. J. Doerksen,  A. D. Dutoi,  L. Fusti-Molnar,  W. A. Goddard III,  
 A. Golubeva-Zadorozhnaya,  S. R. Gwaltney,  G. Hawkins,  A. Heyden,  
 S. Hirata,  G. Kedziora,  F. J. Keil,  C. Kelley,  Jihan Kim,  R. A. King,  
 R. Z. Khaliullin,  P. P. Korambath,  W. Kurlancheek,  A. M. Lee,  M. S. Lee,  
 S. V. Levchenko,  Ching Yeh Lin,  D. Liotard,  R. C. Lochan,  I. Lotan,  
 P. E. Maslen,  N. Nair,  D. P. O'Neill,  D. Neuhauser,  E. Neuscamman,  
 C. M. Oana,  R. Olson,  B. Peters,  R. Peverati,  P. A. Pieniazek,  
 Y. M. Rhee,  J. Ritchie,  M. A. Rohrdanz,  E. Rosta,  N. J. Russ,  
 H. F. Schaefer III,  N. E. Schultz,  N. Shenvi,  A. C. Simmonett,  A. Sodt,  
 D. Stuck,  K. S. Thanthiriwatte,  V. Vanovschi,  Tao Wang,  A. Warshel,  
 C. F. Williams,  Q. Wu,  X. Xu,  W. Zhang

 Please cite Q-Chem as follows:
 Y. Shao et al., Mol. Phys. 113, 184-215 (2015)
 DOI: 10.1080/00268976.2014.952696

 Q-Chem 5.3.0 for Intel X86 EM64T Linux

 Parts of Q-Chem use Armadillo 9.800.1 (Horizon Scraper).
 http://arma.sourceforge.net/

 Q-Chem begins on Mon Jul 27 15:56:53 2020  

Host: centos77-c7
0

     Scratch files written to /tmp/29924.centos77-h1/qchem125911//
Processing $rem in /opt/qchem-5.3.0-intel2020u1//config/preferences:
Processing $rem in /home/shihchengli/.qchemrc:

Checking the input file for inconsistencies... 	...done.

--------------------------------------------------------------
User input:
--------------------------------------------------------------
$rem
   JOBTYPE  sp
   EXCHANGE   omegaB97X-D
   BASIS   6-311+G(2df,2pd)
   UNRESTRICTED   False
   max_scf_cycles   250
   geom_opt_max_cycles   1500
   basis2 6-31G*
   scf_algorithm rca_diis
   SYM_IGNORE  TRUE
   print_input   true
   geom_opt_dmax   80
   pop_mulliken false
   XC_GRID 000075000302
$end

$molecule
0 1
C       -4.5824989896     0.6854685691     0.2578937367
C       -3.4359350523     1.3432829197     0.2607888262
H       -5.1669383192     0.8350933307     -0.6409506245
H       -4.4731485557     -0.3840403916     0.3854920537
H       -3.2860599153     1.9499959430     -0.6231083086
H       -2.5701291680     0.7008296292     0.3598843165
$end
--------------------------------------------------------------
 ----------------------------------------------------------------
             Standard Nuclear Orientation (Angstroms)
    I     Atom           X                Y                Z
 ----------------------------------------------------------------
    1      C      -4.5824989896     0.6854685691     0.2578937367
    2      C      -3.4359350523     1.3432829197     0.2607888262
    3      H      -5.1669383192     0.8350933307    -0.6409506245
    4      H      -4.4731485557    -0.3840403916     0.3854920537
    5      H      -3.2860599153     1.9499959430    -0.6231083086
    6      H      -2.5701291680     0.7008296292     0.3598843165
 ----------------------------------------------------------------
 Nuclear Repulsion Energy =          33.91168813 hartrees
 There are        8 alpha and        8 beta electrons
 Requested basis set is 6-311+G(2df,2pd)
 There are 40 shells and 124 basis functions

 Total QAlloc Memory Limit   2000 MB
 Mega-Array Size       188 MB
 MEM_STATIC part       192 MB

                       Distance Matrix (Angstroms)
             C (  1)   C (  2)   H (  3)   H (  4)   H (  5)
   C (  2)  1.321869
   H (  3)  1.082533  2.016870
   H (  4)  1.082630  2.018665  1.738165
   H (  5)  2.013939  1.082514  2.186557  2.806097
   H (  6)  2.015011  1.082675  2.786237  2.190681  1.743344
 
 A cutoff of  1.0D-09 yielded    820 shell pairs
 There are      7944 function pairs (      9873 Cartesian)
 Smallest overlap matrix eigenvalue = 1.03E-04

 Scale SEOQF with 1.000000e-01/1.000000e-01/1.000000e-01

 Standard Electronic Orientation quadrupole field applied
 Nucleus-field energy     =     0.0000000105 hartrees
 Requested basis set is 6-31G(d)
 There are 16 shells and 36 basis functions
 A cutoff of  1.0D-09 yielded    136 shell pairs
 There are       710 function pairs (       795 Cartesian)
 Smallest overlap matrix eigenvalue = 6.41E-03
 Guess from superposition of atomic densities
 Warning:  Energy on first SCF cycle will be non-variational
 SAD guess density has 16.000000 electrons
 Long-range K will be added via erf
 Coulomb attenuation parameter = 0.2 bohr**(-1)
 A restricted hybrid HF-DFT SCF calculation will be
 performed using Relaxed Constraint Minimization + Pulay DIIS
 Exchange:     0.2220 Hartree-Fock + 1.0000 wB97X-D + LR-HF
 Correlation:  1.0000 wB97X-D
 Using Euler-Maclaurin-Lebedev (75,302) quadrature formula
 Dispersion:   Grimme D
 SCF converges when DIIS error is below 1.0E-04
 using 6 threads for integral computing
 -------------------------------------------------------
 OpenMP Integral computing Module                
 Release: version 1.0, May 2013, Q-Chem Inc. Pittsburgh 
 -------------------------------------------------------
 using 6 threads for integral computing
 -------------------------------------------------------
 OpenMP Integral computing Module                
 Release: version 1.0, May 2013, Q-Chem Inc. Pittsburgh 
 -------------------------------------------------------
 ---------------------------------------
  Cycle       Energy         DIIS Error
 ---------------------------------------
    1     -78.8563780206      1.29E-01
    2     -78.4704371113      1.16E-02
    3     -78.4854910940      4.21E-03
    4     -78.4926726922      2.74E-03
    5     -78.4934723495      6.91E-04 Done RCA. Switching to DIIS
    6     -78.4939204268      4.62E-04
    7     -78.4939569424      5.14E-06 Convergence criterion met
 ---------------------------------------
 SCF time:  CPU 7.79 s  wall 1.31 s
 SCF   energy in the small basis set = -78.49395694
 Total energy in the small basis set = -78.49395694
 ----------------------------------------------------
  Cycle       Energy    
 ----------------------------------------------------
    1     -10.5601333532     -1.06E+01
 Long-range K will be added via erf
 Coulomb attenuation parameter = 0.2 bohr**(-1)
 A restricted hybrid HF-DFT SCF calculation will be
 performed using Relaxed Constraint Minimization + Pulay DIIS
 Exchange:     0.2220 Hartree-Fock + 1.0000 wB97X-D + LR-HF
 Correlation:  1.0000 wB97X-D
 Using Euler-Maclaurin-Lebedev (75,302) quadrature formula
 Dispersion:   Grimme D
 SCF converges when DIIS error is below 1.0E-05
 Basis2 calculation detected. Using small basis as guess for larger.
 SCFMinFind is unable to tell whether the solution found is close.
 Resetting ReadMinima to 0 and attempting to follow guess.
 SCFMinFind following SCF Guess.
 using 6 threads for integral computing
 -------------------------------------------------------
 OpenMP Integral computing Module                
 Release: version 1.0, May 2013, Q-Chem Inc. Pittsburgh 
 -------------------------------------------------------
 using 6 threads for integral computing
 -------------------------------------------------------
 OpenMP Integral computing Module                
 Release: version 1.0, May 2013, Q-Chem Inc. Pittsburgh 
 -------------------------------------------------------
 ---------------------------------------
  Cycle       Energy         DIIS Error
 ---------------------------------------
    1     -78.5130633532      5.90E-03
    2     -78.5257105140      9.76E-04 Done RCA. Switching to DIIS
    3     -78.5265338323      6.10E-04
    4     -78.5272167629      5.55E-05
    5     -78.5272237609      9.81E-06 Convergence criterion met
 ---------------------------------------
 SCF time:  CPU 12.91 s  wall 2.17 s
 SCF   energy in the final basis set = -78.52722376
 Total energy in the final basis set = -78.52722376
 
 --------------------------------------------------------------
 
                    Orbital Energies (a.u.)
 --------------------------------------------------------------
 
 Alpha MOs
 -- Occupied --
-10.2866 -10.2856  -0.8829  -0.6702  -0.5593  -0.5126  -0.4164  -0.3641
 -- Virtual --
  0.0209   0.0759   0.0902   0.1040   0.1205   0.1402   0.1434   0.1580
  0.1893   0.2072   0.2288   0.3107   0.3149   0.3912   0.4758   0.4801
  0.4887   0.5418   0.5526   0.5936   0.6102   0.6153   0.6516   0.6586
  0.6636   0.6749   0.6921   0.8144   0.9124   0.9642   0.9658   1.0569
  1.0576   1.0854   1.1085   1.1221   1.2593   1.2698   1.3522   1.3636
  1.3947   1.4096   1.4626   1.4878   1.5381   1.5544   1.6190   1.6218
  2.2907   2.3303   2.4982   2.6009   2.6529   2.7221   2.7711   2.8185
  2.8273   2.8950   2.9103   2.9711   2.9813   3.0130   3.0751   3.0945
  3.1248   3.1272   3.1385   3.2202   3.2572   3.3240   3.3457   3.3507
  3.3547   3.4020   3.4715   3.4831   3.5041   3.5455   3.5584   3.6206
  3.6969   3.7223   3.8631   3.8675   3.8751   3.9970   4.0049   4.0268
  4.1460   4.1601   4.1695   4.2008   4.2536   4.4308   4.5916   4.6275
  4.7555   4.7587   4.7982   4.8501   4.9608   4.9735   5.1013   5.1071
  5.1131   5.1831   5.3211   5.3746   5.4308   5.5553   5.7832   6.2721
  6.2781   6.4747  24.8164  25.5417
 --------------------------------------------------------------
 
 -----------------------------------------------------------------
                    Cartesian Multipole Moments
 -----------------------------------------------------------------
    Charge (ESU x 10^10)
                -0.0000
    Dipole Moment (Debye)
         X       0.3622      Y      -0.6424      Z      -1.0424
       Tot       1.2769
    Quadrupole Moments (Debye-Ang)
        XX     -16.7392     XY       2.7226     YY     -14.8270
        XZ       4.5892     YZ      -1.8003     ZZ     -14.4139
    Octopole Moments (Debye-Ang^2)
       XXX     184.4363    XXY     -25.6728    XYY      59.0452
       YYY     -43.3398    XXZ     -23.9634    XYZ       6.9706
       YYZ      -5.6971    XZZ      57.3093    YZZ     -13.8949
       ZZZ      -9.8451
    Hexadecapole Moments (Debye-Ang^3)
      XXXX   -1494.2322   XXXY     208.9207   XXYY    -265.5529
      XYYY     163.5283   YYYY    -121.7912   XXXZ     133.5145
      XXYZ     -30.5194   XYYZ      21.4785   YYYZ     -11.7335
      XXZZ    -241.8047   XYZZ      52.3231   YYZZ     -23.9025
      XZZZ      38.5100   YZZZ      -8.3227   ZZZZ     -27.4866
 -----------------------------------------------------------------
Archival summary:
1\1\centos77-c7\SP\ProcedureUnspecified\BasisUnspecified\24\shihchen\MonJul2715:56:572020MonJul2715:56:572020\0\\#,ProcedureUnspecified,BasisUnspecified,\\0,1\C\H,1,1.08253\H,1,1.08263,2,106.794\C,1,1.32187,2,113.661,3,126.347,0\H,4,1.08251,1,113.404,2,1.94117,0\H,4,1.08268,1,113.487,2,-120.774,0\\\@

 Total job time:  4.42s(wall), 23.17s(cpu) 
 Mon Jul 27 15:56:57 2020

        *************************************************************
        *                                                           *
        *  Thank you very much for using Q-Chem.  Have a nice day.  *
        *                                                           *
        *************************************************************


