                  Welcome to Q-Chem
     A Quantum Leap Into The Future Of Chemistry


 Q-Chem 5.3 (devel), Q-Chem, Inc., Pleasanton, CA (2020)

 Yihan Shao,  Zhengting Gan,  E. Epifanovsky,  A. T. B. Gilbert,  M. Wormit,  
 J. Kussmann,  A. W. Lange,  A. Behn,  Jia Deng,  Xintian Feng,  D. Ghosh,  
 M. Goldey,  P. R. Horn,  L. D. Jacobson,  I. Kaliman,  T. Kus,  A. Landau,  
 Jie Liu,  E. I. Proynov,  R. M. Richard,  R. P. Steele,  E. J. Sundstrom,  
 H. L. Woodcock III,  P. M. Zimmerman,  D. Zuev,  B. Alam,  B. Albrecht,  
 E. Alguire,  S. A. Baeppler,  D. Barton,  Z. Benda,  Y. A. Bernard,  
 E. J. Berquist,  K. B. Bravaya,  H. Burton,  K. Carter-Fenk,  D. Casanova,  
 Chun-Min Chang,  Yunqing Chen,  A. Chien,  K. D. Closser,  M. P. Coons,  
 S. Coriani,  S. Dasgupta,  A. L. Dempwolff,  M. Diedenhofen,  Hainam Do,  
 R. G. Edgar,  Po-Tung Fang,  S. Faraji,  S. Fatehi,  Qingguo Feng,  
 J. Fosso-Tande,  J. Gayvert,  Qinghui Ge,  A. Ghysels,  G. Gidofalvi,  
 J. Gomes,  J. Gonthier,  A. Gunina,  D. Hait,  M. W. D. Hanson-Heine,  
 P. H. P. Harbach,  A. W. Hauser,  M. F. Herbst,  J. E. Herr,  
 E. G. Hohenstein,  Z. C. Holden,  Kerwin Hui,  B. C. Huynh,  T.-C. Jagau,  
 Hyunjun Ji,  B. Kaduk,  K. Khistyaev,  Jaehoon Kim,  P. Klunzinger,  K. Koh,  
 D. Kosenkov,  L. Koulias,  T. Kowalczyk,  C. M. Krauter,  A. Kunitsa,  
 Ka Un Lao,  A. Laurent,  K. V. Lawler,  Joonho Lee,  D. Lefrancois,  
 S. Lehtola,  D. S. Levine,  Yi-Pei Li,  You-Sheng Lin,  Fenglai Liu,  
 Kuan-Yu Liu,  E. Livshits,  M. Loipersberger,  A. Luenser,  P. Manohar,  
 E. Mansoor,  S. F. Manzer,  Shan-Ping Mao,  Yuezhi Mao,  N. Mardirossian,  
 A. V. Marenich,  T. Markovich,  L. A. Martinez-Martinez,  S. A. Maurer,  
 N. J. Mayhall,  S. C. McKenzie,  J.-M. Mewes,  P. Morgante,  A. F. Morrison,  
 J. W. Mullinax,  K. Nanda,  T. S. Nguyen-Beck,  R. Olivares-Amaya,  
 K. J. Oosterbaan,  J. A. Parkhill,  S. K. Paul,  F. Pavosevic,  Zheng Pei,  
 T. M. Perrine,  F. Plasser,  P. Pokhilko,  S. Prager,  A. Prociuk,  
 E. Ramos,  B. Rana,  D. R. Rehn,  F. Rob,  M. Scheurer,  M. Schneider,  
 N. Sergueev,  S. M. Sharada,  S. Sharma,  D. W. Small,  T. Stauch,  
 C. J. Stein,  T. Stein,  Yu-Chuan Su,  S. P. Veccham,  Zhen Tao,  
 A. J. W. Thom,  A. Tkatchenko,  T. Tsuchimochi,  N. M. Tubman,  L. Vogt,  
 M. L. Vidal,  O. Vydrov,  M. A. Watson,  J. Wenzel,  M. de Wergifosse,  
 T. A. Wesolowski,  A. White,  J. Witte,  A. Yamada,  Jun Yang,  K. Yao,  
 S. Yeganeh,  S. R. Yost,  Zhi-Qiang You,  A. Zech,  Igor Ying Zhang,  
 Xing Zhang,  Yan Zhao,  Ying Zhu,  B. R. Brooks,  G. K. L. Chan,  
 C. J. Cramer,  M. S. Gordon,  W. J. Hehre,  A. Klamt,  M. W. Schmidt,  
 C. D. Sherrill,  D. G. Truhlar,  A. Aspuru-Guzik,  R. Baer,  A. T. Bell,  
 N. A. Besley,  Jeng-Da Chai,  A. E. DePrince, III,  R. A. DiStasio Jr.,  
 A. Dreuw,  B. D. Dunietz,  T. R. Furlani,  Chao-Ping Hsu,  Yousung Jung,  
 Jing Kong,  D. S. Lambrecht,  WanZhen Liang,  C. Ochsenfeld,  
 V. A. Rassolov,  L. V. Slipchenko,  J. E. Subotnik,  T. Van Voorhis,  
 J. M. Herbert,  A. I. Krylov,  P. M. W. Gill,  M. Head-Gordon

 Contributors to earlier versions of Q-Chem not listed above: 
 R. D. Adamson,  B. Austin,  J. Baker,  G. J. O. Beran,  K. Brandhorst,  
 S. T. Brown,  E. F. C. Byrd,  A. K. Chakraborty,  C.-L. Cheng,  
 Siu Hung Chien,  D. M. Chipman,  D. L. Crittenden,  H. Dachsel,  
 R. J. Doerksen,  A. D. Dutoi,  L. Fusti-Molnar,  W. A. Goddard III,  
 A. Golubeva-Zadorozhnaya,  S. R. Gwaltney,  G. Hawkins,  A. Heyden,  
 S. Hirata,  G. Kedziora,  F. J. Keil,  C. Kelley,  Jihan Kim,  R. A. King,  
 R. Z. Khaliullin,  P. P. Korambath,  W. Kurlancheek,  A. M. Lee,  M. S. Lee,  
 S. V. Levchenko,  Ching Yeh Lin,  D. Liotard,  R. C. Lochan,  I. Lotan,  
 P. E. Maslen,  N. Nair,  D. P. O'Neill,  D. Neuhauser,  E. Neuscamman,  
 C. M. Oana,  R. Olson,  B. Peters,  R. Peverati,  P. A. Pieniazek,  
 Y. M. Rhee,  J. Ritchie,  M. A. Rohrdanz,  E. Rosta,  N. J. Russ,  
 H. F. Schaefer III,  N. E. Schultz,  N. Shenvi,  A. C. Simmonett,  A. Sodt,  
 D. Stuck,  K. S. Thanthiriwatte,  V. Vanovschi,  Tao Wang,  A. Warshel,  
 C. F. Williams,  Q. Wu,  X. Xu,  W. Zhang

 Please cite Q-Chem as follows:
 Y. Shao et al., Mol. Phys. 113, 184-215 (2015)
 DOI: 10.1080/00268976.2014.952696

 Q-Chem 5.3.0 for Intel X86 EM64T Linux

 Parts of Q-Chem use Armadillo 9.800.1 (Horizon Scraper).
 http://arma.sourceforge.net/

 Q-Chem begins on Mon Jul 27 15:58:29 2020  

Host: centos77-c7
0

     Scratch files written to /tmp/29924.centos77-h1/qchem126795//
Processing $rem in /opt/qchem-5.3.0-intel2020u1//config/preferences:
Processing $rem in /home/shihchengli/.qchemrc:

Checking the input file for inconsistencies... 	...done.

--------------------------------------------------------------
User input:
--------------------------------------------------------------
$rem
   JOBTYPE  sp
   EXCHANGE   omegaB97X-D
   BASIS   6-311+G(2df,2pd)
   UNRESTRICTED   False
   max_scf_cycles   250
   geom_opt_max_cycles   1500
   basis2 6-31G*
   scf_algorithm rca_diis
   SYM_IGNORE  TRUE
   print_input   true
   geom_opt_dmax   80
   pop_mulliken false
   XC_GRID 000075000302
$end

$molecule
0 1
C       -4.4937256515     0.5284137630     0.0069308593
C       -3.3502268671     1.1915420000     0.0040520910
H       -5.4358143892     1.0132985069     -0.2156729554
H       -4.5280768394     -0.5348318407     0.2077708611
H       -3.1013183037     1.8988848895     -0.7767348875
H       -2.6055479492     1.0333226813     0.7736540315
$end
--------------------------------------------------------------
 ----------------------------------------------------------------
             Standard Nuclear Orientation (Angstroms)
    I     Atom           X                Y                Z
 ----------------------------------------------------------------
    1      C      -4.4937256515     0.5284137630     0.0069308593
    2      C      -3.3502268671     1.1915420000     0.0040520910
    3      H      -5.4358143892     1.0132985069    -0.2156729554
    4      H      -4.5280768394    -0.5348318407     0.2077708611
    5      H      -3.1013183037     1.8988848895    -0.7767348875
    6      H      -2.6055479492     1.0333226813     0.7736540315
 ----------------------------------------------------------------
 Nuclear Repulsion Energy =          33.52586591 hartrees
 There are        8 alpha and        8 beta electrons
 Requested basis set is 6-311+G(2df,2pd)
 There are 40 shells and 124 basis functions

 Total QAlloc Memory Limit   2000 MB
 Mega-Array Size       188 MB
 MEM_STATIC part       192 MB

                       Distance Matrix (Angstroms)
             C (  1)   C (  2)   H (  3)   H (  4)   H (  5)
   C (  2)  1.321869
   H (  3)  1.082680  2.104691
   H (  4)  1.082593  2.099809  1.843909
   H (  5)  2.105023  1.082551  2.559087  2.987954
   H (  6)  2.099527  1.082528  2.998262  2.544690  1.843554
 
 A cutoff of  1.0D-09 yielded    818 shell pairs
 There are      7926 function pairs (      9855 Cartesian)
 Smallest overlap matrix eigenvalue = 1.26E-04

 Scale SEOQF with 1.000000e-02/1.000000e-01/1.000000e-01

 Standard Electronic Orientation quadrupole field applied
 Nucleus-field energy     =     0.0000000019 hartrees
 Requested basis set is 6-31G(d)
 There are 16 shells and 36 basis functions
 A cutoff of  1.0D-09 yielded    136 shell pairs
 There are       710 function pairs (       795 Cartesian)
 Smallest overlap matrix eigenvalue = 7.87E-03
 Guess from superposition of atomic densities
 Warning:  Energy on first SCF cycle will be non-variational
 SAD guess density has 16.000000 electrons
 Long-range K will be added via erf
 Coulomb attenuation parameter = 0.2 bohr**(-1)
 A restricted hybrid HF-DFT SCF calculation will be
 performed using Relaxed Constraint Minimization + Pulay DIIS
 Exchange:     0.2220 Hartree-Fock + 1.0000 wB97X-D + LR-HF
 Correlation:  1.0000 wB97X-D
 Using Euler-Maclaurin-Lebedev (75,302) quadrature formula
 Dispersion:   Grimme D
 SCF converges when DIIS error is below 1.0E-04
 using 6 threads for integral computing
 -------------------------------------------------------
 OpenMP Integral computing Module                
 Release: version 1.0, May 2013, Q-Chem Inc. Pittsburgh 
 -------------------------------------------------------
 using 6 threads for integral computing
 -------------------------------------------------------
 OpenMP Integral computing Module                
 Release: version 1.0, May 2013, Q-Chem Inc. Pittsburgh 
 -------------------------------------------------------
 ---------------------------------------
  Cycle       Energy         DIIS Error
 ---------------------------------------
    1     -78.8123436755      1.25E-01
    2     -78.4915683612      1.13E-02
    3     -78.5064163207      4.24E-03
    4     -78.5134116930      2.70E-03
    5     -78.5141987027      7.20E-04 Done RCA. Switching to DIIS
    6     -78.5146248219      4.72E-04
    7     -78.5146629080      1.49E-06 Convergence criterion met
 ---------------------------------------
 SCF time:  CPU 7.76 s  wall 1.31 s
 SCF   energy in the small basis set = -78.51466291
 Total energy in the small basis set = -78.51466291
 ----------------------------------------------------
  Cycle       Energy    
 ----------------------------------------------------
    1     -10.5551497790     -1.06E+01
 Long-range K will be added via erf
 Coulomb attenuation parameter = 0.2 bohr**(-1)
 A restricted hybrid HF-DFT SCF calculation will be
 performed using Relaxed Constraint Minimization + Pulay DIIS
 Exchange:     0.2220 Hartree-Fock + 1.0000 wB97X-D + LR-HF
 Correlation:  1.0000 wB97X-D
 Using Euler-Maclaurin-Lebedev (75,302) quadrature formula
 Dispersion:   Grimme D
 SCF converges when DIIS error is below 1.0E-05
 Basis2 calculation detected. Using small basis as guess for larger.
 SCFMinFind is unable to tell whether the solution found is close.
 Resetting ReadMinima to 0 and attempting to follow guess.
 SCFMinFind following SCF Guess.
 using 6 threads for integral computing
 -------------------------------------------------------
 OpenMP Integral computing Module                
 Release: version 1.0, May 2013, Q-Chem Inc. Pittsburgh 
 -------------------------------------------------------
 using 6 threads for integral computing
 -------------------------------------------------------
 OpenMP Integral computing Module                
 Release: version 1.0, May 2013, Q-Chem Inc. Pittsburgh 
 -------------------------------------------------------
 ---------------------------------------
  Cycle       Energy         DIIS Error
 ---------------------------------------
    1     -78.5328957455      5.92E-03
    2     -78.5460296208      9.95E-04 Done RCA. Switching to DIIS
    3     -78.5468845923      6.35E-04
    4     -78.5476347379      4.96E-05
    5     -78.5476413321      5.79E-06 Convergence criterion met
 ---------------------------------------
 SCF time:  CPU 12.60 s  wall 2.12 s
 SCF   energy in the final basis set = -78.54764133
 Total energy in the final basis set = -78.54764133
 
 --------------------------------------------------------------
 
                    Orbital Energies (a.u.)
 --------------------------------------------------------------
 
 Alpha MOs
 -- Occupied --
-10.2846 -10.2836  -0.8675  -0.6763  -0.5536  -0.5110  -0.4740  -0.3200
 -- Virtual --
  0.0347   0.0800   0.0881   0.1030   0.1156   0.1393   0.1451   0.1685
  0.2051   0.2285   0.2289   0.2572   0.3294   0.3808   0.4694   0.4892
  0.5667   0.5821   0.5883   0.5916   0.6071   0.6121   0.6332   0.6590
  0.6597   0.6645   0.6914   0.7918   0.9223   0.9371   0.9765   1.0063
  1.0200   1.0621   1.1395   1.1908   1.2133   1.3027   1.3352   1.3476
  1.4273   1.4671   1.4691   1.4730   1.5583   1.5813   1.6120   1.6150
  2.4164   2.4994   2.5491   2.6412   2.6854   2.7232   2.7521   2.7934
  2.8510   2.8800   2.9220   2.9500   2.9712   3.0209   3.0677   3.0857
  3.0875   3.1121   3.1212   3.2641   3.2666   3.2819   3.2894   3.3215
  3.3354   3.4083   3.4120   3.4723   3.5544   3.5816   3.6416   3.6975
  3.7227   3.7413   3.7754   3.8715   3.8846   3.9377   3.9838   4.0769
  4.1033   4.1399   4.1709   4.2039   4.2532   4.2569   4.4131   4.5322
  4.7620   4.8114   4.8259   4.8567   4.8829   5.0148   5.0868   5.1263
  5.1312   5.2093   5.3510   5.4318   5.5718   5.7488   6.2776   6.2968
  6.3035   6.3636  24.8797  25.4395
 --------------------------------------------------------------
 
 -----------------------------------------------------------------
                    Cartesian Multipole Moments
 -----------------------------------------------------------------
    Charge (ESU x 10^10)
                -0.0000
    Dipole Moment (Debye)
         X       0.0118      Y      -0.0201      Z      -0.0313
       Tot       0.0391
    Quadrupole Moments (Debye-Ang)
        XX     -12.8600     XY       0.6122     YY     -13.4413
        XZ       0.5895     YZ      -0.8204     ZZ     -14.3522
    Octopole Moments (Debye-Ang^2)
       XXX     149.5614    XXY     -14.3167    XYY      53.2274
       YYY     -36.6994    XXZ      -3.6849    XYZ       3.2684
       YYZ      -2.0317    XZZ      57.8802    YZZ     -11.4109
       ZZZ      -0.2292
    Hexadecapole Moments (Debye-Ang^3)
      XXXX   -1219.2565   XXXY     130.1783   XXYY    -234.1490
      XYYY     135.2173   YYYY    -101.7711   XXXZ      18.0438
      XXYZ     -12.3303   XYYZ       7.0755   YYYZ      -2.4677
      XXZZ    -246.3621   XYZZ      43.2615   YYZZ     -18.8830
      XZZZ       0.2114   YZZZ       1.0241   ZZZZ     -23.2391
 -----------------------------------------------------------------
Archival summary:
1\1\centos77-c7\SP\ProcedureUnspecified\BasisUnspecified\24\shihchen\MonJul2715:58:342020MonJul2715:58:342020\0\\#,ProcedureUnspecified,BasisUnspecified,\\0,1\C\H,1,1.08253\H,1,1.08255,2,116.749\C,1,1.32187,2,121.347,3,178.558,0\H,4,1.08259,1,121.369,2,-44.0161,0\H,4,1.08268,1,121.844,2,137.599,0\\\@

 Total job time:  4.32s(wall), 22.78s(cpu) 
 Mon Jul 27 15:58:34 2020

        *************************************************************
        *                                                           *
        *  Thank you very much for using Q-Chem.  Have a nice day.  *
        *                                                           *
        *************************************************************


