                  Welcome to Q-Chem
     A Quantum Leap Into The Future Of Chemistry


 Q-Chem 5.3 (devel), Q-Chem, Inc., Pleasanton, CA (2020)

 Yihan Shao,  Zhengting Gan,  E. Epifanovsky,  A. T. B. Gilbert,  M. Wormit,  
 J. Kussmann,  A. W. Lange,  A. Behn,  Jia Deng,  Xintian Feng,  D. Ghosh,  
 M. Goldey,  P. R. Horn,  L. D. Jacobson,  I. Kaliman,  T. Kus,  A. Landau,  
 Jie Liu,  E. I. Proynov,  R. M. Richard,  R. P. Steele,  E. J. Sundstrom,  
 H. L. Woodcock III,  P. M. Zimmerman,  D. Zuev,  B. Alam,  B. Albrecht,  
 E. Alguire,  S. A. Baeppler,  D. Barton,  Z. Benda,  Y. A. Bernard,  
 E. J. Berquist,  K. B. Bravaya,  H. Burton,  K. Carter-Fenk,  D. Casanova,  
 Chun-Min Chang,  Yunqing Chen,  A. Chien,  K. D. Closser,  M. P. Coons,  
 S. Coriani,  S. Dasgupta,  A. L. Dempwolff,  M. Diedenhofen,  Hainam Do,  
 R. G. Edgar,  Po-Tung Fang,  S. Faraji,  S. Fatehi,  Qingguo Feng,  
 J. Fosso-Tande,  J. Gayvert,  Qinghui Ge,  A. Ghysels,  G. Gidofalvi,  
 J. Gomes,  J. Gonthier,  A. Gunina,  D. Hait,  M. W. D. Hanson-Heine,  
 P. H. P. Harbach,  A. W. Hauser,  M. F. Herbst,  J. E. Herr,  
 E. G. Hohenstein,  Z. C. Holden,  Kerwin Hui,  B. C. Huynh,  T.-C. Jagau,  
 Hyunjun Ji,  B. Kaduk,  K. Khistyaev,  Jaehoon Kim,  P. Klunzinger,  K. Koh,  
 D. Kosenkov,  L. Koulias,  T. Kowalczyk,  C. M. Krauter,  A. Kunitsa,  
 Ka Un Lao,  A. Laurent,  K. V. Lawler,  Joonho Lee,  D. Lefrancois,  
 S. Lehtola,  D. S. Levine,  Yi-Pei Li,  You-Sheng Lin,  Fenglai Liu,  
 Kuan-Yu Liu,  E. Livshits,  M. Loipersberger,  A. Luenser,  P. Manohar,  
 E. Mansoor,  S. F. Manzer,  Shan-Ping Mao,  Yuezhi Mao,  N. Mardirossian,  
 A. V. Marenich,  T. Markovich,  L. A. Martinez-Martinez,  S. A. Maurer,  
 N. J. Mayhall,  S. C. McKenzie,  J.-M. Mewes,  P. Morgante,  A. F. Morrison,  
 J. W. Mullinax,  K. Nanda,  T. S. Nguyen-Beck,  R. Olivares-Amaya,  
 K. J. Oosterbaan,  J. A. Parkhill,  S. K. Paul,  F. Pavosevic,  Zheng Pei,  
 T. M. Perrine,  F. Plasser,  P. Pokhilko,  S. Prager,  A. Prociuk,  
 E. Ramos,  B. Rana,  D. R. Rehn,  F. Rob,  M. Scheurer,  M. Schneider,  
 N. Sergueev,  S. M. Sharada,  S. Sharma,  D. W. Small,  T. Stauch,  
 C. J. Stein,  T. Stein,  Yu-Chuan Su,  S. P. Veccham,  Zhen Tao,  
 A. J. W. Thom,  A. Tkatchenko,  T. Tsuchimochi,  N. M. Tubman,  L. Vogt,  
 M. L. Vidal,  O. Vydrov,  M. A. Watson,  J. Wenzel,  M. de Wergifosse,  
 T. A. Wesolowski,  A. White,  J. Witte,  A. Yamada,  Jun Yang,  K. Yao,  
 S. Yeganeh,  S. R. Yost,  Zhi-Qiang You,  A. Zech,  Igor Ying Zhang,  
 Xing Zhang,  Yan Zhao,  Ying Zhu,  B. R. Brooks,  G. K. L. Chan,  
 C. J. Cramer,  M. S. Gordon,  W. J. Hehre,  A. Klamt,  M. W. Schmidt,  
 C. D. Sherrill,  D. G. Truhlar,  A. Aspuru-Guzik,  R. Baer,  A. T. Bell,  
 N. A. Besley,  Jeng-Da Chai,  A. E. DePrince, III,  R. A. DiStasio Jr.,  
 A. Dreuw,  B. D. Dunietz,  T. R. Furlani,  Chao-Ping Hsu,  Yousung Jung,  
 Jing Kong,  D. S. Lambrecht,  WanZhen Liang,  C. Ochsenfeld,  
 V. A. Rassolov,  L. V. Slipchenko,  J. E. Subotnik,  T. Van Voorhis,  
 J. M. Herbert,  A. I. Krylov,  P. M. W. Gill,  M. Head-Gordon

 Contributors to earlier versions of Q-Chem not listed above: 
 R. D. Adamson,  B. Austin,  J. Baker,  G. J. O. Beran,  K. Brandhorst,  
 S. T. Brown,  E. F. C. Byrd,  A. K. Chakraborty,  C.-L. Cheng,  
 Siu Hung Chien,  D. M. Chipman,  D. L. Crittenden,  H. Dachsel,  
 R. J. Doerksen,  A. D. Dutoi,  L. Fusti-Molnar,  W. A. Goddard III,  
 A. Golubeva-Zadorozhnaya,  S. R. Gwaltney,  G. Hawkins,  A. Heyden,  
 S. Hirata,  G. Kedziora,  F. J. Keil,  C. Kelley,  Jihan Kim,  R. A. King,  
 R. Z. Khaliullin,  P. P. Korambath,  W. Kurlancheek,  A. M. Lee,  M. S. Lee,  
 S. V. Levchenko,  Ching Yeh Lin,  D. Liotard,  R. C. Lochan,  I. Lotan,  
 P. E. Maslen,  N. Nair,  D. P. O'Neill,  D. Neuhauser,  E. Neuscamman,  
 C. M. Oana,  R. Olson,  B. Peters,  R. Peverati,  P. A. Pieniazek,  
 Y. M. Rhee,  J. Ritchie,  M. A. Rohrdanz,  E. Rosta,  N. J. Russ,  
 H. F. Schaefer III,  N. E. Schultz,  N. Shenvi,  A. C. Simmonett,  A. Sodt,  
 D. Stuck,  K. S. Thanthiriwatte,  V. Vanovschi,  Tao Wang,  A. Warshel,  
 C. F. Williams,  Q. Wu,  X. Xu,  W. Zhang

 Please cite Q-Chem as follows:
 Y. Shao et al., Mol. Phys. 113, 184-215 (2015)
 DOI: 10.1080/00268976.2014.952696

 Q-Chem 5.3.0 for Intel X86 EM64T Linux

 Parts of Q-Chem use Armadillo 9.800.1 (Horizon Scraper).
 http://arma.sourceforge.net/

 Q-Chem begins on Mon Jul 27 16:02:07 2020  

Host: centos77-c7
0

     Scratch files written to /tmp/29924.centos77-h1/qchem128760//
Processing $rem in /opt/qchem-5.3.0-intel2020u1//config/preferences:
Processing $rem in /home/shihchengli/.qchemrc:

Checking the input file for inconsistencies... 	...done.

--------------------------------------------------------------
User input:
--------------------------------------------------------------
$rem
   JOBTYPE  sp
   EXCHANGE   omegaB97X-D
   BASIS   6-311+G(2df,2pd)
   UNRESTRICTED   False
   max_scf_cycles   250
   geom_opt_max_cycles   1500
   basis2 6-31G*
   scf_algorithm rca_diis
   SYM_IGNORE  TRUE
   print_input   true
   geom_opt_dmax   80
   pop_mulliken false
   XC_GRID 000075000302
$end

$molecule
0 1
C       -4.5429568758     0.4943087704     0.0003419259
C       -3.3984512908     1.1557034576     -0.0000970299
H       -5.2810295915     0.8140136252     -0.4565979332
H       -4.6345125521     -0.3041606196     0.4564374476
H       -3.2582758533     2.2290384269     -0.6071404022
H       -2.3994838365     0.7417263396     0.6070559918
$end
--------------------------------------------------------------
 ----------------------------------------------------------------
             Standard Nuclear Orientation (Angstroms)
    I     Atom           X                Y                Z
 ----------------------------------------------------------------
    1      C      -4.5429568758     0.4943087704     0.0003419259
    2      C      -3.3984512908     1.1557034576    -0.0000970299
    3      H      -5.2810295915     0.8140136252    -0.4565979332
    4      H      -4.6345125521    -0.3041606196     0.4564374476
    5      H      -3.2582758533     2.2290384269    -0.6071404022
    6      H      -2.3994838365     0.7417263396     0.6070559918
 ----------------------------------------------------------------
 Nuclear Repulsion Energy =          33.81722997 hartrees
 There are        8 alpha and        8 beta electrons
 Requested basis set is 6-311+G(2df,2pd)
 There are 40 shells and 124 basis functions

 Total QAlloc Memory Limit   2000 MB
 Mega-Array Size       188 MB
 MEM_STATIC part       192 MB

                       Distance Matrix (Angstroms)
             C (  1)   C (  2)   H (  3)   H (  4)   H (  5)
   C (  2)  1.321868
   H (  3)  0.925071  1.967040
   H (  4)  0.924099  1.966590  1.581750
   H (  5)  2.242482  1.241047  2.473154  3.072836
   H (  6)  2.241382  1.240140  3.072441  2.472230  2.103305
 
 A cutoff of  1.0D-09 yielded    814 shell pairs
 There are      7914 function pairs (      9843 Cartesian)
 Smallest overlap matrix eigenvalue = 1.21E-04

 Scale SEOQF with 1.000000e-02/1.000000e-01/1.000000e-01

 Standard Electronic Orientation quadrupole field applied
 Nucleus-field energy     =     0.0000000019 hartrees
 Requested basis set is 6-31G(d)
 There are 16 shells and 36 basis functions
 A cutoff of  1.0D-09 yielded    136 shell pairs
 There are       710 function pairs (       795 Cartesian)
 Smallest overlap matrix eigenvalue = 7.76E-03
 Guess from superposition of atomic densities
 Warning:  Energy on first SCF cycle will be non-variational
 SAD guess density has 16.000000 electrons
 Long-range K will be added via erf
 Coulomb attenuation parameter = 0.2 bohr**(-1)
 A restricted hybrid HF-DFT SCF calculation will be
 performed using Relaxed Constraint Minimization + Pulay DIIS
 Exchange:     0.2220 Hartree-Fock + 1.0000 wB97X-D + LR-HF
 Correlation:  1.0000 wB97X-D
 Using Euler-Maclaurin-Lebedev (75,302) quadrature formula
 Dispersion:   Grimme D
 SCF converges when DIIS error is below 1.0E-04
 using 6 threads for integral computing
 -------------------------------------------------------
 OpenMP Integral computing Module                
 Release: version 1.0, May 2013, Q-Chem Inc. Pittsburgh 
 -------------------------------------------------------
 using 6 threads for integral computing
 -------------------------------------------------------
 OpenMP Integral computing Module                
 Release: version 1.0, May 2013, Q-Chem Inc. Pittsburgh 
 -------------------------------------------------------
 ---------------------------------------
  Cycle       Energy         DIIS Error
 ---------------------------------------
    1     -78.8070028843      1.32E-01
    2     -78.4451341634      1.47E-02
    3     -78.4666214371      3.97E-03
    4     -78.4814351385      3.49E-03
    5     -78.4823915620      3.05E-04 Done RCA. Switching to DIIS
    6     -78.4834458972      1.86E-04
    7     -78.4834522821      9.51E-06 Convergence criterion met
 ---------------------------------------
 SCF time:  CPU 7.78 s  wall 1.31 s
 SCF   energy in the small basis set = -78.48345228
 Total energy in the small basis set = -78.48345228
 ----------------------------------------------------
  Cycle       Energy    
 ----------------------------------------------------
    1     -10.5827028086     -1.06E+01
 Long-range K will be added via erf
 Coulomb attenuation parameter = 0.2 bohr**(-1)
 A restricted hybrid HF-DFT SCF calculation will be
 performed using Relaxed Constraint Minimization + Pulay DIIS
 Exchange:     0.2220 Hartree-Fock + 1.0000 wB97X-D + LR-HF
 Correlation:  1.0000 wB97X-D
 Using Euler-Maclaurin-Lebedev (75,302) quadrature formula
 Dispersion:   Grimme D
 SCF converges when DIIS error is below 1.0E-05
 Basis2 calculation detected. Using small basis as guess for larger.
 SCFMinFind is unable to tell whether the solution found is close.
 Resetting ReadMinima to 0 and attempting to follow guess.
 SCFMinFind following SCF Guess.
 using 6 threads for integral computing
 -------------------------------------------------------
 OpenMP Integral computing Module                
 Release: version 1.0, May 2013, Q-Chem Inc. Pittsburgh 
 -------------------------------------------------------
 using 6 threads for integral computing
 -------------------------------------------------------
 OpenMP Integral computing Module                
 Release: version 1.0, May 2013, Q-Chem Inc. Pittsburgh 
 -------------------------------------------------------
 ---------------------------------------
  Cycle       Energy         DIIS Error
 ---------------------------------------
    1     -78.5041671384      5.90E-03
    2     -78.5168688916      9.32E-04 Done RCA. Switching to DIIS
    3     -78.5176234049      5.83E-04
    4     -78.5182556800      4.91E-05
    5     -78.5182613050      1.24E-05
    6     -78.5182615732      7.68E-06 Convergence criterion met
 ---------------------------------------
 SCF time:  CPU 14.76 s  wall 2.48 s
 SCF   energy in the final basis set = -78.51826157
 Total energy in the final basis set = -78.51826157
 
 --------------------------------------------------------------
 
                    Orbital Energies (a.u.)
 --------------------------------------------------------------
 
 Alpha MOs
 -- Occupied --
-10.3127 -10.2496  -0.8743  -0.6799  -0.5770  -0.5051  -0.4313  -0.3625
 -- Virtual --
  0.0636   0.0796   0.0864   0.1014   0.1240   0.1278   0.1438   0.1796
  0.1798   0.2116   0.2239   0.2840   0.3457   0.3903   0.4720   0.4794
  0.5282   0.5660   0.5686   0.5740   0.5948   0.6611   0.6683   0.6890
  0.7148   0.7442   0.7662   0.8063   0.8084   0.9005   0.9215   1.0384
  1.0758   1.0819   1.1485   1.1767   1.2344   1.2402   1.2672   1.3858
  1.3870   1.4584   1.4652   1.5288   1.5658   1.5993   1.7347   1.7841
  2.3491   2.5400   2.6017   2.6052   2.7398   2.7431   2.7693   2.7775
  2.8274   2.8458   2.8835   2.9339   2.9429   3.0137   3.0441   3.0507
  3.1077   3.1361   3.1561   3.1825   3.2655   3.2695   3.2914   3.3642
  3.3731   3.3972   3.4059   3.4439   3.4613   3.6169   3.6393   3.6597
  3.7025   3.7736   3.8656   3.9080   3.9118   3.9772   4.0269   4.0479
  4.0537   4.1111   4.1425   4.2041   4.2736   4.2942   4.3733   4.5369
  4.5471   4.6467   4.7385   4.7738   4.8492   4.8586   4.9691   5.3204
  5.4410   5.4906   5.6232   5.6755   5.7553   5.9974   6.0349   6.5578
  6.5642   6.9446  24.5904  25.5415
 --------------------------------------------------------------
 
 -----------------------------------------------------------------
                    Cartesian Multipole Moments
 -----------------------------------------------------------------
    Charge (ESU x 10^10)
                 0.0000
    Dipole Moment (Debye)
         X      -0.1559      Y      -0.0904      Z       0.0003
       Tot       0.1802
    Quadrupole Moments (Debye-Ang)
        XX     -11.2308     XY       0.7649     YY     -13.2317
        XZ       0.7846     YZ      -1.3599     ZZ     -14.5034
    Octopole Moments (Debye-Ang^2)
       XXX     138.9014    XXY     -15.7554    XYY      52.5646
       YYY     -33.4872    XXZ      -5.7785    XYZ       5.7842
       YYZ      -2.7040    XZZ      56.8470    YZZ     -12.3968
       ZZZ      -0.0003
    Hexadecapole Moments (Debye-Ang^3)
      XXXX   -1160.3826   XXXY     144.9768   XXYY    -234.6250
      XYYY     124.1633   YYYY     -91.2932   XXXZ      32.8792
      XXYZ     -24.0440   XYYZ       9.5003   YYYZ      -3.7063
      XXZZ    -235.7518   XYZZ      45.5092   YYZZ     -19.9840
      XZZZ      -1.1533   YZZZ       2.0102   ZZZZ     -23.3868
 -----------------------------------------------------------------
Archival summary:
1\1\centos77-c7\SP\ProcedureUnspecified\BasisUnspecified\24\shihchen\MonJul2716:02:122020MonJul2716:02:122020\0\\#,ProcedureUnspecified,BasisUnspecified,\\0,1\C\H,1,0.924099\H,1,0.925071,2,117.604\C,1,1.32187,2,121.216,3,-179.957,0\H,4,1.24014,1,122.023,2,-0.052373,0\H,4,1.24105,1,122.052,2,-179.999,0\\\@

 Total job time:  4.70s(wall), 24.91s(cpu) 
 Mon Jul 27 16:02:12 2020

        *************************************************************
        *                                                           *
        *  Thank you very much for using Q-Chem.  Have a nice day.  *
        *                                                           *
        *************************************************************


