                  Welcome to Q-Chem
     A Quantum Leap Into The Future Of Chemistry


 Q-Chem 5.3 (devel), Q-Chem, Inc., Pleasanton, CA (2020)

 Yihan Shao,  Zhengting Gan,  E. Epifanovsky,  A. T. B. Gilbert,  M. Wormit,  
 J. Kussmann,  A. W. Lange,  A. Behn,  Jia Deng,  Xintian Feng,  D. Ghosh,  
 M. Goldey,  P. R. Horn,  L. D. Jacobson,  I. Kaliman,  T. Kus,  A. Landau,  
 Jie Liu,  E. I. Proynov,  R. M. Richard,  R. P. Steele,  E. J. Sundstrom,  
 H. L. Woodcock III,  P. M. Zimmerman,  D. Zuev,  B. Alam,  B. Albrecht,  
 E. Alguire,  S. A. Baeppler,  D. Barton,  Z. Benda,  Y. A. Bernard,  
 E. J. Berquist,  K. B. Bravaya,  H. Burton,  K. Carter-Fenk,  D. Casanova,  
 Chun-Min Chang,  Yunqing Chen,  A. Chien,  K. D. Closser,  M. P. Coons,  
 S. Coriani,  S. Dasgupta,  A. L. Dempwolff,  M. Diedenhofen,  Hainam Do,  
 R. G. Edgar,  Po-Tung Fang,  S. Faraji,  S. Fatehi,  Qingguo Feng,  
 J. Fosso-Tande,  J. Gayvert,  Qinghui Ge,  A. Ghysels,  G. Gidofalvi,  
 J. Gomes,  J. Gonthier,  A. Gunina,  D. Hait,  M. W. D. Hanson-Heine,  
 P. H. P. Harbach,  A. W. Hauser,  M. F. Herbst,  J. E. Herr,  
 E. G. Hohenstein,  Z. C. Holden,  Kerwin Hui,  B. C. Huynh,  T.-C. Jagau,  
 Hyunjun Ji,  B. Kaduk,  K. Khistyaev,  Jaehoon Kim,  P. Klunzinger,  K. Koh,  
 D. Kosenkov,  L. Koulias,  T. Kowalczyk,  C. M. Krauter,  A. Kunitsa,  
 Ka Un Lao,  A. Laurent,  K. V. Lawler,  Joonho Lee,  D. Lefrancois,  
 S. Lehtola,  D. S. Levine,  Yi-Pei Li,  You-Sheng Lin,  Fenglai Liu,  
 Kuan-Yu Liu,  E. Livshits,  M. Loipersberger,  A. Luenser,  P. Manohar,  
 E. Mansoor,  S. F. Manzer,  Shan-Ping Mao,  Yuezhi Mao,  N. Mardirossian,  
 A. V. Marenich,  T. Markovich,  L. A. Martinez-Martinez,  S. A. Maurer,  
 N. J. Mayhall,  S. C. McKenzie,  J.-M. Mewes,  P. Morgante,  A. F. Morrison,  
 J. W. Mullinax,  K. Nanda,  T. S. Nguyen-Beck,  R. Olivares-Amaya,  
 K. J. Oosterbaan,  J. A. Parkhill,  S. K. Paul,  F. Pavosevic,  Zheng Pei,  
 T. M. Perrine,  F. Plasser,  P. Pokhilko,  S. Prager,  A. Prociuk,  
 E. Ramos,  B. Rana,  D. R. Rehn,  F. Rob,  M. Scheurer,  M. Schneider,  
 N. Sergueev,  S. M. Sharada,  S. Sharma,  D. W. Small,  T. Stauch,  
 C. J. Stein,  T. Stein,  Yu-Chuan Su,  S. P. Veccham,  Zhen Tao,  
 A. J. W. Thom,  A. Tkatchenko,  T. Tsuchimochi,  N. M. Tubman,  L. Vogt,  
 M. L. Vidal,  O. Vydrov,  M. A. Watson,  J. Wenzel,  M. de Wergifosse,  
 T. A. Wesolowski,  A. White,  J. Witte,  A. Yamada,  Jun Yang,  K. Yao,  
 S. Yeganeh,  S. R. Yost,  Zhi-Qiang You,  A. Zech,  Igor Ying Zhang,  
 Xing Zhang,  Yan Zhao,  Ying Zhu,  B. R. Brooks,  G. K. L. Chan,  
 C. J. Cramer,  M. S. Gordon,  W. J. Hehre,  A. Klamt,  M. W. Schmidt,  
 C. D. Sherrill,  D. G. Truhlar,  A. Aspuru-Guzik,  R. Baer,  A. T. Bell,  
 N. A. Besley,  Jeng-Da Chai,  A. E. DePrince, III,  R. A. DiStasio Jr.,  
 A. Dreuw,  B. D. Dunietz,  T. R. Furlani,  Chao-Ping Hsu,  Yousung Jung,  
 Jing Kong,  D. S. Lambrecht,  WanZhen Liang,  C. Ochsenfeld,  
 V. A. Rassolov,  L. V. Slipchenko,  J. E. Subotnik,  T. Van Voorhis,  
 J. M. Herbert,  A. I. Krylov,  P. M. W. Gill,  M. Head-Gordon

 Contributors to earlier versions of Q-Chem not listed above: 
 R. D. Adamson,  B. Austin,  J. Baker,  G. J. O. Beran,  K. Brandhorst,  
 S. T. Brown,  E. F. C. Byrd,  A. K. Chakraborty,  C.-L. Cheng,  
 Siu Hung Chien,  D. M. Chipman,  D. L. Crittenden,  H. Dachsel,  
 R. J. Doerksen,  A. D. Dutoi,  L. Fusti-Molnar,  W. A. Goddard III,  
 A. Golubeva-Zadorozhnaya,  S. R. Gwaltney,  G. Hawkins,  A. Heyden,  
 S. Hirata,  G. Kedziora,  F. J. Keil,  C. Kelley,  Jihan Kim,  R. A. King,  
 R. Z. Khaliullin,  P. P. Korambath,  W. Kurlancheek,  A. M. Lee,  M. S. Lee,  
 S. V. Levchenko,  Ching Yeh Lin,  D. Liotard,  R. C. Lochan,  I. Lotan,  
 P. E. Maslen,  N. Nair,  D. P. O'Neill,  D. Neuhauser,  E. Neuscamman,  
 C. M. Oana,  R. Olson,  B. Peters,  R. Peverati,  P. A. Pieniazek,  
 Y. M. Rhee,  J. Ritchie,  M. A. Rohrdanz,  E. Rosta,  N. J. Russ,  
 H. F. Schaefer III,  N. E. Schultz,  N. Shenvi,  A. C. Simmonett,  A. Sodt,  
 D. Stuck,  K. S. Thanthiriwatte,  V. Vanovschi,  Tao Wang,  A. Warshel,  
 C. F. Williams,  Q. Wu,  X. Xu,  W. Zhang

 Please cite Q-Chem as follows:
 Y. Shao et al., Mol. Phys. 113, 184-215 (2015)
 DOI: 10.1080/00268976.2014.952696

 Q-Chem 5.3.0 for Intel X86 EM64T Linux

 Parts of Q-Chem use Armadillo 9.800.1 (Horizon Scraper).
 http://arma.sourceforge.net/

 Q-Chem begins on Mon Jul 27 15:55:58 2020  

Host: centos77-c7
0

     Scratch files written to /tmp/29924.centos77-h1/qchem125439//
Processing $rem in /opt/qchem-5.3.0-intel2020u1//config/preferences:
Processing $rem in /home/shihchengli/.qchemrc:

Checking the input file for inconsistencies... 	...done.

--------------------------------------------------------------
User input:
--------------------------------------------------------------
$rem
   JOBTYPE  sp
   EXCHANGE   omegaB97X-D
   BASIS   6-311+G(2df,2pd)
   UNRESTRICTED   False
   max_scf_cycles   250
   geom_opt_max_cycles   1500
   basis2 6-31G*
   scf_algorithm rca_diis
   SYM_IGNORE  TRUE
   print_input   true
   geom_opt_dmax   80
   pop_mulliken false
   XC_GRID 000075000302
$end

$molecule
0 1
C       -4.5488622482     0.6241272141     -0.0813117724
C       -3.4046952693     1.2861078838     -0.0807592620
H       -5.5596769446     0.6458971080     -0.4586499920
H       -4.2773426189     -0.2241513009     0.5399833093
H       -2.9216308217     2.1774181130     -0.4507001946
H       -2.8025020972     0.6212309820     0.5314379117
$end
--------------------------------------------------------------
 ----------------------------------------------------------------
             Standard Nuclear Orientation (Angstroms)
    I     Atom           X                Y                Z
 ----------------------------------------------------------------
    1      C      -4.5488622482     0.6241272141    -0.0813117724
    2      C      -3.4046952693     1.2861078838    -0.0807592620
    3      H      -5.5596769446     0.6458971080    -0.4586499920
    4      H      -4.2773426189    -0.2241513009     0.5399833093
    5      H      -2.9216308217     2.1774181130    -0.4507001946
    6      H      -2.8025020972     0.6212309820     0.5314379117
 ----------------------------------------------------------------
 Nuclear Repulsion Energy =          33.77859165 hartrees
 There are        8 alpha and        8 beta electrons
 Requested basis set is 6-311+G(2df,2pd)
 There are 40 shells and 124 basis functions

 Total QAlloc Memory Limit   2000 MB
 Mega-Array Size       188 MB
 MEM_STATIC part       192 MB

                       Distance Matrix (Angstroms)
             C (  1)   C (  2)   H (  3)   H (  4)   H (  5)
   C (  2)  1.321869
   H (  3)  1.079168  2.279609
   H (  4)  1.085959  1.851410  1.843538
   H (  5)  2.279702  1.079186  3.050395  2.930349
   H (  6)  1.850742  1.086040  2.929658  1.699970  1.844046
 
 A cutoff of  1.0D-09 yielded    815 shell pairs
 There are      7911 function pairs (      9840 Cartesian)
 Smallest overlap matrix eigenvalue = 1.20E-04

 Scale SEOQF with 1.000000e-02/1.000000e-01/1.000000e-01

 Standard Electronic Orientation quadrupole field applied
 Nucleus-field energy     =     0.0000000021 hartrees
 Requested basis set is 6-31G(d)
 There are 16 shells and 36 basis functions
 A cutoff of  1.0D-09 yielded    136 shell pairs
 There are       710 function pairs (       795 Cartesian)
 Smallest overlap matrix eigenvalue = 3.78E-03
 Guess from superposition of atomic densities
 Warning:  Energy on first SCF cycle will be non-variational
 SAD guess density has 16.000000 electrons
 Long-range K will be added via erf
 Coulomb attenuation parameter = 0.2 bohr**(-1)
 A restricted hybrid HF-DFT SCF calculation will be
 performed using Relaxed Constraint Minimization + Pulay DIIS
 Exchange:     0.2220 Hartree-Fock + 1.0000 wB97X-D + LR-HF
 Correlation:  1.0000 wB97X-D
 Using Euler-Maclaurin-Lebedev (75,302) quadrature formula
 Dispersion:   Grimme D
 SCF converges when DIIS error is below 1.0E-04
 using 6 threads for integral computing
 -------------------------------------------------------
 OpenMP Integral computing Module                
 Release: version 1.0, May 2013, Q-Chem Inc. Pittsburgh 
 -------------------------------------------------------
 using 6 threads for integral computing
 -------------------------------------------------------
 OpenMP Integral computing Module                
 Release: version 1.0, May 2013, Q-Chem Inc. Pittsburgh 
 -------------------------------------------------------
 ---------------------------------------
  Cycle       Energy         DIIS Error
 ---------------------------------------
    1     -78.8607860340      1.28E-01
    2     -78.4954334564      1.12E-02
    3     -78.5099364518      4.33E-03
    4     -78.5166084941      2.79E-03
    5     -78.5174366247      7.26E-04 Done RCA. Switching to DIIS
    6     -78.5178904330      4.81E-04
    7     -78.5179296748      1.40E-06 Convergence criterion met
 ---------------------------------------
 SCF time:  CPU 7.80 s  wall 1.31 s
 SCF   energy in the small basis set = -78.51792967
 Total energy in the small basis set = -78.51792967
 ----------------------------------------------------
  Cycle       Energy    
 ----------------------------------------------------
    1     -10.5624431283     -1.06E+01
 Long-range K will be added via erf
 Coulomb attenuation parameter = 0.2 bohr**(-1)
 A restricted hybrid HF-DFT SCF calculation will be
 performed using Relaxed Constraint Minimization + Pulay DIIS
 Exchange:     0.2220 Hartree-Fock + 1.0000 wB97X-D + LR-HF
 Correlation:  1.0000 wB97X-D
 Using Euler-Maclaurin-Lebedev (75,302) quadrature formula
 Dispersion:   Grimme D
 SCF converges when DIIS error is below 1.0E-05
 Basis2 calculation detected. Using small basis as guess for larger.
 SCFMinFind is unable to tell whether the solution found is close.
 Resetting ReadMinima to 0 and attempting to follow guess.
 SCFMinFind following SCF Guess.
 using 6 threads for integral computing
 -------------------------------------------------------
 OpenMP Integral computing Module                
 Release: version 1.0, May 2013, Q-Chem Inc. Pittsburgh 
 -------------------------------------------------------
 using 6 threads for integral computing
 -------------------------------------------------------
 OpenMP Integral computing Module                
 Release: version 1.0, May 2013, Q-Chem Inc. Pittsburgh 
 -------------------------------------------------------
 ---------------------------------------
  Cycle       Energy         DIIS Error
 ---------------------------------------
    1     -78.5370478555      5.90E-03
    2     -78.5498772404      9.56E-04 Done RCA. Switching to DIIS
    3     -78.5506609361      6.04E-04
    4     -78.5513332816      4.94E-05
    5     -78.5513391692      6.02E-06 Convergence criterion met
 ---------------------------------------
 SCF time:  CPU 12.73 s  wall 2.14 s
 SCF   energy in the final basis set = -78.55133917
 Total energy in the final basis set = -78.55133917
 
 --------------------------------------------------------------
 
                    Orbital Energies (a.u.)
 --------------------------------------------------------------
 
 Alpha MOs
 -- Occupied --
-10.2872 -10.2862  -0.8791  -0.6723  -0.5752  -0.5076  -0.4128  -0.3648
 -- Virtual --
  0.0638   0.0789   0.0841   0.1010   0.1240   0.1340   0.1365   0.1798
  0.1966   0.2061   0.2473   0.2685   0.3295   0.4018   0.4591   0.4822
  0.5447   0.5527   0.5541   0.5805   0.5957   0.6389   0.6517   0.6614
  0.7181   0.7364   0.7483   0.7984   0.8322   0.8854   0.9914   1.0167
  1.0371   1.0601   1.0887   1.1597   1.2355   1.3076   1.3172   1.3808
  1.4152   1.5002   1.5232   1.5365   1.5699   1.5795   1.5919   1.7580
  2.3198   2.5331   2.5366   2.6379   2.7094   2.7585   2.7593   2.7685
  2.7821   2.8171   2.8960   2.9354   3.0077   3.0672   3.0863   3.0997
  3.1070   3.1232   3.1441   3.2073   3.2835   3.2932   3.3607   3.3610
  3.3899   3.4031   3.4387   3.4859   3.5147   3.5771   3.5853   3.5895
  3.7005   3.8001   3.8195   3.8478   3.8742   3.9453   3.9759   4.0340
  4.0771   4.0988   4.1580   4.2298   4.2512   4.3235   4.4521   4.7412
  4.7842   4.7913   4.8391   4.9113   5.0138   5.0378   5.0627   5.0924
  5.1389   5.2421   5.3909   5.6401   5.7724   5.8044   6.0626   6.4362
  6.6260   7.2186  24.9121  25.4679
 --------------------------------------------------------------
 
 -----------------------------------------------------------------
                    Cartesian Multipole Moments
 -----------------------------------------------------------------
    Charge (ESU x 10^10)
                -0.0000
    Dipole Moment (Debye)
         X       0.0312      Y      -0.0537      Z       0.0414
       Tot       0.0747
    Quadrupole Moments (Debye-Ang)
        XX     -12.6267     XY       1.0151     YY     -13.3583
        XZ       0.5047     YZ      -1.1101     ZZ     -14.6583
    Octopole Moments (Debye-Ang^2)
       XXX     146.3099    XXY     -18.3267    XYY      55.7950
       YYY     -35.8821    XXZ      -4.9193    XYZ       4.1554
       YYZ      -1.3525    XZZ      58.0766    YZZ     -13.6783
       ZZZ       2.5527
    Hexadecapole Moments (Debye-Ang^3)
      XXXX   -1191.5520   XXXY     163.1464   XXYY    -257.1082
      XYYY     139.5285   YYYY     -99.4592   XXXZ      32.3526
      XXYZ     -15.5201   XYYZ       3.5998   YYYZ      -0.2062
      XXZZ    -243.3504   XYZZ      50.8728   YYZZ     -22.1970
      XZZZ     -11.1398   YZZZ       4.1240   ZZZZ     -22.9507
 -----------------------------------------------------------------
Archival summary:
1\1\centos77-c7\SP\ProcedureUnspecified\BasisUnspecified\24\shihchen\MonJul2715:56:022020MonJul2715:56:022020\0\\#,ProcedureUnspecified,BasisUnspecified,\\0,1\C\H,1,1.07917\H,1,1.08596,2,116.743\C,1,1.32187,2,143.205,3,179.836,0\H,4,1.07919,1,143.217,2,0.714715,0\H,4,1.08604,1,99.9969,2,-179.234,0\\\@

 Total job time:  4.38s(wall), 22.94s(cpu) 
 Mon Jul 27 15:56:02 2020

        *************************************************************
        *                                                           *
        *  Thank you very much for using Q-Chem.  Have a nice day.  *
        *                                                           *
        *************************************************************


