                  Welcome to Q-Chem
     A Quantum Leap Into The Future Of Chemistry


 Q-Chem 5.3 (devel), Q-Chem, Inc., Pleasanton, CA (2020)

 Yihan Shao,  Zhengting Gan,  E. Epifanovsky,  A. T. B. Gilbert,  M. Wormit,  
 J. Kussmann,  A. W. Lange,  A. Behn,  Jia Deng,  Xintian Feng,  D. Ghosh,  
 M. Goldey,  P. R. Horn,  L. D. Jacobson,  I. Kaliman,  T. Kus,  A. Landau,  
 Jie Liu,  E. I. Proynov,  R. M. Richard,  R. P. Steele,  E. J. Sundstrom,  
 H. L. Woodcock III,  P. M. Zimmerman,  D. Zuev,  B. Alam,  B. Albrecht,  
 E. Alguire,  S. A. Baeppler,  D. Barton,  Z. Benda,  Y. A. Bernard,  
 E. J. Berquist,  K. B. Bravaya,  H. Burton,  K. Carter-Fenk,  D. Casanova,  
 Chun-Min Chang,  Yunqing Chen,  A. Chien,  K. D. Closser,  M. P. Coons,  
 S. Coriani,  S. Dasgupta,  A. L. Dempwolff,  M. Diedenhofen,  Hainam Do,  
 R. G. Edgar,  Po-Tung Fang,  S. Faraji,  S. Fatehi,  Qingguo Feng,  
 J. Fosso-Tande,  J. Gayvert,  Qinghui Ge,  A. Ghysels,  G. Gidofalvi,  
 J. Gomes,  J. Gonthier,  A. Gunina,  D. Hait,  M. W. D. Hanson-Heine,  
 P. H. P. Harbach,  A. W. Hauser,  M. F. Herbst,  J. E. Herr,  
 E. G. Hohenstein,  Z. C. Holden,  Kerwin Hui,  B. C. Huynh,  T.-C. Jagau,  
 Hyunjun Ji,  B. Kaduk,  K. Khistyaev,  Jaehoon Kim,  P. Klunzinger,  K. Koh,  
 D. Kosenkov,  L. Koulias,  T. Kowalczyk,  C. M. Krauter,  A. Kunitsa,  
 Ka Un Lao,  A. Laurent,  K. V. Lawler,  Joonho Lee,  D. Lefrancois,  
 S. Lehtola,  D. S. Levine,  Yi-Pei Li,  You-Sheng Lin,  Fenglai Liu,  
 Kuan-Yu Liu,  E. Livshits,  M. Loipersberger,  A. Luenser,  P. Manohar,  
 E. Mansoor,  S. F. Manzer,  Shan-Ping Mao,  Yuezhi Mao,  N. Mardirossian,  
 A. V. Marenich,  T. Markovich,  L. A. Martinez-Martinez,  S. A. Maurer,  
 N. J. Mayhall,  S. C. McKenzie,  J.-M. Mewes,  P. Morgante,  A. F. Morrison,  
 J. W. Mullinax,  K. Nanda,  T. S. Nguyen-Beck,  R. Olivares-Amaya,  
 K. J. Oosterbaan,  J. A. Parkhill,  S. K. Paul,  F. Pavosevic,  Zheng Pei,  
 T. M. Perrine,  F. Plasser,  P. Pokhilko,  S. Prager,  A. Prociuk,  
 E. Ramos,  B. Rana,  D. R. Rehn,  F. Rob,  M. Scheurer,  M. Schneider,  
 N. Sergueev,  S. M. Sharada,  S. Sharma,  D. W. Small,  T. Stauch,  
 C. J. Stein,  T. Stein,  Yu-Chuan Su,  S. P. Veccham,  Zhen Tao,  
 A. J. W. Thom,  A. Tkatchenko,  T. Tsuchimochi,  N. M. Tubman,  L. Vogt,  
 M. L. Vidal,  O. Vydrov,  M. A. Watson,  J. Wenzel,  M. de Wergifosse,  
 T. A. Wesolowski,  A. White,  J. Witte,  A. Yamada,  Jun Yang,  K. Yao,  
 S. Yeganeh,  S. R. Yost,  Zhi-Qiang You,  A. Zech,  Igor Ying Zhang,  
 Xing Zhang,  Yan Zhao,  Ying Zhu,  B. R. Brooks,  G. K. L. Chan,  
 C. J. Cramer,  M. S. Gordon,  W. J. Hehre,  A. Klamt,  M. W. Schmidt,  
 C. D. Sherrill,  D. G. Truhlar,  A. Aspuru-Guzik,  R. Baer,  A. T. Bell,  
 N. A. Besley,  Jeng-Da Chai,  A. E. DePrince, III,  R. A. DiStasio Jr.,  
 A. Dreuw,  B. D. Dunietz,  T. R. Furlani,  Chao-Ping Hsu,  Yousung Jung,  
 Jing Kong,  D. S. Lambrecht,  WanZhen Liang,  C. Ochsenfeld,  
 V. A. Rassolov,  L. V. Slipchenko,  J. E. Subotnik,  T. Van Voorhis,  
 J. M. Herbert,  A. I. Krylov,  P. M. W. Gill,  M. Head-Gordon

 Contributors to earlier versions of Q-Chem not listed above: 
 R. D. Adamson,  B. Austin,  J. Baker,  G. J. O. Beran,  K. Brandhorst,  
 S. T. Brown,  E. F. C. Byrd,  A. K. Chakraborty,  C.-L. Cheng,  
 Siu Hung Chien,  D. M. Chipman,  D. L. Crittenden,  H. Dachsel,  
 R. J. Doerksen,  A. D. Dutoi,  L. Fusti-Molnar,  W. A. Goddard III,  
 A. Golubeva-Zadorozhnaya,  S. R. Gwaltney,  G. Hawkins,  A. Heyden,  
 S. Hirata,  G. Kedziora,  F. J. Keil,  C. Kelley,  Jihan Kim,  R. A. King,  
 R. Z. Khaliullin,  P. P. Korambath,  W. Kurlancheek,  A. M. Lee,  M. S. Lee,  
 S. V. Levchenko,  Ching Yeh Lin,  D. Liotard,  R. C. Lochan,  I. Lotan,  
 P. E. Maslen,  N. Nair,  D. P. O'Neill,  D. Neuhauser,  E. Neuscamman,  
 C. M. Oana,  R. Olson,  B. Peters,  R. Peverati,  P. A. Pieniazek,  
 Y. M. Rhee,  J. Ritchie,  M. A. Rohrdanz,  E. Rosta,  N. J. Russ,  
 H. F. Schaefer III,  N. E. Schultz,  N. Shenvi,  A. C. Simmonett,  A. Sodt,  
 D. Stuck,  K. S. Thanthiriwatte,  V. Vanovschi,  Tao Wang,  A. Warshel,  
 C. F. Williams,  Q. Wu,  X. Xu,  W. Zhang

 Please cite Q-Chem as follows:
 Y. Shao et al., Mol. Phys. 113, 184-215 (2015)
 DOI: 10.1080/00268976.2014.952696

 Q-Chem 5.3.0 for Intel X86 EM64T Linux

 Parts of Q-Chem use Armadillo 9.800.1 (Horizon Scraper).
 http://arma.sourceforge.net/

 Q-Chem begins on Mon Jul 27 16:01:12 2020  

Host: centos77-c7
0

     Scratch files written to /tmp/29924.centos77-h1/qchem128242//
Processing $rem in /opt/qchem-5.3.0-intel2020u1//config/preferences:
Processing $rem in /home/shihchengli/.qchemrc:

Checking the input file for inconsistencies... 	...done.

--------------------------------------------------------------
User input:
--------------------------------------------------------------
$rem
   JOBTYPE  sp
   EXCHANGE   omegaB97X-D
   BASIS   6-311+G(2df,2pd)
   UNRESTRICTED   False
   max_scf_cycles   250
   geom_opt_max_cycles   1500
   basis2 6-31G*
   scf_algorithm rca_diis
   SYM_IGNORE  TRUE
   print_input   true
   geom_opt_dmax   80
   pop_mulliken false
   XC_GRID 000075000302
$end

$molecule
0 1
C       -4.4480482253     0.5493370556     0.0001289956
C       -3.3901981670     1.1608898009     -0.0001014601
H       -5.3608576157     0.8320959466     -0.4959388327
H       -4.6589934416     -0.3827765982     0.4959428278
H       -3.1792416740     2.0929838138     -0.4959473843
H       -2.4773708765     0.8780999815     0.4959158536
$end
--------------------------------------------------------------
 ----------------------------------------------------------------
             Standard Nuclear Orientation (Angstroms)
    I     Atom           X                Y                Z
 ----------------------------------------------------------------
    1      C      -4.4480482253     0.5493370556     0.0001289956
    2      C      -3.3901981670     1.1608898009    -0.0001014601
    3      H      -5.3608576157     0.8320959466    -0.4959388327
    4      H      -4.6589934416    -0.3827765982     0.4959428278
    5      H      -3.1792416740     2.0929838138    -0.4959473843
    6      H      -2.4773708765     0.8780999815     0.4959158536
 ----------------------------------------------------------------
 Nuclear Repulsion Energy =          34.93805972 hartrees
 There are        8 alpha and        8 beta electrons
 Requested basis set is 6-311+G(2df,2pd)
 There are 40 shells and 124 basis functions

 Total QAlloc Memory Limit   2000 MB
 Mega-Array Size       188 MB
 MEM_STATIC part       192 MB

                       Distance Matrix (Angstroms)
             C (  1)   C (  2)   H (  3)   H (  4)   H (  5)
   C (  2)  1.221902
   H (  3)  1.076688  2.058509
   H (  4)  1.076645  2.058836  1.718243
   H (  5)  2.058836  1.076645  2.519779  3.050066
   H (  6)  2.058509  1.076688  3.049654  2.519779  1.718243
 
 A cutoff of  1.0D-09 yielded    814 shell pairs
 There are      7914 function pairs (      9843 Cartesian)
 Smallest overlap matrix eigenvalue = 7.94E-05

 Scale SEOQF with 1.000000e-02/1.000000e-01/1.000000e-01

 Standard Electronic Orientation quadrupole field applied
 Nucleus-field energy     =     0.0000000019 hartrees
 Requested basis set is 6-31G(d)
 There are 16 shells and 36 basis functions
 A cutoff of  1.0D-09 yielded    136 shell pairs
 There are       710 function pairs (       795 Cartesian)
 Smallest overlap matrix eigenvalue = 5.59E-03
 Guess from superposition of atomic densities
 Warning:  Energy on first SCF cycle will be non-variational
 SAD guess density has 16.000000 electrons
 Long-range K will be added via erf
 Coulomb attenuation parameter = 0.2 bohr**(-1)
 A restricted hybrid HF-DFT SCF calculation will be
 performed using Relaxed Constraint Minimization + Pulay DIIS
 Exchange:     0.2220 Hartree-Fock + 1.0000 wB97X-D + LR-HF
 Correlation:  1.0000 wB97X-D
 Using Euler-Maclaurin-Lebedev (75,302) quadrature formula
 Dispersion:   Grimme D
 SCF converges when DIIS error is below 1.0E-04
 using 6 threads for integral computing
 -------------------------------------------------------
 OpenMP Integral computing Module                
 Release: version 1.0, May 2013, Q-Chem Inc. Pittsburgh 
 -------------------------------------------------------
 using 6 threads for integral computing
 -------------------------------------------------------
 OpenMP Integral computing Module                
 Release: version 1.0, May 2013, Q-Chem Inc. Pittsburgh 
 -------------------------------------------------------
 ---------------------------------------
  Cycle       Energy         DIIS Error
 ---------------------------------------
    1     -78.9955381128      1.41E-01
    2     -78.5007442291      1.38E-02
    3     -78.5212015251      4.23E-03
    4     -78.5324237269      2.76E-03
    5     -78.5332129963      6.54E-04 Done RCA. Switching to DIIS
    6     -78.5336757582      4.45E-04
    7     -78.5337089658      8.96E-07 Convergence criterion met
 ---------------------------------------
 SCF time:  CPU 7.59 s  wall 1.28 s
 SCF   energy in the small basis set = -78.53370897
 Total energy in the small basis set = -78.53370897
 ----------------------------------------------------
  Cycle       Energy    
 ----------------------------------------------------
    1     -10.6346749445     -1.06E+01
 Long-range K will be added via erf
 Coulomb attenuation parameter = 0.2 bohr**(-1)
 A restricted hybrid HF-DFT SCF calculation will be
 performed using Relaxed Constraint Minimization + Pulay DIIS
 Exchange:     0.2220 Hartree-Fock + 1.0000 wB97X-D + LR-HF
 Correlation:  1.0000 wB97X-D
 Using Euler-Maclaurin-Lebedev (75,302) quadrature formula
 Dispersion:   Grimme D
 SCF converges when DIIS error is below 1.0E-05
 Basis2 calculation detected. Using small basis as guess for larger.
 SCFMinFind is unable to tell whether the solution found is close.
 Resetting ReadMinima to 0 and attempting to follow guess.
 SCFMinFind following SCF Guess.
 using 6 threads for integral computing
 -------------------------------------------------------
 OpenMP Integral computing Module                
 Release: version 1.0, May 2013, Q-Chem Inc. Pittsburgh 
 -------------------------------------------------------
 using 6 threads for integral computing
 -------------------------------------------------------
 OpenMP Integral computing Module                
 Release: version 1.0, May 2013, Q-Chem Inc. Pittsburgh 
 -------------------------------------------------------
 ---------------------------------------
  Cycle       Energy         DIIS Error
 ---------------------------------------
    1     -78.5542510432      5.90E-03
    2     -78.5670666187      9.27E-04 Done RCA. Switching to DIIS
    3     -78.5677641397      6.01E-04
    4     -78.5684156365      5.22E-05
    5     -78.5684220228      5.73E-06 Convergence criterion met
 ---------------------------------------
 SCF time:  CPU 12.80 s  wall 2.15 s
 SCF   energy in the final basis set = -78.56842202
 Total energy in the final basis set = -78.56842202
 
 --------------------------------------------------------------
 
                    Orbital Energies (a.u.)
 --------------------------------------------------------------
 
 Alpha MOs
 -- Occupied --
-10.2666 -10.2645  -0.8846  -0.6795  -0.5555  -0.5423  -0.4119  -0.3798
 -- Virtual --
  0.0794   0.0798   0.0864   0.1033   0.1226   0.1314   0.1468   0.1885
  0.2058   0.2227   0.2246   0.2754   0.3557   0.4145   0.4699   0.4741
  0.5536   0.5636   0.5762   0.5853   0.6180   0.6374   0.6527   0.6753
  0.7278   0.7327   0.7653   0.7902   0.8684   0.9073   1.0585   1.0709
  1.0736   1.0914   1.1709   1.1738   1.2335   1.2580   1.3084   1.4499
  1.4681   1.4682   1.5023   1.5164   1.5595   1.6536   1.7265   1.7907
  2.3591   2.4757   2.4974   2.6027   2.6868   2.7596   2.7747   2.8063
  2.8319   2.8420   2.9729   2.9869   3.0350   3.0398   3.0404   3.0431
  3.0707   3.1276   3.1586   3.2718   3.2795   3.2995   3.3438   3.3628
  3.4091   3.4489   3.4694   3.4962   3.5704   3.5986   3.6051   3.7471
  3.7590   3.8464   3.9684   3.9800   4.0142   4.0646   4.0763   4.0835
  4.0867   4.1096   4.1149   4.1756   4.2864   4.3295   4.4995   4.6554
  4.8220   4.8398   4.9443   4.9990   5.0593   5.1203   5.2038   5.2353
  5.3340   5.3533   5.3767   5.4753   5.6430   5.6927   6.5064   6.5922
  6.6215   6.9322  24.8489  25.8004
 --------------------------------------------------------------
 
 -----------------------------------------------------------------
                    Cartesian Multipole Moments
 -----------------------------------------------------------------
    Charge (ESU x 10^10)
                -0.0000
    Dipole Moment (Debye)
         X       0.0000      Y      -0.0000      Z      -0.0001
       Tot       0.0001
    Quadrupole Moments (Debye-Ang)
        XX     -12.0889     XY       0.8715     YY     -13.0906
        XZ       0.5472     YZ      -0.9477     ZZ     -14.3691
    Octopole Moments (Debye-Ang^2)
       XXX     142.1330    XXY     -17.1680    XYY      52.7938
       YYY     -33.5817    XXZ      -4.2884    XYZ       4.1819
       YYZ      -1.6209    XZZ      56.3140    YZZ     -12.2871
       ZZZ      -0.0005
    Hexadecapole Moments (Debye-Ang^3)
      XXXX   -1165.7368   XXXY     152.9425   XXYY    -236.1534
      XYYY     125.9996   YYYY     -90.3408   XXXZ      25.7938
      XXYZ     -17.9774   XYYZ       5.6048   YYYZ      -1.3477
      XXZZ    -233.0351   XYZZ      45.2418   YYZZ     -19.4848
      XZZZ      -1.1662   YZZZ       2.0256   ZZZZ     -21.6019
 -----------------------------------------------------------------
Archival summary:
1\1\centos77-c7\SP\ProcedureUnspecified\BasisUnspecified\24\shihchen\MonJul2716:01:172020MonJul2716:01:172020\0\\#,ProcedureUnspecified,BasisUnspecified,\\0,1\C\H,1,1.07665\H,1,1.07669,2,105.869\C,1,1.2219,2,127.086,3,-179.986,0\H,4,1.07665,1,127.086,2,179.997,0\H,4,1.07669,1,127.045,2,-0.0131045,0\\\@

 Total job time:  4.32s(wall), 22.80s(cpu) 
 Mon Jul 27 16:01:17 2020

        *************************************************************
        *                                                           *
        *  Thank you very much for using Q-Chem.  Have a nice day.  *
        *                                                           *
        *************************************************************


