                  Welcome to Q-Chem
     A Quantum Leap Into The Future Of Chemistry


 Q-Chem 5.3 (devel), Q-Chem, Inc., Pleasanton, CA (2020)

 Yihan Shao,  Zhengting Gan,  E. Epifanovsky,  A. T. B. Gilbert,  M. Wormit,  
 J. Kussmann,  A. W. Lange,  A. Behn,  Jia Deng,  Xintian Feng,  D. Ghosh,  
 M. Goldey,  P. R. Horn,  L. D. Jacobson,  I. Kaliman,  T. Kus,  A. Landau,  
 Jie Liu,  E. I. Proynov,  R. M. Richard,  R. P. Steele,  E. J. Sundstrom,  
 H. L. Woodcock III,  P. M. Zimmerman,  D. Zuev,  B. Alam,  B. Albrecht,  
 E. Alguire,  S. A. Baeppler,  D. Barton,  Z. Benda,  Y. A. Bernard,  
 E. J. Berquist,  K. B. Bravaya,  H. Burton,  K. Carter-Fenk,  D. Casanova,  
 Chun-Min Chang,  Yunqing Chen,  A. Chien,  K. D. Closser,  M. P. Coons,  
 S. Coriani,  S. Dasgupta,  A. L. Dempwolff,  M. Diedenhofen,  Hainam Do,  
 R. G. Edgar,  Po-Tung Fang,  S. Faraji,  S. Fatehi,  Qingguo Feng,  
 J. Fosso-Tande,  J. Gayvert,  Qinghui Ge,  A. Ghysels,  G. Gidofalvi,  
 J. Gomes,  J. Gonthier,  A. Gunina,  D. Hait,  M. W. D. Hanson-Heine,  
 P. H. P. Harbach,  A. W. Hauser,  M. F. Herbst,  J. E. Herr,  
 E. G. Hohenstein,  Z. C. Holden,  Kerwin Hui,  B. C. Huynh,  T.-C. Jagau,  
 Hyunjun Ji,  B. Kaduk,  K. Khistyaev,  Jaehoon Kim,  P. Klunzinger,  K. Koh,  
 D. Kosenkov,  L. Koulias,  T. Kowalczyk,  C. M. Krauter,  A. Kunitsa,  
 Ka Un Lao,  A. Laurent,  K. V. Lawler,  Joonho Lee,  D. Lefrancois,  
 S. Lehtola,  D. S. Levine,  Yi-Pei Li,  You-Sheng Lin,  Fenglai Liu,  
 Kuan-Yu Liu,  E. Livshits,  M. Loipersberger,  A. Luenser,  P. Manohar,  
 E. Mansoor,  S. F. Manzer,  Shan-Ping Mao,  Yuezhi Mao,  N. Mardirossian,  
 A. V. Marenich,  T. Markovich,  L. A. Martinez-Martinez,  S. A. Maurer,  
 N. J. Mayhall,  S. C. McKenzie,  J.-M. Mewes,  P. Morgante,  A. F. Morrison,  
 J. W. Mullinax,  K. Nanda,  T. S. Nguyen-Beck,  R. Olivares-Amaya,  
 K. J. Oosterbaan,  J. A. Parkhill,  S. K. Paul,  F. Pavosevic,  Zheng Pei,  
 T. M. Perrine,  F. Plasser,  P. Pokhilko,  S. Prager,  A. Prociuk,  
 E. Ramos,  B. Rana,  D. R. Rehn,  F. Rob,  M. Scheurer,  M. Schneider,  
 N. Sergueev,  S. M. Sharada,  S. Sharma,  D. W. Small,  T. Stauch,  
 C. J. Stein,  T. Stein,  Yu-Chuan Su,  S. P. Veccham,  Zhen Tao,  
 A. J. W. Thom,  A. Tkatchenko,  T. Tsuchimochi,  N. M. Tubman,  L. Vogt,  
 M. L. Vidal,  O. Vydrov,  M. A. Watson,  J. Wenzel,  M. de Wergifosse,  
 T. A. Wesolowski,  A. White,  J. Witte,  A. Yamada,  Jun Yang,  K. Yao,  
 S. Yeganeh,  S. R. Yost,  Zhi-Qiang You,  A. Zech,  Igor Ying Zhang,  
 Xing Zhang,  Yan Zhao,  Ying Zhu,  B. R. Brooks,  G. K. L. Chan,  
 C. J. Cramer,  M. S. Gordon,  W. J. Hehre,  A. Klamt,  M. W. Schmidt,  
 C. D. Sherrill,  D. G. Truhlar,  A. Aspuru-Guzik,  R. Baer,  A. T. Bell,  
 N. A. Besley,  Jeng-Da Chai,  A. E. DePrince, III,  R. A. DiStasio Jr.,  
 A. Dreuw,  B. D. Dunietz,  T. R. Furlani,  Chao-Ping Hsu,  Yousung Jung,  
 Jing Kong,  D. S. Lambrecht,  WanZhen Liang,  C. Ochsenfeld,  
 V. A. Rassolov,  L. V. Slipchenko,  J. E. Subotnik,  T. Van Voorhis,  
 J. M. Herbert,  A. I. Krylov,  P. M. W. Gill,  M. Head-Gordon

 Contributors to earlier versions of Q-Chem not listed above: 
 R. D. Adamson,  B. Austin,  J. Baker,  G. J. O. Beran,  K. Brandhorst,  
 S. T. Brown,  E. F. C. Byrd,  A. K. Chakraborty,  C.-L. Cheng,  
 Siu Hung Chien,  D. M. Chipman,  D. L. Crittenden,  H. Dachsel,  
 R. J. Doerksen,  A. D. Dutoi,  L. Fusti-Molnar,  W. A. Goddard III,  
 A. Golubeva-Zadorozhnaya,  S. R. Gwaltney,  G. Hawkins,  A. Heyden,  
 S. Hirata,  G. Kedziora,  F. J. Keil,  C. Kelley,  Jihan Kim,  R. A. King,  
 R. Z. Khaliullin,  P. P. Korambath,  W. Kurlancheek,  A. M. Lee,  M. S. Lee,  
 S. V. Levchenko,  Ching Yeh Lin,  D. Liotard,  R. C. Lochan,  I. Lotan,  
 P. E. Maslen,  N. Nair,  D. P. O'Neill,  D. Neuhauser,  E. Neuscamman,  
 C. M. Oana,  R. Olson,  B. Peters,  R. Peverati,  P. A. Pieniazek,  
 Y. M. Rhee,  J. Ritchie,  M. A. Rohrdanz,  E. Rosta,  N. J. Russ,  
 H. F. Schaefer III,  N. E. Schultz,  N. Shenvi,  A. C. Simmonett,  A. Sodt,  
 D. Stuck,  K. S. Thanthiriwatte,  V. Vanovschi,  Tao Wang,  A. Warshel,  
 C. F. Williams,  Q. Wu,  X. Xu,  W. Zhang

 Please cite Q-Chem as follows:
 Y. Shao et al., Mol. Phys. 113, 184-215 (2015)
 DOI: 10.1080/00268976.2014.952696

 Q-Chem 5.3.0 for Intel X86 EM64T Linux

 Parts of Q-Chem use Armadillo 9.800.1 (Horizon Scraper).
 http://arma.sourceforge.net/

 Q-Chem begins on Mon Jul 27 16:00:10 2020  

Host: centos77-c7
0

     Scratch files written to /tmp/29924.centos77-h1/qchem127690//
Processing $rem in /opt/qchem-5.3.0-intel2020u1//config/preferences:
Processing $rem in /home/shihchengli/.qchemrc:

Checking the input file for inconsistencies... 	...done.

--------------------------------------------------------------
User input:
--------------------------------------------------------------
$rem
   JOBTYPE  sp
   EXCHANGE   omegaB97X-D
   BASIS   6-311+G(2df,2pd)
   UNRESTRICTED   False
   max_scf_cycles   250
   geom_opt_max_cycles   1500
   basis2 6-31G*
   scf_algorithm rca_diis
   SYM_IGNORE  TRUE
   print_input   true
   geom_opt_dmax   80
   pop_mulliken false
   XC_GRID 000075000302
$end

$molecule
0 1
C       -4.5366895738     0.4976482324     -0.0002499999
C       -3.3015505040     1.2125663024     0.0002579162
H       -5.5164131650     0.6731934799     -0.4535109973
H       -4.8745182912     -0.4382190556     0.4538118858
H       -2.9637147590     2.1484234545     -0.4538195508
H       -2.3218237071     1.0370175866     0.4535107461
$end
--------------------------------------------------------------
 ----------------------------------------------------------------
             Standard Nuclear Orientation (Angstroms)
    I     Atom           X                Y                Z
 ----------------------------------------------------------------
    1      C      -4.5366895738     0.4976482324    -0.0002499999
    2      C      -3.3015505040     1.2125663024     0.0002579162
    3      H      -5.5164131650     0.6731934799    -0.4535109973
    4      H      -4.8745182912    -0.4382190556     0.4538118858
    5      H      -2.9637147590     2.1484234545    -0.4538195508
    6      H      -2.3218237071     1.0370175866     0.4535107461
 ----------------------------------------------------------------
 Nuclear Repulsion Energy =          31.77304881 hartrees
 There are        8 alpha and        8 beta electrons
 Requested basis set is 6-311+G(2df,2pd)
 There are 40 shells and 124 basis functions

 Total QAlloc Memory Limit   2000 MB
 Mega-Array Size       188 MB
 MEM_STATIC part       192 MB

                       Distance Matrix (Angstroms)
             C (  1)   C (  2)   H (  3)   H (  4)   H (  5)
   C (  2)  1.427122
   H (  3)  1.093673  2.324316
   H (  4)  1.093686  2.324872  1.571783
   H (  5)  2.324873  1.093685  2.948317  3.341509
   H (  6)  2.324317  1.093673  3.340727  2.948317  1.571781
 
 A cutoff of  1.0D-09 yielded    802 shell pairs
 There are      7814 function pairs (      9727 Cartesian)
 Smallest overlap matrix eigenvalue = 2.09E-04

 Scale SEOQF with 1.000000e-02/1.000000e-01/1.000000e-01

 Standard Electronic Orientation quadrupole field applied
 Nucleus-field energy     =     0.0000000020 hartrees
 Requested basis set is 6-31G(d)
 There are 16 shells and 36 basis functions
 A cutoff of  1.0D-09 yielded    136 shell pairs
 There are       710 function pairs (       795 Cartesian)
 Smallest overlap matrix eigenvalue = 1.13E-02
 Guess from superposition of atomic densities
 Warning:  Energy on first SCF cycle will be non-variational
 SAD guess density has 16.000000 electrons
 Long-range K will be added via erf
 Coulomb attenuation parameter = 0.2 bohr**(-1)
 A restricted hybrid HF-DFT SCF calculation will be
 performed using Relaxed Constraint Minimization + Pulay DIIS
 Exchange:     0.2220 Hartree-Fock + 1.0000 wB97X-D + LR-HF
 Correlation:  1.0000 wB97X-D
 Using Euler-Maclaurin-Lebedev (75,302) quadrature formula
 Dispersion:   Grimme D
 SCF converges when DIIS error is below 1.0E-04
 using 6 threads for integral computing
 -------------------------------------------------------
 OpenMP Integral computing Module                
 Release: version 1.0, May 2013, Q-Chem Inc. Pittsburgh 
 -------------------------------------------------------
 using 6 threads for integral computing
 -------------------------------------------------------
 OpenMP Integral computing Module                
 Release: version 1.0, May 2013, Q-Chem Inc. Pittsburgh 
 -------------------------------------------------------
 ---------------------------------------
  Cycle       Energy         DIIS Error
 ---------------------------------------
    1     -78.6330762044      1.11E-01
    2     -78.4914203222      8.64E-03
    3     -78.5011197831      4.05E-03
    4     -78.5050707420      2.66E-03
    5     -78.5058399826      6.42E-04 Done RCA. Switching to DIIS
    6     -78.5062859751      4.33E-04
    7     -78.5063188921      5.78E-07 Convergence criterion met
 ---------------------------------------
 SCF time:  CPU 7.55 s  wall 1.27 s
 SCF   energy in the small basis set = -78.50631889
 Total energy in the small basis set = -78.50631889
 ----------------------------------------------------
  Cycle       Energy    
 ----------------------------------------------------
    1     -10.4681204017     -1.05E+01
 Long-range K will be added via erf
 Coulomb attenuation parameter = 0.2 bohr**(-1)
 A restricted hybrid HF-DFT SCF calculation will be
 performed using Relaxed Constraint Minimization + Pulay DIIS
 Exchange:     0.2220 Hartree-Fock + 1.0000 wB97X-D + LR-HF
 Correlation:  1.0000 wB97X-D
 Using Euler-Maclaurin-Lebedev (75,302) quadrature formula
 Dispersion:   Grimme D
 SCF converges when DIIS error is below 1.0E-05
 Basis2 calculation detected. Using small basis as guess for larger.
 SCFMinFind is unable to tell whether the solution found is close.
 Resetting ReadMinima to 0 and attempting to follow guess.
 SCFMinFind following SCF Guess.
 using 6 threads for integral computing
 -------------------------------------------------------
 OpenMP Integral computing Module                
 Release: version 1.0, May 2013, Q-Chem Inc. Pittsburgh 
 -------------------------------------------------------
 using 6 threads for integral computing
 -------------------------------------------------------
 OpenMP Integral computing Module                
 Release: version 1.0, May 2013, Q-Chem Inc. Pittsburgh 
 -------------------------------------------------------
 ---------------------------------------
  Cycle       Energy         DIIS Error
 ---------------------------------------
    1     -78.5238654442      5.88E-03
    2     -78.5365915665      9.00E-04 Done RCA. Switching to DIIS
    3     -78.5372940684      5.75E-04
    4     -78.5379313657      5.45E-05
    5     -78.5379387989      6.91E-06 Convergence criterion met
 ---------------------------------------
 SCF time:  CPU 12.25 s  wall 2.07 s
 SCF   energy in the final basis set = -78.53793880
 Total energy in the final basis set = -78.53793880
 
 --------------------------------------------------------------
 
                    Orbital Energies (a.u.)
 --------------------------------------------------------------
 
 Alpha MOs
 -- Occupied --
-10.3127 -10.3122  -0.8413  -0.7140  -0.5514  -0.5078  -0.4141  -0.3481
 -- Virtual --
  0.0383   0.0729   0.0768   0.1125   0.1260   0.1333   0.1463   0.1719
  0.1974   0.2054   0.2367   0.2371   0.3349   0.3720   0.4554   0.4972
  0.5485   0.5596   0.5641   0.5992   0.6015   0.6502   0.6508   0.6635
  0.6673   0.6789   0.7187   0.7260   0.7712   0.8927   0.9694   1.0147
  1.0173   1.1150   1.1513   1.1518   1.1663   1.1975   1.3403   1.3592
  1.3596   1.4478   1.4791   1.5277   1.6222   1.6554   1.6870   1.7434
  2.3560   2.3977   2.4090   2.5157   2.6940   2.7149   2.7444   2.7475
  2.7726   2.7934   2.9333   2.9778   2.9867   3.0110   3.0192   3.0436
  3.0613   3.1748   3.1836   3.2634   3.2971   3.3332   3.3393   3.3684
  3.3903   3.4253   3.4300   3.4407   3.4493   3.4585   3.5464   3.6086
  3.6108   3.6132   3.6945   3.8054   3.8527   3.9407   3.9629   3.9914
  3.9955   4.0023   4.0318   4.1401   4.1614   4.2353   4.3408   4.5201
  4.6226   4.7545   4.7673   4.8557   4.8947   4.8972   4.9912   5.0118
  5.1615   5.1889   5.1956   5.3254   5.6467   5.6467   6.0042   6.2338
  6.3668   7.0289  24.8930  25.1090
 --------------------------------------------------------------
 
 -----------------------------------------------------------------
                    Cartesian Multipole Moments
 -----------------------------------------------------------------
    Charge (ESU x 10^10)
                -0.0000
    Dipole Moment (Debye)
         X       0.0000      Y      -0.0000      Z      -0.0000
       Tot       0.0000
    Quadrupole Moments (Debye-Ang)
        XX     -11.0660     XY       2.1364     YY     -13.5275
        XZ       0.4601     YZ      -0.8007     ZZ     -15.4158
    Octopole Moments (Debye-Ang^2)
       XXX     130.1064    XXY     -26.2081    XYY      56.6696
       YYY     -34.7025    XXZ      -3.6064    XYZ       3.5314
       YYZ      -1.3694    XZZ      60.4165    YZZ     -13.1822
       ZZZ      -0.0002
    Hexadecapole Moments (Debye-Ang^3)
      XXXX   -1080.5283   XXXY     200.2105   XXYY    -260.6943
      XYYY     130.4912   YYYY     -97.4406   XXXZ      22.3503
      XXYZ     -15.3163   XYYZ       4.3849   YYYZ      -1.5585
      XXZZ    -252.0306   XYZZ      47.4955   YYZZ     -21.7278
      XZZZ      -0.9149   YZZZ       1.5723   ZZZZ     -23.7228
 -----------------------------------------------------------------
Archival summary:
1\1\centos77-c7\SP\ProcedureUnspecified\BasisUnspecified\24\shihchen\MonJul2716:00:142020MonJul2716:00:142020\0\\#,ProcedureUnspecified,BasisUnspecified,\\0,1\C\H,1,1.09367\H,1,1.09369,2,91.8739\C,1,1.42712,2,134.031,3,179.881,0\H,4,1.09367,1,134.031,2,-180,0\H,4,1.09369,1,134.095,2,0.164295,0\\\@

 Total job time:  4.22s(wall), 22.21s(cpu) 
 Mon Jul 27 16:00:14 2020

        *************************************************************
        *                                                           *
        *  Thank you very much for using Q-Chem.  Have a nice day.  *
        *                                                           *
        *************************************************************


