                  Welcome to Q-Chem
     A Quantum Leap Into The Future Of Chemistry


 Q-Chem 5.3 (devel), Q-Chem, Inc., Pleasanton, CA (2020)

 Yihan Shao,  Zhengting Gan,  E. Epifanovsky,  A. T. B. Gilbert,  M. Wormit,  
 J. Kussmann,  A. W. Lange,  A. Behn,  Jia Deng,  Xintian Feng,  D. Ghosh,  
 M. Goldey,  P. R. Horn,  L. D. Jacobson,  I. Kaliman,  T. Kus,  A. Landau,  
 Jie Liu,  E. I. Proynov,  R. M. Richard,  R. P. Steele,  E. J. Sundstrom,  
 H. L. Woodcock III,  P. M. Zimmerman,  D. Zuev,  B. Alam,  B. Albrecht,  
 E. Alguire,  S. A. Baeppler,  D. Barton,  Z. Benda,  Y. A. Bernard,  
 E. J. Berquist,  K. B. Bravaya,  H. Burton,  K. Carter-Fenk,  D. Casanova,  
 Chun-Min Chang,  Yunqing Chen,  A. Chien,  K. D. Closser,  M. P. Coons,  
 S. Coriani,  S. Dasgupta,  A. L. Dempwolff,  M. Diedenhofen,  Hainam Do,  
 R. G. Edgar,  Po-Tung Fang,  S. Faraji,  S. Fatehi,  Qingguo Feng,  
 J. Fosso-Tande,  J. Gayvert,  Qinghui Ge,  A. Ghysels,  G. Gidofalvi,  
 J. Gomes,  J. Gonthier,  A. Gunina,  D. Hait,  M. W. D. Hanson-Heine,  
 P. H. P. Harbach,  A. W. Hauser,  M. F. Herbst,  J. E. Herr,  
 E. G. Hohenstein,  Z. C. Holden,  Kerwin Hui,  B. C. Huynh,  T.-C. Jagau,  
 Hyunjun Ji,  B. Kaduk,  K. Khistyaev,  Jaehoon Kim,  P. Klunzinger,  K. Koh,  
 D. Kosenkov,  L. Koulias,  T. Kowalczyk,  C. M. Krauter,  A. Kunitsa,  
 Ka Un Lao,  A. Laurent,  K. V. Lawler,  Joonho Lee,  D. Lefrancois,  
 S. Lehtola,  D. S. Levine,  Yi-Pei Li,  You-Sheng Lin,  Fenglai Liu,  
 Kuan-Yu Liu,  E. Livshits,  M. Loipersberger,  A. Luenser,  P. Manohar,  
 E. Mansoor,  S. F. Manzer,  Shan-Ping Mao,  Yuezhi Mao,  N. Mardirossian,  
 A. V. Marenich,  T. Markovich,  L. A. Martinez-Martinez,  S. A. Maurer,  
 N. J. Mayhall,  S. C. McKenzie,  J.-M. Mewes,  P. Morgante,  A. F. Morrison,  
 J. W. Mullinax,  K. Nanda,  T. S. Nguyen-Beck,  R. Olivares-Amaya,  
 K. J. Oosterbaan,  J. A. Parkhill,  S. K. Paul,  F. Pavosevic,  Zheng Pei,  
 T. M. Perrine,  F. Plasser,  P. Pokhilko,  S. Prager,  A. Prociuk,  
 E. Ramos,  B. Rana,  D. R. Rehn,  F. Rob,  M. Scheurer,  M. Schneider,  
 N. Sergueev,  S. M. Sharada,  S. Sharma,  D. W. Small,  T. Stauch,  
 C. J. Stein,  T. Stein,  Yu-Chuan Su,  S. P. Veccham,  Zhen Tao,  
 A. J. W. Thom,  A. Tkatchenko,  T. Tsuchimochi,  N. M. Tubman,  L. Vogt,  
 M. L. Vidal,  O. Vydrov,  M. A. Watson,  J. Wenzel,  M. de Wergifosse,  
 T. A. Wesolowski,  A. White,  J. Witte,  A. Yamada,  Jun Yang,  K. Yao,  
 S. Yeganeh,  S. R. Yost,  Zhi-Qiang You,  A. Zech,  Igor Ying Zhang,  
 Xing Zhang,  Yan Zhao,  Ying Zhu,  B. R. Brooks,  G. K. L. Chan,  
 C. J. Cramer,  M. S. Gordon,  W. J. Hehre,  A. Klamt,  M. W. Schmidt,  
 C. D. Sherrill,  D. G. Truhlar,  A. Aspuru-Guzik,  R. Baer,  A. T. Bell,  
 N. A. Besley,  Jeng-Da Chai,  A. E. DePrince, III,  R. A. DiStasio Jr.,  
 A. Dreuw,  B. D. Dunietz,  T. R. Furlani,  Chao-Ping Hsu,  Yousung Jung,  
 Jing Kong,  D. S. Lambrecht,  WanZhen Liang,  C. Ochsenfeld,  
 V. A. Rassolov,  L. V. Slipchenko,  J. E. Subotnik,  T. Van Voorhis,  
 J. M. Herbert,  A. I. Krylov,  P. M. W. Gill,  M. Head-Gordon

 Contributors to earlier versions of Q-Chem not listed above: 
 R. D. Adamson,  B. Austin,  J. Baker,  G. J. O. Beran,  K. Brandhorst,  
 S. T. Brown,  E. F. C. Byrd,  A. K. Chakraborty,  C.-L. Cheng,  
 Siu Hung Chien,  D. M. Chipman,  D. L. Crittenden,  H. Dachsel,  
 R. J. Doerksen,  A. D. Dutoi,  L. Fusti-Molnar,  W. A. Goddard III,  
 A. Golubeva-Zadorozhnaya,  S. R. Gwaltney,  G. Hawkins,  A. Heyden,  
 S. Hirata,  G. Kedziora,  F. J. Keil,  C. Kelley,  Jihan Kim,  R. A. King,  
 R. Z. Khaliullin,  P. P. Korambath,  W. Kurlancheek,  A. M. Lee,  M. S. Lee,  
 S. V. Levchenko,  Ching Yeh Lin,  D. Liotard,  R. C. Lochan,  I. Lotan,  
 P. E. Maslen,  N. Nair,  D. P. O'Neill,  D. Neuhauser,  E. Neuscamman,  
 C. M. Oana,  R. Olson,  B. Peters,  R. Peverati,  P. A. Pieniazek,  
 Y. M. Rhee,  J. Ritchie,  M. A. Rohrdanz,  E. Rosta,  N. J. Russ,  
 H. F. Schaefer III,  N. E. Schultz,  N. Shenvi,  A. C. Simmonett,  A. Sodt,  
 D. Stuck,  K. S. Thanthiriwatte,  V. Vanovschi,  Tao Wang,  A. Warshel,  
 C. F. Williams,  Q. Wu,  X. Xu,  W. Zhang

 Please cite Q-Chem as follows:
 Y. Shao et al., Mol. Phys. 113, 184-215 (2015)
 DOI: 10.1080/00268976.2014.952696

 Q-Chem 5.3.0 for Intel X86 EM64T Linux

 Parts of Q-Chem use Armadillo 9.800.1 (Horizon Scraper).
 http://arma.sourceforge.net/

 Q-Chem begins on Mon Jul 27 16:00:37 2020  

Host: centos77-c7
0

     Scratch files written to /tmp/29924.centos77-h1/qchem127924//
Processing $rem in /opt/qchem-5.3.0-intel2020u1//config/preferences:
Processing $rem in /home/shihchengli/.qchemrc:

Checking the input file for inconsistencies... 	...done.

--------------------------------------------------------------
User input:
--------------------------------------------------------------
$rem
   JOBTYPE  sp
   EXCHANGE   omegaB97X-D
   BASIS   6-311+G(2df,2pd)
   UNRESTRICTED   False
   max_scf_cycles   250
   geom_opt_max_cycles   1500
   basis2 6-31G*
   scf_algorithm rca_diis
   SYM_IGNORE  TRUE
   print_input   true
   geom_opt_dmax   80
   pop_mulliken false
   XC_GRID 000075000302
$end

$molecule
0 1
C       -4.6478871084     0.4347822774     0.0011464800
C       -3.5033227041     1.0960749210     0.0005126973
H       -5.3099361463     1.0322727485     -0.6013051676
H       -4.4595313304     -0.4390427132     0.6003625757
H       -3.0918743426     2.0138325965     -0.4170168016
H       -2.5021583682     0.9927101699     0.4163002162
$end
--------------------------------------------------------------
 ----------------------------------------------------------------
             Standard Nuclear Orientation (Angstroms)
    I     Atom           X                Y                Z
 ----------------------------------------------------------------
    1      C      -4.6478871084     0.4347822774     0.0011464800
    2      C      -3.5033227041     1.0960749210     0.0005126973
    3      H      -5.3099361463     1.0322727485    -0.6013051676
    4      H      -4.4595313304    -0.4390427132     0.6003625757
    5      H      -3.0918743426     2.0138325965    -0.4170168016
    6      H      -2.5021583682     0.9927101699     0.4163002162
 ----------------------------------------------------------------
 Nuclear Repulsion Energy =          33.70061697 hartrees
 There are        8 alpha and        8 beta electrons
 Requested basis set is 6-311+G(2df,2pd)
 There are 40 shells and 124 basis functions

 Total QAlloc Memory Limit   2000 MB
 Mega-Array Size       188 MB
 MEM_STATIC part       192 MB

                       Distance Matrix (Angstroms)
             C (  1)   C (  2)   H (  3)   H (  4)   H (  5)
   C (  2)  1.321868
   H (  3)  1.076221  1.905284
   H (  4)  1.076154  1.905450  2.081337
   H (  5)  2.255978  1.088990  2.432534  2.986996
   H (  6)  2.255613  1.088987  2.986754  2.432099  1.443909
 
 A cutoff of  1.0D-09 yielded    818 shell pairs
 There are      7926 function pairs (      9855 Cartesian)
 Smallest overlap matrix eigenvalue = 1.28E-04

 Scale SEOQF with 1.000000e-02/1.000000e-01/1.000000e-01

 Standard Electronic Orientation quadrupole field applied
 Nucleus-field energy     =     0.0000000019 hartrees
 Requested basis set is 6-31G(d)
 There are 16 shells and 36 basis functions
 A cutoff of  1.0D-09 yielded    136 shell pairs
 There are       710 function pairs (       795 Cartesian)
 Smallest overlap matrix eigenvalue = 6.65E-03
 Guess from superposition of atomic densities
 Warning:  Energy on first SCF cycle will be non-variational
 SAD guess density has 16.000000 electrons
 Long-range K will be added via erf
 Coulomb attenuation parameter = 0.2 bohr**(-1)
 A restricted hybrid HF-DFT SCF calculation will be
 performed using Relaxed Constraint Minimization + Pulay DIIS
 Exchange:     0.2220 Hartree-Fock + 1.0000 wB97X-D + LR-HF
 Correlation:  1.0000 wB97X-D
 Using Euler-Maclaurin-Lebedev (75,302) quadrature formula
 Dispersion:   Grimme D
 SCF converges when DIIS error is below 1.0E-04
 using 6 threads for integral computing
 -------------------------------------------------------
 OpenMP Integral computing Module                
 Release: version 1.0, May 2013, Q-Chem Inc. Pittsburgh 
 -------------------------------------------------------
 using 6 threads for integral computing
 -------------------------------------------------------
 OpenMP Integral computing Module                
 Release: version 1.0, May 2013, Q-Chem Inc. Pittsburgh 
 -------------------------------------------------------
 ---------------------------------------
  Cycle       Energy         DIIS Error
 ---------------------------------------
    1     -78.8504429136      1.28E-01
    2     -78.4720848671      1.18E-02
    3     -78.4881182242      4.35E-03
    4     -78.4959581906      2.91E-03
    5     -78.4968096464      6.38E-04 Done RCA. Switching to DIIS
    6     -78.4973407038      5.67E-04
    7     -78.4973921463      3.65E-06 Convergence criterion met
 ---------------------------------------
 SCF time:  CPU 7.70 s  wall 1.30 s
 SCF   energy in the small basis set = -78.49739215
 Total energy in the small basis set = -78.49739215
 ----------------------------------------------------
  Cycle       Energy    
 ----------------------------------------------------
    1     -10.5539745375     -1.06E+01
 Long-range K will be added via erf
 Coulomb attenuation parameter = 0.2 bohr**(-1)
 A restricted hybrid HF-DFT SCF calculation will be
 performed using Relaxed Constraint Minimization + Pulay DIIS
 Exchange:     0.2220 Hartree-Fock + 1.0000 wB97X-D + LR-HF
 Correlation:  1.0000 wB97X-D
 Using Euler-Maclaurin-Lebedev (75,302) quadrature formula
 Dispersion:   Grimme D
 SCF converges when DIIS error is below 1.0E-05
 Basis2 calculation detected. Using small basis as guess for larger.
 SCFMinFind is unable to tell whether the solution found is close.
 Resetting ReadMinima to 0 and attempting to follow guess.
 SCFMinFind following SCF Guess.
 using 6 threads for integral computing
 -------------------------------------------------------
 OpenMP Integral computing Module                
 Release: version 1.0, May 2013, Q-Chem Inc. Pittsburgh 
 -------------------------------------------------------
 using 6 threads for integral computing
 -------------------------------------------------------
 OpenMP Integral computing Module                
 Release: version 1.0, May 2013, Q-Chem Inc. Pittsburgh 
 -------------------------------------------------------
 ---------------------------------------
  Cycle       Energy         DIIS Error
 ---------------------------------------
    1     -78.5171731026      5.91E-03
    2     -78.5299985223      1.01E-03
    3     -78.5309794728      2.46E-04 Done RCA. Switching to DIIS
    4     -78.5315998081      1.91E-04
    5     -78.5316643393      3.21E-05
    6     -78.5316662144      5.45E-06 Convergence criterion met
 ---------------------------------------
 SCF time:  CPU 15.92 s  wall 2.67 s
 SCF   energy in the final basis set = -78.53166621
 Total energy in the final basis set = -78.53166621
 
 --------------------------------------------------------------
 
                    Orbital Energies (a.u.)
 --------------------------------------------------------------
 
 Alpha MOs
 -- Occupied --
-10.2895 -10.2814  -0.8747  -0.6945  -0.5774  -0.4971  -0.4015  -0.3646
 -- Virtual --
  0.0625   0.0738   0.0898   0.0979   0.1237   0.1356   0.1365   0.1797
  0.1872   0.2062   0.2387   0.2608   0.3241   0.3700   0.4903   0.5076
  0.5252   0.5566   0.5663   0.5899   0.5951   0.6133   0.6645   0.6753
  0.6943   0.7376   0.7378   0.7803   0.8010   0.8685   0.9031   0.9908
  1.0223   1.1194   1.1291   1.1963   1.2841   1.3012   1.3631   1.3655
  1.4360   1.4414   1.4652   1.4962   1.5300   1.5856   1.6877   1.7360
  2.3975   2.4286   2.5682   2.5708   2.5910   2.6702   2.7122   2.7704
  2.8258   2.8711   2.9417   2.9694   2.9877   3.0218   3.0271   3.0724
  3.0915   3.0996   3.1923   3.2121   3.2441   3.2451   3.3054   3.3817
  3.3846   3.4355   3.4956   3.4995   3.5089   3.5237   3.5507   3.6295
  3.6791   3.7763   3.8162   3.8722   3.8814   3.9300   3.9400   4.0192
  4.0435   4.1066   4.1245   4.2580   4.3174   4.3841   4.4248   4.5005
  4.5423   4.7239   4.7490   4.8363   4.9408   5.0288   5.1627   5.2496
  5.2624   5.3798   5.5030   5.6337   5.7552   5.8733   5.9887   6.6315
  6.6436   6.9308  24.8819  25.4691
 --------------------------------------------------------------
 
 -----------------------------------------------------------------
                    Cartesian Multipole Moments
 -----------------------------------------------------------------
    Charge (ESU x 10^10)
                -0.0000
    Dipole Moment (Debye)
         X       0.3266      Y       0.1852      Z      -0.0041
       Tot       0.3755
    Quadrupole Moments (Debye-Ang)
        XX     -15.2852     XY       0.0865     YY     -13.0202
        XZ       0.7324     YZ      -1.2415     ZZ     -14.6574
    Octopole Moments (Debye-Ang^2)
       XXX     170.5608    XXY     -11.4870    XYY      54.1439
       YYY     -32.2266    XXZ      -6.5996    XYZ       5.9986
       YYZ      -1.2249    XZZ      58.4957    YZZ     -11.9337
       ZZZ      -0.0328
    Hexadecapole Moments (Debye-Ang^3)
      XXXX   -1401.9628   XXXY     114.8651   XXYY    -244.7275
      XYYY     123.4722   YYYY     -88.4860   XXXZ      44.4510
      XXYZ     -28.5556   XYYZ       5.4551   YYYZ       0.1197
      XXZZ    -246.9128   XYZZ      44.1386   YYZZ     -19.1608
      XZZZ      -0.8904   YZZZ       1.7669   ZZZZ     -23.0533
 -----------------------------------------------------------------
Archival summary:
1\1\centos77-c7\SP\ProcedureUnspecified\BasisUnspecified\24\shihchen\MonJul2716:00:422020MonJul2716:00:422020\0\\#,ProcedureUnspecified,BasisUnspecified,\\0,1\C\H,1,1.08899\H,1,1.08899,2,83.0518\C,1,1.32187,2,138.45,3,179.912,0\H,4,1.07615,1,104.77,2,-0.0329263,0\H,4,1.07622,1,104.752,2,-179.803,0\\\@

 Total job time:  4.88s(wall), 26.06s(cpu) 
 Mon Jul 27 16:00:42 2020

        *************************************************************
        *                                                           *
        *  Thank you very much for using Q-Chem.  Have a nice day.  *
        *                                                           *
        *************************************************************


