                  Welcome to Q-Chem
     A Quantum Leap Into The Future Of Chemistry


 Q-Chem 5.3 (devel), Q-Chem, Inc., Pleasanton, CA (2020)

 Yihan Shao,  Zhengting Gan,  E. Epifanovsky,  A. T. B. Gilbert,  M. Wormit,  
 J. Kussmann,  A. W. Lange,  A. Behn,  Jia Deng,  Xintian Feng,  D. Ghosh,  
 M. Goldey,  P. R. Horn,  L. D. Jacobson,  I. Kaliman,  T. Kus,  A. Landau,  
 Jie Liu,  E. I. Proynov,  R. M. Richard,  R. P. Steele,  E. J. Sundstrom,  
 H. L. Woodcock III,  P. M. Zimmerman,  D. Zuev,  B. Alam,  B. Albrecht,  
 E. Alguire,  S. A. Baeppler,  D. Barton,  Z. Benda,  Y. A. Bernard,  
 E. J. Berquist,  K. B. Bravaya,  H. Burton,  K. Carter-Fenk,  D. Casanova,  
 Chun-Min Chang,  Yunqing Chen,  A. Chien,  K. D. Closser,  M. P. Coons,  
 S. Coriani,  S. Dasgupta,  A. L. Dempwolff,  M. Diedenhofen,  Hainam Do,  
 R. G. Edgar,  Po-Tung Fang,  S. Faraji,  S. Fatehi,  Qingguo Feng,  
 J. Fosso-Tande,  J. Gayvert,  Qinghui Ge,  A. Ghysels,  G. Gidofalvi,  
 J. Gomes,  J. Gonthier,  A. Gunina,  D. Hait,  M. W. D. Hanson-Heine,  
 P. H. P. Harbach,  A. W. Hauser,  M. F. Herbst,  J. E. Herr,  
 E. G. Hohenstein,  Z. C. Holden,  Kerwin Hui,  B. C. Huynh,  T.-C. Jagau,  
 Hyunjun Ji,  B. Kaduk,  K. Khistyaev,  Jaehoon Kim,  P. Klunzinger,  K. Koh,  
 D. Kosenkov,  L. Koulias,  T. Kowalczyk,  C. M. Krauter,  A. Kunitsa,  
 Ka Un Lao,  A. Laurent,  K. V. Lawler,  Joonho Lee,  D. Lefrancois,  
 S. Lehtola,  D. S. Levine,  Yi-Pei Li,  You-Sheng Lin,  Fenglai Liu,  
 Kuan-Yu Liu,  E. Livshits,  M. Loipersberger,  A. Luenser,  P. Manohar,  
 E. Mansoor,  S. F. Manzer,  Shan-Ping Mao,  Yuezhi Mao,  N. Mardirossian,  
 A. V. Marenich,  T. Markovich,  L. A. Martinez-Martinez,  S. A. Maurer,  
 N. J. Mayhall,  S. C. McKenzie,  J.-M. Mewes,  P. Morgante,  A. F. Morrison,  
 J. W. Mullinax,  K. Nanda,  T. S. Nguyen-Beck,  R. Olivares-Amaya,  
 K. J. Oosterbaan,  J. A. Parkhill,  S. K. Paul,  F. Pavosevic,  Zheng Pei,  
 T. M. Perrine,  F. Plasser,  P. Pokhilko,  S. Prager,  A. Prociuk,  
 E. Ramos,  B. Rana,  D. R. Rehn,  F. Rob,  M. Scheurer,  M. Schneider,  
 N. Sergueev,  S. M. Sharada,  S. Sharma,  D. W. Small,  T. Stauch,  
 C. J. Stein,  T. Stein,  Yu-Chuan Su,  S. P. Veccham,  Zhen Tao,  
 A. J. W. Thom,  A. Tkatchenko,  T. Tsuchimochi,  N. M. Tubman,  L. Vogt,  
 M. L. Vidal,  O. Vydrov,  M. A. Watson,  J. Wenzel,  M. de Wergifosse,  
 T. A. Wesolowski,  A. White,  J. Witte,  A. Yamada,  Jun Yang,  K. Yao,  
 S. Yeganeh,  S. R. Yost,  Zhi-Qiang You,  A. Zech,  Igor Ying Zhang,  
 Xing Zhang,  Yan Zhao,  Ying Zhu,  B. R. Brooks,  G. K. L. Chan,  
 C. J. Cramer,  M. S. Gordon,  W. J. Hehre,  A. Klamt,  M. W. Schmidt,  
 C. D. Sherrill,  D. G. Truhlar,  A. Aspuru-Guzik,  R. Baer,  A. T. Bell,  
 N. A. Besley,  Jeng-Da Chai,  A. E. DePrince, III,  R. A. DiStasio Jr.,  
 A. Dreuw,  B. D. Dunietz,  T. R. Furlani,  Chao-Ping Hsu,  Yousung Jung,  
 Jing Kong,  D. S. Lambrecht,  WanZhen Liang,  C. Ochsenfeld,  
 V. A. Rassolov,  L. V. Slipchenko,  J. E. Subotnik,  T. Van Voorhis,  
 J. M. Herbert,  A. I. Krylov,  P. M. W. Gill,  M. Head-Gordon

 Contributors to earlier versions of Q-Chem not listed above: 
 R. D. Adamson,  B. Austin,  J. Baker,  G. J. O. Beran,  K. Brandhorst,  
 S. T. Brown,  E. F. C. Byrd,  A. K. Chakraborty,  C.-L. Cheng,  
 Siu Hung Chien,  D. M. Chipman,  D. L. Crittenden,  H. Dachsel,  
 R. J. Doerksen,  A. D. Dutoi,  L. Fusti-Molnar,  W. A. Goddard III,  
 A. Golubeva-Zadorozhnaya,  S. R. Gwaltney,  G. Hawkins,  A. Heyden,  
 S. Hirata,  G. Kedziora,  F. J. Keil,  C. Kelley,  Jihan Kim,  R. A. King,  
 R. Z. Khaliullin,  P. P. Korambath,  W. Kurlancheek,  A. M. Lee,  M. S. Lee,  
 S. V. Levchenko,  Ching Yeh Lin,  D. Liotard,  R. C. Lochan,  I. Lotan,  
 P. E. Maslen,  N. Nair,  D. P. O'Neill,  D. Neuhauser,  E. Neuscamman,  
 C. M. Oana,  R. Olson,  B. Peters,  R. Peverati,  P. A. Pieniazek,  
 Y. M. Rhee,  J. Ritchie,  M. A. Rohrdanz,  E. Rosta,  N. J. Russ,  
 H. F. Schaefer III,  N. E. Schultz,  N. Shenvi,  A. C. Simmonett,  A. Sodt,  
 D. Stuck,  K. S. Thanthiriwatte,  V. Vanovschi,  Tao Wang,  A. Warshel,  
 C. F. Williams,  Q. Wu,  X. Xu,  W. Zhang

 Please cite Q-Chem as follows:
 Y. Shao et al., Mol. Phys. 113, 184-215 (2015)
 DOI: 10.1080/00268976.2014.952696

 Q-Chem 5.3.0 for Intel X86 EM64T Linux

 Parts of Q-Chem use Armadillo 9.800.1 (Horizon Scraper).
 http://arma.sourceforge.net/

 Q-Chem begins on Mon Jul 27 15:56:48 2020  

Host: centos77-c7
0

     Scratch files written to /tmp/29924.centos77-h1/qchem125872//
Processing $rem in /opt/qchem-5.3.0-intel2020u1//config/preferences:
Processing $rem in /home/shihchengli/.qchemrc:

Checking the input file for inconsistencies... 	...done.

--------------------------------------------------------------
User input:
--------------------------------------------------------------
$rem
   JOBTYPE  sp
   EXCHANGE   omegaB97X-D
   BASIS   6-311+G(2df,2pd)
   UNRESTRICTED   False
   max_scf_cycles   250
   geom_opt_max_cycles   1500
   basis2 6-31G*
   scf_algorithm rca_diis
   SYM_IGNORE  TRUE
   print_input   true
   geom_opt_dmax   80
   pop_mulliken false
   XC_GRID 000075000302
$end

$molecule
0 1
C       -4.5658334230     0.6557969295     0.2113441110
C       -3.4200368682     1.3149510394     0.2130897962
H       -5.2238273648     0.8432715425     -0.6275874140
H       -4.5095576247     -0.4054448751     0.4178920177
H       -3.2638420674     1.9977149602     -0.6123186408
H       -2.5316126519     0.7243404035     0.3975801299
$end
--------------------------------------------------------------
 ----------------------------------------------------------------
             Standard Nuclear Orientation (Angstroms)
    I     Atom           X                Y                Z
 ----------------------------------------------------------------
    1      C      -4.5658334230     0.6557969295     0.2113441110
    2      C      -3.4200368682     1.3149510394     0.2130897962
    3      H      -5.2238273648     0.8432715425    -0.6275874140
    4      H      -4.5095576247    -0.4054448751     0.4178920177
    5      H      -3.2638420674     1.9977149602    -0.6123186408
    6      H      -2.5316126519     0.7243404035     0.3975801299
 ----------------------------------------------------------------
 Nuclear Repulsion Energy =          33.77912297 hartrees
 There are        8 alpha and        8 beta electrons
 Requested basis set is 6-311+G(2df,2pd)
 There are 40 shells and 124 basis functions

 Total QAlloc Memory Limit   2000 MB
 Mega-Array Size       188 MB
 MEM_STATIC part       192 MB

                       Distance Matrix (Angstroms)
             C (  1)   C (  2)   H (  3)   H (  4)   H (  5)
   C (  2)  1.321869
   H (  3)  1.082547  2.045209
   H (  4)  1.082619  2.046646  1.778342
   H (  5)  2.043122  1.082526  2.274756  2.896259
   H (  6)  2.043878  1.082661  2.883250  2.277958  1.782565
 
 A cutoff of  1.0D-09 yielded    819 shell pairs
 There are      7935 function pairs (      9864 Cartesian)
 Smallest overlap matrix eigenvalue = 1.12E-04

 Scale SEOQF with 1.000000e-01/1.000000e-01/1.000000e-01

 Standard Electronic Orientation quadrupole field applied
 Nucleus-field energy     =     0.0000000104 hartrees
 Requested basis set is 6-31G(d)
 There are 16 shells and 36 basis functions
 A cutoff of  1.0D-09 yielded    136 shell pairs
 There are       710 function pairs (       795 Cartesian)
 Smallest overlap matrix eigenvalue = 6.97E-03
 Guess from superposition of atomic densities
 Warning:  Energy on first SCF cycle will be non-variational
 SAD guess density has 16.000000 electrons
 Long-range K will be added via erf
 Coulomb attenuation parameter = 0.2 bohr**(-1)
 A restricted hybrid HF-DFT SCF calculation will be
 performed using Relaxed Constraint Minimization + Pulay DIIS
 Exchange:     0.2220 Hartree-Fock + 1.0000 wB97X-D + LR-HF
 Correlation:  1.0000 wB97X-D
 Using Euler-Maclaurin-Lebedev (75,302) quadrature formula
 Dispersion:   Grimme D
 SCF converges when DIIS error is below 1.0E-04
 using 6 threads for integral computing
 -------------------------------------------------------
 OpenMP Integral computing Module                
 Release: version 1.0, May 2013, Q-Chem Inc. Pittsburgh 
 -------------------------------------------------------
 using 6 threads for integral computing
 -------------------------------------------------------
 OpenMP Integral computing Module                
 Release: version 1.0, May 2013, Q-Chem Inc. Pittsburgh 
 -------------------------------------------------------
 ---------------------------------------
  Cycle       Energy         DIIS Error
 ---------------------------------------
    1     -78.8400970254      1.28E-01
    2     -78.4926210391      1.15E-02
    3     -78.5076126282      4.23E-03
    4     -78.5146667095      2.73E-03
    5     -78.5154630566      7.07E-04 Done RCA. Switching to DIIS
    6     -78.5159004258      4.68E-04
    7     -78.5159378421      1.26E-06 Convergence criterion met
 ---------------------------------------
 SCF time:  CPU 7.67 s  wall 1.29 s
 SCF   energy in the small basis set = -78.51593784
 Total energy in the small basis set = -78.51593784
 ----------------------------------------------------
  Cycle       Energy    
 ----------------------------------------------------
    1     -10.5592579896     -1.06E+01
 Long-range K will be added via erf
 Coulomb attenuation parameter = 0.2 bohr**(-1)
 A restricted hybrid HF-DFT SCF calculation will be
 performed using Relaxed Constraint Minimization + Pulay DIIS
 Exchange:     0.2220 Hartree-Fock + 1.0000 wB97X-D + LR-HF
 Correlation:  1.0000 wB97X-D
 Using Euler-Maclaurin-Lebedev (75,302) quadrature formula
 Dispersion:   Grimme D
 SCF converges when DIIS error is below 1.0E-05
 Basis2 calculation detected. Using small basis as guess for larger.
 SCFMinFind is unable to tell whether the solution found is close.
 Resetting ReadMinima to 0 and attempting to follow guess.
 SCFMinFind following SCF Guess.
 using 6 threads for integral computing
 -------------------------------------------------------
 OpenMP Integral computing Module                
 Release: version 1.0, May 2013, Q-Chem Inc. Pittsburgh 
 -------------------------------------------------------
 using 6 threads for integral computing
 -------------------------------------------------------
 OpenMP Integral computing Module                
 Release: version 1.0, May 2013, Q-Chem Inc. Pittsburgh 
 -------------------------------------------------------
 ---------------------------------------
  Cycle       Energy         DIIS Error
 ---------------------------------------
    1     -78.5344806098      5.91E-03
    2     -78.5472147644      9.67E-04 Done RCA. Switching to DIIS
    3     -78.5480273031      6.03E-04
    4     -78.5486971691      5.30E-05
    5     -78.5487036777      8.49E-06 Convergence criterion met
 ---------------------------------------
 SCF time:  CPU 12.82 s  wall 2.15 s
 SCF   energy in the final basis set = -78.54870368
 Total energy in the final basis set = -78.54870368
 
 --------------------------------------------------------------
 
                    Orbital Energies (a.u.)
 --------------------------------------------------------------
 
 Alpha MOs
 -- Occupied --
-10.2851 -10.2841  -0.8764  -0.6714  -0.5605  -0.5102  -0.4249  -0.3631
 -- Virtual --
  0.0344   0.0782   0.0896   0.1033   0.1217   0.1378   0.1441   0.1638
  0.2019   0.2071   0.2213   0.2988   0.3214   0.3901   0.4741   0.4778
  0.4996   0.5570   0.5631   0.5862   0.6105   0.6145   0.6439   0.6632
  0.6770   0.6785   0.6841   0.8136   0.9290   0.9359   0.9719   1.0369
  1.0531   1.0642   1.1173   1.1213   1.2665   1.2925   1.3637   1.3772
  1.3867   1.4141   1.4703   1.4807   1.5411   1.5443   1.6213   1.6643
  2.3249   2.3574   2.5270   2.5956   2.6144   2.7580   2.7860   2.7972
  2.8295   2.8922   2.8993   2.9853   2.9874   3.0104   3.0809   3.0838
  3.1042   3.1301   3.1724   3.2150   3.2672   3.2801   3.3016   3.3376
  3.4014   3.4573   3.4605   3.4985   3.5235   3.5678   3.5761   3.6401
  3.6460   3.6635   3.8260   3.8584   3.9203   3.9973   4.0199   4.0650
  4.1299   4.1372   4.1832   4.1943   4.1967   4.3543   4.5356   4.6861
  4.7418   4.7614   4.8012   4.8081   4.9645   4.9704   5.0528   5.0827
  5.1213   5.2758   5.3251   5.3832   5.4024   5.6235   5.9929   6.2508
  6.2860   6.4595  24.8180  25.5175
 --------------------------------------------------------------
 
 -----------------------------------------------------------------
                    Cartesian Multipole Moments
 -----------------------------------------------------------------
    Charge (ESU x 10^10)
                -0.0000
    Dipole Moment (Debye)
         X       0.3090      Y      -0.5429      Z      -0.8834
       Tot       1.0819
    Quadrupole Moments (Debye-Ang)
        XX     -15.8786     XY       2.4765     YY     -14.4469
        XZ       4.0709     YZ      -1.8333     ZZ     -14.4511
    Octopole Moments (Debye-Ang^2)
       XXX     176.1002    XXY     -24.5154    XYY      57.6796
       YYY     -41.4705    XXZ     -21.7112    XYZ       7.2516
       YYZ      -5.3077    XZZ      57.3076    YZZ     -13.6519
       ZZZ      -8.1837
    Hexadecapole Moments (Debye-Ang^3)
      XXXX   -1429.2213   XXXY     199.9008   XXYY    -259.5683
      XYYY     156.2920   YYYY    -115.9780   XXXZ     121.5190
      XXYZ     -31.6147   XYYZ      19.8589   YYYZ     -10.3641
      XXZZ    -240.8708   XYZZ      51.1620   YYZZ     -23.0299
      XZZZ      31.6918   YZZZ      -6.3466   ZZZZ     -26.0992
 -----------------------------------------------------------------
Archival summary:
1\1\centos77-c7\SP\ProcedureUnspecified\BasisUnspecified\24\shihchen\MonJul2715:56:532020MonJul2715:56:532020\0\\#,ProcedureUnspecified,BasisUnspecified,\\0,1\C\H,1,1.08255\H,1,1.08262,2,110.439\C,1,1.32187,2,116.201,3,135.307,0\H,4,1.08253,1,116.013,2,1.55033,0\H,4,1.08266,1,116.071,2,-131.236,0\\\@

 Total job time:  4.38s(wall), 22.97s(cpu) 
 Mon Jul 27 15:56:53 2020

        *************************************************************
        *                                                           *
        *  Thank you very much for using Q-Chem.  Have a nice day.  *
        *                                                           *
        *************************************************************


