                  Welcome to Q-Chem
     A Quantum Leap Into The Future Of Chemistry


 Q-Chem 5.3 (devel), Q-Chem, Inc., Pleasanton, CA (2020)

 Yihan Shao,  Zhengting Gan,  E. Epifanovsky,  A. T. B. Gilbert,  M. Wormit,  
 J. Kussmann,  A. W. Lange,  A. Behn,  Jia Deng,  Xintian Feng,  D. Ghosh,  
 M. Goldey,  P. R. Horn,  L. D. Jacobson,  I. Kaliman,  T. Kus,  A. Landau,  
 Jie Liu,  E. I. Proynov,  R. M. Richard,  R. P. Steele,  E. J. Sundstrom,  
 H. L. Woodcock III,  P. M. Zimmerman,  D. Zuev,  B. Alam,  B. Albrecht,  
 E. Alguire,  S. A. Baeppler,  D. Barton,  Z. Benda,  Y. A. Bernard,  
 E. J. Berquist,  K. B. Bravaya,  H. Burton,  K. Carter-Fenk,  D. Casanova,  
 Chun-Min Chang,  Yunqing Chen,  A. Chien,  K. D. Closser,  M. P. Coons,  
 S. Coriani,  S. Dasgupta,  A. L. Dempwolff,  M. Diedenhofen,  Hainam Do,  
 R. G. Edgar,  Po-Tung Fang,  S. Faraji,  S. Fatehi,  Qingguo Feng,  
 J. Fosso-Tande,  J. Gayvert,  Qinghui Ge,  A. Ghysels,  G. Gidofalvi,  
 J. Gomes,  J. Gonthier,  A. Gunina,  D. Hait,  M. W. D. Hanson-Heine,  
 P. H. P. Harbach,  A. W. Hauser,  M. F. Herbst,  J. E. Herr,  
 E. G. Hohenstein,  Z. C. Holden,  Kerwin Hui,  B. C. Huynh,  T.-C. Jagau,  
 Hyunjun Ji,  B. Kaduk,  K. Khistyaev,  Jaehoon Kim,  P. Klunzinger,  K. Koh,  
 D. Kosenkov,  L. Koulias,  T. Kowalczyk,  C. M. Krauter,  A. Kunitsa,  
 Ka Un Lao,  A. Laurent,  K. V. Lawler,  Joonho Lee,  D. Lefrancois,  
 S. Lehtola,  D. S. Levine,  Yi-Pei Li,  You-Sheng Lin,  Fenglai Liu,  
 Kuan-Yu Liu,  E. Livshits,  M. Loipersberger,  A. Luenser,  P. Manohar,  
 E. Mansoor,  S. F. Manzer,  Shan-Ping Mao,  Yuezhi Mao,  N. Mardirossian,  
 A. V. Marenich,  T. Markovich,  L. A. Martinez-Martinez,  S. A. Maurer,  
 N. J. Mayhall,  S. C. McKenzie,  J.-M. Mewes,  P. Morgante,  A. F. Morrison,  
 J. W. Mullinax,  K. Nanda,  T. S. Nguyen-Beck,  R. Olivares-Amaya,  
 K. J. Oosterbaan,  J. A. Parkhill,  S. K. Paul,  F. Pavosevic,  Zheng Pei,  
 T. M. Perrine,  F. Plasser,  P. Pokhilko,  S. Prager,  A. Prociuk,  
 E. Ramos,  B. Rana,  D. R. Rehn,  F. Rob,  M. Scheurer,  M. Schneider,  
 N. Sergueev,  S. M. Sharada,  S. Sharma,  D. W. Small,  T. Stauch,  
 C. J. Stein,  T. Stein,  Yu-Chuan Su,  S. P. Veccham,  Zhen Tao,  
 A. J. W. Thom,  A. Tkatchenko,  T. Tsuchimochi,  N. M. Tubman,  L. Vogt,  
 M. L. Vidal,  O. Vydrov,  M. A. Watson,  J. Wenzel,  M. de Wergifosse,  
 T. A. Wesolowski,  A. White,  J. Witte,  A. Yamada,  Jun Yang,  K. Yao,  
 S. Yeganeh,  S. R. Yost,  Zhi-Qiang You,  A. Zech,  Igor Ying Zhang,  
 Xing Zhang,  Yan Zhao,  Ying Zhu,  B. R. Brooks,  G. K. L. Chan,  
 C. J. Cramer,  M. S. Gordon,  W. J. Hehre,  A. Klamt,  M. W. Schmidt,  
 C. D. Sherrill,  D. G. Truhlar,  A. Aspuru-Guzik,  R. Baer,  A. T. Bell,  
 N. A. Besley,  Jeng-Da Chai,  A. E. DePrince, III,  R. A. DiStasio Jr.,  
 A. Dreuw,  B. D. Dunietz,  T. R. Furlani,  Chao-Ping Hsu,  Yousung Jung,  
 Jing Kong,  D. S. Lambrecht,  WanZhen Liang,  C. Ochsenfeld,  
 V. A. Rassolov,  L. V. Slipchenko,  J. E. Subotnik,  T. Van Voorhis,  
 J. M. Herbert,  A. I. Krylov,  P. M. W. Gill,  M. Head-Gordon

 Contributors to earlier versions of Q-Chem not listed above: 
 R. D. Adamson,  B. Austin,  J. Baker,  G. J. O. Beran,  K. Brandhorst,  
 S. T. Brown,  E. F. C. Byrd,  A. K. Chakraborty,  C.-L. Cheng,  
 Siu Hung Chien,  D. M. Chipman,  D. L. Crittenden,  H. Dachsel,  
 R. J. Doerksen,  A. D. Dutoi,  L. Fusti-Molnar,  W. A. Goddard III,  
 A. Golubeva-Zadorozhnaya,  S. R. Gwaltney,  G. Hawkins,  A. Heyden,  
 S. Hirata,  G. Kedziora,  F. J. Keil,  C. Kelley,  Jihan Kim,  R. A. King,  
 R. Z. Khaliullin,  P. P. Korambath,  W. Kurlancheek,  A. M. Lee,  M. S. Lee,  
 S. V. Levchenko,  Ching Yeh Lin,  D. Liotard,  R. C. Lochan,  I. Lotan,  
 P. E. Maslen,  N. Nair,  D. P. O'Neill,  D. Neuhauser,  E. Neuscamman,  
 C. M. Oana,  R. Olson,  B. Peters,  R. Peverati,  P. A. Pieniazek,  
 Y. M. Rhee,  J. Ritchie,  M. A. Rohrdanz,  E. Rosta,  N. J. Russ,  
 H. F. Schaefer III,  N. E. Schultz,  N. Shenvi,  A. C. Simmonett,  A. Sodt,  
 D. Stuck,  K. S. Thanthiriwatte,  V. Vanovschi,  Tao Wang,  A. Warshel,  
 C. F. Williams,  Q. Wu,  X. Xu,  W. Zhang

 Please cite Q-Chem as follows:
 Y. Shao et al., Mol. Phys. 113, 184-215 (2015)
 DOI: 10.1080/00268976.2014.952696

 Q-Chem 5.3.0 for Intel X86 EM64T Linux

 Parts of Q-Chem use Armadillo 9.800.1 (Horizon Scraper).
 http://arma.sourceforge.net/

 Q-Chem begins on Mon Jul 27 16:03:01 2020  

Host: centos77-c7
0

     Scratch files written to /tmp/29924.centos77-h1/qchem129158//
Processing $rem in /opt/qchem-5.3.0-intel2020u1//config/preferences:
Processing $rem in /home/shihchengli/.qchemrc:

Checking the input file for inconsistencies... 	...done.

--------------------------------------------------------------
User input:
--------------------------------------------------------------
$rem
   JOBTYPE  sp
   EXCHANGE   omegaB97X-D
   BASIS   6-311+G(2df,2pd)
   UNRESTRICTED   False
   max_scf_cycles   250
   geom_opt_max_cycles   1500
   basis2 6-31G*
   scf_algorithm rca_diis
   SYM_IGNORE  TRUE
   print_input   true
   geom_opt_dmax   80
   pop_mulliken false
   XC_GRID 000075000302
$end

$molecule
0 1
C       -4.5008297961     0.5188149175     0.0002727274
C       -3.3374064898     1.1913931858     -0.0002750043
H       -5.2812846401     0.8567910674     -0.4829208830
H       -4.5975464665     -0.3255323088     0.4826126407
H       -3.2406908284     2.0357441980     -0.4826122145
H       -2.5569517791     0.8534189402     0.4829227337
$end
--------------------------------------------------------------
 ----------------------------------------------------------------
             Standard Nuclear Orientation (Angstroms)
    I     Atom           X                Y                Z
 ----------------------------------------------------------------
    1      C      -4.5008297961     0.5188149175     0.0002727274
    2      C      -3.3374064898     1.1913931858    -0.0002750043
    3      H      -5.2812846401     0.8567910674    -0.4829208830
    4      H      -4.5975464665    -0.3255323088     0.4826126407
    5      H      -3.2406908284     2.0357441980    -0.4826122145
    6      H      -2.5569517791     0.8534189402     0.4829227337
 ----------------------------------------------------------------
 Nuclear Repulsion Energy =          34.86819526 hartrees
 There are        8 alpha and        8 beta electrons
 Requested basis set is 6-311+G(2df,2pd)
 There are 40 shells and 124 basis functions

 Total QAlloc Memory Limit   2000 MB
 Mega-Array Size       188 MB
 MEM_STATIC part       192 MB

                       Distance Matrix (Angstroms)
             C (  1)   C (  2)   H (  3)   H (  4)   H (  5)
   C (  2)  1.343844
   H (  3)  0.978169  2.030657
   H (  4)  0.977204  2.030319  1.672615
   H (  5)  2.030321  0.977206  2.356683  2.889350
   H (  6)  2.030658  0.978170  2.890477  2.356683  1.672618
 
 A cutoff of  1.0D-09 yielded    820 shell pairs
 There are      7944 function pairs (      9873 Cartesian)
 Smallest overlap matrix eigenvalue = 1.28E-04

 Scale SEOQF with 1.000000e-02/1.000000e-01/1.000000e-01

 Standard Electronic Orientation quadrupole field applied
 Nucleus-field energy     =     0.0000000019 hartrees
 Requested basis set is 6-31G(d)
 There are 16 shells and 36 basis functions
 A cutoff of  1.0D-09 yielded    136 shell pairs
 There are       710 function pairs (       795 Cartesian)
 Smallest overlap matrix eigenvalue = 8.16E-03
 Guess from superposition of atomic densities
 Warning:  Energy on first SCF cycle will be non-variational
 SAD guess density has 16.000000 electrons
 Long-range K will be added via erf
 Coulomb attenuation parameter = 0.2 bohr**(-1)
 A restricted hybrid HF-DFT SCF calculation will be
 performed using Relaxed Constraint Minimization + Pulay DIIS
 Exchange:     0.2220 Hartree-Fock + 1.0000 wB97X-D + LR-HF
 Correlation:  1.0000 wB97X-D
 Using Euler-Maclaurin-Lebedev (75,302) quadrature formula
 Dispersion:   Grimme D
 SCF converges when DIIS error is below 1.0E-04
 using 6 threads for integral computing
 -------------------------------------------------------
 OpenMP Integral computing Module                
 Release: version 1.0, May 2013, Q-Chem Inc. Pittsburgh 
 -------------------------------------------------------
 using 6 threads for integral computing
 -------------------------------------------------------
 OpenMP Integral computing Module                
 Release: version 1.0, May 2013, Q-Chem Inc. Pittsburgh 
 -------------------------------------------------------
 ---------------------------------------
  Cycle       Energy         DIIS Error
 ---------------------------------------
    1     -78.9953956502      1.40E-01
    2     -78.4891267100      1.23E-02
    3     -78.5077686457      5.99E-03
    4     -78.5138055430      3.47E-03
    5     -78.5151277526      1.23E-03
    6     -78.5156764899      7.24E-04 Done RCA. Switching to DIIS
    7     -78.5157320780      4.25E-04
    8     -78.5157612935      1.48E-07 Convergence criterion met
 ---------------------------------------
 SCF time:  CPU 8.94 s  wall 1.50 s
 SCF   energy in the small basis set = -78.51576129
 Total energy in the small basis set = -78.51576129
 ----------------------------------------------------
  Cycle       Energy    
 ----------------------------------------------------
    1     -10.7001077536     -1.07E+01
 Long-range K will be added via erf
 Coulomb attenuation parameter = 0.2 bohr**(-1)
 A restricted hybrid HF-DFT SCF calculation will be
 performed using Relaxed Constraint Minimization + Pulay DIIS
 Exchange:     0.2220 Hartree-Fock + 1.0000 wB97X-D + LR-HF
 Correlation:  1.0000 wB97X-D
 Using Euler-Maclaurin-Lebedev (75,302) quadrature formula
 Dispersion:   Grimme D
 SCF converges when DIIS error is below 1.0E-05
 Basis2 calculation detected. Using small basis as guess for larger.
 SCFMinFind is unable to tell whether the solution found is close.
 Resetting ReadMinima to 0 and attempting to follow guess.
 SCFMinFind following SCF Guess.
 using 6 threads for integral computing
 -------------------------------------------------------
 OpenMP Integral computing Module                
 Release: version 1.0, May 2013, Q-Chem Inc. Pittsburgh 
 -------------------------------------------------------
 using 6 threads for integral computing
 -------------------------------------------------------
 OpenMP Integral computing Module                
 Release: version 1.0, May 2013, Q-Chem Inc. Pittsburgh 
 -------------------------------------------------------
 ---------------------------------------
  Cycle       Energy         DIIS Error
 ---------------------------------------
    1     -78.5366412372      5.94E-03
    2     -78.5499130091      9.54E-04 Done RCA. Switching to DIIS
    3     -78.5507606918      5.40E-04
    4     -78.5512706979      4.44E-05
    5     -78.5512751535      4.77E-06 Convergence criterion met
 ---------------------------------------
 SCF time:  CPU 12.64 s  wall 2.12 s
 SCF   energy in the final basis set = -78.55127515
 Total energy in the final basis set = -78.55127515
 
 --------------------------------------------------------------
 
                    Orbital Energies (a.u.)
 --------------------------------------------------------------
 
 Alpha MOs
 -- Occupied --
-10.2612 -10.2603  -0.8734  -0.7085  -0.5847  -0.5141  -0.4660  -0.3558
 -- Virtual --
  0.0609   0.0792   0.0887   0.1025   0.1252   0.1284   0.1478   0.1786
  0.2045   0.2314   0.2698   0.2981   0.3541   0.3900   0.4658   0.4660
  0.5814   0.5818   0.5986   0.6024   0.6153   0.6454   0.6755   0.6766
  0.7347   0.7567   0.7672   0.7815   0.8257   0.9363   1.0365   1.0514
  1.1200   1.1250   1.1300   1.2168   1.2539   1.2625   1.2678   1.4567
  1.4833   1.5032   1.5339   1.5581   1.5716   1.6704   1.7177   1.8088
  2.2182   2.4897   2.5364   2.6254   2.6777   2.8086   2.8120   2.8318
  2.8551   2.9092   2.9623   2.9948   3.0485   3.0640   3.0708   3.0803
  3.1151   3.1435   3.1478   3.2385   3.2889   3.2954   3.3046   3.3196
  3.3212   3.4707   3.4865   3.5657   3.6190   3.6474   3.6955   3.7674
  3.8143   3.8976   3.9135   3.9310   3.9812   4.0491   4.0742   4.1270
  4.1298   4.2391   4.2425   4.2900   4.2905   4.4881   4.5139   4.8122
  4.8209   4.9416   5.0291   5.2850   5.3135   5.3254   5.4852   5.5070
  5.5087   5.5094   5.6273   5.7816   5.8847   5.8961   6.5996   6.6838
  6.7061   7.0392  25.0344  25.6711
 --------------------------------------------------------------
 
 -----------------------------------------------------------------
                    Cartesian Multipole Moments
 -----------------------------------------------------------------
    Charge (ESU x 10^10)
                -0.0000
    Dipole Moment (Debye)
         X      -0.0000      Y       0.0000      Z       0.0000
       Tot       0.0000
    Quadrupole Moments (Debye-Ang)
        XX     -12.2089     XY       0.5960     YY     -12.8932
        XZ       0.7051     YZ      -1.2208     ZZ     -14.2360
    Octopole Moments (Debye-Ang^2)
       XXX     143.5448    XXY     -15.1117    XYY      51.5492
       YYY     -33.0750    XXZ      -5.5272    XYZ       5.3875
       YYZ      -2.0878    XZZ      55.7924    YZZ     -12.1732
       ZZZ       0.0000
    Hexadecapole Moments (Debye-Ang^3)
      XXXX   -1177.1053   XXXY     140.6969   XXYY    -229.4336
      XYYY     122.8409   YYYY     -88.2140   XXXZ      33.3809
      XXYZ     -23.5043   XYYZ       7.8741   YYYZ      -2.7590
      XXZZ    -230.7880   XYZZ      44.7002   YYZZ     -19.0712
      XZZZ      -0.6235   YZZZ       1.0797   ZZZZ     -21.3052
 -----------------------------------------------------------------
Archival summary:
1\1\centos77-c7\SP\ProcedureUnspecified\BasisUnspecified\24\shihchen\MonJul2716:03:062020MonJul2716:03:062020\0\\#,ProcedureUnspecified,BasisUnspecified,\\0,1\C\H,1,0.977204\H,1,0.978169,2,117.607\C,1,1.34384,2,121.22,3,-179.956,0\H,4,0.977206,1,121.22,2,-180,0\H,4,0.97817,1,121.173,2,-0.0463544,0\\\@

 Total job time:  4.54s(wall), 23.99s(cpu) 
 Mon Jul 27 16:03:06 2020

        *************************************************************
        *                                                           *
        *  Thank you very much for using Q-Chem.  Have a nice day.  *
        *                                                           *
        *************************************************************


