                  Welcome to Q-Chem
     A Quantum Leap Into The Future Of Chemistry


 Q-Chem 5.3 (devel), Q-Chem, Inc., Pleasanton, CA (2020)

 Yihan Shao,  Zhengting Gan,  E. Epifanovsky,  A. T. B. Gilbert,  M. Wormit,  
 J. Kussmann,  A. W. Lange,  A. Behn,  Jia Deng,  Xintian Feng,  D. Ghosh,  
 M. Goldey,  P. R. Horn,  L. D. Jacobson,  I. Kaliman,  T. Kus,  A. Landau,  
 Jie Liu,  E. I. Proynov,  R. M. Richard,  R. P. Steele,  E. J. Sundstrom,  
 H. L. Woodcock III,  P. M. Zimmerman,  D. Zuev,  B. Alam,  B. Albrecht,  
 E. Alguire,  S. A. Baeppler,  D. Barton,  Z. Benda,  Y. A. Bernard,  
 E. J. Berquist,  K. B. Bravaya,  H. Burton,  K. Carter-Fenk,  D. Casanova,  
 Chun-Min Chang,  Yunqing Chen,  A. Chien,  K. D. Closser,  M. P. Coons,  
 S. Coriani,  S. Dasgupta,  A. L. Dempwolff,  M. Diedenhofen,  Hainam Do,  
 R. G. Edgar,  Po-Tung Fang,  S. Faraji,  S. Fatehi,  Qingguo Feng,  
 J. Fosso-Tande,  J. Gayvert,  Qinghui Ge,  A. Ghysels,  G. Gidofalvi,  
 J. Gomes,  J. Gonthier,  A. Gunina,  D. Hait,  M. W. D. Hanson-Heine,  
 P. H. P. Harbach,  A. W. Hauser,  M. F. Herbst,  J. E. Herr,  
 E. G. Hohenstein,  Z. C. Holden,  Kerwin Hui,  B. C. Huynh,  T.-C. Jagau,  
 Hyunjun Ji,  B. Kaduk,  K. Khistyaev,  Jaehoon Kim,  P. Klunzinger,  K. Koh,  
 D. Kosenkov,  L. Koulias,  T. Kowalczyk,  C. M. Krauter,  A. Kunitsa,  
 Ka Un Lao,  A. Laurent,  K. V. Lawler,  Joonho Lee,  D. Lefrancois,  
 S. Lehtola,  D. S. Levine,  Yi-Pei Li,  You-Sheng Lin,  Fenglai Liu,  
 Kuan-Yu Liu,  E. Livshits,  M. Loipersberger,  A. Luenser,  P. Manohar,  
 E. Mansoor,  S. F. Manzer,  Shan-Ping Mao,  Yuezhi Mao,  N. Mardirossian,  
 A. V. Marenich,  T. Markovich,  L. A. Martinez-Martinez,  S. A. Maurer,  
 N. J. Mayhall,  S. C. McKenzie,  J.-M. Mewes,  P. Morgante,  A. F. Morrison,  
 J. W. Mullinax,  K. Nanda,  T. S. Nguyen-Beck,  R. Olivares-Amaya,  
 K. J. Oosterbaan,  J. A. Parkhill,  S. K. Paul,  F. Pavosevic,  Zheng Pei,  
 T. M. Perrine,  F. Plasser,  P. Pokhilko,  S. Prager,  A. Prociuk,  
 E. Ramos,  B. Rana,  D. R. Rehn,  F. Rob,  M. Scheurer,  M. Schneider,  
 N. Sergueev,  S. M. Sharada,  S. Sharma,  D. W. Small,  T. Stauch,  
 C. J. Stein,  T. Stein,  Yu-Chuan Su,  S. P. Veccham,  Zhen Tao,  
 A. J. W. Thom,  A. Tkatchenko,  T. Tsuchimochi,  N. M. Tubman,  L. Vogt,  
 M. L. Vidal,  O. Vydrov,  M. A. Watson,  J. Wenzel,  M. de Wergifosse,  
 T. A. Wesolowski,  A. White,  J. Witte,  A. Yamada,  Jun Yang,  K. Yao,  
 S. Yeganeh,  S. R. Yost,  Zhi-Qiang You,  A. Zech,  Igor Ying Zhang,  
 Xing Zhang,  Yan Zhao,  Ying Zhu,  B. R. Brooks,  G. K. L. Chan,  
 C. J. Cramer,  M. S. Gordon,  W. J. Hehre,  A. Klamt,  M. W. Schmidt,  
 C. D. Sherrill,  D. G. Truhlar,  A. Aspuru-Guzik,  R. Baer,  A. T. Bell,  
 N. A. Besley,  Jeng-Da Chai,  A. E. DePrince, III,  R. A. DiStasio Jr.,  
 A. Dreuw,  B. D. Dunietz,  T. R. Furlani,  Chao-Ping Hsu,  Yousung Jung,  
 Jing Kong,  D. S. Lambrecht,  WanZhen Liang,  C. Ochsenfeld,  
 V. A. Rassolov,  L. V. Slipchenko,  J. E. Subotnik,  T. Van Voorhis,  
 J. M. Herbert,  A. I. Krylov,  P. M. W. Gill,  M. Head-Gordon

 Contributors to earlier versions of Q-Chem not listed above: 
 R. D. Adamson,  B. Austin,  J. Baker,  G. J. O. Beran,  K. Brandhorst,  
 S. T. Brown,  E. F. C. Byrd,  A. K. Chakraborty,  C.-L. Cheng,  
 Siu Hung Chien,  D. M. Chipman,  D. L. Crittenden,  H. Dachsel,  
 R. J. Doerksen,  A. D. Dutoi,  L. Fusti-Molnar,  W. A. Goddard III,  
 A. Golubeva-Zadorozhnaya,  S. R. Gwaltney,  G. Hawkins,  A. Heyden,  
 S. Hirata,  G. Kedziora,  F. J. Keil,  C. Kelley,  Jihan Kim,  R. A. King,  
 R. Z. Khaliullin,  P. P. Korambath,  W. Kurlancheek,  A. M. Lee,  M. S. Lee,  
 S. V. Levchenko,  Ching Yeh Lin,  D. Liotard,  R. C. Lochan,  I. Lotan,  
 P. E. Maslen,  N. Nair,  D. P. O'Neill,  D. Neuhauser,  E. Neuscamman,  
 C. M. Oana,  R. Olson,  B. Peters,  R. Peverati,  P. A. Pieniazek,  
 Y. M. Rhee,  J. Ritchie,  M. A. Rohrdanz,  E. Rosta,  N. J. Russ,  
 H. F. Schaefer III,  N. E. Schultz,  N. Shenvi,  A. C. Simmonett,  A. Sodt,  
 D. Stuck,  K. S. Thanthiriwatte,  V. Vanovschi,  Tao Wang,  A. Warshel,  
 C. F. Williams,  Q. Wu,  X. Xu,  W. Zhang

 Please cite Q-Chem as follows:
 Y. Shao et al., Mol. Phys. 113, 184-215 (2015)
 DOI: 10.1080/00268976.2014.952696

 Q-Chem 5.3.0 for Intel X86 EM64T Linux

 Parts of Q-Chem use Armadillo 9.800.1 (Horizon Scraper).
 http://arma.sourceforge.net/

 Q-Chem begins on Mon Jul 27 16:02:39 2020  

Host: centos77-c7
0

     Scratch files written to /tmp/29924.centos77-h1/qchem128994//
Processing $rem in /opt/qchem-5.3.0-intel2020u1//config/preferences:
Processing $rem in /home/shihchengli/.qchemrc:

Checking the input file for inconsistencies... 	...done.

--------------------------------------------------------------
User input:
--------------------------------------------------------------
$rem
   JOBTYPE  sp
   EXCHANGE   omegaB97X-D
   BASIS   6-311+G(2df,2pd)
   UNRESTRICTED   False
   max_scf_cycles   250
   geom_opt_max_cycles   1500
   basis2 6-31G*
   scf_algorithm rca_diis
   SYM_IGNORE  TRUE
   print_input   true
   geom_opt_dmax   80
   pop_mulliken false
   XC_GRID 000075000302
$end

$molecule
0 1
C       -4.4819079962     0.5299921140     0.0001702714
C       -3.3563304325     1.1802219469     -0.0001643535
H       -5.4380816581     0.9263231310     -0.5809644172
H       -4.6161971111     -0.4974176950     0.5812019612
H       -3.2220383232     2.2076246653     -0.5812041379
H       -2.4001544789     0.7838858378     0.5809606761
$end
--------------------------------------------------------------
 ----------------------------------------------------------------
             Standard Nuclear Orientation (Angstroms)
    I     Atom           X                Y                Z
 ----------------------------------------------------------------
    1      C      -4.4819079962     0.5299921140     0.0001702714
    2      C      -3.3563304325     1.1802219469    -0.0001643535
    3      H      -5.4380816581     0.9263231310    -0.5809644172
    4      H      -4.6161971111    -0.4974176950     0.5812019612
    5      H      -3.2220383232     2.2076246653    -0.5812041379
    6      H      -2.4001544789     0.7838858378     0.5809606761
 ----------------------------------------------------------------
 Nuclear Repulsion Energy =          32.44851155 hartrees
 There are        8 alpha and        8 beta electrons
 Requested basis set is 6-311+G(2df,2pd)
 There are 40 shells and 124 basis functions

 Total QAlloc Memory Limit   2000 MB
 Mega-Array Size       188 MB
 MEM_STATIC part       192 MB

                       Distance Matrix (Angstroms)
             C (  1)   C (  2)   H (  3)   H (  4)   H (  5)
   C (  2)  1.299894
   H (  3)  1.187040  2.176116
   H (  4)  1.187940  2.177091  2.013247
   H (  5)  2.177090  1.187939  2.559801  3.257625
   H (  6)  2.176115  1.187039  3.255666  2.559802  2.013244
 
 A cutoff of  1.0D-09 yielded    808 shell pairs
 There are      7852 function pairs (      9769 Cartesian)
 Smallest overlap matrix eigenvalue = 1.09E-04

 Scale SEOQF with 1.000000e-02/1.000000e-01/1.000000e-01

 Standard Electronic Orientation quadrupole field applied
 Nucleus-field energy     =     0.0000000020 hartrees
 Requested basis set is 6-31G(d)
 There are 16 shells and 36 basis functions
 A cutoff of  1.0D-09 yielded    136 shell pairs
 There are       710 function pairs (       795 Cartesian)
 Smallest overlap matrix eigenvalue = 7.41E-03
 Guess from superposition of atomic densities
 Warning:  Energy on first SCF cycle will be non-variational
 SAD guess density has 16.000000 electrons
 Long-range K will be added via erf
 Coulomb attenuation parameter = 0.2 bohr**(-1)
 A restricted hybrid HF-DFT SCF calculation will be
 performed using Relaxed Constraint Minimization + Pulay DIIS
 Exchange:     0.2220 Hartree-Fock + 1.0000 wB97X-D + LR-HF
 Correlation:  1.0000 wB97X-D
 Using Euler-Maclaurin-Lebedev (75,302) quadrature formula
 Dispersion:   Grimme D
 SCF converges when DIIS error is below 1.0E-04
 using 6 threads for integral computing
 -------------------------------------------------------
 OpenMP Integral computing Module                
 Release: version 1.0, May 2013, Q-Chem Inc. Pittsburgh 
 -------------------------------------------------------
 using 6 threads for integral computing
 -------------------------------------------------------
 OpenMP Integral computing Module                
 Release: version 1.0, May 2013, Q-Chem Inc. Pittsburgh 
 -------------------------------------------------------
 ---------------------------------------
  Cycle       Energy         DIIS Error
 ---------------------------------------
    1     -78.6271863745      1.15E-01
    2     -78.5111593598      1.06E-02
    3     -78.5236246503      3.20E-03
    4     -78.5309916789      2.18E-03
    5     -78.5314950333      4.28E-04 Done RCA. Switching to DIIS
    6     -78.5318249244      3.09E-04
    7     -78.5318419127      1.03E-06 Convergence criterion met
 ---------------------------------------
 SCF time:  CPU 7.75 s  wall 1.30 s
 SCF   energy in the small basis set = -78.53184191
 Total energy in the small basis set = -78.53184191
 ----------------------------------------------------
  Cycle       Energy    
 ----------------------------------------------------
    1     -10.4385763475     -1.04E+01
 Long-range K will be added via erf
 Coulomb attenuation parameter = 0.2 bohr**(-1)
 A restricted hybrid HF-DFT SCF calculation will be
 performed using Relaxed Constraint Minimization + Pulay DIIS
 Exchange:     0.2220 Hartree-Fock + 1.0000 wB97X-D + LR-HF
 Correlation:  1.0000 wB97X-D
 Using Euler-Maclaurin-Lebedev (75,302) quadrature formula
 Dispersion:   Grimme D
 SCF converges when DIIS error is below 1.0E-05
 Basis2 calculation detected. Using small basis as guess for larger.
 SCFMinFind is unable to tell whether the solution found is close.
 Resetting ReadMinima to 0 and attempting to follow guess.
 SCFMinFind following SCF Guess.
 using 6 threads for integral computing
 -------------------------------------------------------
 OpenMP Integral computing Module                
 Release: version 1.0, May 2013, Q-Chem Inc. Pittsburgh 
 -------------------------------------------------------
 using 6 threads for integral computing
 -------------------------------------------------------
 OpenMP Integral computing Module                
 Release: version 1.0, May 2013, Q-Chem Inc. Pittsburgh 
 -------------------------------------------------------
 ---------------------------------------
  Cycle       Energy         DIIS Error
 ---------------------------------------
    1     -78.5490077482      5.86E-03
    2     -78.5613532940      9.21E-04 Done RCA. Switching to DIIS
    3     -78.5620062597      6.38E-04
    4     -78.5627986164      5.18E-05
    5     -78.5628057346      5.26E-06 Convergence criterion met
 ---------------------------------------
 SCF time:  CPU 12.49 s  wall 2.10 s
 SCF   energy in the final basis set = -78.56280573
 Total energy in the final basis set = -78.56280573
 
 --------------------------------------------------------------
 
                    Orbital Energies (a.u.)
 --------------------------------------------------------------
 
 Alpha MOs
 -- Occupied --
-10.3023 -10.3011  -0.8617  -0.6445  -0.5413  -0.5029  -0.4154  -0.3672
 -- Virtual --
  0.0675   0.0827   0.0860   0.0978   0.1233   0.1292   0.1415   0.1823
  0.1846   0.1976   0.2007   0.2426   0.3359   0.3882   0.4753   0.4770
  0.5289   0.5542   0.5554   0.5615   0.5903   0.6243   0.6627   0.6678
  0.6833   0.6872   0.7621   0.8002   0.8182   0.8652   0.9263   0.9585
  1.0353   1.0511   1.0800   1.1515   1.2106   1.2216   1.2734   1.3903
  1.3998   1.4170   1.4235   1.4548   1.4616   1.5605   1.6450   1.7870
  2.4950   2.5471   2.5836   2.6100   2.7065   2.7490   2.7547   2.7593
  2.7687   2.8396   2.9121   2.9143   2.9291   2.9393   3.0151   3.0371
  3.0904   3.0957   3.0968   3.1025   3.2150   3.2621   3.3017   3.3604
  3.3624   3.3639   3.3733   3.3880   3.4880   3.5271   3.6062   3.6086
  3.6524   3.7327   3.7772   3.7861   3.8926   3.9018   3.9169   3.9665
  4.0153   4.0574   4.0804   4.1109   4.1342   4.1931   4.3029   4.4325
  4.4930   4.5487   4.6051   4.7074   4.7421   4.7646   4.7957   4.8349
  4.8839   4.9653   4.9956   5.1380   5.1614   5.5322   5.9724   6.0785
  6.2704   6.2851  24.5310  25.2406
 --------------------------------------------------------------
 
 -----------------------------------------------------------------
                    Cartesian Multipole Moments
 -----------------------------------------------------------------
    Charge (ESU x 10^10)
                 0.0000
    Dipole Moment (Debye)
         X       0.0000      Y      -0.0000      Z      -0.0000
       Tot       0.0000
    Quadrupole Moments (Debye-Ang)
        XX     -12.7251     XY       0.4719     YY     -13.2672
        XZ       0.8821     YZ      -1.5262     ZZ     -14.7876
    Octopole Moments (Debye-Ang^2)
       XXX     149.6131    XXY     -14.5804    XYY      52.8026
       YYY     -34.0345    XXZ      -6.9141    XYZ       6.7355
       YYZ      -2.6101    XZZ      57.9544    YZZ     -12.6450
       ZZZ      -0.0001
    Hexadecapole Moments (Debye-Ang^3)
      XXXX   -1231.6160   XXXY     138.6500   XXYY    -236.6109
      XYYY     126.5062   YYYY     -95.3035   XXXZ      42.0750
      XXYZ     -29.2155   XYYZ       9.1444   YYYZ      -2.9471
      XXZZ    -240.8411   XYZZ      46.3527   YYZZ     -20.8356
      XZZZ      -1.5510   YZZZ       2.7084   ZZZZ     -25.1391
 -----------------------------------------------------------------
Archival summary:
1\1\centos77-c7\SP\ProcedureUnspecified\BasisUnspecified\24\shihchen\MonJul2716:02:432020MonJul2716:02:432020\0\\#,ProcedureUnspecified,BasisUnspecified,\\0,1\C\H,1,1.18704\H,1,1.18794,2,115.923\C,1,1.29989,2,122.029,3,-179.952,0\H,4,1.18704,1,122.029,2,-180,0\H,4,1.18794,1,122.048,2,-0.0515004,0\\\@

 Total job time:  4.28s(wall), 22.61s(cpu) 
 Mon Jul 27 16:02:43 2020

        *************************************************************
        *                                                           *
        *  Thank you very much for using Q-Chem.  Have a nice day.  *
        *                                                           *
        *************************************************************


