                  Welcome to Q-Chem
     A Quantum Leap Into The Future Of Chemistry


 Q-Chem 5.3 (devel), Q-Chem, Inc., Pleasanton, CA (2020)

 Yihan Shao,  Zhengting Gan,  E. Epifanovsky,  A. T. B. Gilbert,  M. Wormit,  
 J. Kussmann,  A. W. Lange,  A. Behn,  Jia Deng,  Xintian Feng,  D. Ghosh,  
 M. Goldey,  P. R. Horn,  L. D. Jacobson,  I. Kaliman,  T. Kus,  A. Landau,  
 Jie Liu,  E. I. Proynov,  R. M. Richard,  R. P. Steele,  E. J. Sundstrom,  
 H. L. Woodcock III,  P. M. Zimmerman,  D. Zuev,  B. Alam,  B. Albrecht,  
 E. Alguire,  S. A. Baeppler,  D. Barton,  Z. Benda,  Y. A. Bernard,  
 E. J. Berquist,  K. B. Bravaya,  H. Burton,  K. Carter-Fenk,  D. Casanova,  
 Chun-Min Chang,  Yunqing Chen,  A. Chien,  K. D. Closser,  M. P. Coons,  
 S. Coriani,  S. Dasgupta,  A. L. Dempwolff,  M. Diedenhofen,  Hainam Do,  
 R. G. Edgar,  Po-Tung Fang,  S. Faraji,  S. Fatehi,  Qingguo Feng,  
 J. Fosso-Tande,  J. Gayvert,  Qinghui Ge,  A. Ghysels,  G. Gidofalvi,  
 J. Gomes,  J. Gonthier,  A. Gunina,  D. Hait,  M. W. D. Hanson-Heine,  
 P. H. P. Harbach,  A. W. Hauser,  M. F. Herbst,  J. E. Herr,  
 E. G. Hohenstein,  Z. C. Holden,  Kerwin Hui,  B. C. Huynh,  T.-C. Jagau,  
 Hyunjun Ji,  B. Kaduk,  K. Khistyaev,  Jaehoon Kim,  P. Klunzinger,  K. Koh,  
 D. Kosenkov,  L. Koulias,  T. Kowalczyk,  C. M. Krauter,  A. Kunitsa,  
 Ka Un Lao,  A. Laurent,  K. V. Lawler,  Joonho Lee,  D. Lefrancois,  
 S. Lehtola,  D. S. Levine,  Yi-Pei Li,  You-Sheng Lin,  Fenglai Liu,  
 Kuan-Yu Liu,  E. Livshits,  M. Loipersberger,  A. Luenser,  P. Manohar,  
 E. Mansoor,  S. F. Manzer,  Shan-Ping Mao,  Yuezhi Mao,  N. Mardirossian,  
 A. V. Marenich,  T. Markovich,  L. A. Martinez-Martinez,  S. A. Maurer,  
 N. J. Mayhall,  S. C. McKenzie,  J.-M. Mewes,  P. Morgante,  A. F. Morrison,  
 J. W. Mullinax,  K. Nanda,  T. S. Nguyen-Beck,  R. Olivares-Amaya,  
 K. J. Oosterbaan,  J. A. Parkhill,  S. K. Paul,  F. Pavosevic,  Zheng Pei,  
 T. M. Perrine,  F. Plasser,  P. Pokhilko,  S. Prager,  A. Prociuk,  
 E. Ramos,  B. Rana,  D. R. Rehn,  F. Rob,  M. Scheurer,  M. Schneider,  
 N. Sergueev,  S. M. Sharada,  S. Sharma,  D. W. Small,  T. Stauch,  
 C. J. Stein,  T. Stein,  Yu-Chuan Su,  S. P. Veccham,  Zhen Tao,  
 A. J. W. Thom,  A. Tkatchenko,  T. Tsuchimochi,  N. M. Tubman,  L. Vogt,  
 M. L. Vidal,  O. Vydrov,  M. A. Watson,  J. Wenzel,  M. de Wergifosse,  
 T. A. Wesolowski,  A. White,  J. Witte,  A. Yamada,  Jun Yang,  K. Yao,  
 S. Yeganeh,  S. R. Yost,  Zhi-Qiang You,  A. Zech,  Igor Ying Zhang,  
 Xing Zhang,  Yan Zhao,  Ying Zhu,  B. R. Brooks,  G. K. L. Chan,  
 C. J. Cramer,  M. S. Gordon,  W. J. Hehre,  A. Klamt,  M. W. Schmidt,  
 C. D. Sherrill,  D. G. Truhlar,  A. Aspuru-Guzik,  R. Baer,  A. T. Bell,  
 N. A. Besley,  Jeng-Da Chai,  A. E. DePrince, III,  R. A. DiStasio Jr.,  
 A. Dreuw,  B. D. Dunietz,  T. R. Furlani,  Chao-Ping Hsu,  Yousung Jung,  
 Jing Kong,  D. S. Lambrecht,  WanZhen Liang,  C. Ochsenfeld,  
 V. A. Rassolov,  L. V. Slipchenko,  J. E. Subotnik,  T. Van Voorhis,  
 J. M. Herbert,  A. I. Krylov,  P. M. W. Gill,  M. Head-Gordon

 Contributors to earlier versions of Q-Chem not listed above: 
 R. D. Adamson,  B. Austin,  J. Baker,  G. J. O. Beran,  K. Brandhorst,  
 S. T. Brown,  E. F. C. Byrd,  A. K. Chakraborty,  C.-L. Cheng,  
 Siu Hung Chien,  D. M. Chipman,  D. L. Crittenden,  H. Dachsel,  
 R. J. Doerksen,  A. D. Dutoi,  L. Fusti-Molnar,  W. A. Goddard III,  
 A. Golubeva-Zadorozhnaya,  S. R. Gwaltney,  G. Hawkins,  A. Heyden,  
 S. Hirata,  G. Kedziora,  F. J. Keil,  C. Kelley,  Jihan Kim,  R. A. King,  
 R. Z. Khaliullin,  P. P. Korambath,  W. Kurlancheek,  A. M. Lee,  M. S. Lee,  
 S. V. Levchenko,  Ching Yeh Lin,  D. Liotard,  R. C. Lochan,  I. Lotan,  
 P. E. Maslen,  N. Nair,  D. P. O'Neill,  D. Neuhauser,  E. Neuscamman,  
 C. M. Oana,  R. Olson,  B. Peters,  R. Peverati,  P. A. Pieniazek,  
 Y. M. Rhee,  J. Ritchie,  M. A. Rohrdanz,  E. Rosta,  N. J. Russ,  
 H. F. Schaefer III,  N. E. Schultz,  N. Shenvi,  A. C. Simmonett,  A. Sodt,  
 D. Stuck,  K. S. Thanthiriwatte,  V. Vanovschi,  Tao Wang,  A. Warshel,  
 C. F. Williams,  Q. Wu,  X. Xu,  W. Zhang

 Please cite Q-Chem as follows:
 Y. Shao et al., Mol. Phys. 113, 184-215 (2015)
 DOI: 10.1080/00268976.2014.952696

 Q-Chem 5.3.0 for Intel X86 EM64T Linux

 Parts of Q-Chem use Armadillo 9.800.1 (Horizon Scraper).
 http://arma.sourceforge.net/

 Q-Chem begins on Mon Jul 27 16:00:14 2020  

Host: centos77-c7
0

     Scratch files written to /tmp/29924.centos77-h1/qchem127729//
Processing $rem in /opt/qchem-5.3.0-intel2020u1//config/preferences:
Processing $rem in /home/shihchengli/.qchemrc:

Checking the input file for inconsistencies... 	...done.

--------------------------------------------------------------
User input:
--------------------------------------------------------------
$rem
   JOBTYPE  sp
   EXCHANGE   omegaB97X-D
   BASIS   6-311+G(2df,2pd)
   UNRESTRICTED   False
   max_scf_cycles   250
   geom_opt_max_cycles   1500
   basis2 6-31G*
   scf_algorithm rca_diis
   SYM_IGNORE  TRUE
   print_input   true
   geom_opt_dmax   80
   pop_mulliken false
   XC_GRID 000075000302
$end

$molecule
0 1
C       -4.5480361259     0.4909879157     -0.0003144714
C       -3.2902094799     1.2192359689     0.0003377618
H       -5.5489436548     0.6161476385     -0.4300811741
H       -4.9402205747     -0.4379256403     0.4304335762
H       -2.8980147383     2.1481340521     -0.4304341782
H       -2.2892854264     1.0940500653     0.4300584858
$end
--------------------------------------------------------------
 ----------------------------------------------------------------
             Standard Nuclear Orientation (Angstroms)
    I     Atom           X                Y                Z
 ----------------------------------------------------------------
    1      C      -4.5480361259     0.4909879157    -0.0003144714
    2      C      -3.2902094799     1.2192359689     0.0003377618
    3      H      -5.5489436548     0.6161476385    -0.4300811741
    4      H      -4.9402205747    -0.4379256403     0.4304335762
    5      H      -2.8980147383     2.1481340521    -0.4304341782
    6      H      -2.2892854264     1.0940500653     0.4300584858
 ----------------------------------------------------------------
 Nuclear Repulsion Energy =          31.39791555 hartrees
 There are        8 alpha and        8 beta electrons
 Requested basis set is 6-311+G(2df,2pd)
 There are 40 shells and 124 basis functions

 Total QAlloc Memory Limit   2000 MB
 Mega-Array Size       188 MB
 MEM_STATIC part       192 MB

                       Distance Matrix (Angstroms)
             C (  1)   C (  2)   H (  3)   H (  4)   H (  5)
   C (  2)  1.453435
   H (  3)  1.096440  2.377153
   H (  4)  1.096464  2.377752  1.490671
   H (  5)  2.377752  1.096464  3.061765  3.405790
   H (  6)  2.377154  1.096440  3.404938  3.061765  1.490668
 
 A cutoff of  1.0D-09 yielded    798 shell pairs
 There are      7802 function pairs (      9715 Cartesian)
 Smallest overlap matrix eigenvalue = 2.37E-04

 Scale SEOQF with 1.000000e-02/1.000000e-01/1.000000e-01

 Standard Electronic Orientation quadrupole field applied
 Nucleus-field energy     =     0.0000000020 hartrees
 Requested basis set is 6-31G(d)
 There are 16 shells and 36 basis functions
 A cutoff of  1.0D-09 yielded    136 shell pairs
 There are       710 function pairs (       795 Cartesian)
 Smallest overlap matrix eigenvalue = 1.12E-02
 Guess from superposition of atomic densities
 Warning:  Energy on first SCF cycle will be non-variational
 SAD guess density has 16.000000 electrons
 Long-range K will be added via erf
 Coulomb attenuation parameter = 0.2 bohr**(-1)
 A restricted hybrid HF-DFT SCF calculation will be
 performed using Relaxed Constraint Minimization + Pulay DIIS
 Exchange:     0.2220 Hartree-Fock + 1.0000 wB97X-D + LR-HF
 Correlation:  1.0000 wB97X-D
 Using Euler-Maclaurin-Lebedev (75,302) quadrature formula
 Dispersion:   Grimme D
 SCF converges when DIIS error is below 1.0E-04
 using 6 threads for integral computing
 -------------------------------------------------------
 OpenMP Integral computing Module                
 Release: version 1.0, May 2013, Q-Chem Inc. Pittsburgh 
 -------------------------------------------------------
 using 6 threads for integral computing
 -------------------------------------------------------
 OpenMP Integral computing Module                
 Release: version 1.0, May 2013, Q-Chem Inc. Pittsburgh 
 -------------------------------------------------------
 ---------------------------------------
  Cycle       Energy         DIIS Error
 ---------------------------------------
    1     -78.6013835834      1.08E-01
    2     -78.4640762801      8.35E-03
    3     -78.4734690475      4.15E-03
    4     -78.4771140649      2.77E-03
    5     -78.4779499990      6.36E-04 Done RCA. Switching to DIIS
    6     -78.4784509870      4.35E-04
    7     -78.4784845164      7.98E-07 Convergence criterion met
 ---------------------------------------
 SCF time:  CPU 7.63 s  wall 1.28 s
 SCF   energy in the small basis set = -78.47848452
 Total energy in the small basis set = -78.47848452
 ----------------------------------------------------
  Cycle       Energy    
 ----------------------------------------------------
    1     -10.4466065566     -1.04E+01
 Long-range K will be added via erf
 Coulomb attenuation parameter = 0.2 bohr**(-1)
 A restricted hybrid HF-DFT SCF calculation will be
 performed using Relaxed Constraint Minimization + Pulay DIIS
 Exchange:     0.2220 Hartree-Fock + 1.0000 wB97X-D + LR-HF
 Correlation:  1.0000 wB97X-D
 Using Euler-Maclaurin-Lebedev (75,302) quadrature formula
 Dispersion:   Grimme D
 SCF converges when DIIS error is below 1.0E-05
 Basis2 calculation detected. Using small basis as guess for larger.
 SCFMinFind is unable to tell whether the solution found is close.
 Resetting ReadMinima to 0 and attempting to follow guess.
 SCFMinFind following SCF Guess.
 using 6 threads for integral computing
 -------------------------------------------------------
 OpenMP Integral computing Module                
 Release: version 1.0, May 2013, Q-Chem Inc. Pittsburgh 
 -------------------------------------------------------
 using 6 threads for integral computing
 -------------------------------------------------------
 OpenMP Integral computing Module                
 Release: version 1.0, May 2013, Q-Chem Inc. Pittsburgh 
 -------------------------------------------------------
 ---------------------------------------
  Cycle       Energy         DIIS Error
 ---------------------------------------
    1     -78.4968886615      5.88E-03
    2     -78.5095202867      9.07E-04 Done RCA. Switching to DIIS
    3     -78.5102204424      5.90E-04
    4     -78.5108957714      5.65E-05
    5     -78.5109038744      7.48E-06 Convergence criterion met
 ---------------------------------------
 SCF time:  CPU 11.95 s  wall 2.01 s
 SCF   energy in the final basis set = -78.51090387
 Total energy in the final basis set = -78.51090387
 
 --------------------------------------------------------------
 
                    Orbital Energies (a.u.)
 --------------------------------------------------------------
 
 Alpha MOs
 -- Occupied --
-10.3200 -10.3196  -0.8381  -0.7250  -0.5618  -0.4940  -0.4042  -0.3457
 -- Virtual --
  0.0317   0.0706   0.0731   0.1149   0.1263   0.1351   0.1456   0.1699
  0.1899   0.2046   0.2216   0.2415   0.3308   0.3644   0.4541   0.5062
  0.5475   0.5561   0.5647   0.6012   0.6066   0.6309   0.6522   0.6592
  0.6601   0.6817   0.7187   0.7242   0.7570   0.8935   0.9136   0.9865
  1.0101   1.1037   1.1410   1.1809   1.1908   1.2038   1.3050   1.3369
  1.4016   1.4285   1.4895   1.5178   1.5734   1.6581   1.6886   1.7713
  2.3803   2.3915   2.4187   2.5053   2.6549   2.7052   2.7253   2.7495
  2.7643   2.7889   2.9155   2.9549   2.9772   2.9804   3.0398   3.0488
  3.0823   3.1280   3.1499   3.2304   3.2804   3.3299   3.3456   3.3573
  3.4047   3.4393   3.4435   3.4513   3.4581   3.4899   3.5329   3.5499
  3.5930   3.6398   3.6679   3.7116   3.8275   3.9108   3.9524   3.9555
  4.0026   4.0101   4.0244   4.1246   4.1870   4.2724   4.3285   4.5276
  4.5400   4.7122   4.7611   4.8136   4.8834   4.9227   4.9484   5.0408
  5.1383   5.1622   5.2848   5.2929   5.6712   5.7354   5.8864   6.3316
  6.3681   7.0160  24.9110  25.0285
 --------------------------------------------------------------
 
 -----------------------------------------------------------------
                    Cartesian Multipole Moments
 -----------------------------------------------------------------
    Charge (ESU x 10^10)
                -0.0000
    Dipole Moment (Debye)
         X       0.0000      Y      -0.0000      Z      -0.0000
       Tot       0.0001
    Quadrupole Moments (Debye-Ang)
        XX     -10.6868     XY       2.5801     YY     -13.6601
        XZ       0.3583     YZ      -0.6254     ZZ     -15.6609
    Octopole Moments (Debye-Ang^2)
       XXX     125.6477    XXY     -29.3610    XYY      57.9476
       YYY     -35.0426    XXZ      -2.8077    XYZ       2.7570
       YYZ      -1.0696    XZZ      61.3769    YZZ     -13.3918
       ZZZ      -0.0005
    Hexadecapole Moments (Debye-Ang^3)
      XXXX   -1046.9054   XXXY     217.5478   XXYY    -268.3051
      XYYY     132.1061   YYYY     -99.3825   XXXZ      17.3837
      XXYZ     -11.8845   XYYZ       3.2732   YYYZ      -1.0053
      XXZZ    -256.5399   XYZZ      47.9571   YYZZ     -22.2397
      XZZZ      -0.8854   YZZZ       1.5196   ZZZZ     -23.8994
 -----------------------------------------------------------------
Archival summary:
1\1\centos77-c7\SP\ProcedureUnspecified\BasisUnspecified\24\shihchen\MonJul2716:00:182020MonJul2716:00:182020\0\\#,ProcedureUnspecified,BasisUnspecified,\\0,1\C\H,1,1.09644\H,1,1.09646,2,85.6512\C,1,1.45344,2,137.138,3,179.849,0\H,4,1.09644,1,137.138,2,-179.996,0\H,4,1.09646,1,137.21,2,0.219045,0\\\@

 Total job time:  4.16s(wall), 21.90s(cpu) 
 Mon Jul 27 16:00:18 2020

        *************************************************************
        *                                                           *
        *  Thank you very much for using Q-Chem.  Have a nice day.  *
        *                                                           *
        *************************************************************


