                  Welcome to Q-Chem
     A Quantum Leap Into The Future Of Chemistry


 Q-Chem 5.3 (devel), Q-Chem, Inc., Pleasanton, CA (2020)

 Yihan Shao,  Zhengting Gan,  E. Epifanovsky,  A. T. B. Gilbert,  M. Wormit,  
 J. Kussmann,  A. W. Lange,  A. Behn,  Jia Deng,  Xintian Feng,  D. Ghosh,  
 M. Goldey,  P. R. Horn,  L. D. Jacobson,  I. Kaliman,  T. Kus,  A. Landau,  
 Jie Liu,  E. I. Proynov,  R. M. Richard,  R. P. Steele,  E. J. Sundstrom,  
 H. L. Woodcock III,  P. M. Zimmerman,  D. Zuev,  B. Alam,  B. Albrecht,  
 E. Alguire,  S. A. Baeppler,  D. Barton,  Z. Benda,  Y. A. Bernard,  
 E. J. Berquist,  K. B. Bravaya,  H. Burton,  K. Carter-Fenk,  D. Casanova,  
 Chun-Min Chang,  Yunqing Chen,  A. Chien,  K. D. Closser,  M. P. Coons,  
 S. Coriani,  S. Dasgupta,  A. L. Dempwolff,  M. Diedenhofen,  Hainam Do,  
 R. G. Edgar,  Po-Tung Fang,  S. Faraji,  S. Fatehi,  Qingguo Feng,  
 J. Fosso-Tande,  J. Gayvert,  Qinghui Ge,  A. Ghysels,  G. Gidofalvi,  
 J. Gomes,  J. Gonthier,  A. Gunina,  D. Hait,  M. W. D. Hanson-Heine,  
 P. H. P. Harbach,  A. W. Hauser,  M. F. Herbst,  J. E. Herr,  
 E. G. Hohenstein,  Z. C. Holden,  Kerwin Hui,  B. C. Huynh,  T.-C. Jagau,  
 Hyunjun Ji,  B. Kaduk,  K. Khistyaev,  Jaehoon Kim,  P. Klunzinger,  K. Koh,  
 D. Kosenkov,  L. Koulias,  T. Kowalczyk,  C. M. Krauter,  A. Kunitsa,  
 Ka Un Lao,  A. Laurent,  K. V. Lawler,  Joonho Lee,  D. Lefrancois,  
 S. Lehtola,  D. S. Levine,  Yi-Pei Li,  You-Sheng Lin,  Fenglai Liu,  
 Kuan-Yu Liu,  E. Livshits,  M. Loipersberger,  A. Luenser,  P. Manohar,  
 E. Mansoor,  S. F. Manzer,  Shan-Ping Mao,  Yuezhi Mao,  N. Mardirossian,  
 A. V. Marenich,  T. Markovich,  L. A. Martinez-Martinez,  S. A. Maurer,  
 N. J. Mayhall,  S. C. McKenzie,  J.-M. Mewes,  P. Morgante,  A. F. Morrison,  
 J. W. Mullinax,  K. Nanda,  T. S. Nguyen-Beck,  R. Olivares-Amaya,  
 K. J. Oosterbaan,  J. A. Parkhill,  S. K. Paul,  F. Pavosevic,  Zheng Pei,  
 T. M. Perrine,  F. Plasser,  P. Pokhilko,  S. Prager,  A. Prociuk,  
 E. Ramos,  B. Rana,  D. R. Rehn,  F. Rob,  M. Scheurer,  M. Schneider,  
 N. Sergueev,  S. M. Sharada,  S. Sharma,  D. W. Small,  T. Stauch,  
 C. J. Stein,  T. Stein,  Yu-Chuan Su,  S. P. Veccham,  Zhen Tao,  
 A. J. W. Thom,  A. Tkatchenko,  T. Tsuchimochi,  N. M. Tubman,  L. Vogt,  
 M. L. Vidal,  O. Vydrov,  M. A. Watson,  J. Wenzel,  M. de Wergifosse,  
 T. A. Wesolowski,  A. White,  J. Witte,  A. Yamada,  Jun Yang,  K. Yao,  
 S. Yeganeh,  S. R. Yost,  Zhi-Qiang You,  A. Zech,  Igor Ying Zhang,  
 Xing Zhang,  Yan Zhao,  Ying Zhu,  B. R. Brooks,  G. K. L. Chan,  
 C. J. Cramer,  M. S. Gordon,  W. J. Hehre,  A. Klamt,  M. W. Schmidt,  
 C. D. Sherrill,  D. G. Truhlar,  A. Aspuru-Guzik,  R. Baer,  A. T. Bell,  
 N. A. Besley,  Jeng-Da Chai,  A. E. DePrince, III,  R. A. DiStasio Jr.,  
 A. Dreuw,  B. D. Dunietz,  T. R. Furlani,  Chao-Ping Hsu,  Yousung Jung,  
 Jing Kong,  D. S. Lambrecht,  WanZhen Liang,  C. Ochsenfeld,  
 V. A. Rassolov,  L. V. Slipchenko,  J. E. Subotnik,  T. Van Voorhis,  
 J. M. Herbert,  A. I. Krylov,  P. M. W. Gill,  M. Head-Gordon

 Contributors to earlier versions of Q-Chem not listed above: 
 R. D. Adamson,  B. Austin,  J. Baker,  G. J. O. Beran,  K. Brandhorst,  
 S. T. Brown,  E. F. C. Byrd,  A. K. Chakraborty,  C.-L. Cheng,  
 Siu Hung Chien,  D. M. Chipman,  D. L. Crittenden,  H. Dachsel,  
 R. J. Doerksen,  A. D. Dutoi,  L. Fusti-Molnar,  W. A. Goddard III,  
 A. Golubeva-Zadorozhnaya,  S. R. Gwaltney,  G. Hawkins,  A. Heyden,  
 S. Hirata,  G. Kedziora,  F. J. Keil,  C. Kelley,  Jihan Kim,  R. A. King,  
 R. Z. Khaliullin,  P. P. Korambath,  W. Kurlancheek,  A. M. Lee,  M. S. Lee,  
 S. V. Levchenko,  Ching Yeh Lin,  D. Liotard,  R. C. Lochan,  I. Lotan,  
 P. E. Maslen,  N. Nair,  D. P. O'Neill,  D. Neuhauser,  E. Neuscamman,  
 C. M. Oana,  R. Olson,  B. Peters,  R. Peverati,  P. A. Pieniazek,  
 Y. M. Rhee,  J. Ritchie,  M. A. Rohrdanz,  E. Rosta,  N. J. Russ,  
 H. F. Schaefer III,  N. E. Schultz,  N. Shenvi,  A. C. Simmonett,  A. Sodt,  
 D. Stuck,  K. S. Thanthiriwatte,  V. Vanovschi,  Tao Wang,  A. Warshel,  
 C. F. Williams,  Q. Wu,  X. Xu,  W. Zhang

 Please cite Q-Chem as follows:
 Y. Shao et al., Mol. Phys. 113, 184-215 (2015)
 DOI: 10.1080/00268976.2014.952696

 Q-Chem 5.3.0 for Intel X86 EM64T Linux

 Parts of Q-Chem use Armadillo 9.800.1 (Horizon Scraper).
 http://arma.sourceforge.net/

 Q-Chem begins on Mon Jul 27 16:00:52 2020  

Host: centos77-c7
0

     Scratch files written to /tmp/29924.centos77-h1/qchem128042//
Processing $rem in /opt/qchem-5.3.0-intel2020u1//config/preferences:
Processing $rem in /home/shihchengli/.qchemrc:

Checking the input file for inconsistencies... 	...done.

--------------------------------------------------------------
User input:
--------------------------------------------------------------
$rem
   JOBTYPE  sp
   EXCHANGE   omegaB97X-D
   BASIS   6-311+G(2df,2pd)
   UNRESTRICTED   False
   max_scf_cycles   250
   geom_opt_max_cycles   1500
   basis2 6-31G*
   scf_algorithm rca_diis
   SYM_IGNORE  TRUE
   print_input   true
   geom_opt_dmax   80
   pop_mulliken false
   XC_GRID 000075000302
$end

$molecule
0 1
C       -4.3732580749     0.5921307556     -0.0003510828
C       -3.2287196276     1.2534694236     -0.0008987206
H       -5.3487223100     0.7636612114     -0.4492023104
H       -4.7125753678     -0.3377525283     0.4497476364
H       -3.3421286895     2.1500873562     -0.5880773907
H       -2.5093059302     0.7090337816     0.5887818681
$end
--------------------------------------------------------------
 ----------------------------------------------------------------
             Standard Nuclear Orientation (Angstroms)
    I     Atom           X                Y                Z
 ----------------------------------------------------------------
    1      C      -4.3732580749     0.5921307556    -0.0003510828
    2      C      -3.2287196276     1.2534694236    -0.0008987206
    3      H      -5.3487223100     0.7636612114    -0.4492023104
    4      H      -4.7125753678    -0.3377525283     0.4497476364
    5      H      -3.3421286895     2.1500873562    -0.5880773907
    6      H      -2.5093059302     0.7090337816     0.5887818681
 ----------------------------------------------------------------
 Nuclear Repulsion Energy =          33.62565757 hartrees
 There are        8 alpha and        8 beta electrons
 Requested basis set is 6-311+G(2df,2pd)
 There are 40 shells and 124 basis functions

 Total QAlloc Memory Limit   2000 MB
 Mega-Array Size       188 MB
 MEM_STATIC part       192 MB

                       Distance Matrix (Angstroms)
             C (  1)   C (  2)   H (  3)   H (  4)   H (  5)
   C (  2)  1.321869
   H (  3)  1.087392  2.221553
   H (  4)  1.087386  2.221913  1.557532
   H (  5)  1.958540  1.077759  2.442925  3.023996
   H (  6)  1.958331  1.077817  3.023687  2.443254  2.038437
 
 A cutoff of  1.0D-09 yielded    814 shell pairs
 There are      7914 function pairs (      9843 Cartesian)
 Smallest overlap matrix eigenvalue = 1.24E-04

 Scale SEOQF with 1.000000e-02/1.000000e-01/1.000000e-01

 Standard Electronic Orientation quadrupole field applied
 Nucleus-field energy     =     0.0000000020 hartrees
 Requested basis set is 6-31G(d)
 There are 16 shells and 36 basis functions
 A cutoff of  1.0D-09 yielded    136 shell pairs
 There are       710 function pairs (       795 Cartesian)
 Smallest overlap matrix eigenvalue = 7.28E-03
 Guess from superposition of atomic densities
 Warning:  Energy on first SCF cycle will be non-variational
 SAD guess density has 16.000000 electrons
 Long-range K will be added via erf
 Coulomb attenuation parameter = 0.2 bohr**(-1)
 A restricted hybrid HF-DFT SCF calculation will be
 performed using Relaxed Constraint Minimization + Pulay DIIS
 Exchange:     0.2220 Hartree-Fock + 1.0000 wB97X-D + LR-HF
 Correlation:  1.0000 wB97X-D
 Using Euler-Maclaurin-Lebedev (75,302) quadrature formula
 Dispersion:   Grimme D
 SCF converges when DIIS error is below 1.0E-04
 using 6 threads for integral computing
 -------------------------------------------------------
 OpenMP Integral computing Module                
 Release: version 1.0, May 2013, Q-Chem Inc. Pittsburgh 
 -------------------------------------------------------
 using 6 threads for integral computing
 -------------------------------------------------------
 OpenMP Integral computing Module                
 Release: version 1.0, May 2013, Q-Chem Inc. Pittsburgh 
 -------------------------------------------------------
 ---------------------------------------
  Cycle       Energy         DIIS Error
 ---------------------------------------
    1     -78.8335863922      1.27E-01
    2     -78.4985033399      1.16E-02
    3     -78.5139597739      4.31E-03
    4     -78.5213115831      2.83E-03
    5     -78.5221358931      6.68E-04 Done RCA. Switching to DIIS
    6     -78.5226214963      5.49E-04
    7     -78.5226701819      3.02E-06 Convergence criterion met
 ---------------------------------------
 SCF time:  CPU 7.78 s  wall 1.31 s
 SCF   energy in the small basis set = -78.52267018
 Total energy in the small basis set = -78.52267018
 ----------------------------------------------------
  Cycle       Energy    
 ----------------------------------------------------
    1     -10.5555927137     -1.06E+01
 Long-range K will be added via erf
 Coulomb attenuation parameter = 0.2 bohr**(-1)
 A restricted hybrid HF-DFT SCF calculation will be
 performed using Relaxed Constraint Minimization + Pulay DIIS
 Exchange:     0.2220 Hartree-Fock + 1.0000 wB97X-D + LR-HF
 Correlation:  1.0000 wB97X-D
 Using Euler-Maclaurin-Lebedev (75,302) quadrature formula
 Dispersion:   Grimme D
 SCF converges when DIIS error is below 1.0E-05
 Basis2 calculation detected. Using small basis as guess for larger.
 SCFMinFind is unable to tell whether the solution found is close.
 Resetting ReadMinima to 0 and attempting to follow guess.
 SCFMinFind following SCF Guess.
 using 6 threads for integral computing
 -------------------------------------------------------
 OpenMP Integral computing Module                
 Release: version 1.0, May 2013, Q-Chem Inc. Pittsburgh 
 -------------------------------------------------------
 using 6 threads for integral computing
 -------------------------------------------------------
 OpenMP Integral computing Module                
 Release: version 1.0, May 2013, Q-Chem Inc. Pittsburgh 
 -------------------------------------------------------
 ---------------------------------------
  Cycle       Energy         DIIS Error
 ---------------------------------------
    1     -78.5414958641      5.91E-03
    2     -78.5543597971      9.82E-04 Done RCA. Switching to DIIS
    3     -78.5551729360      6.30E-04
    4     -78.5559068123      5.51E-05
    5     -78.5559130283      2.42E-05
    6     -78.5559140726      6.13E-06 Convergence criterion met
 ---------------------------------------
 SCF time:  CPU 14.83 s  wall 2.49 s
 SCF   energy in the final basis set = -78.55591407
 Total energy in the final basis set = -78.55591407
 
 --------------------------------------------------------------
 
                    Orbital Energies (a.u.)
 --------------------------------------------------------------
 
 Alpha MOs
 -- Occupied --
-10.2873 -10.2809  -0.8704  -0.6855  -0.5714  -0.5022  -0.4170  -0.3631
 -- Virtual --
  0.0633   0.0767   0.0895   0.0991   0.1240   0.1337   0.1398   0.1801
  0.1947   0.2056   0.2374   0.2659   0.3321   0.3766   0.4835   0.4933
  0.5478   0.5606   0.5686   0.5848   0.5963   0.6143   0.6637   0.6685
  0.7086   0.7261   0.7486   0.7970   0.8121   0.8500   0.9014   1.0114
  1.0683   1.1058   1.1328   1.1498   1.2789   1.2796   1.3299   1.3780
  1.4377   1.4521   1.4637   1.4859   1.5657   1.5928   1.7203   1.7523
  2.3544   2.4677   2.5415   2.5948   2.5968   2.7080   2.7082   2.7779
  2.8206   2.8965   2.9477   2.9779   2.9821   2.9829   3.0588   3.0630
  3.0713   3.0869   3.1655   3.2369   3.2703   3.2795   3.3095   3.3691
  3.3857   3.4315   3.4842   3.5100   3.5240   3.5360   3.5583   3.6233
  3.6920   3.7574   3.8213   3.8655   3.8944   3.9028   3.9566   4.0275
  4.0433   4.0481   4.1087   4.2775   4.3070   4.3637   4.3991   4.5481
  4.5562   4.7206   4.8152   4.8735   4.9396   4.9432   5.1237   5.2103
  5.2419   5.3405   5.3632   5.6713   5.7027   5.8527   5.8789   6.5502
  6.6315   6.7705  24.8643  25.4792
 --------------------------------------------------------------
 
 -----------------------------------------------------------------
                    Cartesian Multipole Moments
 -----------------------------------------------------------------
    Charge (ESU x 10^10)
                -0.0000
    Dipole Moment (Debye)
         X      -0.2298      Y      -0.1302      Z       0.0030
       Tot       0.2641
    Quadrupole Moments (Debye-Ang)
        XX     -10.8220     XY       0.8458     YY     -13.4564
        XZ       0.7380     YZ      -1.2935     ZZ     -14.6014
    Octopole Moments (Debye-Ang^2)
       XXX     133.4090    XXY     -17.6292    XYY      52.0057
       YYY     -35.4013    XXZ      -5.1197    XYZ       5.3091
       YYZ      -2.9052    XZZ      56.4378    YZZ     -12.9344
       ZZZ       0.0247
    Hexadecapole Moments (Debye-Ang^3)
      XXXX   -1095.7052   XXXY     162.2073   XXYY    -229.8524
      XYYY     127.2409   YYYY     -97.5569   XXXZ      26.6921
      XXYZ     -21.0124   XYYZ      10.2891   YYYZ      -4.2353
      XXZZ    -231.3761   XYZZ      46.6634   YYZZ     -20.8487
      XZZZ      -1.1296   YZZZ       1.8312   ZZZZ     -23.0780
 -----------------------------------------------------------------
Archival summary:
1\1\centos77-c7\SP\ProcedureUnspecified\BasisUnspecified\24\shihchen\MonJul2716:00:572020MonJul2716:00:572020\0\\#,ProcedureUnspecified,BasisUnspecified,\\0,1\C\H,1,1.08739\H,1,1.08739,2,91.48\C,1,1.32187,2,134.283,3,179.938,0\H,4,1.07776,1,108.986,2,-179.876,0\H,4,1.07782,1,108.965,2,-0.0609294,0\\\@

 Total job time:  4.72s(wall), 25.02s(cpu) 
 Mon Jul 27 16:00:57 2020

        *************************************************************
        *                                                           *
        *  Thank you very much for using Q-Chem.  Have a nice day.  *
        *                                                           *
        *************************************************************


