                  Welcome to Q-Chem
     A Quantum Leap Into The Future Of Chemistry


 Q-Chem 5.3 (devel), Q-Chem, Inc., Pleasanton, CA (2020)

 Yihan Shao,  Zhengting Gan,  E. Epifanovsky,  A. T. B. Gilbert,  M. Wormit,  
 J. Kussmann,  A. W. Lange,  A. Behn,  Jia Deng,  Xintian Feng,  D. Ghosh,  
 M. Goldey,  P. R. Horn,  L. D. Jacobson,  I. Kaliman,  T. Kus,  A. Landau,  
 Jie Liu,  E. I. Proynov,  R. M. Richard,  R. P. Steele,  E. J. Sundstrom,  
 H. L. Woodcock III,  P. M. Zimmerman,  D. Zuev,  B. Alam,  B. Albrecht,  
 E. Alguire,  S. A. Baeppler,  D. Barton,  Z. Benda,  Y. A. Bernard,  
 E. J. Berquist,  K. B. Bravaya,  H. Burton,  K. Carter-Fenk,  D. Casanova,  
 Chun-Min Chang,  Yunqing Chen,  A. Chien,  K. D. Closser,  M. P. Coons,  
 S. Coriani,  S. Dasgupta,  A. L. Dempwolff,  M. Diedenhofen,  Hainam Do,  
 R. G. Edgar,  Po-Tung Fang,  S. Faraji,  S. Fatehi,  Qingguo Feng,  
 J. Fosso-Tande,  J. Gayvert,  Qinghui Ge,  A. Ghysels,  G. Gidofalvi,  
 J. Gomes,  J. Gonthier,  A. Gunina,  D. Hait,  M. W. D. Hanson-Heine,  
 P. H. P. Harbach,  A. W. Hauser,  M. F. Herbst,  J. E. Herr,  
 E. G. Hohenstein,  Z. C. Holden,  Kerwin Hui,  B. C. Huynh,  T.-C. Jagau,  
 Hyunjun Ji,  B. Kaduk,  K. Khistyaev,  Jaehoon Kim,  P. Klunzinger,  K. Koh,  
 D. Kosenkov,  L. Koulias,  T. Kowalczyk,  C. M. Krauter,  A. Kunitsa,  
 Ka Un Lao,  A. Laurent,  K. V. Lawler,  Joonho Lee,  D. Lefrancois,  
 S. Lehtola,  D. S. Levine,  Yi-Pei Li,  You-Sheng Lin,  Fenglai Liu,  
 Kuan-Yu Liu,  E. Livshits,  M. Loipersberger,  A. Luenser,  P. Manohar,  
 E. Mansoor,  S. F. Manzer,  Shan-Ping Mao,  Yuezhi Mao,  N. Mardirossian,  
 A. V. Marenich,  T. Markovich,  L. A. Martinez-Martinez,  S. A. Maurer,  
 N. J. Mayhall,  S. C. McKenzie,  J.-M. Mewes,  P. Morgante,  A. F. Morrison,  
 J. W. Mullinax,  K. Nanda,  T. S. Nguyen-Beck,  R. Olivares-Amaya,  
 K. J. Oosterbaan,  J. A. Parkhill,  S. K. Paul,  F. Pavosevic,  Zheng Pei,  
 T. M. Perrine,  F. Plasser,  P. Pokhilko,  S. Prager,  A. Prociuk,  
 E. Ramos,  B. Rana,  D. R. Rehn,  F. Rob,  M. Scheurer,  M. Schneider,  
 N. Sergueev,  S. M. Sharada,  S. Sharma,  D. W. Small,  T. Stauch,  
 C. J. Stein,  T. Stein,  Yu-Chuan Su,  S. P. Veccham,  Zhen Tao,  
 A. J. W. Thom,  A. Tkatchenko,  T. Tsuchimochi,  N. M. Tubman,  L. Vogt,  
 M. L. Vidal,  O. Vydrov,  M. A. Watson,  J. Wenzel,  M. de Wergifosse,  
 T. A. Wesolowski,  A. White,  J. Witte,  A. Yamada,  Jun Yang,  K. Yao,  
 S. Yeganeh,  S. R. Yost,  Zhi-Qiang You,  A. Zech,  Igor Ying Zhang,  
 Xing Zhang,  Yan Zhao,  Ying Zhu,  B. R. Brooks,  G. K. L. Chan,  
 C. J. Cramer,  M. S. Gordon,  W. J. Hehre,  A. Klamt,  M. W. Schmidt,  
 C. D. Sherrill,  D. G. Truhlar,  A. Aspuru-Guzik,  R. Baer,  A. T. Bell,  
 N. A. Besley,  Jeng-Da Chai,  A. E. DePrince, III,  R. A. DiStasio Jr.,  
 A. Dreuw,  B. D. Dunietz,  T. R. Furlani,  Chao-Ping Hsu,  Yousung Jung,  
 Jing Kong,  D. S. Lambrecht,  WanZhen Liang,  C. Ochsenfeld,  
 V. A. Rassolov,  L. V. Slipchenko,  J. E. Subotnik,  T. Van Voorhis,  
 J. M. Herbert,  A. I. Krylov,  P. M. W. Gill,  M. Head-Gordon

 Contributors to earlier versions of Q-Chem not listed above: 
 R. D. Adamson,  B. Austin,  J. Baker,  G. J. O. Beran,  K. Brandhorst,  
 S. T. Brown,  E. F. C. Byrd,  A. K. Chakraborty,  C.-L. Cheng,  
 Siu Hung Chien,  D. M. Chipman,  D. L. Crittenden,  H. Dachsel,  
 R. J. Doerksen,  A. D. Dutoi,  L. Fusti-Molnar,  W. A. Goddard III,  
 A. Golubeva-Zadorozhnaya,  S. R. Gwaltney,  G. Hawkins,  A. Heyden,  
 S. Hirata,  G. Kedziora,  F. J. Keil,  C. Kelley,  Jihan Kim,  R. A. King,  
 R. Z. Khaliullin,  P. P. Korambath,  W. Kurlancheek,  A. M. Lee,  M. S. Lee,  
 S. V. Levchenko,  Ching Yeh Lin,  D. Liotard,  R. C. Lochan,  I. Lotan,  
 P. E. Maslen,  N. Nair,  D. P. O'Neill,  D. Neuhauser,  E. Neuscamman,  
 C. M. Oana,  R. Olson,  B. Peters,  R. Peverati,  P. A. Pieniazek,  
 Y. M. Rhee,  J. Ritchie,  M. A. Rohrdanz,  E. Rosta,  N. J. Russ,  
 H. F. Schaefer III,  N. E. Schultz,  N. Shenvi,  A. C. Simmonett,  A. Sodt,  
 D. Stuck,  K. S. Thanthiriwatte,  V. Vanovschi,  Tao Wang,  A. Warshel,  
 C. F. Williams,  Q. Wu,  X. Xu,  W. Zhang

 Please cite Q-Chem as follows:
 Y. Shao et al., Mol. Phys. 113, 184-215 (2015)
 DOI: 10.1080/00268976.2014.952696

 Q-Chem 5.3.0 for Intel X86 EM64T Linux

 Parts of Q-Chem use Armadillo 9.800.1 (Horizon Scraper).
 http://arma.sourceforge.net/

 Q-Chem begins on Sun Jul 12 21:54:11 2020  

Host: centos77-c2
0

     Scratch files written to /tmp/28905.centos77-h1/qchem6795//
Processing $rem in /opt/qchem-5.3.0-intel2020u1//config/preferences:
Processing $rem in /home/shihchengli/.qchemrc:

Checking the input file for inconsistencies... 	...done.

--------------------------------------------------------------
User input:
--------------------------------------------------------------
$rem
   JOBTYPE  sp
   EXCHANGE   omegaB97X-D
   BASIS   6-311+G(2df,2pd)
   UNRESTRICTED   True
   max_scf_cycles   250
   geom_opt_max_cycles   1500
   basis2 6-31G*
   scf_algorithm rca_diis
   SYM_IGNORE  TRUE
   print_input   true
   geom_opt_dmax   80
   pop_mulliken false
   XC_GRID 000075000302
$end

$molecule
0 2
N       -0.4561015334     0.7517146679     0.0000000000
O       0.6474033962     0.2433087487     0.0000000000
O       -1.5759918630     0.2805065834     0.0000000000
$end
--------------------------------------------------------------
 ----------------------------------------------------------------
             Standard Nuclear Orientation (Angstroms)
    I     Atom           X                Y                Z
 ----------------------------------------------------------------
    1      N      -0.4561015334     0.7517146679     0.0000000000
    2      O       0.6474033962     0.2433087487     0.0000000000
    3      O      -1.5759918630     0.2805065834     0.0000000000
 ----------------------------------------------------------------
 Nuclear Repulsion Energy =          64.01069978 hartrees
 There are       12 alpha and       11 beta electrons
 Requested basis set is 6-311+G(2df,2pd)
 There are 24 shells and 102 basis functions

 Total QAlloc Memory Limit   2000 MB
 Mega-Array Size       188 MB
 MEM_STATIC part       192 MB

                       Distance Matrix (Angstroms)
             N (  1)   O (  2)
   O (  2)  1.214990
   O (  3)  1.214986  2.223706
 
 A cutoff of  1.0D-09 yielded    294 shell pairs
 There are      5413 function pairs (      7163 Cartesian)
 Smallest overlap matrix eigenvalue = 1.68E-03

 Scale SEOQF with 1.000000e-01/1.000000e-01/1.000000e-01

 Standard Electronic Orientation quadrupole field applied
 Nucleus-field energy     =     0.0000000012 hartrees
 Requested basis set is 6-31G(d)
 There are 12 shells and 42 basis functions
 A cutoff of  1.0D-09 yielded     77 shell pairs
 There are       968 function pairs (      1115 Cartesian)
 Smallest overlap matrix eigenvalue = 7.59E-03
 Guess from superposition of atomic densities
 Warning:  Energy on first SCF cycle will be non-variational
 SAD guess density has 23.000000 electrons
 Long-range K will be added via erf
 Coulomb attenuation parameter = 0.2 bohr**(-1)
 An unrestricted hybrid HF-DFT SCF calculation will be
 performed using Relaxed Constraint Minimization + Pulay DIIS
 Exchange:     0.2220 Hartree-Fock + 1.0000 wB97X-D + LR-HF
 Correlation:  1.0000 wB97X-D
 Using Euler-Maclaurin-Lebedev (75,302) quadrature formula
 Dispersion:   Grimme D
 SCF converges when DIIS error is below 1.0E-04
 using 6 threads for integral computing
 -------------------------------------------------------
 OpenMP Integral computing Module                
 Release: version 1.0, May 2013, Q-Chem Inc. Pittsburgh 
 -------------------------------------------------------
 using 6 threads for integral computing
 -------------------------------------------------------
 OpenMP Integral computing Module                
 Release: version 1.0, May 2013, Q-Chem Inc. Pittsburgh 
 -------------------------------------------------------
 ---------------------------------------
  Cycle       Energy         DIIS Error
 ---------------------------------------
    1    -205.4344976917      1.22E-01
    2    -204.8774777716      2.57E-02
    3    -204.9266756846      5.32E-03
    4    -204.9940777773      5.21E-03
    5    -204.9959611549      1.01E-03
    6    -204.9984956674      9.80E-04 Done RCA. Switching to DIIS
    7    -204.9983254630      1.47E-03
    8    -204.9986779918      1.76E-05 Convergence criterion met
 ---------------------------------------
 <S^2> = 0.7541
 SCF time:  CPU 8.83 s  wall 1.84 s
 SCF   energy in the small basis set = -204.99867799
 Total energy in the small basis set = -204.99867799
 ----------------------------------------------------
  Cycle       Energy    
 ----------------------------------------------------
    1     -20.8309481132     -2.08E+01
 Long-range K will be added via erf
 Coulomb attenuation parameter = 0.2 bohr**(-1)
 An unrestricted hybrid HF-DFT SCF calculation will be
 performed using Relaxed Constraint Minimization + Pulay DIIS
 Exchange:     0.2220 Hartree-Fock + 1.0000 wB97X-D + LR-HF
 Correlation:  1.0000 wB97X-D
 Using Euler-Maclaurin-Lebedev (75,302) quadrature formula
 Dispersion:   Grimme D
 SCF converges when DIIS error is below 1.0E-05
 Basis2 calculation detected. Using small basis as guess for larger.
 SCFMinFind is unable to tell whether the solution found is close.
 Resetting ReadMinima to 0 and attempting to follow guess.
 SCFMinFind following SCF Guess.
 using 6 threads for integral computing
 -------------------------------------------------------
 OpenMP Integral computing Module                
 Release: version 1.0, May 2013, Q-Chem Inc. Pittsburgh 
 -------------------------------------------------------
 using 6 threads for integral computing
 -------------------------------------------------------
 OpenMP Integral computing Module                
 Release: version 1.0, May 2013, Q-Chem Inc. Pittsburgh 
 -------------------------------------------------------
 ---------------------------------------
  Cycle       Energy         DIIS Error
 ---------------------------------------
    1    -205.0463016108      1.13E-02
    2    -205.0479012854      5.95E-03
    3    -205.0597483786      1.29E-03
    4    -205.0751000554      1.44E-03
    5    -205.0758247864      2.88E-04 Done RCA. Switching to DIIS
    6    -205.0767799404      3.45E-04
    7    -205.0768787398      7.85E-06 Convergence criterion met
 ---------------------------------------
 <S^2> = 0.7546
 SCF time:  CPU 16.34 s  wall 3.27 s
 SCF   energy in the final basis set = -205.07687874
 Total energy in the final basis set = -205.07687874
 
 --------------------------------------------------------------
 
                    Orbital Energies (a.u.)
 --------------------------------------------------------------
 
 Alpha MOs
 -- Occupied --
-19.3717 -19.3717 -14.6951  -1.3859  -1.2380  -0.7895  -0.6743  -0.6734
 -0.6623  -0.4792  -0.4707  -0.3926
 -- Virtual --
 -0.0324   0.0979   0.1380   0.1504   0.1546   0.2320   0.2474   0.2638
  0.2705   0.2928   0.3185   0.3244   0.3790   0.4262   0.4765   0.7525
  0.7708   0.8136   0.9063   0.9718   1.0108   1.0403   1.0572   1.0625
  1.1150   1.1155   1.1300   1.1322   1.4551   1.5208   1.5577   1.5692
  1.5777   1.6144   1.7153   1.8632   2.0624   2.1894   2.2788   2.4383
  2.4522   2.5849   3.4896   3.5101   3.6881   3.6889   3.7223   3.7367
  3.9737   4.0110   4.3698   4.4298   4.4745   4.5882   4.6219   4.6694
  4.7324   5.0258   5.0288   5.0314   5.0317   5.0714   5.0734   5.0901
  5.1280   5.3636   5.4082   5.4470   5.4612   5.5220   5.7327   6.0690
  6.3800   6.7162   6.7363   6.7414   6.7826   6.8125   6.9858   6.9982
  7.1370   7.1476   7.2053   7.3989   7.6412   7.7421   8.0528  36.0248
 50.1038  50.1533
 
 Beta MOs
 -- Occupied --
-19.3635 -19.3635 -14.6856  -1.3660  -1.2151  -0.7537  -0.6505  -0.6475
 -0.6281  -0.4625  -0.4346
 -- Virtual --
 -0.0921  -0.0150   0.1094   0.1410   0.1603   0.1605   0.2392   0.2517
  0.2658   0.2811   0.2981   0.3282   0.3285   0.3866   0.4330   0.5055
  0.7727   0.7785   0.8156   0.9214   0.9847   1.0180   1.0598   1.0666
  1.0672   1.1192   1.1318   1.1374   1.1416   1.4658   1.5273   1.5642
  1.5866   1.5885   1.6320   1.7237   1.8767   2.0658   2.2080   2.2887
  2.4491   2.4614   2.6059   3.5121   3.5311   3.6957   3.7025   3.7447
  3.7590   3.9836   4.0291   4.3893   4.4414   4.4911   4.6017   4.6560
  4.7061   4.7657   5.0394   5.0424   5.0460   5.0470   5.0799   5.0939
  5.1077   5.1570   5.3819   5.4253   5.4631   5.4698   5.5407   5.7458
  6.0969   6.3890   6.7405   6.7586   6.7682   6.8092   6.8315   6.9996
  7.0270   7.1520   7.1553   7.2192   7.4246   7.6580   7.7598   8.0763
 36.0361  50.1115  50.1610
 --------------------------------------------------------------
 
 -----------------------------------------------------------------
                    Cartesian Multipole Moments
 -----------------------------------------------------------------
    Charge (ESU x 10^10)
                -0.0000
    Dipole Moment (Debye)
         X       0.0066      Y       0.3834      Z       0.0000
       Tot       0.3835
    Quadrupole Moments (Debye-Ang)
        XX     -17.9570     XY      -0.1355     YY     -15.3104
        XZ      -0.0000     YZ       0.0000     ZZ     -14.9471
    Octopole Moments (Debye-Ang^2)
       XXX      24.8466    XXY      -7.8762    XYY       7.1105
       YYY     -19.7324    XXZ       0.0000    XYZ      -0.0000
       YYZ       0.0000    XZZ       6.9006    YZZ      -6.2615
       ZZZ       0.0000
    Hexadecapole Moments (Debye-Ang^3)
      XXXX    -115.2590   XXXY      11.5890   XXYY     -24.8216
      XYYY       9.7488   YYYY     -34.6403   XXXZ      -0.0000
      XXYZ       0.0000   XYYZ      -0.0000   YYYZ       0.0000
      XXZZ     -20.2602   XYZZ       3.0963   YYZZ      -7.4129
      XZZZ      -0.0000   YZZZ       0.0000   ZZZZ     -11.4458
 -----------------------------------------------------------------
Archival summary:
1\1\centos77-c2\SP\ProcedureUnspecified\BasisUnspecified\21(2)\shihchen\SunJul1221:54:172020SunJul1221:54:172020\0\\#,ProcedureUnspecified,BasisUnspecified,\\0,2\N\O,1,1.21499\O,1,1.21499,2,132.444\\\@

 Total job time:  5.76s(wall), 27.44s(cpu) 
 Sun Jul 12 21:54:17 2020

        *************************************************************
        *                                                           *
        *  Thank you very much for using Q-Chem.  Have a nice day.  *
        *                                                           *
        *************************************************************


