                  Welcome to Q-Chem
     A Quantum Leap Into The Future Of Chemistry


 Q-Chem 5.3 (devel), Q-Chem, Inc., Pleasanton, CA (2020)

 Yihan Shao,  Zhengting Gan,  E. Epifanovsky,  A. T. B. Gilbert,  M. Wormit,  
 J. Kussmann,  A. W. Lange,  A. Behn,  Jia Deng,  Xintian Feng,  D. Ghosh,  
 M. Goldey,  P. R. Horn,  L. D. Jacobson,  I. Kaliman,  T. Kus,  A. Landau,  
 Jie Liu,  E. I. Proynov,  R. M. Richard,  R. P. Steele,  E. J. Sundstrom,  
 H. L. Woodcock III,  P. M. Zimmerman,  D. Zuev,  B. Alam,  B. Albrecht,  
 E. Alguire,  S. A. Baeppler,  D. Barton,  Z. Benda,  Y. A. Bernard,  
 E. J. Berquist,  K. B. Bravaya,  H. Burton,  K. Carter-Fenk,  D. Casanova,  
 Chun-Min Chang,  Yunqing Chen,  A. Chien,  K. D. Closser,  M. P. Coons,  
 S. Coriani,  S. Dasgupta,  A. L. Dempwolff,  M. Diedenhofen,  Hainam Do,  
 R. G. Edgar,  Po-Tung Fang,  S. Faraji,  S. Fatehi,  Qingguo Feng,  
 J. Fosso-Tande,  J. Gayvert,  Qinghui Ge,  A. Ghysels,  G. Gidofalvi,  
 J. Gomes,  J. Gonthier,  A. Gunina,  D. Hait,  M. W. D. Hanson-Heine,  
 P. H. P. Harbach,  A. W. Hauser,  M. F. Herbst,  J. E. Herr,  
 E. G. Hohenstein,  Z. C. Holden,  Kerwin Hui,  B. C. Huynh,  T.-C. Jagau,  
 Hyunjun Ji,  B. Kaduk,  K. Khistyaev,  Jaehoon Kim,  P. Klunzinger,  K. Koh,  
 D. Kosenkov,  L. Koulias,  T. Kowalczyk,  C. M. Krauter,  A. Kunitsa,  
 Ka Un Lao,  A. Laurent,  K. V. Lawler,  Joonho Lee,  D. Lefrancois,  
 S. Lehtola,  D. S. Levine,  Yi-Pei Li,  You-Sheng Lin,  Fenglai Liu,  
 Kuan-Yu Liu,  E. Livshits,  M. Loipersberger,  A. Luenser,  P. Manohar,  
 E. Mansoor,  S. F. Manzer,  Shan-Ping Mao,  Yuezhi Mao,  N. Mardirossian,  
 A. V. Marenich,  T. Markovich,  L. A. Martinez-Martinez,  S. A. Maurer,  
 N. J. Mayhall,  S. C. McKenzie,  J.-M. Mewes,  P. Morgante,  A. F. Morrison,  
 J. W. Mullinax,  K. Nanda,  T. S. Nguyen-Beck,  R. Olivares-Amaya,  
 K. J. Oosterbaan,  J. A. Parkhill,  S. K. Paul,  F. Pavosevic,  Zheng Pei,  
 T. M. Perrine,  F. Plasser,  P. Pokhilko,  S. Prager,  A. Prociuk,  
 E. Ramos,  B. Rana,  D. R. Rehn,  F. Rob,  M. Scheurer,  M. Schneider,  
 N. Sergueev,  S. M. Sharada,  S. Sharma,  D. W. Small,  T. Stauch,  
 C. J. Stein,  T. Stein,  Yu-Chuan Su,  S. P. Veccham,  Zhen Tao,  
 A. J. W. Thom,  A. Tkatchenko,  T. Tsuchimochi,  N. M. Tubman,  L. Vogt,  
 M. L. Vidal,  O. Vydrov,  M. A. Watson,  J. Wenzel,  M. de Wergifosse,  
 T. A. Wesolowski,  A. White,  J. Witte,  A. Yamada,  Jun Yang,  K. Yao,  
 S. Yeganeh,  S. R. Yost,  Zhi-Qiang You,  A. Zech,  Igor Ying Zhang,  
 Xing Zhang,  Yan Zhao,  Ying Zhu,  B. R. Brooks,  G. K. L. Chan,  
 C. J. Cramer,  M. S. Gordon,  W. J. Hehre,  A. Klamt,  M. W. Schmidt,  
 C. D. Sherrill,  D. G. Truhlar,  A. Aspuru-Guzik,  R. Baer,  A. T. Bell,  
 N. A. Besley,  Jeng-Da Chai,  A. E. DePrince, III,  R. A. DiStasio Jr.,  
 A. Dreuw,  B. D. Dunietz,  T. R. Furlani,  Chao-Ping Hsu,  Yousung Jung,  
 Jing Kong,  D. S. Lambrecht,  WanZhen Liang,  C. Ochsenfeld,  
 V. A. Rassolov,  L. V. Slipchenko,  J. E. Subotnik,  T. Van Voorhis,  
 J. M. Herbert,  A. I. Krylov,  P. M. W. Gill,  M. Head-Gordon

 Contributors to earlier versions of Q-Chem not listed above: 
 R. D. Adamson,  B. Austin,  J. Baker,  G. J. O. Beran,  K. Brandhorst,  
 S. T. Brown,  E. F. C. Byrd,  A. K. Chakraborty,  C.-L. Cheng,  
 Siu Hung Chien,  D. M. Chipman,  D. L. Crittenden,  H. Dachsel,  
 R. J. Doerksen,  A. D. Dutoi,  L. Fusti-Molnar,  W. A. Goddard III,  
 A. Golubeva-Zadorozhnaya,  S. R. Gwaltney,  G. Hawkins,  A. Heyden,  
 S. Hirata,  G. Kedziora,  F. J. Keil,  C. Kelley,  Jihan Kim,  R. A. King,  
 R. Z. Khaliullin,  P. P. Korambath,  W. Kurlancheek,  A. M. Lee,  M. S. Lee,  
 S. V. Levchenko,  Ching Yeh Lin,  D. Liotard,  R. C. Lochan,  I. Lotan,  
 P. E. Maslen,  N. Nair,  D. P. O'Neill,  D. Neuhauser,  E. Neuscamman,  
 C. M. Oana,  R. Olson,  B. Peters,  R. Peverati,  P. A. Pieniazek,  
 Y. M. Rhee,  J. Ritchie,  M. A. Rohrdanz,  E. Rosta,  N. J. Russ,  
 H. F. Schaefer III,  N. E. Schultz,  N. Shenvi,  A. C. Simmonett,  A. Sodt,  
 D. Stuck,  K. S. Thanthiriwatte,  V. Vanovschi,  Tao Wang,  A. Warshel,  
 C. F. Williams,  Q. Wu,  X. Xu,  W. Zhang

 Please cite Q-Chem as follows:
 Y. Shao et al., Mol. Phys. 113, 184-215 (2015)
 DOI: 10.1080/00268976.2014.952696

 Q-Chem 5.3.0 for Intel X86 EM64T Linux

 Parts of Q-Chem use Armadillo 9.800.1 (Horizon Scraper).
 http://arma.sourceforge.net/

 Q-Chem begins on Sun Jul 12 21:54:47 2020  

Host: centos77-c2
0

     Scratch files written to /tmp/28905.centos77-h1/qchem7006//
Processing $rem in /opt/qchem-5.3.0-intel2020u1//config/preferences:
Processing $rem in /home/shihchengli/.qchemrc:

Checking the input file for inconsistencies... 	...done.

--------------------------------------------------------------
User input:
--------------------------------------------------------------
$rem
   JOBTYPE  sp
   EXCHANGE   omegaB97X-D
   BASIS   6-311+G(2df,2pd)
   UNRESTRICTED   True
   max_scf_cycles   250
   geom_opt_max_cycles   1500
   basis2 6-31G*
   scf_algorithm rca_diis
   SYM_IGNORE  TRUE
   print_input   true
   geom_opt_dmax   80
   pop_mulliken false
   XC_GRID 000075000302
$end

$molecule
0 2
N       -0.4568114392     0.7085852493     0.0000000000
O       0.6071636119     0.2655551449     0.0000000000
O       -1.5350421728     0.3013896057     0.0000000000
$end
--------------------------------------------------------------
 ----------------------------------------------------------------
             Standard Nuclear Orientation (Angstroms)
    I     Atom           X                Y                Z
 ----------------------------------------------------------------
    1      N      -0.4568114392     0.7085852493     0.0000000000
    2      O       0.6071636119     0.2655551449     0.0000000000
    3      O      -1.5350421728     0.3013896057     0.0000000000
 ----------------------------------------------------------------
 Nuclear Repulsion Energy =          67.23088991 hartrees
 There are       12 alpha and       11 beta electrons
 Requested basis set is 6-311+G(2df,2pd)
 There are 24 shells and 102 basis functions

 Total QAlloc Memory Limit   2000 MB
 Mega-Array Size       188 MB
 MEM_STATIC part       192 MB

                       Distance Matrix (Angstroms)
             N (  1)   O (  2)
   O (  2)  1.152527
   O (  3)  1.152558  2.142505
 
 A cutoff of  1.0D-09 yielded    295 shell pairs
 There are      5429 function pairs (      7179 Cartesian)
 Smallest overlap matrix eigenvalue = 1.32E-03

 Scale SEOQF with 1.000000e-01/1.000000e-01/1.000000e-01

 Standard Electronic Orientation quadrupole field applied
 Nucleus-field energy     =     0.0000000012 hartrees
 Requested basis set is 6-31G(d)
 There are 12 shells and 42 basis functions
 A cutoff of  1.0D-09 yielded     77 shell pairs
 There are       968 function pairs (      1115 Cartesian)
 Smallest overlap matrix eigenvalue = 6.24E-03
 Guess from superposition of atomic densities
 Warning:  Energy on first SCF cycle will be non-variational
 SAD guess density has 23.000000 electrons
 Long-range K will be added via erf
 Coulomb attenuation parameter = 0.2 bohr**(-1)
 An unrestricted hybrid HF-DFT SCF calculation will be
 performed using Relaxed Constraint Minimization + Pulay DIIS
 Exchange:     0.2220 Hartree-Fock + 1.0000 wB97X-D + LR-HF
 Correlation:  1.0000 wB97X-D
 Using Euler-Maclaurin-Lebedev (75,302) quadrature formula
 Dispersion:   Grimme D
 SCF converges when DIIS error is below 1.0E-04
 using 6 threads for integral computing
 -------------------------------------------------------
 OpenMP Integral computing Module                
 Release: version 1.0, May 2013, Q-Chem Inc. Pittsburgh 
 -------------------------------------------------------
 using 6 threads for integral computing
 -------------------------------------------------------
 OpenMP Integral computing Module                
 Release: version 1.0, May 2013, Q-Chem Inc. Pittsburgh 
 -------------------------------------------------------
 ---------------------------------------
  Cycle       Energy         DIIS Error
 ---------------------------------------
    1    -205.7514914907      1.41E-01
    2    -204.8936939655      2.39E-02
    3    -204.9363007169      4.23E-03
    4    -204.9919481998      2.84E-03
    5    -204.9925412180      5.24E-04 Done RCA. Switching to DIIS
    6    -204.9933225720      2.04E-04
    7    -204.9933355387      6.05E-05 Convergence criterion met
 ---------------------------------------
 <S^2> = 0.7530
 SCF time:  CPU 11.90 s  wall 3.26 s
 SCF   energy in the small basis set = -204.99333554
 Total energy in the small basis set = -204.99333554
 ----------------------------------------------------
  Cycle       Energy    
 ----------------------------------------------------
    1     -20.9468165125     -2.09E+01
 Long-range K will be added via erf
 Coulomb attenuation parameter = 0.2 bohr**(-1)
 An unrestricted hybrid HF-DFT SCF calculation will be
 performed using Relaxed Constraint Minimization + Pulay DIIS
 Exchange:     0.2220 Hartree-Fock + 1.0000 wB97X-D + LR-HF
 Correlation:  1.0000 wB97X-D
 Using Euler-Maclaurin-Lebedev (75,302) quadrature formula
 Dispersion:   Grimme D
 SCF converges when DIIS error is below 1.0E-05
 Basis2 calculation detected. Using small basis as guess for larger.
 SCFMinFind is unable to tell whether the solution found is close.
 Resetting ReadMinima to 0 and attempting to follow guess.
 SCFMinFind following SCF Guess.
 using 6 threads for integral computing
 -------------------------------------------------------
 OpenMP Integral computing Module                
 Release: version 1.0, May 2013, Q-Chem Inc. Pittsburgh 
 -------------------------------------------------------
 using 6 threads for integral computing
 -------------------------------------------------------
 OpenMP Integral computing Module                
 Release: version 1.0, May 2013, Q-Chem Inc. Pittsburgh 
 -------------------------------------------------------
 ---------------------------------------
  Cycle       Energy         DIIS Error
 ---------------------------------------
    1    -205.0472166315      1.13E-02
    2    -205.0563273293      5.08E-03
    3    -205.0649165680      9.52E-04 Done RCA. Switching to DIIS
    4    -205.0758524192      7.76E-04
    5    -205.0763510084      5.15E-05
    6    -205.0763598713      1.92E-05
    7    -205.0763606210      1.68E-05
    8    -205.0763611051      1.88E-06 Convergence criterion met
 ---------------------------------------
 <S^2> = 0.7535
 SCF time:  CPU 17.75 s  wall 3.64 s
 SCF   energy in the final basis set = -205.07636111
 Total energy in the final basis set = -205.07636111
 
 --------------------------------------------------------------
 
                    Orbital Energies (a.u.)
 --------------------------------------------------------------
 
 Alpha MOs
 -- Occupied --
-19.3607 -19.3607 -14.6851  -1.4323  -1.2788  -0.7732  -0.6999  -0.6926
 -0.6784  -0.4834  -0.4756  -0.3604
 -- Virtual --
  0.0027   0.0967   0.1372   0.1483   0.1502   0.2440   0.2503   0.2636
  0.2781   0.3004   0.3252   0.3535   0.4084   0.4341   0.5851   0.7466
  0.7625   0.8256   0.9072   0.9612   1.0030   1.0452   1.0490   1.0836
  1.1002   1.1341   1.1405   1.1635   1.4598   1.5264   1.5458   1.5925
  1.6272   1.6590   1.7476   1.9417   2.1140   2.2784   2.3668   2.4893
  2.5246   2.6879   3.4872   3.5006   3.6786   3.6845   3.7100   3.7836
  4.0274   4.1086   4.3705   4.3973   4.4125   4.5637   4.6134   4.6908
  4.7450   5.0236   5.0269   5.0409   5.0618   5.0920   5.1027   5.1135
  5.2343   5.3556   5.5363   5.5475   5.6199   5.6348   5.8353   6.3641
  6.6518   6.7382   6.7466   6.7768   6.7999   7.0086   7.1331   7.1999
  7.2741   7.3102   7.3907   7.4505   7.6447   7.8477   8.4930  36.2838
 50.2510  50.2958
 
 Beta MOs
 -- Occupied --
-19.3530 -19.3529 -14.6750  -1.4128  -1.2573  -0.7381  -0.6803  -0.6561
 -0.6539  -0.4682  -0.4403
 -- Virtual --
 -0.0583   0.0206   0.1122   0.1416   0.1593   0.1630   0.2497   0.2558
  0.2665   0.2910   0.3079   0.3306   0.3645   0.4195   0.4382   0.6147
  0.7691   0.7718   0.8288   0.9234   0.9745   1.0107   1.0538   1.0631
  1.0898   1.1210   1.1448   1.1459   1.1674   1.4697   1.5327   1.5515
  1.6008   1.6476   1.6766   1.7565   1.9556   2.1173   2.2957   2.3762
  2.5007   2.5336   2.7091   3.5106   3.5228   3.6862   3.6995   3.7473
  3.7919   4.0454   4.1187   4.3985   4.4103   4.4263   4.5757   4.6525
  4.7245   4.7806   5.0381   5.0403   5.0483   5.0768   5.1090   5.1133
  5.1308   5.2605   5.3734   5.5554   5.5556   5.6352   5.6505   5.8475
  6.3926   6.6607   6.7591   6.7704   6.8049   6.8250   7.0364   7.1388
  7.2141   7.2858   7.3230   7.4071   7.4727   7.6570   7.8633   8.5193
 36.2955  50.2582  50.3030
 --------------------------------------------------------------
 
 -----------------------------------------------------------------
                    Cartesian Multipole Moments
 -----------------------------------------------------------------
    Charge (ESU x 10^10)
                -0.0000
    Dipole Moment (Debye)
         X       0.0063      Y       0.3622      Z       0.0000
       Tot       0.3623
    Quadrupole Moments (Debye-Ang)
        XX     -17.9355     XY      -0.1253     YY     -15.2781
        XZ       0.0000     YZ       0.0000     ZZ     -14.7013
    Octopole Moments (Debye-Ang^2)
       XXX      24.8304    XXY      -7.6079    XYY       7.0885
       YYY     -19.6077    XXZ       0.0000    XYZ      -0.0000
       YYZ       0.0000    XZZ       6.7874    YZZ      -6.1517
       ZZZ       0.0000
    Hexadecapole Moments (Debye-Ang^3)
      XXXX    -109.4817   XXXY      11.1730   XXYY     -23.5655
      XYYY       9.6485   YYYY     -33.4152   XXXZ       0.0000
      XXYZ       0.0000   XYYZ      -0.0000   YYYZ      -0.0000
      XXZZ     -19.1037   XYZZ       3.0308   YYZZ      -7.1481
      XZZZ       0.0000   YZZZ      -0.0000   ZZZZ     -11.1680
 -----------------------------------------------------------------
Archival summary:
1\1\centos77-c2\SP\ProcedureUnspecified\BasisUnspecified\21(2)\shihchen\SunJul1221:54:552020SunJul1221:54:552020\0\\#,ProcedureUnspecified,BasisUnspecified,\\0,2\N\O,1,1.15253\O,1,1.15256,2,136.704\\\@

 Total job time:  7.76s(wall), 32.33s(cpu) 
 Sun Jul 12 21:54:55 2020

        *************************************************************
        *                                                           *
        *  Thank you very much for using Q-Chem.  Have a nice day.  *
        *                                                           *
        *************************************************************


