                  Welcome to Q-Chem
     A Quantum Leap Into The Future Of Chemistry


 Q-Chem 5.3 (devel), Q-Chem, Inc., Pleasanton, CA (2020)

 Yihan Shao,  Zhengting Gan,  E. Epifanovsky,  A. T. B. Gilbert,  M. Wormit,  
 J. Kussmann,  A. W. Lange,  A. Behn,  Jia Deng,  Xintian Feng,  D. Ghosh,  
 M. Goldey,  P. R. Horn,  L. D. Jacobson,  I. Kaliman,  T. Kus,  A. Landau,  
 Jie Liu,  E. I. Proynov,  R. M. Richard,  R. P. Steele,  E. J. Sundstrom,  
 H. L. Woodcock III,  P. M. Zimmerman,  D. Zuev,  B. Alam,  B. Albrecht,  
 E. Alguire,  S. A. Baeppler,  D. Barton,  Z. Benda,  Y. A. Bernard,  
 E. J. Berquist,  K. B. Bravaya,  H. Burton,  K. Carter-Fenk,  D. Casanova,  
 Chun-Min Chang,  Yunqing Chen,  A. Chien,  K. D. Closser,  M. P. Coons,  
 S. Coriani,  S. Dasgupta,  A. L. Dempwolff,  M. Diedenhofen,  Hainam Do,  
 R. G. Edgar,  Po-Tung Fang,  S. Faraji,  S. Fatehi,  Qingguo Feng,  
 J. Fosso-Tande,  J. Gayvert,  Qinghui Ge,  A. Ghysels,  G. Gidofalvi,  
 J. Gomes,  J. Gonthier,  A. Gunina,  D. Hait,  M. W. D. Hanson-Heine,  
 P. H. P. Harbach,  A. W. Hauser,  M. F. Herbst,  J. E. Herr,  
 E. G. Hohenstein,  Z. C. Holden,  Kerwin Hui,  B. C. Huynh,  T.-C. Jagau,  
 Hyunjun Ji,  B. Kaduk,  K. Khistyaev,  Jaehoon Kim,  P. Klunzinger,  K. Koh,  
 D. Kosenkov,  L. Koulias,  T. Kowalczyk,  C. M. Krauter,  A. Kunitsa,  
 Ka Un Lao,  A. Laurent,  K. V. Lawler,  Joonho Lee,  D. Lefrancois,  
 S. Lehtola,  D. S. Levine,  Yi-Pei Li,  You-Sheng Lin,  Fenglai Liu,  
 Kuan-Yu Liu,  E. Livshits,  M. Loipersberger,  A. Luenser,  P. Manohar,  
 E. Mansoor,  S. F. Manzer,  Shan-Ping Mao,  Yuezhi Mao,  N. Mardirossian,  
 A. V. Marenich,  T. Markovich,  L. A. Martinez-Martinez,  S. A. Maurer,  
 N. J. Mayhall,  S. C. McKenzie,  J.-M. Mewes,  P. Morgante,  A. F. Morrison,  
 J. W. Mullinax,  K. Nanda,  T. S. Nguyen-Beck,  R. Olivares-Amaya,  
 K. J. Oosterbaan,  J. A. Parkhill,  S. K. Paul,  F. Pavosevic,  Zheng Pei,  
 T. M. Perrine,  F. Plasser,  P. Pokhilko,  S. Prager,  A. Prociuk,  
 E. Ramos,  B. Rana,  D. R. Rehn,  F. Rob,  M. Scheurer,  M. Schneider,  
 N. Sergueev,  S. M. Sharada,  S. Sharma,  D. W. Small,  T. Stauch,  
 C. J. Stein,  T. Stein,  Yu-Chuan Su,  S. P. Veccham,  Zhen Tao,  
 A. J. W. Thom,  A. Tkatchenko,  T. Tsuchimochi,  N. M. Tubman,  L. Vogt,  
 M. L. Vidal,  O. Vydrov,  M. A. Watson,  J. Wenzel,  M. de Wergifosse,  
 T. A. Wesolowski,  A. White,  J. Witte,  A. Yamada,  Jun Yang,  K. Yao,  
 S. Yeganeh,  S. R. Yost,  Zhi-Qiang You,  A. Zech,  Igor Ying Zhang,  
 Xing Zhang,  Yan Zhao,  Ying Zhu,  B. R. Brooks,  G. K. L. Chan,  
 C. J. Cramer,  M. S. Gordon,  W. J. Hehre,  A. Klamt,  M. W. Schmidt,  
 C. D. Sherrill,  D. G. Truhlar,  A. Aspuru-Guzik,  R. Baer,  A. T. Bell,  
 N. A. Besley,  Jeng-Da Chai,  A. E. DePrince, III,  R. A. DiStasio Jr.,  
 A. Dreuw,  B. D. Dunietz,  T. R. Furlani,  Chao-Ping Hsu,  Yousung Jung,  
 Jing Kong,  D. S. Lambrecht,  WanZhen Liang,  C. Ochsenfeld,  
 V. A. Rassolov,  L. V. Slipchenko,  J. E. Subotnik,  T. Van Voorhis,  
 J. M. Herbert,  A. I. Krylov,  P. M. W. Gill,  M. Head-Gordon

 Contributors to earlier versions of Q-Chem not listed above: 
 R. D. Adamson,  B. Austin,  J. Baker,  G. J. O. Beran,  K. Brandhorst,  
 S. T. Brown,  E. F. C. Byrd,  A. K. Chakraborty,  C.-L. Cheng,  
 Siu Hung Chien,  D. M. Chipman,  D. L. Crittenden,  H. Dachsel,  
 R. J. Doerksen,  A. D. Dutoi,  L. Fusti-Molnar,  W. A. Goddard III,  
 A. Golubeva-Zadorozhnaya,  S. R. Gwaltney,  G. Hawkins,  A. Heyden,  
 S. Hirata,  G. Kedziora,  F. J. Keil,  C. Kelley,  Jihan Kim,  R. A. King,  
 R. Z. Khaliullin,  P. P. Korambath,  W. Kurlancheek,  A. M. Lee,  M. S. Lee,  
 S. V. Levchenko,  Ching Yeh Lin,  D. Liotard,  R. C. Lochan,  I. Lotan,  
 P. E. Maslen,  N. Nair,  D. P. O'Neill,  D. Neuhauser,  E. Neuscamman,  
 C. M. Oana,  R. Olson,  B. Peters,  R. Peverati,  P. A. Pieniazek,  
 Y. M. Rhee,  J. Ritchie,  M. A. Rohrdanz,  E. Rosta,  N. J. Russ,  
 H. F. Schaefer III,  N. E. Schultz,  N. Shenvi,  A. C. Simmonett,  A. Sodt,  
 D. Stuck,  K. S. Thanthiriwatte,  V. Vanovschi,  Tao Wang,  A. Warshel,  
 C. F. Williams,  Q. Wu,  X. Xu,  W. Zhang

 Please cite Q-Chem as follows:
 Y. Shao et al., Mol. Phys. 113, 184-215 (2015)
 DOI: 10.1080/00268976.2014.952696

 Q-Chem 5.3.0 for Intel X86 EM64T Linux

 Parts of Q-Chem use Armadillo 9.800.1 (Horizon Scraper).
 http://arma.sourceforge.net/

 Q-Chem begins on Sun Jul 12 21:54:27 2020  

Host: centos77-c2
0

     Scratch files written to /tmp/28905.centos77-h1/qchem6878//
Processing $rem in /opt/qchem-5.3.0-intel2020u1//config/preferences:
Processing $rem in /home/shihchengli/.qchemrc:

Checking the input file for inconsistencies... 	...done.

--------------------------------------------------------------
User input:
--------------------------------------------------------------
$rem
   JOBTYPE  sp
   EXCHANGE   omegaB97X-D
   BASIS   6-311+G(2df,2pd)
   UNRESTRICTED   True
   max_scf_cycles   250
   geom_opt_max_cycles   1500
   basis2 6-31G*
   scf_algorithm rca_diis
   SYM_IGNORE  TRUE
   print_input   true
   geom_opt_dmax   80
   pop_mulliken false
   XC_GRID 000075000302
$end

$molecule
0 2
N       -0.4553520482     0.7972245133     0.0000000000
O       0.6842154062     0.2199291028     0.0000000000
O       -1.6135533581     0.2583763839     0.0000000000
$end
--------------------------------------------------------------
 ----------------------------------------------------------------
             Standard Nuclear Orientation (Angstroms)
    I     Atom           X                Y                Z
 ----------------------------------------------------------------
    1      N      -0.4553520482     0.7972245133     0.0000000000
    2      O       0.6842154062     0.2199291028     0.0000000000
    3      O      -1.6135533581     0.2583763839     0.0000000000
 ----------------------------------------------------------------
 Nuclear Repulsion Energy =          61.13315998 hartrees
 There are       12 alpha and       11 beta electrons
 Requested basis set is 6-311+G(2df,2pd)
 There are 24 shells and 102 basis functions

 Total QAlloc Memory Limit   2000 MB
 Mega-Array Size       188 MB
 MEM_STATIC part       192 MB

                       Distance Matrix (Angstroms)
             N (  1)   O (  2)
   O (  2)  1.277452
   O (  3)  1.277414  2.298090
 
 A cutoff of  1.0D-09 yielded    292 shell pairs
 There are      5373 function pairs (      7115 Cartesian)
 Smallest overlap matrix eigenvalue = 2.05E-03

 Scale SEOQF with 1.000000e-01/1.000000e-01/1.000000e-01

 Standard Electronic Orientation quadrupole field applied
 Nucleus-field energy     =     0.0000000013 hartrees
 Requested basis set is 6-31G(d)
 There are 12 shells and 42 basis functions
 A cutoff of  1.0D-09 yielded     77 shell pairs
 There are       968 function pairs (      1115 Cartesian)
 Smallest overlap matrix eigenvalue = 9.24E-03
 Guess from superposition of atomic densities
 Warning:  Energy on first SCF cycle will be non-variational
 SAD guess density has 23.000000 electrons
 Long-range K will be added via erf
 Coulomb attenuation parameter = 0.2 bohr**(-1)
 An unrestricted hybrid HF-DFT SCF calculation will be
 performed using Relaxed Constraint Minimization + Pulay DIIS
 Exchange:     0.2220 Hartree-Fock + 1.0000 wB97X-D + LR-HF
 Correlation:  1.0000 wB97X-D
 Using Euler-Maclaurin-Lebedev (75,302) quadrature formula
 Dispersion:   Grimme D
 SCF converges when DIIS error is below 1.0E-04
 using 6 threads for integral computing
 -------------------------------------------------------
 OpenMP Integral computing Module                
 Release: version 1.0, May 2013, Q-Chem Inc. Pittsburgh 
 -------------------------------------------------------
 using 6 threads for integral computing
 -------------------------------------------------------
 OpenMP Integral computing Module                
 Release: version 1.0, May 2013, Q-Chem Inc. Pittsburgh 
 -------------------------------------------------------
 ---------------------------------------
  Cycle       Energy         DIIS Error
 ---------------------------------------
    1    -205.1609373263      1.05E-01
    2    -204.8340491494      2.76E-02
    3    -204.8909637451      6.46E-03
    4    -204.9691853100      7.75E-03
    5    -204.9736402964      1.43E-03
    6    -204.9801662398      1.78E-03
    7    -204.9803982620      3.61E-04 Done RCA. Switching to DIIS
    8    -204.9807154281      5.39E-04
    9    -204.9807680709      1.13E-05 Convergence criterion met
 ---------------------------------------
 <S^2> = 0.7557
 SCF time:  CPU 11.37 s  wall 2.33 s
 SCF   energy in the small basis set = -204.98076807
 Total energy in the small basis set = -204.98076807
 ----------------------------------------------------
  Cycle       Energy    
 ----------------------------------------------------
    1     -20.7325144448     -2.07E+01
 Long-range K will be added via erf
 Coulomb attenuation parameter = 0.2 bohr**(-1)
 An unrestricted hybrid HF-DFT SCF calculation will be
 performed using Relaxed Constraint Minimization + Pulay DIIS
 Exchange:     0.2220 Hartree-Fock + 1.0000 wB97X-D + LR-HF
 Correlation:  1.0000 wB97X-D
 Using Euler-Maclaurin-Lebedev (75,302) quadrature formula
 Dispersion:   Grimme D
 SCF converges when DIIS error is below 1.0E-05
 Basis2 calculation detected. Using small basis as guess for larger.
 SCFMinFind is unable to tell whether the solution found is close.
 Resetting ReadMinima to 0 and attempting to follow guess.
 SCFMinFind following SCF Guess.
 using 6 threads for integral computing
 -------------------------------------------------------
 OpenMP Integral computing Module                
 Release: version 1.0, May 2013, Q-Chem Inc. Pittsburgh 
 -------------------------------------------------------
 using 6 threads for integral computing
 -------------------------------------------------------
 OpenMP Integral computing Module                
 Release: version 1.0, May 2013, Q-Chem Inc. Pittsburgh 
 -------------------------------------------------------
 ---------------------------------------
  Cycle       Energy         DIIS Error
 ---------------------------------------
    1    -205.0234303015      1.14E-02
    2    -205.0141952500      6.99E-03
    3    -205.0307304811      1.70E-03
    4    -205.0519069193      1.40E-03
    5    -205.0535840963      3.50E-04 Done RCA. Switching to DIIS
    6    -205.0560028841      5.75E-04
    7    -205.0563173574      1.07E-05
    8    -205.0563180195      5.76E-06 Convergence criterion met
 ---------------------------------------
 <S^2> = 0.7563
 SCF time:  CPU 19.65 s  wall 3.94 s
 SCF   energy in the final basis set = -205.05631802
 Total energy in the final basis set = -205.05631802
 
 --------------------------------------------------------------
 
                    Orbital Energies (a.u.)
 --------------------------------------------------------------
 
 Alpha MOs
 -- Occupied --
-19.3811 -19.3810 -14.7024  -1.3430  -1.2035  -0.8066  -0.6667  -0.6510
 -0.6355  -0.4760  -0.4667  -0.4188
 -- Virtual --
 -0.0623   0.0995   0.1376   0.1499   0.1585   0.2034   0.2440   0.2638
  0.2641   0.2862   0.2863   0.3233   0.3643   0.3743   0.4345   0.7579
  0.7777   0.8028   0.9119   0.9801   1.0153   1.0344   1.0443   1.0597
  1.0882   1.1254   1.1271   1.1273   1.4517   1.5179   1.5205   1.5674
  1.5678   1.5776   1.6923   1.7990   2.0162   2.0968   2.1910   2.3804
  2.3946   2.4885   3.4902   3.5167   3.6787   3.6906   3.6980   3.7407
  3.8642   3.9577   4.2281   4.3199   4.5569   4.6283   4.7058   4.7442
  4.7486   5.0001   5.0254   5.0255   5.0349   5.0567   5.0622   5.0705
  5.0862   5.2244   5.3128   5.3908   5.4231   5.4870   5.6701   5.8318
  6.1573   6.3770   6.6793   6.7030   6.7308   6.7698   6.7743   6.8538
  7.0677   7.1413   7.1535   7.3310   7.4341   7.6233   7.8386  35.7765
 49.9938  50.0599
 
 Beta MOs
 -- Occupied --
-19.3725 -19.3724 -14.6938  -1.3227  -1.1789  -0.7700  -0.6374  -0.6243
 -0.6067  -0.4574  -0.4293
 -- Virtual --
 -0.1209  -0.0459   0.1082   0.1400   0.1561   0.1619   0.2159   0.2471
  0.2652   0.2722   0.2901   0.2925   0.3260   0.3794   0.3981   0.4372
  0.7762   0.7839   0.8040   0.9258   0.9922   1.0223   1.0547   1.0552
  1.0639   1.0923   1.1305   1.1396   1.1436   1.4636   1.5249   1.5376
  1.5747   1.5777   1.5955   1.7004   1.8124   2.0198   2.1165   2.2011
  2.3897   2.4052   2.5093   3.5111   3.5360   3.6858   3.7022   3.7058
  3.7748   3.8730   3.9755   4.2418   4.3362   4.5759   4.6518   4.7387
  4.7565   4.7808   5.0225   5.0336   5.0448   5.0508   5.0691   5.0786
  5.0894   5.1187   5.2417   5.3300   5.4009   5.4398   5.5100   5.6842
  5.8572   6.1669   6.3925   6.6939   6.7356   6.7549   6.7984   6.8008
  6.8706   7.0963   7.1515   7.1696   7.3608   7.4567   7.6431   7.8563
 35.7867  50.0022  50.0683
 --------------------------------------------------------------
 
 -----------------------------------------------------------------
                    Cartesian Multipole Moments
 -----------------------------------------------------------------
    Charge (ESU x 10^10)
                -0.0000
    Dipole Moment (Debye)
         X       0.0073      Y       0.3990      Z      -0.0000
       Tot       0.3991
    Quadrupole Moments (Debye-Ang)
        XX     -17.9568     XY      -0.1431     YY     -15.3281
        XZ       0.0000     YZ      -0.0000     ZZ     -15.1884
    Octopole Moments (Debye-Ang^2)
       XXX      24.8327    XXY      -8.1434    XYY       7.1257
       YYY     -19.8570    XXZ      -0.0000    XYZ       0.0000
       YYZ       0.0000    XZZ       7.0118    YZZ      -6.3671
       ZZZ      -0.0000
    Hexadecapole Moments (Debye-Ang^3)
      XXXX    -120.8210   XXXY      12.0012   XXYY     -26.0354
      XYYY       9.8409   YYYY     -36.2339   XXXZ       0.0000
      XXYZ      -0.0000   XYYZ       0.0000   YYYZ      -0.0000
      XXZZ     -21.3957   XYZZ       3.1584   YYZZ      -7.7430
      XZZZ       0.0000   YZZZ      -0.0000   ZZZZ     -11.7784
 -----------------------------------------------------------------
Archival summary:
1\1\centos77-c2\SP\ProcedureUnspecified\BasisUnspecified\21(2)\shihchen\SunJul1221:54:342020SunJul1221:54:342020\0\\#,ProcedureUnspecified,BasisUnspecified,\\0,2\N\O,1,1.27741\O,1,1.27745,2,128.184\\\@

 Total job time:  7.07s(wall), 33.81s(cpu) 
 Sun Jul 12 21:54:34 2020

        *************************************************************
        *                                                           *
        *  Thank you very much for using Q-Chem.  Have a nice day.  *
        *                                                           *
        *************************************************************


