                  Welcome to Q-Chem
     A Quantum Leap Into The Future Of Chemistry


 Q-Chem 5.3 (devel), Q-Chem, Inc., Pleasanton, CA (2020)

 Yihan Shao,  Zhengting Gan,  E. Epifanovsky,  A. T. B. Gilbert,  M. Wormit,  
 J. Kussmann,  A. W. Lange,  A. Behn,  Jia Deng,  Xintian Feng,  D. Ghosh,  
 M. Goldey,  P. R. Horn,  L. D. Jacobson,  I. Kaliman,  T. Kus,  A. Landau,  
 Jie Liu,  E. I. Proynov,  R. M. Richard,  R. P. Steele,  E. J. Sundstrom,  
 H. L. Woodcock III,  P. M. Zimmerman,  D. Zuev,  B. Alam,  B. Albrecht,  
 E. Alguire,  S. A. Baeppler,  D. Barton,  Z. Benda,  Y. A. Bernard,  
 E. J. Berquist,  K. B. Bravaya,  H. Burton,  K. Carter-Fenk,  D. Casanova,  
 Chun-Min Chang,  Yunqing Chen,  A. Chien,  K. D. Closser,  M. P. Coons,  
 S. Coriani,  S. Dasgupta,  A. L. Dempwolff,  M. Diedenhofen,  Hainam Do,  
 R. G. Edgar,  Po-Tung Fang,  S. Faraji,  S. Fatehi,  Qingguo Feng,  
 J. Fosso-Tande,  J. Gayvert,  Qinghui Ge,  A. Ghysels,  G. Gidofalvi,  
 J. Gomes,  J. Gonthier,  A. Gunina,  D. Hait,  M. W. D. Hanson-Heine,  
 P. H. P. Harbach,  A. W. Hauser,  M. F. Herbst,  J. E. Herr,  
 E. G. Hohenstein,  Z. C. Holden,  Kerwin Hui,  B. C. Huynh,  T.-C. Jagau,  
 Hyunjun Ji,  B. Kaduk,  K. Khistyaev,  Jaehoon Kim,  P. Klunzinger,  K. Koh,  
 D. Kosenkov,  L. Koulias,  T. Kowalczyk,  C. M. Krauter,  A. Kunitsa,  
 Ka Un Lao,  A. Laurent,  K. V. Lawler,  Joonho Lee,  D. Lefrancois,  
 S. Lehtola,  D. S. Levine,  Yi-Pei Li,  You-Sheng Lin,  Fenglai Liu,  
 Kuan-Yu Liu,  E. Livshits,  M. Loipersberger,  A. Luenser,  P. Manohar,  
 E. Mansoor,  S. F. Manzer,  Shan-Ping Mao,  Yuezhi Mao,  N. Mardirossian,  
 A. V. Marenich,  T. Markovich,  L. A. Martinez-Martinez,  S. A. Maurer,  
 N. J. Mayhall,  S. C. McKenzie,  J.-M. Mewes,  P. Morgante,  A. F. Morrison,  
 J. W. Mullinax,  K. Nanda,  T. S. Nguyen-Beck,  R. Olivares-Amaya,  
 K. J. Oosterbaan,  J. A. Parkhill,  S. K. Paul,  F. Pavosevic,  Zheng Pei,  
 T. M. Perrine,  F. Plasser,  P. Pokhilko,  S. Prager,  A. Prociuk,  
 E. Ramos,  B. Rana,  D. R. Rehn,  F. Rob,  M. Scheurer,  M. Schneider,  
 N. Sergueev,  S. M. Sharada,  S. Sharma,  D. W. Small,  T. Stauch,  
 C. J. Stein,  T. Stein,  Yu-Chuan Su,  S. P. Veccham,  Zhen Tao,  
 A. J. W. Thom,  A. Tkatchenko,  T. Tsuchimochi,  N. M. Tubman,  L. Vogt,  
 M. L. Vidal,  O. Vydrov,  M. A. Watson,  J. Wenzel,  M. de Wergifosse,  
 T. A. Wesolowski,  A. White,  J. Witte,  A. Yamada,  Jun Yang,  K. Yao,  
 S. Yeganeh,  S. R. Yost,  Zhi-Qiang You,  A. Zech,  Igor Ying Zhang,  
 Xing Zhang,  Yan Zhao,  Ying Zhu,  B. R. Brooks,  G. K. L. Chan,  
 C. J. Cramer,  M. S. Gordon,  W. J. Hehre,  A. Klamt,  M. W. Schmidt,  
 C. D. Sherrill,  D. G. Truhlar,  A. Aspuru-Guzik,  R. Baer,  A. T. Bell,  
 N. A. Besley,  Jeng-Da Chai,  A. E. DePrince, III,  R. A. DiStasio Jr.,  
 A. Dreuw,  B. D. Dunietz,  T. R. Furlani,  Chao-Ping Hsu,  Yousung Jung,  
 Jing Kong,  D. S. Lambrecht,  WanZhen Liang,  C. Ochsenfeld,  
 V. A. Rassolov,  L. V. Slipchenko,  J. E. Subotnik,  T. Van Voorhis,  
 J. M. Herbert,  A. I. Krylov,  P. M. W. Gill,  M. Head-Gordon

 Contributors to earlier versions of Q-Chem not listed above: 
 R. D. Adamson,  B. Austin,  J. Baker,  G. J. O. Beran,  K. Brandhorst,  
 S. T. Brown,  E. F. C. Byrd,  A. K. Chakraborty,  C.-L. Cheng,  
 Siu Hung Chien,  D. M. Chipman,  D. L. Crittenden,  H. Dachsel,  
 R. J. Doerksen,  A. D. Dutoi,  L. Fusti-Molnar,  W. A. Goddard III,  
 A. Golubeva-Zadorozhnaya,  S. R. Gwaltney,  G. Hawkins,  A. Heyden,  
 S. Hirata,  G. Kedziora,  F. J. Keil,  C. Kelley,  Jihan Kim,  R. A. King,  
 R. Z. Khaliullin,  P. P. Korambath,  W. Kurlancheek,  A. M. Lee,  M. S. Lee,  
 S. V. Levchenko,  Ching Yeh Lin,  D. Liotard,  R. C. Lochan,  I. Lotan,  
 P. E. Maslen,  N. Nair,  D. P. O'Neill,  D. Neuhauser,  E. Neuscamman,  
 C. M. Oana,  R. Olson,  B. Peters,  R. Peverati,  P. A. Pieniazek,  
 Y. M. Rhee,  J. Ritchie,  M. A. Rohrdanz,  E. Rosta,  N. J. Russ,  
 H. F. Schaefer III,  N. E. Schultz,  N. Shenvi,  A. C. Simmonett,  A. Sodt,  
 D. Stuck,  K. S. Thanthiriwatte,  V. Vanovschi,  Tao Wang,  A. Warshel,  
 C. F. Williams,  Q. Wu,  X. Xu,  W. Zhang

 Please cite Q-Chem as follows:
 Y. Shao et al., Mol. Phys. 113, 184-215 (2015)
 DOI: 10.1080/00268976.2014.952696

 Q-Chem 5.3.0 for Intel X86 EM64T Linux

 Parts of Q-Chem use Armadillo 9.800.1 (Horizon Scraper).
 http://arma.sourceforge.net/

 Q-Chem begins on Sun Jul 12 21:53:10 2020  

Host: centos77-c2
0

     Scratch files written to /tmp/28905.centos77-h1/qchem6413//
Processing $rem in /opt/qchem-5.3.0-intel2020u1//config/preferences:
Processing $rem in /home/shihchengli/.qchemrc:

Checking the input file for inconsistencies... 	...done.

--------------------------------------------------------------
User input:
--------------------------------------------------------------
$rem
   JOBTYPE  sp
   EXCHANGE   omegaB97X-D
   BASIS   6-311+G(2df,2pd)
   UNRESTRICTED   True
   max_scf_cycles   250
   geom_opt_max_cycles   1500
   basis2 6-31G*
   scf_algorithm rca_diis
   SYM_IGNORE  TRUE
   print_input   true
   geom_opt_dmax   80
   pop_mulliken false
   XC_GRID 000075000302
$end

$molecule
0 2
N       -0.4570339501     0.6961060267     0.0000000000
O       0.6510839628     0.2710590384     0.0000000000
O       -1.5787400129     0.3083649349     0.0000000000
$end
--------------------------------------------------------------
 ----------------------------------------------------------------
             Standard Nuclear Orientation (Angstroms)
    I     Atom           X                Y                Z
 ----------------------------------------------------------------
    1      N      -0.4570339501     0.6961060267     0.0000000000
    2      O       0.6510839628     0.2710590384     0.0000000000
    3      O      -1.5787400129     0.3083649349     0.0000000000
 ----------------------------------------------------------------
 Nuclear Repulsion Energy =          65.12388468 hartrees
 There are       12 alpha and       11 beta electrons
 Requested basis set is 6-311+G(2df,2pd)
 There are 24 shells and 102 basis functions

 Total QAlloc Memory Limit   2000 MB
 Mega-Array Size       188 MB
 MEM_STATIC part       192 MB

                       Distance Matrix (Angstroms)
             N (  1)   O (  2)
   O (  2)  1.186840
   O (  3)  1.186831  2.230136
 
 A cutoff of  1.0D-09 yielded    294 shell pairs
 There are      5413 function pairs (      7163 Cartesian)
 Smallest overlap matrix eigenvalue = 1.51E-03

 Scale SEOQF with 1.000000e-01/1.000000e-01/1.000000e-01

 Standard Electronic Orientation quadrupole field applied
 Nucleus-field energy     =     0.0000000012 hartrees
 Requested basis set is 6-31G(d)
 There are 12 shells and 42 basis functions
 A cutoff of  1.0D-09 yielded     77 shell pairs
 There are       968 function pairs (      1115 Cartesian)
 Smallest overlap matrix eigenvalue = 7.45E-03
 Guess from superposition of atomic densities
 Warning:  Energy on first SCF cycle will be non-variational
 SAD guess density has 23.000000 electrons
 Long-range K will be added via erf
 Coulomb attenuation parameter = 0.2 bohr**(-1)
 An unrestricted hybrid HF-DFT SCF calculation will be
 performed using Relaxed Constraint Minimization + Pulay DIIS
 Exchange:     0.2220 Hartree-Fock + 1.0000 wB97X-D + LR-HF
 Correlation:  1.0000 wB97X-D
 Using Euler-Maclaurin-Lebedev (75,302) quadrature formula
 Dispersion:   Grimme D
 SCF converges when DIIS error is below 1.0E-04
 using 6 threads for integral computing
 -------------------------------------------------------
 OpenMP Integral computing Module                
 Release: version 1.0, May 2013, Q-Chem Inc. Pittsburgh 
 -------------------------------------------------------
 using 6 threads for integral computing
 -------------------------------------------------------
 OpenMP Integral computing Module                
 Release: version 1.0, May 2013, Q-Chem Inc. Pittsburgh 
 -------------------------------------------------------
 ---------------------------------------
  Cycle       Energy         DIIS Error
 ---------------------------------------
    1    -205.5682394809      1.30E-01
    2    -204.8903737045      2.46E-02
    3    -204.9351104711      4.78E-03
    4    -204.9954841582      3.89E-03
    5    -204.9965654721      7.32E-04 Done RCA. Switching to DIIS
    6    -204.9980201701      5.07E-04
    7    -204.9980729302      5.32E-05 Convergence criterion met
 ---------------------------------------
 <S^2> = 0.7533
 SCF time:  CPU 7.07 s  wall 1.59 s
 SCF   energy in the small basis set = -204.99807293
 Total energy in the small basis set = -204.99807293
 ----------------------------------------------------
  Cycle       Energy    
 ----------------------------------------------------
    1     -20.8780179491     -2.09E+01
 Long-range K will be added via erf
 Coulomb attenuation parameter = 0.2 bohr**(-1)
 An unrestricted hybrid HF-DFT SCF calculation will be
 performed using Relaxed Constraint Minimization + Pulay DIIS
 Exchange:     0.2220 Hartree-Fock + 1.0000 wB97X-D + LR-HF
 Correlation:  1.0000 wB97X-D
 Using Euler-Maclaurin-Lebedev (75,302) quadrature formula
 Dispersion:   Grimme D
 SCF converges when DIIS error is below 1.0E-05
 Basis2 calculation detected. Using small basis as guess for larger.
 SCFMinFind is unable to tell whether the solution found is close.
 Resetting ReadMinima to 0 and attempting to follow guess.
 SCFMinFind following SCF Guess.
 using 6 threads for integral computing
 -------------------------------------------------------
 OpenMP Integral computing Module                
 Release: version 1.0, May 2013, Q-Chem Inc. Pittsburgh 
 -------------------------------------------------------
 using 6 threads for integral computing
 -------------------------------------------------------
 OpenMP Integral computing Module                
 Release: version 1.0, May 2013, Q-Chem Inc. Pittsburgh 
 -------------------------------------------------------
 ---------------------------------------
  Cycle       Energy         DIIS Error
 ---------------------------------------
    1    -205.0481328276      1.13E-02
    2    -205.0536781985      5.55E-03
    3    -205.0639264368      1.13E-03
    4    -205.0771945116      1.10E-03
    5    -205.0776232098      2.07E-04 Done RCA. Switching to DIIS
    6    -205.0781946572      2.00E-04
    7    -205.0782278585      1.00E-05
    8    -205.0782281791      5.56E-06 Convergence criterion met
 ---------------------------------------
 <S^2> = 0.7539
 SCF time:  CPU 25.00 s  wall 5.60 s
 SCF   energy in the final basis set = -205.07822818
 Total energy in the final basis set = -205.07822818
 
 --------------------------------------------------------------
 
                    Orbital Energies (a.u.)
 --------------------------------------------------------------
 
 Alpha MOs
 -- Occupied --
-19.3693 -19.3692 -14.6903  -1.4025  -1.2616  -0.7804  -0.6862  -0.6767
 -0.6753  -0.4868  -0.4749  -0.3643
 -- Virtual --
 -0.0162   0.0941   0.1372   0.1510   0.1528   0.2349   0.2505   0.2630
  0.2753   0.3017   0.3163   0.3215   0.3884   0.4346   0.5492   0.7575
  0.7684   0.8273   0.9084   0.9553   1.0082   1.0358   1.0529   1.0813
  1.0940   1.1306   1.1423   1.1455   1.4476   1.5070   1.5335   1.5979
  1.6211   1.6477   1.6648   1.9174   2.0635   2.2741   2.3631   2.4575
  2.4997   2.6599   3.4840   3.4936   3.6757   3.6892   3.7087   3.7218
  3.9765   4.0531   4.3518   4.4497   4.4835   4.4938   4.6405   4.6949
  4.7052   5.0269   5.0298   5.0351   5.0407   5.0761   5.0779   5.0967
  5.1789   5.3776   5.4279   5.4982   5.5020   5.5584   5.7710   6.3014
  6.4428   6.7336   6.7386   6.7703   6.7902   6.9975   7.0670   7.1095
  7.1225   7.2382   7.2618   7.3781   7.6139   7.8081   8.3974  36.1309
 50.1941  50.2060
 
 Beta MOs
 -- Occupied --
-19.3615 -19.3613 -14.6800  -1.3823  -1.2400  -0.7467  -0.6629  -0.6534
 -0.6380  -0.4674  -0.4429
 -- Virtual --
 -0.0618   0.0017   0.1082   0.1414   0.1608   0.1638   0.2422   0.2558
  0.2657   0.2875   0.3083   0.3259   0.3263   0.3984   0.4386   0.5806
  0.7773   0.7802   0.8300   0.9242   0.9688   1.0158   1.0525   1.0577
  1.0880   1.1135   1.1419   1.1475   1.1493   1.4576   1.5132   1.5397
  1.6077   1.6412   1.6651   1.6714   1.9312   2.0663   2.2917   2.3728
  2.4689   2.5093   2.6798   3.5086   3.5171   3.6837   3.7043   3.7302
  3.7491   3.9941   4.0631   4.3772   4.4629   4.4966   4.5048   4.6804
  4.7316   4.7416   5.0416   5.0430   5.0486   5.0520   5.0823   5.0985
  5.1132   5.2056   5.3909   5.4355   5.5172   5.5204   5.5729   5.7851
  6.3311   6.4512   6.7552   6.7626   6.7991   6.8160   7.0205   7.0798
  7.1283   7.1295   7.2532   7.2741   7.4015   7.6270   7.8240   8.4218
 36.1431  50.2014  50.2134
 --------------------------------------------------------------
 
 -----------------------------------------------------------------
                    Cartesian Multipole Moments
 -----------------------------------------------------------------
    Charge (ESU x 10^10)
                -0.0000
    Dipole Moment (Debye)
         X       0.0058      Y       0.2923      Z       0.0000
       Tot       0.2923
    Quadrupole Moments (Debye-Ang)
        XX     -17.9288     XY      -0.0954     YY     -15.4499
        XZ      -0.0000     YZ       0.0000     ZZ     -14.8415
    Octopole Moments (Debye-Ang^2)
       XXX      24.8192    XXY      -7.6775    XYY       7.1672
       YYY     -19.8141    XXZ       0.0000    XYZ      -0.0000
       YYZ       0.0000    XZZ       6.8517    YZZ      -6.2264
       ZZZ       0.0000
    Hexadecapole Moments (Debye-Ang^3)
      XXXX    -114.9784   XXXY      11.2952   XXYY     -24.7073
      XYYY       9.8024   YYYY     -33.3114   XXXZ      -0.0000
      XXYZ       0.0000   XYYZ      -0.0000   YYYZ      -0.0000
      XXZZ     -20.1866   XYZZ       3.0829   YYZZ      -7.1779
      XZZZ      -0.0000   YZZZ      -0.0000   ZZZZ     -11.3503
 -----------------------------------------------------------------
Archival summary:
1\1\centos77-c2\SP\ProcedureUnspecified\BasisUnspecified\21(2)\shihchen\SunJul1221:53:182020SunJul1221:53:182020\0\\#,ProcedureUnspecified,BasisUnspecified,\\0,2\N\O,1,1.18683\O,1,1.18684,2,139.946\\\@

 Total job time:  8.36s(wall), 34.68s(cpu) 
 Sun Jul 12 21:53:18 2020

        *************************************************************
        *                                                           *
        *  Thank you very much for using Q-Chem.  Have a nice day.  *
        *                                                           *
        *************************************************************


