                  Welcome to Q-Chem
     A Quantum Leap Into The Future Of Chemistry


 Q-Chem 5.3 (devel), Q-Chem, Inc., Pleasanton, CA (2020)

 Yihan Shao,  Zhengting Gan,  E. Epifanovsky,  A. T. B. Gilbert,  M. Wormit,  
 J. Kussmann,  A. W. Lange,  A. Behn,  Jia Deng,  Xintian Feng,  D. Ghosh,  
 M. Goldey,  P. R. Horn,  L. D. Jacobson,  I. Kaliman,  T. Kus,  A. Landau,  
 Jie Liu,  E. I. Proynov,  R. M. Richard,  R. P. Steele,  E. J. Sundstrom,  
 H. L. Woodcock III,  P. M. Zimmerman,  D. Zuev,  B. Alam,  B. Albrecht,  
 E. Alguire,  S. A. Baeppler,  D. Barton,  Z. Benda,  Y. A. Bernard,  
 E. J. Berquist,  K. B. Bravaya,  H. Burton,  K. Carter-Fenk,  D. Casanova,  
 Chun-Min Chang,  Yunqing Chen,  A. Chien,  K. D. Closser,  M. P. Coons,  
 S. Coriani,  S. Dasgupta,  A. L. Dempwolff,  M. Diedenhofen,  Hainam Do,  
 R. G. Edgar,  Po-Tung Fang,  S. Faraji,  S. Fatehi,  Qingguo Feng,  
 J. Fosso-Tande,  J. Gayvert,  Qinghui Ge,  A. Ghysels,  G. Gidofalvi,  
 J. Gomes,  J. Gonthier,  A. Gunina,  D. Hait,  M. W. D. Hanson-Heine,  
 P. H. P. Harbach,  A. W. Hauser,  M. F. Herbst,  J. E. Herr,  
 E. G. Hohenstein,  Z. C. Holden,  Kerwin Hui,  B. C. Huynh,  T.-C. Jagau,  
 Hyunjun Ji,  B. Kaduk,  K. Khistyaev,  Jaehoon Kim,  P. Klunzinger,  K. Koh,  
 D. Kosenkov,  L. Koulias,  T. Kowalczyk,  C. M. Krauter,  A. Kunitsa,  
 Ka Un Lao,  A. Laurent,  K. V. Lawler,  Joonho Lee,  D. Lefrancois,  
 S. Lehtola,  D. S. Levine,  Yi-Pei Li,  You-Sheng Lin,  Fenglai Liu,  
 Kuan-Yu Liu,  E. Livshits,  M. Loipersberger,  A. Luenser,  P. Manohar,  
 E. Mansoor,  S. F. Manzer,  Shan-Ping Mao,  Yuezhi Mao,  N. Mardirossian,  
 A. V. Marenich,  T. Markovich,  L. A. Martinez-Martinez,  S. A. Maurer,  
 N. J. Mayhall,  S. C. McKenzie,  J.-M. Mewes,  P. Morgante,  A. F. Morrison,  
 J. W. Mullinax,  K. Nanda,  T. S. Nguyen-Beck,  R. Olivares-Amaya,  
 K. J. Oosterbaan,  J. A. Parkhill,  S. K. Paul,  F. Pavosevic,  Zheng Pei,  
 T. M. Perrine,  F. Plasser,  P. Pokhilko,  S. Prager,  A. Prociuk,  
 E. Ramos,  B. Rana,  D. R. Rehn,  F. Rob,  M. Scheurer,  M. Schneider,  
 N. Sergueev,  S. M. Sharada,  S. Sharma,  D. W. Small,  T. Stauch,  
 C. J. Stein,  T. Stein,  Yu-Chuan Su,  S. P. Veccham,  Zhen Tao,  
 A. J. W. Thom,  A. Tkatchenko,  T. Tsuchimochi,  N. M. Tubman,  L. Vogt,  
 M. L. Vidal,  O. Vydrov,  M. A. Watson,  J. Wenzel,  M. de Wergifosse,  
 T. A. Wesolowski,  A. White,  J. Witte,  A. Yamada,  Jun Yang,  K. Yao,  
 S. Yeganeh,  S. R. Yost,  Zhi-Qiang You,  A. Zech,  Igor Ying Zhang,  
 Xing Zhang,  Yan Zhao,  Ying Zhu,  B. R. Brooks,  G. K. L. Chan,  
 C. J. Cramer,  M. S. Gordon,  W. J. Hehre,  A. Klamt,  M. W. Schmidt,  
 C. D. Sherrill,  D. G. Truhlar,  A. Aspuru-Guzik,  R. Baer,  A. T. Bell,  
 N. A. Besley,  Jeng-Da Chai,  A. E. DePrince, III,  R. A. DiStasio Jr.,  
 A. Dreuw,  B. D. Dunietz,  T. R. Furlani,  Chao-Ping Hsu,  Yousung Jung,  
 Jing Kong,  D. S. Lambrecht,  WanZhen Liang,  C. Ochsenfeld,  
 V. A. Rassolov,  L. V. Slipchenko,  J. E. Subotnik,  T. Van Voorhis,  
 J. M. Herbert,  A. I. Krylov,  P. M. W. Gill,  M. Head-Gordon

 Contributors to earlier versions of Q-Chem not listed above: 
 R. D. Adamson,  B. Austin,  J. Baker,  G. J. O. Beran,  K. Brandhorst,  
 S. T. Brown,  E. F. C. Byrd,  A. K. Chakraborty,  C.-L. Cheng,  
 Siu Hung Chien,  D. M. Chipman,  D. L. Crittenden,  H. Dachsel,  
 R. J. Doerksen,  A. D. Dutoi,  L. Fusti-Molnar,  W. A. Goddard III,  
 A. Golubeva-Zadorozhnaya,  S. R. Gwaltney,  G. Hawkins,  A. Heyden,  
 S. Hirata,  G. Kedziora,  F. J. Keil,  C. Kelley,  Jihan Kim,  R. A. King,  
 R. Z. Khaliullin,  P. P. Korambath,  W. Kurlancheek,  A. M. Lee,  M. S. Lee,  
 S. V. Levchenko,  Ching Yeh Lin,  D. Liotard,  R. C. Lochan,  I. Lotan,  
 P. E. Maslen,  N. Nair,  D. P. O'Neill,  D. Neuhauser,  E. Neuscamman,  
 C. M. Oana,  R. Olson,  B. Peters,  R. Peverati,  P. A. Pieniazek,  
 Y. M. Rhee,  J. Ritchie,  M. A. Rohrdanz,  E. Rosta,  N. J. Russ,  
 H. F. Schaefer III,  N. E. Schultz,  N. Shenvi,  A. C. Simmonett,  A. Sodt,  
 D. Stuck,  K. S. Thanthiriwatte,  V. Vanovschi,  Tao Wang,  A. Warshel,  
 C. F. Williams,  Q. Wu,  X. Xu,  W. Zhang

 Please cite Q-Chem as follows:
 Y. Shao et al., Mol. Phys. 113, 184-215 (2015)
 DOI: 10.1080/00268976.2014.952696

 Q-Chem 5.3.0 for Intel X86 EM64T Linux

 Parts of Q-Chem use Armadillo 9.800.1 (Horizon Scraper).
 http://arma.sourceforge.net/

 Q-Chem begins on Sun Jul 12 21:52:30 2020  

Host: centos77-c2
0

     Scratch files written to /tmp/28905.centos77-h1/qchem6164//
Processing $rem in /opt/qchem-5.3.0-intel2020u1//config/preferences:
Processing $rem in /home/shihchengli/.qchemrc:

Checking the input file for inconsistencies... 	...done.

--------------------------------------------------------------
User input:
--------------------------------------------------------------
$rem
   JOBTYPE  sp
   EXCHANGE   omegaB97X-D
   BASIS   6-311+G(2df,2pd)
   UNRESTRICTED   True
   max_scf_cycles   250
   geom_opt_max_cycles   1500
   basis2 6-31G*
   scf_algorithm rca_diis
   SYM_IGNORE  TRUE
   print_input   true
   geom_opt_dmax   80
   pop_mulliken false
   XC_GRID 000075000302
$end

$molecule
0 2
N       -0.4559030889     0.7627392070     0.0000000000
O       0.6020330953     0.2385567158     0.0000000000
O       -1.5308200065     0.2742340772     0.0000000000
$end
--------------------------------------------------------------
 ----------------------------------------------------------------
             Standard Nuclear Orientation (Angstroms)
    I     Atom           X                Y                Z
 ----------------------------------------------------------------
    1      N      -0.4559030889     0.7627392070     0.0000000000
    2      O       0.6020330953     0.2385567158     0.0000000000
    3      O      -1.5308200065     0.2742340772     0.0000000000
 ----------------------------------------------------------------
 Nuclear Repulsion Energy =          66.07407562 hartrees
 There are       12 alpha and       11 beta electrons
 Requested basis set is 6-311+G(2df,2pd)
 There are 24 shells and 102 basis functions

 Total QAlloc Memory Limit   2000 MB
 Mega-Array Size       188 MB
 MEM_STATIC part       192 MB

                       Distance Matrix (Angstroms)
             N (  1)   O (  2)
   O (  2)  1.180676
   O (  3)  1.180713  2.133151
 
 A cutoff of  1.0D-09 yielded    295 shell pairs
 There are      5429 function pairs (      7179 Cartesian)
 Smallest overlap matrix eigenvalue = 1.49E-03

 Scale SEOQF with 1.000000e-01/1.000000e-01/1.000000e-01

 Standard Electronic Orientation quadrupole field applied
 Nucleus-field energy     =     0.0000000012 hartrees
 Requested basis set is 6-31G(d)
 There are 12 shells and 42 basis functions
 A cutoff of  1.0D-09 yielded     77 shell pairs
 There are       968 function pairs (      1115 Cartesian)
 Smallest overlap matrix eigenvalue = 6.46E-03
 Guess from superposition of atomic densities
 Warning:  Energy on first SCF cycle will be non-variational
 SAD guess density has 23.000000 electrons
 Long-range K will be added via erf
 Coulomb attenuation parameter = 0.2 bohr**(-1)
 An unrestricted hybrid HF-DFT SCF calculation will be
 performed using Relaxed Constraint Minimization + Pulay DIIS
 Exchange:     0.2220 Hartree-Fock + 1.0000 wB97X-D + LR-HF
 Correlation:  1.0000 wB97X-D
 Using Euler-Maclaurin-Lebedev (75,302) quadrature formula
 Dispersion:   Grimme D
 SCF converges when DIIS error is below 1.0E-04
 using 6 threads for integral computing
 -------------------------------------------------------
 OpenMP Integral computing Module                
 Release: version 1.0, May 2013, Q-Chem Inc. Pittsburgh 
 -------------------------------------------------------
 using 6 threads for integral computing
 -------------------------------------------------------
 OpenMP Integral computing Module                
 Release: version 1.0, May 2013, Q-Chem Inc. Pittsburgh 
 -------------------------------------------------------
 ---------------------------------------
  Cycle       Energy         DIIS Error
 ---------------------------------------
    1    -205.6078970292      1.33E-01
    2    -204.8845506132      2.51E-02
    3    -204.9317061342      4.76E-03
    4    -204.9948828785      4.05E-03
    5    -204.9960361939      7.41E-04 Done RCA. Switching to DIIS
    6    -204.9975850186      5.22E-04
    7    -204.9976423856      6.55E-05 Convergence criterion met
 ---------------------------------------
 <S^2> = 0.7536
 SCF time:  CPU 10.67 s  wall 2.87 s
 SCF   energy in the small basis set = -204.99764239
 Total energy in the small basis set = -204.99764239
 ----------------------------------------------------
  Cycle       Energy    
 ----------------------------------------------------
    1     -20.8961127185     -2.09E+01
 Long-range K will be added via erf
 Coulomb attenuation parameter = 0.2 bohr**(-1)
 An unrestricted hybrid HF-DFT SCF calculation will be
 performed using Relaxed Constraint Minimization + Pulay DIIS
 Exchange:     0.2220 Hartree-Fock + 1.0000 wB97X-D + LR-HF
 Correlation:  1.0000 wB97X-D
 Using Euler-Maclaurin-Lebedev (75,302) quadrature formula
 Dispersion:   Grimme D
 SCF converges when DIIS error is below 1.0E-05
 Basis2 calculation detected. Using small basis as guess for larger.
 SCFMinFind is unable to tell whether the solution found is close.
 Resetting ReadMinima to 0 and attempting to follow guess.
 SCFMinFind following SCF Guess.
 using 6 threads for integral computing
 -------------------------------------------------------
 OpenMP Integral computing Module                
 Release: version 1.0, May 2013, Q-Chem Inc. Pittsburgh 
 -------------------------------------------------------
 using 6 threads for integral computing
 -------------------------------------------------------
 OpenMP Integral computing Module                
 Release: version 1.0, May 2013, Q-Chem Inc. Pittsburgh 
 -------------------------------------------------------
 ---------------------------------------
  Cycle       Energy         DIIS Error
 ---------------------------------------
    1    -205.0486185405      1.13E-02
    2    -205.0544994241      5.43E-03
    3    -205.0643565276      1.10E-03
    4    -205.0770880558      1.06E-03
    5    -205.0774826068      1.99E-04 Done RCA. Switching to DIIS
    6    -205.0780046645      1.87E-04
    7    -205.0780330231      1.14E-05
    8    -205.0780332678      6.74E-06 Convergence criterion met
 ---------------------------------------
 <S^2> = 0.7542
 SCF time:  CPU 19.14 s  wall 3.88 s
 SCF   energy in the final basis set = -205.07803327
 Total energy in the final basis set = -205.07803327
 
 --------------------------------------------------------------
 
                    Orbital Energies (a.u.)
 --------------------------------------------------------------
 
 Alpha MOs
 -- Occupied --
-19.3630 -19.3629 -14.6901  -1.4154  -1.2524  -0.7819  -0.6874  -0.6787
 -0.6749  -0.4743  -0.4706  -0.3900
 -- Virtual --
 -0.0150   0.0999   0.1382   0.1481   0.1521   0.2431   0.2475   0.2646
  0.2701   0.2919   0.3279   0.3647   0.3902   0.4276   0.5083   0.7398
  0.7652   0.8133   0.9062   0.9789   1.0069   1.0440   1.0553   1.0605
  1.1222   1.1301   1.1304   1.1401   1.4690   1.5436   1.5655   1.5672
  1.5760   1.6231   1.8094   1.8778   2.1071   2.1958   2.2853   2.4702
  2.4811   2.5932   3.4947   3.5209   3.6843   3.6926   3.7224   3.7949
  4.0234   4.0686   4.4161   4.4280   4.5064   4.5078   4.6425   4.6480
  4.7320   5.0234   5.0296   5.0305   5.0609   5.0881   5.0967   5.1081
  5.1617   5.3735   5.3920   5.4959   5.5825   5.6506   5.7783   6.1801
  6.5700   6.7471   6.7583   6.7654   6.7895   6.8811   7.0021   7.1126
  7.1698   7.2139   7.3618   7.4522   7.6541   7.7875   8.1280  36.1767
 50.1826  50.2036
 
 Beta MOs
 -- Occupied --
-19.3550 -19.3549 -14.6807  -1.3962  -1.2297  -0.7449  -0.6669  -0.6501
 -0.6427  -0.4625  -0.4304
 -- Virtual --
 -0.0894   0.0024   0.1122   0.1412   0.1585   0.1597   0.2481   0.2519
  0.2667   0.2814   0.2980   0.3324   0.3745   0.4003   0.4328   0.5375
  0.7597   0.7732   0.8158   0.9217   0.9916   1.0142   1.0639   1.0640
  1.0652   1.1342   1.1355   1.1400   1.1522   1.4798   1.5503   1.5752
  1.5752   1.5918   1.6410   1.8194   1.8913   2.1109   2.2139   2.2948
  2.4807   2.4896   2.6154   3.5162   3.5410   3.6977   3.6998   3.7570
  3.8028   4.0336   4.0868   4.4387   4.4439   4.5178   4.5216   4.6780
  4.6842   4.7630   5.0383   5.0395   5.0444   5.0760   5.1034   5.1135
  5.1262   5.1894   5.3921   5.4104   5.5126   5.5915   5.6698   5.7898
  6.2060   6.5798   6.7684   6.7853   6.7955   6.8151   6.8945   7.0305
  7.1277   7.1766   7.2271   7.3762   7.4765   7.6693   7.8052   8.1533
 36.1877  50.1900  50.2110
 --------------------------------------------------------------
 
 -----------------------------------------------------------------
                    Cartesian Multipole Moments
 -----------------------------------------------------------------
    Charge (ESU x 10^10)
                 0.0000
    Dipole Moment (Debye)
         X       0.0075      Y       0.4559      Z       0.0000
       Tot       0.4559
    Quadrupole Moments (Debye-Ang)
        XX     -17.9859     XY      -0.1658     YY     -15.1231
        XZ       0.0000     YZ       0.0000     ZZ     -14.8064
    Octopole Moments (Debye-Ang^2)
       XXX      24.8904    XXY      -7.7828    XYY       7.0240
       YYY     -19.5050    XXZ      -0.0000    XYZ       0.0000
       YYZ      -0.0000    XZZ       6.8361    YZZ      -6.1859
       ZZZ       0.0000
    Hexadecapole Moments (Debye-Ang^3)
      XXXX    -109.6837   XXXY      11.4332   XXYY     -23.6443
      XYYY       9.5847   YYYY     -34.6666   XXXZ       0.0000
      XXYZ       0.0000   XYYZ       0.0000   YYYZ      -0.0000
      XXZZ     -19.1532   XYZZ       3.0436   YYZZ      -7.3708
      XZZZ       0.0000   YZZZ      -0.0000   ZZZZ     -11.2467
 -----------------------------------------------------------------
Archival summary:
1\1\centos77-c2\SP\ProcedureUnspecified\BasisUnspecified\21(2)\shihchen\SunJul1221:52:382020SunJul1221:52:382020\0\\#,ProcedureUnspecified,BasisUnspecified,\\0,2\N\O,1,1.18068\O,1,1.18071,2,129.203\\\@

 Total job time:  7.60s(wall), 32.79s(cpu) 
 Sun Jul 12 21:52:38 2020

        *************************************************************
        *                                                           *
        *  Thank you very much for using Q-Chem.  Have a nice day.  *
        *                                                           *
        *************************************************************


