                  Welcome to Q-Chem
     A Quantum Leap Into The Future Of Chemistry


 Q-Chem 5.3 (devel), Q-Chem, Inc., Pleasanton, CA (2020)

 Yihan Shao,  Zhengting Gan,  E. Epifanovsky,  A. T. B. Gilbert,  M. Wormit,  
 J. Kussmann,  A. W. Lange,  A. Behn,  Jia Deng,  Xintian Feng,  D. Ghosh,  
 M. Goldey,  P. R. Horn,  L. D. Jacobson,  I. Kaliman,  T. Kus,  A. Landau,  
 Jie Liu,  E. I. Proynov,  R. M. Richard,  R. P. Steele,  E. J. Sundstrom,  
 H. L. Woodcock III,  P. M. Zimmerman,  D. Zuev,  B. Alam,  B. Albrecht,  
 E. Alguire,  S. A. Baeppler,  D. Barton,  Z. Benda,  Y. A. Bernard,  
 E. J. Berquist,  K. B. Bravaya,  H. Burton,  K. Carter-Fenk,  D. Casanova,  
 Chun-Min Chang,  Yunqing Chen,  A. Chien,  K. D. Closser,  M. P. Coons,  
 S. Coriani,  S. Dasgupta,  A. L. Dempwolff,  M. Diedenhofen,  Hainam Do,  
 R. G. Edgar,  Po-Tung Fang,  S. Faraji,  S. Fatehi,  Qingguo Feng,  
 J. Fosso-Tande,  J. Gayvert,  Qinghui Ge,  A. Ghysels,  G. Gidofalvi,  
 J. Gomes,  J. Gonthier,  A. Gunina,  D. Hait,  M. W. D. Hanson-Heine,  
 P. H. P. Harbach,  A. W. Hauser,  M. F. Herbst,  J. E. Herr,  
 E. G. Hohenstein,  Z. C. Holden,  Kerwin Hui,  B. C. Huynh,  T.-C. Jagau,  
 Hyunjun Ji,  B. Kaduk,  K. Khistyaev,  Jaehoon Kim,  P. Klunzinger,  K. Koh,  
 D. Kosenkov,  L. Koulias,  T. Kowalczyk,  C. M. Krauter,  A. Kunitsa,  
 Ka Un Lao,  A. Laurent,  K. V. Lawler,  Joonho Lee,  D. Lefrancois,  
 S. Lehtola,  D. S. Levine,  Yi-Pei Li,  You-Sheng Lin,  Fenglai Liu,  
 Kuan-Yu Liu,  E. Livshits,  M. Loipersberger,  A. Luenser,  P. Manohar,  
 E. Mansoor,  S. F. Manzer,  Shan-Ping Mao,  Yuezhi Mao,  N. Mardirossian,  
 A. V. Marenich,  T. Markovich,  L. A. Martinez-Martinez,  S. A. Maurer,  
 N. J. Mayhall,  S. C. McKenzie,  J.-M. Mewes,  P. Morgante,  A. F. Morrison,  
 J. W. Mullinax,  K. Nanda,  T. S. Nguyen-Beck,  R. Olivares-Amaya,  
 K. J. Oosterbaan,  J. A. Parkhill,  S. K. Paul,  F. Pavosevic,  Zheng Pei,  
 T. M. Perrine,  F. Plasser,  P. Pokhilko,  S. Prager,  A. Prociuk,  
 E. Ramos,  B. Rana,  D. R. Rehn,  F. Rob,  M. Scheurer,  M. Schneider,  
 N. Sergueev,  S. M. Sharada,  S. Sharma,  D. W. Small,  T. Stauch,  
 C. J. Stein,  T. Stein,  Yu-Chuan Su,  S. P. Veccham,  Zhen Tao,  
 A. J. W. Thom,  A. Tkatchenko,  T. Tsuchimochi,  N. M. Tubman,  L. Vogt,  
 M. L. Vidal,  O. Vydrov,  M. A. Watson,  J. Wenzel,  M. de Wergifosse,  
 T. A. Wesolowski,  A. White,  J. Witte,  A. Yamada,  Jun Yang,  K. Yao,  
 S. Yeganeh,  S. R. Yost,  Zhi-Qiang You,  A. Zech,  Igor Ying Zhang,  
 Xing Zhang,  Yan Zhao,  Ying Zhu,  B. R. Brooks,  G. K. L. Chan,  
 C. J. Cramer,  M. S. Gordon,  W. J. Hehre,  A. Klamt,  M. W. Schmidt,  
 C. D. Sherrill,  D. G. Truhlar,  A. Aspuru-Guzik,  R. Baer,  A. T. Bell,  
 N. A. Besley,  Jeng-Da Chai,  A. E. DePrince, III,  R. A. DiStasio Jr.,  
 A. Dreuw,  B. D. Dunietz,  T. R. Furlani,  Chao-Ping Hsu,  Yousung Jung,  
 Jing Kong,  D. S. Lambrecht,  WanZhen Liang,  C. Ochsenfeld,  
 V. A. Rassolov,  L. V. Slipchenko,  J. E. Subotnik,  T. Van Voorhis,  
 J. M. Herbert,  A. I. Krylov,  P. M. W. Gill,  M. Head-Gordon

 Contributors to earlier versions of Q-Chem not listed above: 
 R. D. Adamson,  B. Austin,  J. Baker,  G. J. O. Beran,  K. Brandhorst,  
 S. T. Brown,  E. F. C. Byrd,  A. K. Chakraborty,  C.-L. Cheng,  
 Siu Hung Chien,  D. M. Chipman,  D. L. Crittenden,  H. Dachsel,  
 R. J. Doerksen,  A. D. Dutoi,  L. Fusti-Molnar,  W. A. Goddard III,  
 A. Golubeva-Zadorozhnaya,  S. R. Gwaltney,  G. Hawkins,  A. Heyden,  
 S. Hirata,  G. Kedziora,  F. J. Keil,  C. Kelley,  Jihan Kim,  R. A. King,  
 R. Z. Khaliullin,  P. P. Korambath,  W. Kurlancheek,  A. M. Lee,  M. S. Lee,  
 S. V. Levchenko,  Ching Yeh Lin,  D. Liotard,  R. C. Lochan,  I. Lotan,  
 P. E. Maslen,  N. Nair,  D. P. O'Neill,  D. Neuhauser,  E. Neuscamman,  
 C. M. Oana,  R. Olson,  B. Peters,  R. Peverati,  P. A. Pieniazek,  
 Y. M. Rhee,  J. Ritchie,  M. A. Rohrdanz,  E. Rosta,  N. J. Russ,  
 H. F. Schaefer III,  N. E. Schultz,  N. Shenvi,  A. C. Simmonett,  A. Sodt,  
 D. Stuck,  K. S. Thanthiriwatte,  V. Vanovschi,  Tao Wang,  A. Warshel,  
 C. F. Williams,  Q. Wu,  X. Xu,  W. Zhang

 Please cite Q-Chem as follows:
 Y. Shao et al., Mol. Phys. 113, 184-215 (2015)
 DOI: 10.1080/00268976.2014.952696

 Q-Chem 5.3.0 for Intel X86 EM64T Linux

 Parts of Q-Chem use Armadillo 9.800.1 (Horizon Scraper).
 http://arma.sourceforge.net/

 Q-Chem begins on Sun Jul 12 21:54:55 2020  

Host: centos77-c2
0

     Scratch files written to /tmp/28905.centos77-h1/qchem7050//
Processing $rem in /opt/qchem-5.3.0-intel2020u1//config/preferences:
Processing $rem in /home/shihchengli/.qchemrc:

Checking the input file for inconsistencies... 	...done.

--------------------------------------------------------------
User input:
--------------------------------------------------------------
$rem
   JOBTYPE  sp
   EXCHANGE   omegaB97X-D
   BASIS   6-311+G(2df,2pd)
   UNRESTRICTED   True
   max_scf_cycles   250
   geom_opt_max_cycles   1500
   basis2 6-31G*
   scf_algorithm rca_diis
   SYM_IGNORE  TRUE
   print_input   true
   geom_opt_dmax   80
   pop_mulliken false
   XC_GRID 000075000302
$end

$molecule
0 2
N       -0.4571509823     0.6879459960     0.0000000000
O       0.5858250268     0.2762358525     0.0000000000
O       -1.5133640446     0.3113481515     0.0000000000
$end
--------------------------------------------------------------
 ----------------------------------------------------------------
             Standard Nuclear Orientation (Angstroms)
    I     Atom           X                Y                Z
 ----------------------------------------------------------------
    1      N      -0.4571509823     0.6879459960     0.0000000000
    2      O       0.5858250268     0.2762358525     0.0000000000
    3      O      -1.5133640446     0.3113481515     0.0000000000
 ----------------------------------------------------------------
 Nuclear Repulsion Energy =          68.98668766 hartrees
 There are       12 alpha and       11 beta electrons
 Requested basis set is 6-311+G(2df,2pd)
 There are 24 shells and 102 basis functions

 Total QAlloc Memory Limit   2000 MB
 Mega-Array Size       188 MB
 MEM_STATIC part       192 MB

                       Distance Matrix (Angstroms)
             N (  1)   O (  2)
   O (  2)  1.121296
   O (  3)  1.121344  2.099483
 
 A cutoff of  1.0D-09 yielded    295 shell pairs
 There are      5429 function pairs (      7179 Cartesian)
 Smallest overlap matrix eigenvalue = 1.17E-03

 Scale SEOQF with 1.000000e-01/1.000000e-01/1.000000e-01

 Standard Electronic Orientation quadrupole field applied
 Nucleus-field energy     =     0.0000000011 hartrees
 Requested basis set is 6-31G(d)
 There are 12 shells and 42 basis functions
 A cutoff of  1.0D-09 yielded     77 shell pairs
 There are       968 function pairs (      1115 Cartesian)
 Smallest overlap matrix eigenvalue = 5.67E-03
 Guess from superposition of atomic densities
 Warning:  Energy on first SCF cycle will be non-variational
 SAD guess density has 23.000000 electrons
 Long-range K will be added via erf
 Coulomb attenuation parameter = 0.2 bohr**(-1)
 An unrestricted hybrid HF-DFT SCF calculation will be
 performed using Relaxed Constraint Minimization + Pulay DIIS
 Exchange:     0.2220 Hartree-Fock + 1.0000 wB97X-D + LR-HF
 Correlation:  1.0000 wB97X-D
 Using Euler-Maclaurin-Lebedev (75,302) quadrature formula
 Dispersion:   Grimme D
 SCF converges when DIIS error is below 1.0E-04
 using 6 threads for integral computing
 -------------------------------------------------------
 OpenMP Integral computing Module                
 Release: version 1.0, May 2013, Q-Chem Inc. Pittsburgh 
 -------------------------------------------------------
 using 6 threads for integral computing
 -------------------------------------------------------
 OpenMP Integral computing Module                
 Release: version 1.0, May 2013, Q-Chem Inc. Pittsburgh 
 -------------------------------------------------------
 ---------------------------------------
  Cycle       Energy         DIIS Error
 ---------------------------------------
    1    -205.9272624430      1.52E-01
    2    -204.8877446775      2.31E-02
    3    -204.9274080776      3.74E-03
    4    -204.9772733525      1.87E-03
    5    -204.9775544752      4.02E-04 Done RCA. Switching to DIIS
    6    -204.9778957985      2.58E-04
    7    -204.9779097768      3.66E-05 Convergence criterion met
 ---------------------------------------
 <S^2> = 0.7527
 SCF time:  CPU 11.23 s  wall 3.29 s
 SCF   energy in the small basis set = -204.97790978
 Total energy in the small basis set = -204.97790978
 ----------------------------------------------------
  Cycle       Energy    
 ----------------------------------------------------
    1     -21.0119910981     -2.10E+01
 Long-range K will be added via erf
 Coulomb attenuation parameter = 0.2 bohr**(-1)
 An unrestricted hybrid HF-DFT SCF calculation will be
 performed using Relaxed Constraint Minimization + Pulay DIIS
 Exchange:     0.2220 Hartree-Fock + 1.0000 wB97X-D + LR-HF
 Correlation:  1.0000 wB97X-D
 Using Euler-Maclaurin-Lebedev (75,302) quadrature formula
 Dispersion:   Grimme D
 SCF converges when DIIS error is below 1.0E-05
 Basis2 calculation detected. Using small basis as guess for larger.
 SCFMinFind is unable to tell whether the solution found is close.
 Resetting ReadMinima to 0 and attempting to follow guess.
 SCFMinFind following SCF Guess.
 using 6 threads for integral computing
 -------------------------------------------------------
 OpenMP Integral computing Module                
 Release: version 1.0, May 2013, Q-Chem Inc. Pittsburgh 
 -------------------------------------------------------
 using 6 threads for integral computing
 -------------------------------------------------------
 OpenMP Integral computing Module                
 Release: version 1.0, May 2013, Q-Chem Inc. Pittsburgh 
 -------------------------------------------------------
 ---------------------------------------
  Cycle       Energy         DIIS Error
 ---------------------------------------
    1    -205.0356932411      1.13E-02
    2    -205.0477047466      4.73E-03
    3    -205.0551382304      8.09E-04 Done RCA. Switching to DIIS
    4    -205.0643373578      5.25E-04
    5    -205.0645723204      5.31E-05
    6    -205.0645822945      2.85E-05
    7    -205.0645837140      1.48E-05
    8    -205.0645843579      2.03E-06 Convergence criterion met
 ---------------------------------------
 <S^2> = 0.7531
 SCF time:  CPU 13.24 s  wall 2.38 s
 SCF   energy in the final basis set = -205.06458436
 Total energy in the final basis set = -205.06458436
 
 --------------------------------------------------------------
 
                    Orbital Energies (a.u.)
 --------------------------------------------------------------
 
 Alpha MOs
 -- Occupied --
-19.3550 -19.3549 -14.6794  -1.4567  -1.3017  -0.7667  -0.7130  -0.7093
 -0.6806  -0.4860  -0.4787  -0.3417
 -- Virtual --
  0.0224   0.0963   0.1365   0.1468   0.1477   0.2469   0.2515   0.2633
  0.2820   0.3047   0.3255   0.3591   0.4356   0.4415   0.6431   0.7433
  0.7578   0.8320   0.9098   0.9553   0.9980   1.0402   1.0476   1.0885
  1.1083   1.1373   1.1451   1.1909   1.4623   1.5307   1.5398   1.6033
  1.6586   1.6840   1.7677   1.9856   2.1416   2.3217   2.4091   2.5171
  2.5581   2.7394   3.4845   3.4943   3.6633   3.6824   3.7045   3.8097
  4.0253   4.1835   4.3033   4.3556   4.3790   4.5788   4.6295   4.6626
  4.8236   5.0213   5.0239   5.0477   5.0802   5.1011   5.1254   5.1267
  5.3194   5.3454   5.5967   5.6345   5.6978   5.7207   5.9068   6.5328
  6.7375   6.7420   6.7772   6.8033   6.8078   6.9998   7.1195   7.3175
  7.3528   7.4462   7.4526   7.6393   7.6819   7.8963   8.7393  36.4113
 50.3012  50.4359
 
 Beta MOs
 -- Occupied --
-19.3474 -19.3473 -14.6692  -1.4375  -1.2809  -0.7308  -0.6970  -0.6689
 -0.6599  -0.4714  -0.4435
 -- Virtual --
 -0.0398   0.0402   0.1145   0.1420   0.1593   0.1643   0.2530   0.2579
  0.2669   0.2965   0.3138   0.3319   0.3716   0.4398   0.4534   0.6706
  0.7671   0.7681   0.8361   0.9266   0.9686   1.0060   1.0452   1.0647
  1.0962   1.1288   1.1477   1.1507   1.1949   1.4718   1.5368   1.5451
  1.6115   1.6791   1.7016   1.7768   1.9999   2.1447   2.3384   2.4182
  2.5287   2.5668   2.7605   3.5079   3.5169   3.6708   3.6978   3.7414
  3.8182   4.0431   4.1933   4.3156   4.3842   4.3947   4.6188   4.6465
  4.6930   4.8573   5.0351   5.0369   5.0547   5.0945   5.1207   5.1315
  5.1441   5.3455   5.3636   5.6046   5.6540   5.7128   5.7357   5.9184
  6.5608   6.7575   6.7647   6.8041   6.8128   6.8322   7.0260   7.1243
  7.3281   7.3647   7.4610   7.4734   7.6566   7.6940   7.9113   8.7653
 36.4229  50.3081  50.4428
 --------------------------------------------------------------
 
 -----------------------------------------------------------------
                    Cartesian Multipole Moments
 -----------------------------------------------------------------
    Charge (ESU x 10^10)
                -0.0000
    Dipole Moment (Debye)
         X       0.0061      Y       0.3492      Z       0.0000
       Tot       0.3493
    Quadrupole Moments (Debye-Ang)
        XX     -17.9077     XY      -0.1194     YY     -15.2648
        XZ       0.0000     YZ      -0.0000     ZZ     -14.5826
    Octopole Moments (Debye-Ang^2)
       XXX      24.7985    XXY      -7.4727    XYY       7.0786
       YYY     -19.5552    XXZ       0.0000    XYZ       0.0000
       YYZ      -0.0000    XZZ       6.7328    YZZ      -6.0986
       ZZZ       0.0000
    Hexadecapole Moments (Debye-Ang^3)
      XXXX    -106.4909   XXXY      10.9622   XXYY     -22.9324
      XYYY       9.5997   YYYY     -32.9829   XXXZ      -0.0000
      XXYZ      -0.0000   XYYZ       0.0000   YYYZ      -0.0000
      XXZZ     -18.5247   XYZZ       2.9983   YYZZ      -7.0518
      XZZZ       0.0000   YZZZ      -0.0000   ZZZZ     -11.0763
 -----------------------------------------------------------------
Archival summary:
1\1\centos77-c2\SP\ProcedureUnspecified\BasisUnspecified\21(2)\shihchen\SunJul1221:55:022020SunJul1221:55:022020\0\\#,ProcedureUnspecified,BasisUnspecified,\\0,2\N\O,1,1.1213\O,1,1.12134,2,138.835\\\@

 Total job time:  6.80s(wall), 27.62s(cpu) 
 Sun Jul 12 21:55:02 2020

        *************************************************************
        *                                                           *
        *  Thank you very much for using Q-Chem.  Have a nice day.  *
        *                                                           *
        *************************************************************


