                  Welcome to Q-Chem
     A Quantum Leap Into The Future Of Chemistry


 Q-Chem 5.3 (devel), Q-Chem, Inc., Pleasanton, CA (2020)

 Yihan Shao,  Zhengting Gan,  E. Epifanovsky,  A. T. B. Gilbert,  M. Wormit,  
 J. Kussmann,  A. W. Lange,  A. Behn,  Jia Deng,  Xintian Feng,  D. Ghosh,  
 M. Goldey,  P. R. Horn,  L. D. Jacobson,  I. Kaliman,  T. Kus,  A. Landau,  
 Jie Liu,  E. I. Proynov,  R. M. Richard,  R. P. Steele,  E. J. Sundstrom,  
 H. L. Woodcock III,  P. M. Zimmerman,  D. Zuev,  B. Alam,  B. Albrecht,  
 E. Alguire,  S. A. Baeppler,  D. Barton,  Z. Benda,  Y. A. Bernard,  
 E. J. Berquist,  K. B. Bravaya,  H. Burton,  K. Carter-Fenk,  D. Casanova,  
 Chun-Min Chang,  Yunqing Chen,  A. Chien,  K. D. Closser,  M. P. Coons,  
 S. Coriani,  S. Dasgupta,  A. L. Dempwolff,  M. Diedenhofen,  Hainam Do,  
 R. G. Edgar,  Po-Tung Fang,  S. Faraji,  S. Fatehi,  Qingguo Feng,  
 J. Fosso-Tande,  J. Gayvert,  Qinghui Ge,  A. Ghysels,  G. Gidofalvi,  
 J. Gomes,  J. Gonthier,  A. Gunina,  D. Hait,  M. W. D. Hanson-Heine,  
 P. H. P. Harbach,  A. W. Hauser,  M. F. Herbst,  J. E. Herr,  
 E. G. Hohenstein,  Z. C. Holden,  Kerwin Hui,  B. C. Huynh,  T.-C. Jagau,  
 Hyunjun Ji,  B. Kaduk,  K. Khistyaev,  Jaehoon Kim,  P. Klunzinger,  K. Koh,  
 D. Kosenkov,  L. Koulias,  T. Kowalczyk,  C. M. Krauter,  A. Kunitsa,  
 Ka Un Lao,  A. Laurent,  K. V. Lawler,  Joonho Lee,  D. Lefrancois,  
 S. Lehtola,  D. S. Levine,  Yi-Pei Li,  You-Sheng Lin,  Fenglai Liu,  
 Kuan-Yu Liu,  E. Livshits,  M. Loipersberger,  A. Luenser,  P. Manohar,  
 E. Mansoor,  S. F. Manzer,  Shan-Ping Mao,  Yuezhi Mao,  N. Mardirossian,  
 A. V. Marenich,  T. Markovich,  L. A. Martinez-Martinez,  S. A. Maurer,  
 N. J. Mayhall,  S. C. McKenzie,  J.-M. Mewes,  P. Morgante,  A. F. Morrison,  
 J. W. Mullinax,  K. Nanda,  T. S. Nguyen-Beck,  R. Olivares-Amaya,  
 K. J. Oosterbaan,  J. A. Parkhill,  S. K. Paul,  F. Pavosevic,  Zheng Pei,  
 T. M. Perrine,  F. Plasser,  P. Pokhilko,  S. Prager,  A. Prociuk,  
 E. Ramos,  B. Rana,  D. R. Rehn,  F. Rob,  M. Scheurer,  M. Schneider,  
 N. Sergueev,  S. M. Sharada,  S. Sharma,  D. W. Small,  T. Stauch,  
 C. J. Stein,  T. Stein,  Yu-Chuan Su,  S. P. Veccham,  Zhen Tao,  
 A. J. W. Thom,  A. Tkatchenko,  T. Tsuchimochi,  N. M. Tubman,  L. Vogt,  
 M. L. Vidal,  O. Vydrov,  M. A. Watson,  J. Wenzel,  M. de Wergifosse,  
 T. A. Wesolowski,  A. White,  J. Witte,  A. Yamada,  Jun Yang,  K. Yao,  
 S. Yeganeh,  S. R. Yost,  Zhi-Qiang You,  A. Zech,  Igor Ying Zhang,  
 Xing Zhang,  Yan Zhao,  Ying Zhu,  B. R. Brooks,  G. K. L. Chan,  
 C. J. Cramer,  M. S. Gordon,  W. J. Hehre,  A. Klamt,  M. W. Schmidt,  
 C. D. Sherrill,  D. G. Truhlar,  A. Aspuru-Guzik,  R. Baer,  A. T. Bell,  
 N. A. Besley,  Jeng-Da Chai,  A. E. DePrince, III,  R. A. DiStasio Jr.,  
 A. Dreuw,  B. D. Dunietz,  T. R. Furlani,  Chao-Ping Hsu,  Yousung Jung,  
 Jing Kong,  D. S. Lambrecht,  WanZhen Liang,  C. Ochsenfeld,  
 V. A. Rassolov,  L. V. Slipchenko,  J. E. Subotnik,  T. Van Voorhis,  
 J. M. Herbert,  A. I. Krylov,  P. M. W. Gill,  M. Head-Gordon

 Contributors to earlier versions of Q-Chem not listed above: 
 R. D. Adamson,  B. Austin,  J. Baker,  G. J. O. Beran,  K. Brandhorst,  
 S. T. Brown,  E. F. C. Byrd,  A. K. Chakraborty,  C.-L. Cheng,  
 Siu Hung Chien,  D. M. Chipman,  D. L. Crittenden,  H. Dachsel,  
 R. J. Doerksen,  A. D. Dutoi,  L. Fusti-Molnar,  W. A. Goddard III,  
 A. Golubeva-Zadorozhnaya,  S. R. Gwaltney,  G. Hawkins,  A. Heyden,  
 S. Hirata,  G. Kedziora,  F. J. Keil,  C. Kelley,  Jihan Kim,  R. A. King,  
 R. Z. Khaliullin,  P. P. Korambath,  W. Kurlancheek,  A. M. Lee,  M. S. Lee,  
 S. V. Levchenko,  Ching Yeh Lin,  D. Liotard,  R. C. Lochan,  I. Lotan,  
 P. E. Maslen,  N. Nair,  D. P. O'Neill,  D. Neuhauser,  E. Neuscamman,  
 C. M. Oana,  R. Olson,  B. Peters,  R. Peverati,  P. A. Pieniazek,  
 Y. M. Rhee,  J. Ritchie,  M. A. Rohrdanz,  E. Rosta,  N. J. Russ,  
 H. F. Schaefer III,  N. E. Schultz,  N. Shenvi,  A. C. Simmonett,  A. Sodt,  
 D. Stuck,  K. S. Thanthiriwatte,  V. Vanovschi,  Tao Wang,  A. Warshel,  
 C. F. Williams,  Q. Wu,  X. Xu,  W. Zhang

 Please cite Q-Chem as follows:
 Y. Shao et al., Mol. Phys. 113, 184-215 (2015)
 DOI: 10.1080/00268976.2014.952696

 Q-Chem 5.3.0 for Intel X86 EM64T Linux

 Parts of Q-Chem use Armadillo 9.800.1 (Horizon Scraper).
 http://arma.sourceforge.net/

 Q-Chem begins on Sun Jul 12 21:55:24 2020  

Host: centos77-c2
0

     Scratch files written to /tmp/28905.centos77-h1/qchem7249//
Processing $rem in /opt/qchem-5.3.0-intel2020u1//config/preferences:
Processing $rem in /home/shihchengli/.qchemrc:

Checking the input file for inconsistencies... 	...done.

--------------------------------------------------------------
User input:
--------------------------------------------------------------
$rem
   JOBTYPE  sp
   EXCHANGE   omegaB97X-D
   BASIS   6-311+G(2df,2pd)
   UNRESTRICTED   True
   max_scf_cycles   250
   geom_opt_max_cycles   1500
   basis2 6-31G*
   scf_algorithm rca_diis
   SYM_IGNORE  TRUE
   print_input   true
   geom_opt_dmax   80
   pop_mulliken false
   XC_GRID 000075000302
$end

$molecule
0 2
N       -0.4851100171     0.7300711036     0.0000000000
O       0.6420199924     0.2484679970     0.0000000000
O       -1.5415999754     0.2969908994     0.0000000000
$end
--------------------------------------------------------------
 ----------------------------------------------------------------
             Standard Nuclear Orientation (Angstroms)
    I     Atom           X                Y                Z
 ----------------------------------------------------------------
    1      N      -0.4851100171     0.7300711036     0.0000000000
    2      O       0.6420199924     0.2484679970     0.0000000000
    3      O      -1.5415999754     0.2969908994     0.0000000000
 ----------------------------------------------------------------
 Nuclear Repulsion Energy =          65.63628521 hartrees
 There are       12 alpha and       11 beta electrons
 Requested basis set is 6-311+G(2df,2pd)
 There are 24 shells and 102 basis functions

 Total QAlloc Memory Limit   2000 MB
 Mega-Array Size       188 MB
 MEM_STATIC part       192 MB

                       Distance Matrix (Angstroms)
             N (  1)   O (  2)
   O (  2)  1.225709
   O (  3)  1.141810  2.184159
 
 A cutoff of  1.0D-09 yielded    294 shell pairs
 There are      5413 function pairs (      7163 Cartesian)
 Smallest overlap matrix eigenvalue = 1.38E-03

 Scale SEOQF with 1.000000e-01/1.000000e-01/1.000000e-01

 Standard Electronic Orientation quadrupole field applied
 Nucleus-field energy     =     0.0000000012 hartrees
 Requested basis set is 6-31G(d)
 There are 12 shells and 42 basis functions
 A cutoff of  1.0D-09 yielded     77 shell pairs
 There are       968 function pairs (      1115 Cartesian)
 Smallest overlap matrix eigenvalue = 6.67E-03
 Guess from superposition of atomic densities
 Warning:  Energy on first SCF cycle will be non-variational
 SAD guess density has 23.000000 electrons
 Long-range K will be added via erf
 Coulomb attenuation parameter = 0.2 bohr**(-1)
 An unrestricted hybrid HF-DFT SCF calculation will be
 performed using Relaxed Constraint Minimization + Pulay DIIS
 Exchange:     0.2220 Hartree-Fock + 1.0000 wB97X-D + LR-HF
 Correlation:  1.0000 wB97X-D
 Using Euler-Maclaurin-Lebedev (75,302) quadrature formula
 Dispersion:   Grimme D
 SCF converges when DIIS error is below 1.0E-04
 using 6 threads for integral computing
 -------------------------------------------------------
 OpenMP Integral computing Module                
 Release: version 1.0, May 2013, Q-Chem Inc. Pittsburgh 
 -------------------------------------------------------
 using 6 threads for integral computing
 -------------------------------------------------------
 OpenMP Integral computing Module                
 Release: version 1.0, May 2013, Q-Chem Inc. Pittsburgh 
 -------------------------------------------------------
 ---------------------------------------
  Cycle       Energy         DIIS Error
 ---------------------------------------
    1    -205.5968949413      1.32E-01
    2    -204.8829574974      2.49E-02
    3    -204.9279889737      5.52E-03
    4    -204.9892974851      5.82E-03
    5    -204.9916263332      1.17E-03
    6    -204.9946612344      1.31E-03
    7    -204.9947866683      1.98E-04 Done RCA. Switching to DIIS
    8    -204.9949541318      2.22E-04
    9    -204.9949644445      1.93E-05 Convergence criterion met
 ---------------------------------------
 <S^2> = 0.7537
 SCF time:  CPU 10.55 s  wall 2.16 s
 SCF   energy in the small basis set = -204.99496444
 Total energy in the small basis set = -204.99496444
 ----------------------------------------------------
  Cycle       Energy    
 ----------------------------------------------------
    1     -20.8909852154     -2.09E+01
 Long-range K will be added via erf
 Coulomb attenuation parameter = 0.2 bohr**(-1)
 An unrestricted hybrid HF-DFT SCF calculation will be
 performed using Relaxed Constraint Minimization + Pulay DIIS
 Exchange:     0.2220 Hartree-Fock + 1.0000 wB97X-D + LR-HF
 Correlation:  1.0000 wB97X-D
 Using Euler-Maclaurin-Lebedev (75,302) quadrature formula
 Dispersion:   Grimme D
 SCF converges when DIIS error is below 1.0E-05
 Basis2 calculation detected. Using small basis as guess for larger.
 SCFMinFind is unable to tell whether the solution found is close.
 Resetting ReadMinima to 0 and attempting to follow guess.
 SCFMinFind following SCF Guess.
 using 6 threads for integral computing
 -------------------------------------------------------
 OpenMP Integral computing Module                
 Release: version 1.0, May 2013, Q-Chem Inc. Pittsburgh 
 -------------------------------------------------------
 using 6 threads for integral computing
 -------------------------------------------------------
 OpenMP Integral computing Module                
 Release: version 1.0, May 2013, Q-Chem Inc. Pittsburgh 
 -------------------------------------------------------
 ---------------------------------------
  Cycle       Energy         DIIS Error
 ---------------------------------------
    1    -205.0454216330      1.13E-02
    2    -205.0491168970      5.73E-03
    3    -205.0596813496      1.46E-03
    4    -205.0736652819      1.62E-03
    5    -205.0745864747      2.88E-04 Done RCA. Switching to DIIS
    6    -205.0757815063      3.30E-04
    7    -205.0758710732      7.98E-06 Convergence criterion met
 ---------------------------------------
 <S^2> = 0.7542
 SCF time:  CPU 19.12 s  wall 3.77 s
 SCF   energy in the final basis set = -205.07587107
 Total energy in the final basis set = -205.07587107
 
 --------------------------------------------------------------
 
                    Orbital Energies (a.u.)
 --------------------------------------------------------------
 
 Alpha MOs
 -- Occupied --
-19.3773 -19.3549 -14.6897  -1.4199  -1.2485  -0.7816  -0.6904  -0.6809
 -0.6765  -0.4786  -0.4706  -0.3765
 -- Virtual --
 -0.0142   0.0970   0.1376   0.1497   0.1523   0.2374   0.2486   0.2637
  0.2742   0.2965   0.3247   0.3348   0.3834   0.4319   0.5417   0.7503
  0.7661   0.8190   0.9093   0.9649   1.0062   1.0415   1.0548   1.0717
  1.1062   1.1340   1.1345   1.1448   1.4579   1.5235   1.5478   1.5880
  1.5980   1.6364   1.7313   1.9014   2.0872   2.2345   2.3225   2.4473
  2.5051   2.6347   3.4888   3.5050   3.6674   3.6833   3.7314   3.7581
  4.0136   4.0514   4.3678   4.4407   4.4792   4.4864   4.6459   4.6717
  4.7521   5.0188   5.0262   5.0439   5.0481   5.0837   5.0850   5.1073
  5.1719   5.3655   5.4305   5.5161   5.5281   5.5953   5.7605   6.2150
  6.4780   6.7348   6.7475   6.7724   6.7931   7.0095   7.0280   7.1445
  7.1756   7.2351   7.2465   7.4197   7.6273   7.8105   8.2804  36.1603
 50.1388  50.2604
 
 Beta MOs
 -- Occupied --
-19.3697 -19.3465 -14.6799  -1.4008  -1.2256  -0.7468  -0.6690  -0.6525
 -0.6432  -0.4625  -0.4354
 -- Virtual --
 -0.0751   0.0033   0.1102   0.1415   0.1595   0.1618   0.2440   0.2533
  0.2662   0.2860   0.3029   0.3296   0.3464   0.3936   0.4360   0.5702
  0.7716   0.7746   0.8217   0.9250   0.9779   1.0134   1.0595   1.0597
  1.0815   1.1229   1.1387   1.1465   1.1495   1.4683   1.5298   1.5538
  1.5969   1.6178   1.6541   1.7400   1.9152   2.0906   2.2524   2.3321
  2.4582   2.5145   2.6556   3.5117   3.5265   3.6808   3.6971   3.7624
  3.7667   4.0314   4.0613   4.3902   4.4567   4.4933   4.5029   4.6825
  4.7044   4.7843   5.0319   5.0400   5.0538   5.0647   5.0926   5.1069
  5.1226   5.1993   5.3834   5.4475   5.5261   5.5454   5.6101   5.7737
  6.2436   6.4883   6.7563   6.7723   6.8013   6.8190   7.0388   7.0409
  7.1510   7.1905   7.2485   7.2602   7.4440   7.6401   7.8288   8.3054
 36.1716  50.1468  50.2673
 --------------------------------------------------------------
 
 -----------------------------------------------------------------
                    Cartesian Multipole Moments
 -----------------------------------------------------------------
    Charge (ESU x 10^10)
                -0.0000
    Dipole Moment (Debye)
         X      -0.4712      Y       0.3776      Z      -0.0000
       Tot       0.6038
    Quadrupole Moments (Debye-Ang)
        XX     -17.5017     XY      -0.4073     YY     -15.2899
        XZ       0.0000     YZ      -0.0000     ZZ     -14.8259
    Octopole Moments (Debye-Ang^2)
       XXX      23.5345    XXY      -7.4784    XYY       6.6511
       YYY     -19.6552    XXZ       0.0000    XYZ       0.0000
       YYZ      -0.0000    XZZ       6.4405    YZZ      -6.1996
       ZZZ      -0.0000
    Hexadecapole Moments (Debye-Ang^3)
      XXXX    -110.4112   XXXY      10.8732   XXYY     -23.7750
      XYYY       9.5957   YYYY     -33.9982   XXXZ       0.0000
      XXYZ       0.0000   XYYZ       0.0000   YYYZ      -0.0000
      XXZZ     -19.3279   XYZZ       3.0209   YYZZ      -7.2751
      XZZZ       0.0000   YZZZ      -0.0000   ZZZZ     -11.3162
 -----------------------------------------------------------------
Archival summary:
1\1\centos77-c2\SP\ProcedureUnspecified\BasisUnspecified\21(2)\shihchen\SunJul1221:55:312020SunJul1221:55:312020\0\\#,ProcedureUnspecified,BasisUnspecified,\\0,2\N\O,1,1.14181\O,1,1.22571,2,134.574\\\@

 Total job time:  6.85s(wall), 32.77s(cpu) 
 Sun Jul 12 21:55:31 2020

        *************************************************************
        *                                                           *
        *  Thank you very much for using Q-Chem.  Have a nice day.  *
        *                                                           *
        *************************************************************


