                  Welcome to Q-Chem
     A Quantum Leap Into The Future Of Chemistry


 Q-Chem 5.3 (devel), Q-Chem, Inc., Pleasanton, CA (2020)

 Yihan Shao,  Zhengting Gan,  E. Epifanovsky,  A. T. B. Gilbert,  M. Wormit,  
 J. Kussmann,  A. W. Lange,  A. Behn,  Jia Deng,  Xintian Feng,  D. Ghosh,  
 M. Goldey,  P. R. Horn,  L. D. Jacobson,  I. Kaliman,  T. Kus,  A. Landau,  
 Jie Liu,  E. I. Proynov,  R. M. Richard,  R. P. Steele,  E. J. Sundstrom,  
 H. L. Woodcock III,  P. M. Zimmerman,  D. Zuev,  B. Alam,  B. Albrecht,  
 E. Alguire,  S. A. Baeppler,  D. Barton,  Z. Benda,  Y. A. Bernard,  
 E. J. Berquist,  K. B. Bravaya,  H. Burton,  K. Carter-Fenk,  D. Casanova,  
 Chun-Min Chang,  Yunqing Chen,  A. Chien,  K. D. Closser,  M. P. Coons,  
 S. Coriani,  S. Dasgupta,  A. L. Dempwolff,  M. Diedenhofen,  Hainam Do,  
 R. G. Edgar,  Po-Tung Fang,  S. Faraji,  S. Fatehi,  Qingguo Feng,  
 J. Fosso-Tande,  J. Gayvert,  Qinghui Ge,  A. Ghysels,  G. Gidofalvi,  
 J. Gomes,  J. Gonthier,  A. Gunina,  D. Hait,  M. W. D. Hanson-Heine,  
 P. H. P. Harbach,  A. W. Hauser,  M. F. Herbst,  J. E. Herr,  
 E. G. Hohenstein,  Z. C. Holden,  Kerwin Hui,  B. C. Huynh,  T.-C. Jagau,  
 Hyunjun Ji,  B. Kaduk,  K. Khistyaev,  Jaehoon Kim,  P. Klunzinger,  K. Koh,  
 D. Kosenkov,  L. Koulias,  T. Kowalczyk,  C. M. Krauter,  A. Kunitsa,  
 Ka Un Lao,  A. Laurent,  K. V. Lawler,  Joonho Lee,  D. Lefrancois,  
 S. Lehtola,  D. S. Levine,  Yi-Pei Li,  You-Sheng Lin,  Fenglai Liu,  
 Kuan-Yu Liu,  E. Livshits,  M. Loipersberger,  A. Luenser,  P. Manohar,  
 E. Mansoor,  S. F. Manzer,  Shan-Ping Mao,  Yuezhi Mao,  N. Mardirossian,  
 A. V. Marenich,  T. Markovich,  L. A. Martinez-Martinez,  S. A. Maurer,  
 N. J. Mayhall,  S. C. McKenzie,  J.-M. Mewes,  P. Morgante,  A. F. Morrison,  
 J. W. Mullinax,  K. Nanda,  T. S. Nguyen-Beck,  R. Olivares-Amaya,  
 K. J. Oosterbaan,  J. A. Parkhill,  S. K. Paul,  F. Pavosevic,  Zheng Pei,  
 T. M. Perrine,  F. Plasser,  P. Pokhilko,  S. Prager,  A. Prociuk,  
 E. Ramos,  B. Rana,  D. R. Rehn,  F. Rob,  M. Scheurer,  M. Schneider,  
 N. Sergueev,  S. M. Sharada,  S. Sharma,  D. W. Small,  T. Stauch,  
 C. J. Stein,  T. Stein,  Yu-Chuan Su,  S. P. Veccham,  Zhen Tao,  
 A. J. W. Thom,  A. Tkatchenko,  T. Tsuchimochi,  N. M. Tubman,  L. Vogt,  
 M. L. Vidal,  O. Vydrov,  M. A. Watson,  J. Wenzel,  M. de Wergifosse,  
 T. A. Wesolowski,  A. White,  J. Witte,  A. Yamada,  Jun Yang,  K. Yao,  
 S. Yeganeh,  S. R. Yost,  Zhi-Qiang You,  A. Zech,  Igor Ying Zhang,  
 Xing Zhang,  Yan Zhao,  Ying Zhu,  B. R. Brooks,  G. K. L. Chan,  
 C. J. Cramer,  M. S. Gordon,  W. J. Hehre,  A. Klamt,  M. W. Schmidt,  
 C. D. Sherrill,  D. G. Truhlar,  A. Aspuru-Guzik,  R. Baer,  A. T. Bell,  
 N. A. Besley,  Jeng-Da Chai,  A. E. DePrince, III,  R. A. DiStasio Jr.,  
 A. Dreuw,  B. D. Dunietz,  T. R. Furlani,  Chao-Ping Hsu,  Yousung Jung,  
 Jing Kong,  D. S. Lambrecht,  WanZhen Liang,  C. Ochsenfeld,  
 V. A. Rassolov,  L. V. Slipchenko,  J. E. Subotnik,  T. Van Voorhis,  
 J. M. Herbert,  A. I. Krylov,  P. M. W. Gill,  M. Head-Gordon

 Contributors to earlier versions of Q-Chem not listed above: 
 R. D. Adamson,  B. Austin,  J. Baker,  G. J. O. Beran,  K. Brandhorst,  
 S. T. Brown,  E. F. C. Byrd,  A. K. Chakraborty,  C.-L. Cheng,  
 Siu Hung Chien,  D. M. Chipman,  D. L. Crittenden,  H. Dachsel,  
 R. J. Doerksen,  A. D. Dutoi,  L. Fusti-Molnar,  W. A. Goddard III,  
 A. Golubeva-Zadorozhnaya,  S. R. Gwaltney,  G. Hawkins,  A. Heyden,  
 S. Hirata,  G. Kedziora,  F. J. Keil,  C. Kelley,  Jihan Kim,  R. A. King,  
 R. Z. Khaliullin,  P. P. Korambath,  W. Kurlancheek,  A. M. Lee,  M. S. Lee,  
 S. V. Levchenko,  Ching Yeh Lin,  D. Liotard,  R. C. Lochan,  I. Lotan,  
 P. E. Maslen,  N. Nair,  D. P. O'Neill,  D. Neuhauser,  E. Neuscamman,  
 C. M. Oana,  R. Olson,  B. Peters,  R. Peverati,  P. A. Pieniazek,  
 Y. M. Rhee,  J. Ritchie,  M. A. Rohrdanz,  E. Rosta,  N. J. Russ,  
 H. F. Schaefer III,  N. E. Schultz,  N. Shenvi,  A. C. Simmonett,  A. Sodt,  
 D. Stuck,  K. S. Thanthiriwatte,  V. Vanovschi,  Tao Wang,  A. Warshel,  
 C. F. Williams,  Q. Wu,  X. Xu,  W. Zhang

 Please cite Q-Chem as follows:
 Y. Shao et al., Mol. Phys. 113, 184-215 (2015)
 DOI: 10.1080/00268976.2014.952696

 Q-Chem 5.3.0 for Intel X86 EM64T Linux

 Parts of Q-Chem use Armadillo 9.800.1 (Horizon Scraper).
 http://arma.sourceforge.net/

 Q-Chem begins on Sun Jul 12 21:53:25 2020  

Host: centos77-c2
0

     Scratch files written to /tmp/28905.centos77-h1/qchem6501//
Processing $rem in /opt/qchem-5.3.0-intel2020u1//config/preferences:
Processing $rem in /home/shihchengli/.qchemrc:

Checking the input file for inconsistencies... 	...done.

--------------------------------------------------------------
User input:
--------------------------------------------------------------
$rem
   JOBTYPE  sp
   EXCHANGE   omegaB97X-D
   BASIS   6-311+G(2df,2pd)
   UNRESTRICTED   True
   max_scf_cycles   250
   geom_opt_max_cycles   1500
   basis2 6-31G*
   scf_algorithm rca_diis
   SYM_IGNORE  TRUE
   print_input   true
   geom_opt_dmax   80
   pop_mulliken false
   XC_GRID 000075000302
$end

$molecule
0 2
N       -0.4582160246     0.6263734014     0.0000000000
O       0.6907625828     0.3052684276     0.0000000000
O       -1.6172365583     0.3438881710     0.0000000000
$end
--------------------------------------------------------------
 ----------------------------------------------------------------
             Standard Nuclear Orientation (Angstroms)
    I     Atom           X                Y                Z
 ----------------------------------------------------------------
    1      N      -0.4582160246     0.6263734014     0.0000000000
    2      O       0.6907625828     0.3052684276     0.0000000000
    3      O      -1.6172365583     0.3438881710     0.0000000000
 ----------------------------------------------------------------
 Nuclear Repulsion Energy =          64.35243633 hartrees
 There are       12 alpha and       11 beta electrons
 Requested basis set is 6-311+G(2df,2pd)
 There are 24 shells and 102 basis functions

 Total QAlloc Memory Limit   2000 MB
 Mega-Array Size       188 MB
 MEM_STATIC part       192 MB

                       Distance Matrix (Angstroms)
             N (  1)   O (  2)
   O (  2)  1.193005
   O (  3)  1.192949  2.308322
 
 A cutoff of  1.0D-09 yielded    292 shell pairs
 There are      5373 function pairs (      7115 Cartesian)
 Smallest overlap matrix eigenvalue = 1.19E-03

 Scale SEOQF with 1.000000e-01/1.000000e-01/1.000000e-01

 Standard Electronic Orientation quadrupole field applied
 Nucleus-field energy     =     0.0000000013 hartrees
 Requested basis set is 6-31G(d)
 There are 12 shells and 42 basis functions
 A cutoff of  1.0D-09 yielded     77 shell pairs
 There are       968 function pairs (      1115 Cartesian)
 Smallest overlap matrix eigenvalue = 6.45E-03
 Guess from superposition of atomic densities
 Warning:  Energy on first SCF cycle will be non-variational
 SAD guess density has 23.000000 electrons
 Long-range K will be added via erf
 Coulomb attenuation parameter = 0.2 bohr**(-1)
 An unrestricted hybrid HF-DFT SCF calculation will be
 performed using Relaxed Constraint Minimization + Pulay DIIS
 Exchange:     0.2220 Hartree-Fock + 1.0000 wB97X-D + LR-HF
 Correlation:  1.0000 wB97X-D
 Using Euler-Maclaurin-Lebedev (75,302) quadrature formula
 Dispersion:   Grimme D
 SCF converges when DIIS error is below 1.0E-04
 using 6 threads for integral computing
 -------------------------------------------------------
 OpenMP Integral computing Module                
 Release: version 1.0, May 2013, Q-Chem Inc. Pittsburgh 
 -------------------------------------------------------
 using 6 threads for integral computing
 -------------------------------------------------------
 OpenMP Integral computing Module                
 Release: version 1.0, May 2013, Q-Chem Inc. Pittsburgh 
 -------------------------------------------------------
 ---------------------------------------
  Cycle       Energy         DIIS Error
 ---------------------------------------
    1    -205.5330553425      1.28E-01
    2    -204.8815426773      2.42E-02
    3    -204.9248544409      4.83E-03
    4    -204.9837812804      3.86E-03
    5    -204.9848575396      7.43E-04 Done RCA. Switching to DIIS
    6    -204.9863140630      5.18E-04
    7    -204.9863698884      4.85E-05 Convergence criterion met
 ---------------------------------------
 <S^2> = 0.7532
 SCF time:  CPU 9.31 s  wall 2.42 s
 SCF   energy in the small basis set = -204.98636989
 Total energy in the small basis set = -204.98636989
 ----------------------------------------------------
  Cycle       Energy    
 ----------------------------------------------------
    1     -20.8637621842     -2.09E+01
 Long-range K will be added via erf
 Coulomb attenuation parameter = 0.2 bohr**(-1)
 An unrestricted hybrid HF-DFT SCF calculation will be
 performed using Relaxed Constraint Minimization + Pulay DIIS
 Exchange:     0.2220 Hartree-Fock + 1.0000 wB97X-D + LR-HF
 Correlation:  1.0000 wB97X-D
 Using Euler-Maclaurin-Lebedev (75,302) quadrature formula
 Dispersion:   Grimme D
 SCF converges when DIIS error is below 1.0E-05
 Basis2 calculation detected. Using small basis as guess for larger.
 SCFMinFind is unable to tell whether the solution found is close.
 Resetting ReadMinima to 0 and attempting to follow guess.
 SCFMinFind following SCF Guess.
 using 6 threads for integral computing
 -------------------------------------------------------
 OpenMP Integral computing Module                
 Release: version 1.0, May 2013, Q-Chem Inc. Pittsburgh 
 -------------------------------------------------------
 using 6 threads for integral computing
 -------------------------------------------------------
 OpenMP Integral computing Module                
 Release: version 1.0, May 2013, Q-Chem Inc. Pittsburgh 
 -------------------------------------------------------
 ---------------------------------------
  Cycle       Energy         DIIS Error
 ---------------------------------------
    1    -205.0352090265      1.13E-02
    2    -205.0405012743      5.69E-03
    3    -205.0512026448      1.18E-03
    4    -205.0651241210      1.16E-03
    5    -205.0655973099      2.18E-04 Done RCA. Switching to DIIS
    6    -205.0662383654      2.12E-04
    7    -205.0662787098      1.55E-05
    8    -205.0662797462      1.10E-05
    9    -205.0662799634      3.26E-06 Convergence criterion met
 ---------------------------------------
 <S^2> = 0.7537
 SCF time:  CPU 24.93 s  wall 4.73 s
 SCF   energy in the final basis set = -205.06627996
 Total energy in the final basis set = -205.06627996
 
 --------------------------------------------------------------
 
                    Orbital Energies (a.u.)
 --------------------------------------------------------------
 
 Alpha MOs
 -- Occupied --
-19.3739 -19.3738 -14.6881  -1.3913  -1.2663  -0.7794  -0.6845  -0.6765
 -0.6717  -0.4952  -0.4771  -0.3371
 -- Virtual --
 -0.0177   0.0855   0.1357   0.1536   0.1536   0.2149   0.2537   0.2543
  0.2617   0.3107   0.3142   0.3146   0.3922   0.4381   0.5916   0.7673
  0.7715   0.8522   0.9153   0.9353   1.0110   1.0138   1.0470   1.0711
  1.1062   1.1417   1.1545   1.1578   1.4207   1.4853   1.5007   1.5247
  1.6611   1.6706   1.6756   1.9329   2.0091   2.3588   2.4465   2.4541
  2.5341   2.6580   3.4777   3.4796   3.6357   3.6456   3.6937   3.6985
  3.9024   4.0800   4.2692   4.4708   4.4855   4.4857   4.6372   4.6580
  4.7799   5.0300   5.0309   5.0401   5.0518   5.0615   5.0765   5.0927
  5.1895   5.3026   5.3043   5.4589   5.5925   5.6013   5.7331   6.2984
  6.5953   6.6506   6.7333   6.7357   6.7716   6.7850   7.0502   7.1820
  7.2177   7.2794   7.3093   7.3787   7.5405   7.8252   8.6287  36.0807
 50.1635  50.2788
 
 Beta MOs
 -- Occupied --
-19.3663 -19.3662 -14.6768  -1.3701  -1.2461  -0.7487  -0.6588  -0.6553
 -0.6329  -0.4704  -0.4502
 -- Virtual --
 -0.0325   0.0005   0.1000   0.1411   0.1625   0.1668   0.2291   0.2602
  0.2602   0.2650   0.3196   0.3212   0.3213   0.4035   0.4419   0.6227
  0.7810   0.7926   0.8558   0.9317   0.9498   1.0183   1.0267   1.0518
  1.0820   1.1201   1.1544   1.1594   1.1615   1.4316   1.4917   1.5074
  1.5326   1.6805   1.6828   1.6875   1.9467   2.0111   2.3751   2.4556
  2.4654   2.5451   2.6763   3.5053   3.5068   3.6451   3.6552   3.7104
  3.7456   3.9187   4.0895   4.2914   4.4832   4.4973   4.5037   4.6817
  4.7014   4.8139   5.0434   5.0435   5.0573   5.0603   5.0677   5.0970
  5.1074   5.2153   5.3094   5.3104   5.4798   5.6115   5.6116   5.7523
  6.3060   6.6254   6.6666   6.7553   6.7577   6.7989   6.8108   7.0570
  7.2077   7.2392   7.2913   7.3202   7.3931   7.5521   7.8404   8.6485
 36.0941  50.1706  50.2860
 --------------------------------------------------------------
 
 -----------------------------------------------------------------
                    Cartesian Multipole Moments
 -----------------------------------------------------------------
    Charge (ESU x 10^10)
                -0.0000
    Dipole Moment (Debye)
         X       0.0020      Y       0.1377      Z       0.0000
       Tot       0.1377
    Quadrupole Moments (Debye-Ang)
        XX     -17.9210     XY      -0.0275     YY     -15.6959
        XZ       0.0000     YZ      -0.0000     ZZ     -14.8715
    Octopole Moments (Debye-Ang^2)
       XXX      24.8198    XXY      -7.4912    XYY       7.2714
       YYY     -20.0318    XXZ      -0.0000    XYZ      -0.0000
       YYZ      -0.0000    XZZ       6.8649    YZZ      -6.2603
       ZZZ       0.0000
    Hexadecapole Moments (Debye-Ang^3)
      XXXX    -119.6484   XXXY      11.0408   XXYY     -25.5700
      XYYY       9.9665   YYYY     -32.0604   XXXZ       0.0000
      XXYZ       0.0000   XYYZ       0.0000   YYYZ      -0.0000
      XXZZ     -21.0903   XYZZ       3.1166   YYZZ      -7.0103
      XZZZ       0.0000   YZZZ      -0.0000   ZZZZ     -11.4538
 -----------------------------------------------------------------
Archival summary:
1\1\centos77-c2\SP\ProcedureUnspecified\BasisUnspecified\21(2)\shihchen\SunJul1221:53:332020SunJul1221:53:332020\0\\#,ProcedureUnspecified,BasisUnspecified,\\0,2\N\O,1,1.19295\O,1,1.193,2,150.688\\\@

 Total job time:  8.22s(wall), 37.16s(cpu) 
 Sun Jul 12 21:53:33 2020

        *************************************************************
        *                                                           *
        *  Thank you very much for using Q-Chem.  Have a nice day.  *
        *                                                           *
        *************************************************************


