                  Welcome to Q-Chem
     A Quantum Leap Into The Future Of Chemistry


 Q-Chem 5.3 (devel), Q-Chem, Inc., Pleasanton, CA (2020)

 Yihan Shao,  Zhengting Gan,  E. Epifanovsky,  A. T. B. Gilbert,  M. Wormit,  
 J. Kussmann,  A. W. Lange,  A. Behn,  Jia Deng,  Xintian Feng,  D. Ghosh,  
 M. Goldey,  P. R. Horn,  L. D. Jacobson,  I. Kaliman,  T. Kus,  A. Landau,  
 Jie Liu,  E. I. Proynov,  R. M. Richard,  R. P. Steele,  E. J. Sundstrom,  
 H. L. Woodcock III,  P. M. Zimmerman,  D. Zuev,  B. Alam,  B. Albrecht,  
 E. Alguire,  S. A. Baeppler,  D. Barton,  Z. Benda,  Y. A. Bernard,  
 E. J. Berquist,  K. B. Bravaya,  H. Burton,  K. Carter-Fenk,  D. Casanova,  
 Chun-Min Chang,  Yunqing Chen,  A. Chien,  K. D. Closser,  M. P. Coons,  
 S. Coriani,  S. Dasgupta,  A. L. Dempwolff,  M. Diedenhofen,  Hainam Do,  
 R. G. Edgar,  Po-Tung Fang,  S. Faraji,  S. Fatehi,  Qingguo Feng,  
 J. Fosso-Tande,  J. Gayvert,  Qinghui Ge,  A. Ghysels,  G. Gidofalvi,  
 J. Gomes,  J. Gonthier,  A. Gunina,  D. Hait,  M. W. D. Hanson-Heine,  
 P. H. P. Harbach,  A. W. Hauser,  M. F. Herbst,  J. E. Herr,  
 E. G. Hohenstein,  Z. C. Holden,  Kerwin Hui,  B. C. Huynh,  T.-C. Jagau,  
 Hyunjun Ji,  B. Kaduk,  K. Khistyaev,  Jaehoon Kim,  P. Klunzinger,  K. Koh,  
 D. Kosenkov,  L. Koulias,  T. Kowalczyk,  C. M. Krauter,  A. Kunitsa,  
 Ka Un Lao,  A. Laurent,  K. V. Lawler,  Joonho Lee,  D. Lefrancois,  
 S. Lehtola,  D. S. Levine,  Yi-Pei Li,  You-Sheng Lin,  Fenglai Liu,  
 Kuan-Yu Liu,  E. Livshits,  M. Loipersberger,  A. Luenser,  P. Manohar,  
 E. Mansoor,  S. F. Manzer,  Shan-Ping Mao,  Yuezhi Mao,  N. Mardirossian,  
 A. V. Marenich,  T. Markovich,  L. A. Martinez-Martinez,  S. A. Maurer,  
 N. J. Mayhall,  S. C. McKenzie,  J.-M. Mewes,  P. Morgante,  A. F. Morrison,  
 J. W. Mullinax,  K. Nanda,  T. S. Nguyen-Beck,  R. Olivares-Amaya,  
 K. J. Oosterbaan,  J. A. Parkhill,  S. K. Paul,  F. Pavosevic,  Zheng Pei,  
 T. M. Perrine,  F. Plasser,  P. Pokhilko,  S. Prager,  A. Prociuk,  
 E. Ramos,  B. Rana,  D. R. Rehn,  F. Rob,  M. Scheurer,  M. Schneider,  
 N. Sergueev,  S. M. Sharada,  S. Sharma,  D. W. Small,  T. Stauch,  
 C. J. Stein,  T. Stein,  Yu-Chuan Su,  S. P. Veccham,  Zhen Tao,  
 A. J. W. Thom,  A. Tkatchenko,  T. Tsuchimochi,  N. M. Tubman,  L. Vogt,  
 M. L. Vidal,  O. Vydrov,  M. A. Watson,  J. Wenzel,  M. de Wergifosse,  
 T. A. Wesolowski,  A. White,  J. Witte,  A. Yamada,  Jun Yang,  K. Yao,  
 S. Yeganeh,  S. R. Yost,  Zhi-Qiang You,  A. Zech,  Igor Ying Zhang,  
 Xing Zhang,  Yan Zhao,  Ying Zhu,  B. R. Brooks,  G. K. L. Chan,  
 C. J. Cramer,  M. S. Gordon,  W. J. Hehre,  A. Klamt,  M. W. Schmidt,  
 C. D. Sherrill,  D. G. Truhlar,  A. Aspuru-Guzik,  R. Baer,  A. T. Bell,  
 N. A. Besley,  Jeng-Da Chai,  A. E. DePrince, III,  R. A. DiStasio Jr.,  
 A. Dreuw,  B. D. Dunietz,  T. R. Furlani,  Chao-Ping Hsu,  Yousung Jung,  
 Jing Kong,  D. S. Lambrecht,  WanZhen Liang,  C. Ochsenfeld,  
 V. A. Rassolov,  L. V. Slipchenko,  J. E. Subotnik,  T. Van Voorhis,  
 J. M. Herbert,  A. I. Krylov,  P. M. W. Gill,  M. Head-Gordon

 Contributors to earlier versions of Q-Chem not listed above: 
 R. D. Adamson,  B. Austin,  J. Baker,  G. J. O. Beran,  K. Brandhorst,  
 S. T. Brown,  E. F. C. Byrd,  A. K. Chakraborty,  C.-L. Cheng,  
 Siu Hung Chien,  D. M. Chipman,  D. L. Crittenden,  H. Dachsel,  
 R. J. Doerksen,  A. D. Dutoi,  L. Fusti-Molnar,  W. A. Goddard III,  
 A. Golubeva-Zadorozhnaya,  S. R. Gwaltney,  G. Hawkins,  A. Heyden,  
 S. Hirata,  G. Kedziora,  F. J. Keil,  C. Kelley,  Jihan Kim,  R. A. King,  
 R. Z. Khaliullin,  P. P. Korambath,  W. Kurlancheek,  A. M. Lee,  M. S. Lee,  
 S. V. Levchenko,  Ching Yeh Lin,  D. Liotard,  R. C. Lochan,  I. Lotan,  
 P. E. Maslen,  N. Nair,  D. P. O'Neill,  D. Neuhauser,  E. Neuscamman,  
 C. M. Oana,  R. Olson,  B. Peters,  R. Peverati,  P. A. Pieniazek,  
 Y. M. Rhee,  J. Ritchie,  M. A. Rohrdanz,  E. Rosta,  N. J. Russ,  
 H. F. Schaefer III,  N. E. Schultz,  N. Shenvi,  A. C. Simmonett,  A. Sodt,  
 D. Stuck,  K. S. Thanthiriwatte,  V. Vanovschi,  Tao Wang,  A. Warshel,  
 C. F. Williams,  Q. Wu,  X. Xu,  W. Zhang

 Please cite Q-Chem as follows:
 Y. Shao et al., Mol. Phys. 113, 184-215 (2015)
 DOI: 10.1080/00268976.2014.952696

 Q-Chem 5.3.0 for Intel X86 EM64T Linux

 Parts of Q-Chem use Armadillo 9.800.1 (Horizon Scraper).
 http://arma.sourceforge.net/

 Q-Chem begins on Sun Jul 12 21:53:41 2020  

Host: centos77-c2
0

     Scratch files written to /tmp/28905.centos77-h1/qchem6593//
Processing $rem in /opt/qchem-5.3.0-intel2020u1//config/preferences:
Processing $rem in /home/shihchengli/.qchemrc:

Checking the input file for inconsistencies... 	...done.

--------------------------------------------------------------
User input:
--------------------------------------------------------------
$rem
   JOBTYPE  sp
   EXCHANGE   omegaB97X-D
   BASIS   6-311+G(2df,2pd)
   UNRESTRICTED   True
   max_scf_cycles   250
   geom_opt_max_cycles   1500
   basis2 6-31G*
   scf_algorithm rca_diis
   SYM_IGNORE  TRUE
   print_input   true
   geom_opt_dmax   80
   pop_mulliken false
   XC_GRID 000075000302
$end

$molecule
0 2
N       -0.4594398588     0.5541323497     0.0000000000
O       0.7206181113     0.3408967491     0.0000000000
O       -1.6458682526     0.3805009012     0.0000000000
$end
--------------------------------------------------------------
 ----------------------------------------------------------------
             Standard Nuclear Orientation (Angstroms)
    I     Atom           X                Y                Z
 ----------------------------------------------------------------
    1      N      -0.4594398588     0.5541323497     0.0000000000
    2      O       0.7206181113     0.3408967491     0.0000000000
    3      O      -1.6458682526     0.3805009012     0.0000000000
 ----------------------------------------------------------------
 Nuclear Repulsion Energy =          63.73538939 hartrees
 There are       12 alpha and       11 beta electrons
 Requested basis set is 6-311+G(2df,2pd)
 There are 24 shells and 102 basis functions

 Total QAlloc Memory Limit   2000 MB
 Mega-Array Size       188 MB
 MEM_STATIC part       192 MB

                       Distance Matrix (Angstroms)
             N (  1)   O (  2)
   O (  2)  1.199169
   O (  3)  1.199066  2.366818
 
 A cutoff of  1.0D-09 yielded    291 shell pairs
 There are      5348 function pairs (      7079 Cartesian)
 Smallest overlap matrix eigenvalue = 8.31E-04

 Scale SEOQF with 1.000000e-01/1.000000e-01/1.000000e-01

 Standard Electronic Orientation quadrupole field applied
 Nucleus-field energy     =     0.0000000013 hartrees
 Requested basis set is 6-31G(d)
 There are 12 shells and 42 basis functions
 A cutoff of  1.0D-09 yielded     77 shell pairs
 There are       968 function pairs (      1115 Cartesian)
 Smallest overlap matrix eigenvalue = 4.71E-03
 Guess from superposition of atomic densities
 Warning:  Energy on first SCF cycle will be non-variational
 SAD guess density has 23.000000 electrons
 Long-range K will be added via erf
 Coulomb attenuation parameter = 0.2 bohr**(-1)
 An unrestricted hybrid HF-DFT SCF calculation will be
 performed using Relaxed Constraint Minimization + Pulay DIIS
 Exchange:     0.2220 Hartree-Fock + 1.0000 wB97X-D + LR-HF
 Correlation:  1.0000 wB97X-D
 Using Euler-Maclaurin-Lebedev (75,302) quadrature formula
 Dispersion:   Grimme D
 SCF converges when DIIS error is below 1.0E-04
 using 6 threads for integral computing
 -------------------------------------------------------
 OpenMP Integral computing Module                
 Release: version 1.0, May 2013, Q-Chem Inc. Pittsburgh 
 -------------------------------------------------------
 using 6 threads for integral computing
 -------------------------------------------------------
 OpenMP Integral computing Module                
 Release: version 1.0, May 2013, Q-Chem Inc. Pittsburgh 
 -------------------------------------------------------
 ---------------------------------------
  Cycle       Energy         DIIS Error
 ---------------------------------------
    1    -205.5005624309      1.25E-01
    2    -204.8643154158      2.38E-02
    3    -204.9064893746      4.86E-03
    4    -204.9642934450      3.86E-03
    5    -204.9653852533      7.58E-04 Done RCA. Switching to DIIS
    6    -204.9668752624      5.30E-04
    7    -204.9669369034      4.97E-05 Convergence criterion met
 ---------------------------------------
 <S^2> = 0.7531
 SCF time:  CPU 7.63 s  wall 1.49 s
 SCF   energy in the small basis set = -204.96693690
 Total energy in the small basis set = -204.96693690
 ----------------------------------------------------
  Cycle       Energy    
 ----------------------------------------------------
    1     -20.8528125667     -2.09E+01
 Long-range K will be added via erf
 Coulomb attenuation parameter = 0.2 bohr**(-1)
 An unrestricted hybrid HF-DFT SCF calculation will be
 performed using Relaxed Constraint Minimization + Pulay DIIS
 Exchange:     0.2220 Hartree-Fock + 1.0000 wB97X-D + LR-HF
 Correlation:  1.0000 wB97X-D
 Using Euler-Maclaurin-Lebedev (75,302) quadrature formula
 Dispersion:   Grimme D
 SCF converges when DIIS error is below 1.0E-05
 Basis2 calculation detected. Using small basis as guess for larger.
 SCFMinFind is unable to tell whether the solution found is close.
 Resetting ReadMinima to 0 and attempting to follow guess.
 SCFMinFind following SCF Guess.
 using 6 threads for integral computing
 -------------------------------------------------------
 OpenMP Integral computing Module                
 Release: version 1.0, May 2013, Q-Chem Inc. Pittsburgh 
 -------------------------------------------------------
 using 6 threads for integral computing
 -------------------------------------------------------
 OpenMP Integral computing Module                
 Release: version 1.0, May 2013, Q-Chem Inc. Pittsburgh 
 -------------------------------------------------------
 ---------------------------------------
  Cycle       Energy         DIIS Error
 ---------------------------------------
    1    -205.0144147859      1.13E-02
    2    -205.0196954372      5.77E-03
    3    -205.0306891682      1.22E-03
    4    -205.0450868756      1.20E-03
    5    -205.0455994846      2.25E-04 Done RCA. Switching to DIIS
    6    -205.0463155942      2.16E-04
    7    -205.0463675866      2.18E-05
    8    -205.0463716833      1.56E-05
    9    -205.0463725274      5.76E-06 Convergence criterion met
 ---------------------------------------
 <S^2> = 0.7537
 SCF time:  CPU 22.86 s  wall 4.67 s
 SCF   energy in the final basis set = -205.04637253
 Total energy in the final basis set = -205.04637253
 
 --------------------------------------------------------------
 
                    Orbital Energies (a.u.)
 --------------------------------------------------------------
 
 Alpha MOs
 -- Occupied --
-19.3770 -19.3769 -14.6817  -1.3807  -1.2664  -0.7781  -0.6824  -0.6737
 -0.6671  -0.5008  -0.4776  -0.3094
 -- Virtual --
 -0.0186   0.0709   0.1341   0.1543   0.1554   0.1812   0.2427   0.2584
  0.2611   0.3086   0.3244   0.3272   0.3947   0.4385   0.6288   0.7722
  0.7749   0.9023   0.9169   0.9211   0.9977   1.0147   1.0438   1.0576
  1.1285   1.1573   1.1653   1.1657   1.3407   1.4746   1.4760   1.4786
  1.6900   1.6916   1.7492   1.9297   1.9579   2.4537   2.4549   2.5231
  2.5905   2.6298   3.4758   3.4759   3.5766   3.5775   3.6941   3.6989
  3.8717   4.1000   4.1863   4.4690   4.4732   4.5092   4.6374   4.6423
  4.8587   5.0329   5.0329   5.0517   5.0603   5.0647   5.0833   5.0937
  5.1684   5.2113   5.2113   5.4939   5.5787   5.6684   5.6998   6.1590
  6.2991   6.7369   6.7377   6.7732   6.7747   6.9329   7.0081   7.0912
  7.2888   7.3464   7.4377   7.4647   7.5294   7.8221   8.7939  36.0326
 50.1226  50.3629
 
 Beta MOs
 -- Occupied --
-19.3698 -19.3697 -14.6692  -1.3586  -1.2482  -0.7495  -0.6555  -0.6540
 -0.6269  -0.4717  -0.4528
 -- Virtual --
 -0.0026  -0.0004   0.0841   0.1402   0.1630   0.1680   0.2005   0.2462
  0.2644   0.2644   0.3134   0.3340   0.3355   0.4060   0.4422   0.6566
  0.7845   0.7996   0.9088   0.9337   0.9365   1.0054   1.0239   1.0482
  1.0690   1.1387   1.1690   1.1698   1.1718   1.3535   1.4817   1.4831
  1.4857   1.7080   1.7080   1.7567   1.9437   1.9594   2.4648   2.4704
  2.5306   2.6019   2.6474   3.5062   3.5063   3.5884   3.5893   3.7169
  3.7487   3.8866   4.1083   4.2070   4.4808   4.4863   4.5342   4.6878
  4.6924   4.8871   5.0449   5.0456   5.0586   5.0741   5.0763   5.1068
  5.1069   5.1932   5.2179   5.2180   5.5093   5.5845   5.6864   5.7228
  6.1665   6.3176   6.7597   6.7604   6.7992   6.7992   6.9636   7.0143
  7.1120   7.3133   7.3550   7.4477   7.4768   7.5390   7.8368   8.8082
 36.0477  50.1293  50.3697
 --------------------------------------------------------------
 
 -----------------------------------------------------------------
                    Cartesian Multipole Moments
 -----------------------------------------------------------------
    Charge (ESU x 10^10)
                -0.0000
    Dipole Moment (Debye)
         X      -0.0004      Y       0.0106      Z      -0.0000
       Tot       0.0107
    Quadrupole Moments (Debye-Ang)
        XX     -17.9705     XY       0.0308     YY     -15.8173
        XZ       0.0000     YZ      -0.0000     ZZ     -14.8719
    Octopole Moments (Debye-Ang^2)
       XXX      24.9017    XXY      -7.2969    XYY       7.3193
       YYY     -20.1103    XXZ      -0.0000    XYZ       0.0000
       YYZ       0.0000    XZZ       6.8646    YZZ      -6.2771
       ZZZ      -0.0000
    Hexadecapole Moments (Debye-Ang^3)
      XXXX    -123.5845   XXXY      10.7758   XXYY     -26.2027
      XYYY      10.0542   YYYY     -30.8467   XXXZ       0.0000
      XXYZ      -0.0000   XYYZ       0.0000   YYYZ       0.0000
      XXZZ     -21.8078   XYZZ       3.1393   YYZZ      -6.8407
      XZZZ       0.0000   YZZZ      -0.0000   ZZZZ     -11.4704
 -----------------------------------------------------------------
Archival summary:
1\1\centos77-c2\SP\ProcedureUnspecified\BasisUnspecified\21(2)\shihchen\SunJul1221:53:492020SunJul1221:53:492020\0\\#,ProcedureUnspecified,BasisUnspecified,\\0,2\N\O,1,1.19907\O,1,1.19917,2,161.431\\\@

 Total job time:  7.44s(wall), 33.95s(cpu) 
 Sun Jul 12 21:53:49 2020

        *************************************************************
        *                                                           *
        *  Thank you very much for using Q-Chem.  Have a nice day.  *
        *                                                           *
        *************************************************************


