                  Welcome to Q-Chem
     A Quantum Leap Into The Future Of Chemistry


 Q-Chem 5.3 (devel), Q-Chem, Inc., Pleasanton, CA (2020)

 Yihan Shao,  Zhengting Gan,  E. Epifanovsky,  A. T. B. Gilbert,  M. Wormit,  
 J. Kussmann,  A. W. Lange,  A. Behn,  Jia Deng,  Xintian Feng,  D. Ghosh,  
 M. Goldey,  P. R. Horn,  L. D. Jacobson,  I. Kaliman,  T. Kus,  A. Landau,  
 Jie Liu,  E. I. Proynov,  R. M. Richard,  R. P. Steele,  E. J. Sundstrom,  
 H. L. Woodcock III,  P. M. Zimmerman,  D. Zuev,  B. Alam,  B. Albrecht,  
 E. Alguire,  S. A. Baeppler,  D. Barton,  Z. Benda,  Y. A. Bernard,  
 E. J. Berquist,  K. B. Bravaya,  H. Burton,  K. Carter-Fenk,  D. Casanova,  
 Chun-Min Chang,  Yunqing Chen,  A. Chien,  K. D. Closser,  M. P. Coons,  
 S. Coriani,  S. Dasgupta,  A. L. Dempwolff,  M. Diedenhofen,  Hainam Do,  
 R. G. Edgar,  Po-Tung Fang,  S. Faraji,  S. Fatehi,  Qingguo Feng,  
 J. Fosso-Tande,  J. Gayvert,  Qinghui Ge,  A. Ghysels,  G. Gidofalvi,  
 J. Gomes,  J. Gonthier,  A. Gunina,  D. Hait,  M. W. D. Hanson-Heine,  
 P. H. P. Harbach,  A. W. Hauser,  M. F. Herbst,  J. E. Herr,  
 E. G. Hohenstein,  Z. C. Holden,  Kerwin Hui,  B. C. Huynh,  T.-C. Jagau,  
 Hyunjun Ji,  B. Kaduk,  K. Khistyaev,  Jaehoon Kim,  P. Klunzinger,  K. Koh,  
 D. Kosenkov,  L. Koulias,  T. Kowalczyk,  C. M. Krauter,  A. Kunitsa,  
 Ka Un Lao,  A. Laurent,  K. V. Lawler,  Joonho Lee,  D. Lefrancois,  
 S. Lehtola,  D. S. Levine,  Yi-Pei Li,  You-Sheng Lin,  Fenglai Liu,  
 Kuan-Yu Liu,  E. Livshits,  M. Loipersberger,  A. Luenser,  P. Manohar,  
 E. Mansoor,  S. F. Manzer,  Shan-Ping Mao,  Yuezhi Mao,  N. Mardirossian,  
 A. V. Marenich,  T. Markovich,  L. A. Martinez-Martinez,  S. A. Maurer,  
 N. J. Mayhall,  S. C. McKenzie,  J.-M. Mewes,  P. Morgante,  A. F. Morrison,  
 J. W. Mullinax,  K. Nanda,  T. S. Nguyen-Beck,  R. Olivares-Amaya,  
 K. J. Oosterbaan,  J. A. Parkhill,  S. K. Paul,  F. Pavosevic,  Zheng Pei,  
 T. M. Perrine,  F. Plasser,  P. Pokhilko,  S. Prager,  A. Prociuk,  
 E. Ramos,  B. Rana,  D. R. Rehn,  F. Rob,  M. Scheurer,  M. Schneider,  
 N. Sergueev,  S. M. Sharada,  S. Sharma,  D. W. Small,  T. Stauch,  
 C. J. Stein,  T. Stein,  Yu-Chuan Su,  S. P. Veccham,  Zhen Tao,  
 A. J. W. Thom,  A. Tkatchenko,  T. Tsuchimochi,  N. M. Tubman,  L. Vogt,  
 M. L. Vidal,  O. Vydrov,  M. A. Watson,  J. Wenzel,  M. de Wergifosse,  
 T. A. Wesolowski,  A. White,  J. Witte,  A. Yamada,  Jun Yang,  K. Yao,  
 S. Yeganeh,  S. R. Yost,  Zhi-Qiang You,  A. Zech,  Igor Ying Zhang,  
 Xing Zhang,  Yan Zhao,  Ying Zhu,  B. R. Brooks,  G. K. L. Chan,  
 C. J. Cramer,  M. S. Gordon,  W. J. Hehre,  A. Klamt,  M. W. Schmidt,  
 C. D. Sherrill,  D. G. Truhlar,  A. Aspuru-Guzik,  R. Baer,  A. T. Bell,  
 N. A. Besley,  Jeng-Da Chai,  A. E. DePrince, III,  R. A. DiStasio Jr.,  
 A. Dreuw,  B. D. Dunietz,  T. R. Furlani,  Chao-Ping Hsu,  Yousung Jung,  
 Jing Kong,  D. S. Lambrecht,  WanZhen Liang,  C. Ochsenfeld,  
 V. A. Rassolov,  L. V. Slipchenko,  J. E. Subotnik,  T. Van Voorhis,  
 J. M. Herbert,  A. I. Krylov,  P. M. W. Gill,  M. Head-Gordon

 Contributors to earlier versions of Q-Chem not listed above: 
 R. D. Adamson,  B. Austin,  J. Baker,  G. J. O. Beran,  K. Brandhorst,  
 S. T. Brown,  E. F. C. Byrd,  A. K. Chakraborty,  C.-L. Cheng,  
 Siu Hung Chien,  D. M. Chipman,  D. L. Crittenden,  H. Dachsel,  
 R. J. Doerksen,  A. D. Dutoi,  L. Fusti-Molnar,  W. A. Goddard III,  
 A. Golubeva-Zadorozhnaya,  S. R. Gwaltney,  G. Hawkins,  A. Heyden,  
 S. Hirata,  G. Kedziora,  F. J. Keil,  C. Kelley,  Jihan Kim,  R. A. King,  
 R. Z. Khaliullin,  P. P. Korambath,  W. Kurlancheek,  A. M. Lee,  M. S. Lee,  
 S. V. Levchenko,  Ching Yeh Lin,  D. Liotard,  R. C. Lochan,  I. Lotan,  
 P. E. Maslen,  N. Nair,  D. P. O'Neill,  D. Neuhauser,  E. Neuscamman,  
 C. M. Oana,  R. Olson,  B. Peters,  R. Peverati,  P. A. Pieniazek,  
 Y. M. Rhee,  J. Ritchie,  M. A. Rohrdanz,  E. Rosta,  N. J. Russ,  
 H. F. Schaefer III,  N. E. Schultz,  N. Shenvi,  A. C. Simmonett,  A. Sodt,  
 D. Stuck,  K. S. Thanthiriwatte,  V. Vanovschi,  Tao Wang,  A. Warshel,  
 C. F. Williams,  Q. Wu,  X. Xu,  W. Zhang

 Please cite Q-Chem as follows:
 Y. Shao et al., Mol. Phys. 113, 184-215 (2015)
 DOI: 10.1080/00268976.2014.952696

 Q-Chem 5.3.0 for Intel X86 EM64T Linux

 Parts of Q-Chem use Armadillo 9.800.1 (Horizon Scraper).
 http://arma.sourceforge.net/

 Q-Chem begins on Sun Jul 12 21:54:40 2020  

Host: centos77-c2
0

     Scratch files written to /tmp/28905.centos77-h1/qchem6966//
Processing $rem in /opt/qchem-5.3.0-intel2020u1//config/preferences:
Processing $rem in /home/shihchengli/.qchemrc:

Checking the input file for inconsistencies... 	...done.

--------------------------------------------------------------
User input:
--------------------------------------------------------------
$rem
   JOBTYPE  sp
   EXCHANGE   omegaB97X-D
   BASIS   6-311+G(2df,2pd)
   UNRESTRICTED   True
   max_scf_cycles   250
   geom_opt_max_cycles   1500
   basis2 6-31G*
   scf_algorithm rca_diis
   SYM_IGNORE  TRUE
   print_input   true
   geom_opt_dmax   80
   pop_mulliken false
   XC_GRID 000075000302
$end

$molecule
0 2
N       -0.4545649093     0.8450035533     0.0000000000
O       0.7173926146     0.1954753075     0.0000000000
O       -1.6475177054     0.2350511392     0.0000000000
$end
--------------------------------------------------------------
 ----------------------------------------------------------------
             Standard Nuclear Orientation (Angstroms)
    I     Atom           X                Y                Z
 ----------------------------------------------------------------
    1      N      -0.4545649093     0.8450035533     0.0000000000
    2      O       0.7173926146     0.1954753075     0.0000000000
    3      O      -1.6475177054     0.2350511392     0.0000000000
 ----------------------------------------------------------------
 Nuclear Repulsion Energy =          58.55245185 hartrees
 There are       12 alpha and       11 beta electrons
 Requested basis set is 6-311+G(2df,2pd)
 There are 24 shells and 102 basis functions

 Total QAlloc Memory Limit   2000 MB
 Mega-Array Size       188 MB
 MEM_STATIC part       192 MB

                       Distance Matrix (Angstroms)
             N (  1)   O (  2)
   O (  2)  1.339915
   O (  3)  1.339843  2.365241
 
 A cutoff of  1.0D-09 yielded    291 shell pairs
 There are      5348 function pairs (      7079 Cartesian)
 Smallest overlap matrix eigenvalue = 2.20E-03

 Scale SEOQF with 1.000000e-01/1.000000e-01/1.000000e-01

 Standard Electronic Orientation quadrupole field applied
 Nucleus-field energy     =     0.0000000014 hartrees
 Requested basis set is 6-31G(d)
 There are 12 shells and 42 basis functions
 A cutoff of  1.0D-09 yielded     77 shell pairs
 There are       968 function pairs (      1115 Cartesian)
 Smallest overlap matrix eigenvalue = 1.13E-02
 Guess from superposition of atomic densities
 Warning:  Energy on first SCF cycle will be non-variational
 SAD guess density has 23.000000 electrons
 Long-range K will be added via erf
 Coulomb attenuation parameter = 0.2 bohr**(-1)
 An unrestricted hybrid HF-DFT SCF calculation will be
 performed using Relaxed Constraint Minimization + Pulay DIIS
 Exchange:     0.2220 Hartree-Fock + 1.0000 wB97X-D + LR-HF
 Correlation:  1.0000 wB97X-D
 Using Euler-Maclaurin-Lebedev (75,302) quadrature formula
 Dispersion:   Grimme D
 SCF converges when DIIS error is below 1.0E-04
 using 6 threads for integral computing
 -------------------------------------------------------
 OpenMP Integral computing Module                
 Release: version 1.0, May 2013, Q-Chem Inc. Pittsburgh 
 -------------------------------------------------------
 using 6 threads for integral computing
 -------------------------------------------------------
 OpenMP Integral computing Module                
 Release: version 1.0, May 2013, Q-Chem Inc. Pittsburgh 
 -------------------------------------------------------
 ---------------------------------------
  Cycle       Energy         DIIS Error
 ---------------------------------------
    1    -204.9266479468      9.13E-02
    2    -204.7726605127      2.95E-02
    3    -204.8384343401      7.59E-03
    4    -204.9270979043      6.70E-03
    5    -204.9349846340      1.83E-03
    6    -204.9466114640      3.57E-03
    7    -204.9474378127      8.45E-04 Done RCA. Switching to DIIS
    8    -204.9484239194      1.46E-03
    9    -204.9488137387      3.23E-05 Convergence criterion met
 ---------------------------------------
 <S^2> = 0.7583
 SCF time:  CPU 7.29 s  wall 1.34 s
 SCF   energy in the small basis set = -204.94881374
 Total energy in the small basis set = -204.94881374
 ----------------------------------------------------
  Cycle       Energy    
 ----------------------------------------------------
    1     -20.6492509703     -2.06E+01
 Long-range K will be added via erf
 Coulomb attenuation parameter = 0.2 bohr**(-1)
 An unrestricted hybrid HF-DFT SCF calculation will be
 performed using Relaxed Constraint Minimization + Pulay DIIS
 Exchange:     0.2220 Hartree-Fock + 1.0000 wB97X-D + LR-HF
 Correlation:  1.0000 wB97X-D
 Using Euler-Maclaurin-Lebedev (75,302) quadrature formula
 Dispersion:   Grimme D
 SCF converges when DIIS error is below 1.0E-05
 Basis2 calculation detected. Using small basis as guess for larger.
 SCFMinFind is unable to tell whether the solution found is close.
 Resetting ReadMinima to 0 and attempting to follow guess.
 SCFMinFind following SCF Guess.
 using 6 threads for integral computing
 -------------------------------------------------------
 OpenMP Integral computing Module                
 Release: version 1.0, May 2013, Q-Chem Inc. Pittsburgh 
 -------------------------------------------------------
 using 6 threads for integral computing
 -------------------------------------------------------
 OpenMP Integral computing Module                
 Release: version 1.0, May 2013, Q-Chem Inc. Pittsburgh 
 -------------------------------------------------------
 ---------------------------------------
  Cycle       Energy         DIIS Error
 ---------------------------------------
    1    -204.9866717052      1.15E-02
    2    -204.9607125729      8.30E-03
    3    -204.9842827637      2.22E-03
    4    -205.0141737183      1.28E-03
    5    -205.0181540953      1.27E-03
    6    -205.0198804795      4.03E-04 Done RCA. Switching to DIIS
    7    -205.0223239919      8.27E-04
    8    -205.0229884386      2.00E-05
    9    -205.0229889147      5.50E-06 Convergence criterion met
 ---------------------------------------
 <S^2> = 0.7591
 SCF time:  CPU 23.01 s  wall 4.50 s
 SCF   energy in the final basis set = -205.02298891
 Total energy in the final basis set = -205.02298891
 
 --------------------------------------------------------------
 
                    Orbital Energies (a.u.)
 --------------------------------------------------------------
 
 Alpha MOs
 -- Occupied --
-19.3888 -19.3887 -14.7079  -1.3037  -1.1750  -0.8231  -0.6581  -0.6302
 -0.6116  -0.4734  -0.4637  -0.4399
 -- Virtual --
 -0.0873   0.0998   0.1346   0.1388   0.1617   0.1725   0.2382   0.2599
  0.2636   0.2724   0.2809   0.2839   0.3242   0.3727   0.4280   0.7634
  0.7830   0.7949   0.9231   0.9857   1.0101   1.0312   1.0330   1.0394
  1.0917   1.1204   1.1250   1.1364   1.4506   1.4829   1.5168   1.5488
  1.5597   1.5715   1.6770   1.7476   1.9754   1.9987   2.1065   2.3190
  2.3580   2.4050   3.4914   3.5221   3.6598   3.6668   3.6824   3.7574
  3.7869   3.8801   4.0823   4.1914   4.6635   4.6789   4.7241   4.7609
  4.8297   4.9769   5.0196   5.0257   5.0361   5.0500   5.0561   5.0619
  5.0698   5.1249   5.2149   5.3330   5.3355   5.5550   5.6282   5.6495
  5.9803   6.0740   6.5166   6.5263   6.7234   6.7535   6.7555   6.7682
  7.0165   7.1124   7.1152   7.1190   7.2523   7.5054   7.7705  35.5573
 49.9295  49.9819
 
 Beta MOs
 -- Occupied --
-19.3795 -19.3795 -14.7006  -1.2831  -1.1483  -0.7867  -0.6259  -0.6014
 -0.5893  -0.4527  -0.4239
 -- Virtual --
 -0.1443  -0.0726   0.1073   0.1379   0.1435   0.1636   0.1869   0.2404
  0.2646   0.2655   0.2772   0.2836   0.3094   0.3343   0.3764   0.4288
  0.7801   0.7877   0.7954   0.9351   0.9966   1.0205   1.0345   1.0509
  1.0515   1.0964   1.1255   1.1379   1.1532   1.4640   1.4975   1.5247
  1.5674   1.5711   1.5795   1.6848   1.7614   1.9794   2.0191   2.1168
  2.3285   2.3701   2.4246   3.5098   3.5392   3.6658   3.6738   3.6914
  3.7872   3.7941   3.8973   4.0955   4.2060   4.6799   4.6979   4.7521
  4.7916   4.8397   5.0024   5.0275   5.0470   5.0546   5.0691   5.0722
  5.0775   5.1040   5.1427   5.2344   5.3452   5.3578   5.5759   5.6433
  5.6716   5.9911   6.0883   6.5313   6.5571   6.7497   6.7848   6.7854
  6.7908   7.0458   7.1306   7.1316   7.1396   7.2871   7.5265   7.7898
 35.5660  49.9387  49.9911
 --------------------------------------------------------------
 
 -----------------------------------------------------------------
                    Cartesian Multipole Moments
 -----------------------------------------------------------------
    Charge (ESU x 10^10)
                 0.0000
    Dipole Moment (Debye)
         X       0.0084      Y       0.4128      Z       0.0000
       Tot       0.4129
    Quadrupole Moments (Debye-Ang)
        XX     -17.9555     XY      -0.1493     YY     -15.3155
        XZ      -0.0000     YZ       0.0000     ZZ     -15.4147
    Octopole Moments (Debye-Ang^2)
       XXX      24.8193    XXY      -8.3943    XYY       7.1281
       YYY     -19.9646    XXZ       0.0000    XYZ      -0.0000
       YYZ       0.0000    XZZ       7.1156    YZZ      -6.4618
       ZZZ       0.0000
    Hexadecapole Moments (Debye-Ang^3)
      XXXX    -126.1856   XXXY      12.3926   XXYY     -27.1724
      XYYY       9.9163   YYYY     -38.1410   XXXZ      -0.0000
      XXYZ       0.0000   XYYZ      -0.0000   YYYZ       0.0000
      XXZZ     -22.4877   XYZZ       3.2139   YYZZ      -8.1207
      XZZZ      -0.0000   YZZZ       0.0000   ZZZZ     -12.1241
 -----------------------------------------------------------------
Archival summary:
1\1\centos77-c2\SP\ProcedureUnspecified\BasisUnspecified\21(2)\shihchen\SunJul1221:54:472020SunJul1221:54:472020\0\\#,ProcedureUnspecified,BasisUnspecified,\\0,2\N\O,1,1.33984\O,1,1.33991,2,123.923\\\@

 Total job time:  7.12s(wall), 33.31s(cpu) 
 Sun Jul 12 21:54:47 2020

        *************************************************************
        *                                                           *
        *  Thank you very much for using Q-Chem.  Have a nice day.  *
        *                                                           *
        *************************************************************


