                  Welcome to Q-Chem
     A Quantum Leap Into The Future Of Chemistry


 Q-Chem 5.3 (devel), Q-Chem, Inc., Pleasanton, CA (2020)

 Yihan Shao,  Zhengting Gan,  E. Epifanovsky,  A. T. B. Gilbert,  M. Wormit,  
 J. Kussmann,  A. W. Lange,  A. Behn,  Jia Deng,  Xintian Feng,  D. Ghosh,  
 M. Goldey,  P. R. Horn,  L. D. Jacobson,  I. Kaliman,  T. Kus,  A. Landau,  
 Jie Liu,  E. I. Proynov,  R. M. Richard,  R. P. Steele,  E. J. Sundstrom,  
 H. L. Woodcock III,  P. M. Zimmerman,  D. Zuev,  B. Alam,  B. Albrecht,  
 E. Alguire,  S. A. Baeppler,  D. Barton,  Z. Benda,  Y. A. Bernard,  
 E. J. Berquist,  K. B. Bravaya,  H. Burton,  K. Carter-Fenk,  D. Casanova,  
 Chun-Min Chang,  Yunqing Chen,  A. Chien,  K. D. Closser,  M. P. Coons,  
 S. Coriani,  S. Dasgupta,  A. L. Dempwolff,  M. Diedenhofen,  Hainam Do,  
 R. G. Edgar,  Po-Tung Fang,  S. Faraji,  S. Fatehi,  Qingguo Feng,  
 J. Fosso-Tande,  J. Gayvert,  Qinghui Ge,  A. Ghysels,  G. Gidofalvi,  
 J. Gomes,  J. Gonthier,  A. Gunina,  D. Hait,  M. W. D. Hanson-Heine,  
 P. H. P. Harbach,  A. W. Hauser,  M. F. Herbst,  J. E. Herr,  
 E. G. Hohenstein,  Z. C. Holden,  Kerwin Hui,  B. C. Huynh,  T.-C. Jagau,  
 Hyunjun Ji,  B. Kaduk,  K. Khistyaev,  Jaehoon Kim,  P. Klunzinger,  K. Koh,  
 D. Kosenkov,  L. Koulias,  T. Kowalczyk,  C. M. Krauter,  A. Kunitsa,  
 Ka Un Lao,  A. Laurent,  K. V. Lawler,  Joonho Lee,  D. Lefrancois,  
 S. Lehtola,  D. S. Levine,  Yi-Pei Li,  You-Sheng Lin,  Fenglai Liu,  
 Kuan-Yu Liu,  E. Livshits,  M. Loipersberger,  A. Luenser,  P. Manohar,  
 E. Mansoor,  S. F. Manzer,  Shan-Ping Mao,  Yuezhi Mao,  N. Mardirossian,  
 A. V. Marenich,  T. Markovich,  L. A. Martinez-Martinez,  S. A. Maurer,  
 N. J. Mayhall,  S. C. McKenzie,  J.-M. Mewes,  P. Morgante,  A. F. Morrison,  
 J. W. Mullinax,  K. Nanda,  T. S. Nguyen-Beck,  R. Olivares-Amaya,  
 K. J. Oosterbaan,  J. A. Parkhill,  S. K. Paul,  F. Pavosevic,  Zheng Pei,  
 T. M. Perrine,  F. Plasser,  P. Pokhilko,  S. Prager,  A. Prociuk,  
 E. Ramos,  B. Rana,  D. R. Rehn,  F. Rob,  M. Scheurer,  M. Schneider,  
 N. Sergueev,  S. M. Sharada,  S. Sharma,  D. W. Small,  T. Stauch,  
 C. J. Stein,  T. Stein,  Yu-Chuan Su,  S. P. Veccham,  Zhen Tao,  
 A. J. W. Thom,  A. Tkatchenko,  T. Tsuchimochi,  N. M. Tubman,  L. Vogt,  
 M. L. Vidal,  O. Vydrov,  M. A. Watson,  J. Wenzel,  M. de Wergifosse,  
 T. A. Wesolowski,  A. White,  J. Witte,  A. Yamada,  Jun Yang,  K. Yao,  
 S. Yeganeh,  S. R. Yost,  Zhi-Qiang You,  A. Zech,  Igor Ying Zhang,  
 Xing Zhang,  Yan Zhao,  Ying Zhu,  B. R. Brooks,  G. K. L. Chan,  
 C. J. Cramer,  M. S. Gordon,  W. J. Hehre,  A. Klamt,  M. W. Schmidt,  
 C. D. Sherrill,  D. G. Truhlar,  A. Aspuru-Guzik,  R. Baer,  A. T. Bell,  
 N. A. Besley,  Jeng-Da Chai,  A. E. DePrince, III,  R. A. DiStasio Jr.,  
 A. Dreuw,  B. D. Dunietz,  T. R. Furlani,  Chao-Ping Hsu,  Yousung Jung,  
 Jing Kong,  D. S. Lambrecht,  WanZhen Liang,  C. Ochsenfeld,  
 V. A. Rassolov,  L. V. Slipchenko,  J. E. Subotnik,  T. Van Voorhis,  
 J. M. Herbert,  A. I. Krylov,  P. M. W. Gill,  M. Head-Gordon

 Contributors to earlier versions of Q-Chem not listed above: 
 R. D. Adamson,  B. Austin,  J. Baker,  G. J. O. Beran,  K. Brandhorst,  
 S. T. Brown,  E. F. C. Byrd,  A. K. Chakraborty,  C.-L. Cheng,  
 Siu Hung Chien,  D. M. Chipman,  D. L. Crittenden,  H. Dachsel,  
 R. J. Doerksen,  A. D. Dutoi,  L. Fusti-Molnar,  W. A. Goddard III,  
 A. Golubeva-Zadorozhnaya,  S. R. Gwaltney,  G. Hawkins,  A. Heyden,  
 S. Hirata,  G. Kedziora,  F. J. Keil,  C. Kelley,  Jihan Kim,  R. A. King,  
 R. Z. Khaliullin,  P. P. Korambath,  W. Kurlancheek,  A. M. Lee,  M. S. Lee,  
 S. V. Levchenko,  Ching Yeh Lin,  D. Liotard,  R. C. Lochan,  I. Lotan,  
 P. E. Maslen,  N. Nair,  D. P. O'Neill,  D. Neuhauser,  E. Neuscamman,  
 C. M. Oana,  R. Olson,  B. Peters,  R. Peverati,  P. A. Pieniazek,  
 Y. M. Rhee,  J. Ritchie,  M. A. Rohrdanz,  E. Rosta,  N. J. Russ,  
 H. F. Schaefer III,  N. E. Schultz,  N. Shenvi,  A. C. Simmonett,  A. Sodt,  
 D. Stuck,  K. S. Thanthiriwatte,  V. Vanovschi,  Tao Wang,  A. Warshel,  
 C. F. Williams,  Q. Wu,  X. Xu,  W. Zhang

 Please cite Q-Chem as follows:
 Y. Shao et al., Mol. Phys. 113, 184-215 (2015)
 DOI: 10.1080/00268976.2014.952696

 Q-Chem 5.3.0 for Intel X86 EM64T Linux

 Parts of Q-Chem use Armadillo 9.800.1 (Horizon Scraper).
 http://arma.sourceforge.net/

 Q-Chem begins on Sun Jul 12 21:55:02 2020  

Host: centos77-c2
0

     Scratch files written to /tmp/28905.centos77-h1/qchem7091//
Processing $rem in /opt/qchem-5.3.0-intel2020u1//config/preferences:
Processing $rem in /home/shihchengli/.qchemrc:

Checking the input file for inconsistencies... 	...done.

--------------------------------------------------------------
User input:
--------------------------------------------------------------
$rem
   JOBTYPE  sp
   EXCHANGE   omegaB97X-D
   BASIS   6-311+G(2df,2pd)
   UNRESTRICTED   True
   max_scf_cycles   250
   geom_opt_max_cycles   1500
   basis2 6-31G*
   scf_algorithm rca_diis
   SYM_IGNORE  TRUE
   print_input   true
   geom_opt_dmax   80
   pop_mulliken false
   XC_GRID 000075000302
$end

$molecule
0 2
N       -0.4574799653     0.6679402857     0.0000000000
O       0.5637104399     0.2866126654     0.0000000000
O       -1.4909204747     0.3209770489     0.0000000000
$end
--------------------------------------------------------------
 ----------------------------------------------------------------
             Standard Nuclear Orientation (Angstroms)
    I     Atom           X                Y                Z
 ----------------------------------------------------------------
    1      N      -0.4574799653     0.6679402857     0.0000000000
    2      O       0.5637104399     0.2866126654     0.0000000000
    3      O      -1.4909204747     0.3209770489     0.0000000000
 ----------------------------------------------------------------
 Nuclear Repulsion Energy =          70.85041758 hartrees
 There are       12 alpha and       11 beta electrons
 Requested basis set is 6-311+G(2df,2pd)
 There are 24 shells and 102 basis functions

 Total QAlloc Memory Limit   2000 MB
 Mega-Array Size       188 MB
 MEM_STATIC part       192 MB

                       Distance Matrix (Angstroms)
             N (  1)   O (  2)
   O (  2)  1.090064
   O (  3)  1.090130  2.054918
 
 A cutoff of  1.0D-09 yielded    295 shell pairs
 There are      5429 function pairs (      7179 Cartesian)
 Smallest overlap matrix eigenvalue = 1.03E-03

 Scale SEOQF with 1.000000e-01/1.000000e-01/1.000000e-01

 Standard Electronic Orientation quadrupole field applied
 Nucleus-field energy     =     0.0000000011 hartrees
 Requested basis set is 6-31G(d)
 There are 12 shells and 42 basis functions
 A cutoff of  1.0D-09 yielded     77 shell pairs
 There are       968 function pairs (      1115 Cartesian)
 Smallest overlap matrix eigenvalue = 5.15E-03
 Guess from superposition of atomic densities
 Warning:  Energy on first SCF cycle will be non-variational
 SAD guess density has 23.000000 electrons
 Long-range K will be added via erf
 Coulomb attenuation parameter = 0.2 bohr**(-1)
 An unrestricted hybrid HF-DFT SCF calculation will be
 performed using Relaxed Constraint Minimization + Pulay DIIS
 Exchange:     0.2220 Hartree-Fock + 1.0000 wB97X-D + LR-HF
 Correlation:  1.0000 wB97X-D
 Using Euler-Maclaurin-Lebedev (75,302) quadrature formula
 Dispersion:   Grimme D
 SCF converges when DIIS error is below 1.0E-04
 using 6 threads for integral computing
 -------------------------------------------------------
 OpenMP Integral computing Module                
 Release: version 1.0, May 2013, Q-Chem Inc. Pittsburgh 
 -------------------------------------------------------
 using 6 threads for integral computing
 -------------------------------------------------------
 OpenMP Integral computing Module                
 Release: version 1.0, May 2013, Q-Chem Inc. Pittsburgh 
 -------------------------------------------------------
 ---------------------------------------
  Cycle       Energy         DIIS Error
 ---------------------------------------
    1    -206.1148343818      1.64E-01
    2    -204.8696310643      2.22E-02
    3    -204.9065915363      3.34E-03
    4    -204.9509224110      1.07E-03
    5    -204.9510583599      5.29E-04 Done RCA. Switching to DIIS
    6    -204.9511135681      6.30E-04
    7    -204.9511748879      1.32E-05 Convergence criterion met
 ---------------------------------------
 <S^2> = 0.7524
 SCF time:  CPU 9.69 s  wall 2.32 s
 SCF   energy in the small basis set = -204.95117489
 Total energy in the small basis set = -204.95117489
 ----------------------------------------------------
  Cycle       Energy    
 ----------------------------------------------------
    1     -21.0824251359     -2.11E+01
 Long-range K will be added via erf
 Coulomb attenuation parameter = 0.2 bohr**(-1)
 An unrestricted hybrid HF-DFT SCF calculation will be
 performed using Relaxed Constraint Minimization + Pulay DIIS
 Exchange:     0.2220 Hartree-Fock + 1.0000 wB97X-D + LR-HF
 Correlation:  1.0000 wB97X-D
 Using Euler-Maclaurin-Lebedev (75,302) quadrature formula
 Dispersion:   Grimme D
 SCF converges when DIIS error is below 1.0E-05
 Basis2 calculation detected. Using small basis as guess for larger.
 SCFMinFind is unable to tell whether the solution found is close.
 Resetting ReadMinima to 0 and attempting to follow guess.
 SCFMinFind following SCF Guess.
 using 6 threads for integral computing
 -------------------------------------------------------
 OpenMP Integral computing Module                
 Release: version 1.0, May 2013, Q-Chem Inc. Pittsburgh 
 -------------------------------------------------------
 using 6 threads for integral computing
 -------------------------------------------------------
 OpenMP Integral computing Module                
 Release: version 1.0, May 2013, Q-Chem Inc. Pittsburgh 
 -------------------------------------------------------
 ---------------------------------------
  Cycle       Energy         DIIS Error
 ---------------------------------------
    1    -205.0136094047      1.13E-02
    2    -205.0282535909      4.42E-03
    3    -205.0347736218      6.86E-04 Done RCA. Switching to DIIS
    4    -205.0425011166      3.36E-04
    5    -205.0426157709      5.64E-05
    6    -205.0426287778      3.14E-05
    7    -205.0426308402      1.52E-05
    8    -205.0426317398      2.37E-06 Convergence criterion met
 ---------------------------------------
 <S^2> = 0.7527
 SCF time:  CPU 17.70 s  wall 3.47 s
 SCF   energy in the final basis set = -205.04263174
 Total energy in the final basis set = -205.04263174
 
 --------------------------------------------------------------
 
                    Orbital Energies (a.u.)
 --------------------------------------------------------------
 
 Alpha MOs
 -- Occupied --
-19.3492 -19.3492 -14.6733  -1.4819  -1.3263  -0.7635  -0.7273  -0.7244
 -0.6828  -0.4889  -0.4821  -0.3213
 -- Virtual --
  0.0433   0.0962   0.1355   0.1450   0.1452   0.2488   0.2526   0.2630
  0.2859   0.3095   0.3259   0.3612   0.4364   0.4806   0.6990   0.7397
  0.7527   0.8395   0.9134   0.9489   0.9920   1.0301   1.0505   1.0789
  1.1375   1.1419   1.1501   1.2200   1.4646   1.5342   1.5363   1.6176
  1.6908   1.7106   1.7909   2.0317   2.1697   2.3637   2.4488   2.5467
  2.5886   2.7883   3.4803   3.4869   3.6410   3.6806   3.6964   3.8360
  4.0199   4.2186   4.2616   4.3416   4.3517   4.5413   4.6137   4.7041
  4.9033   5.0183   5.0204   5.0560   5.0958   5.1133   5.1413   5.1543
  5.3505   5.4201   5.6496   5.7400   5.7638   5.8303   5.9919   6.7108
  6.7326   6.7360   6.7715   6.8156   6.9589   6.9928   7.1027   7.3509
  7.3718   7.4510   7.7121   7.7746   7.8850   7.9595   8.9938  36.5339
 50.3554  50.6098
 
 Beta MOs
 -- Occupied --
-19.3418 -19.3417 -14.6632  -1.4631  -1.3062  -0.7241  -0.7150  -0.6856
 -0.6637  -0.4751  -0.4471
 -- Virtual --
 -0.0205   0.0610   0.1178   0.1424   0.1598   0.1659   0.2556   0.2600
  0.2673   0.3027   0.3205   0.3333   0.3759   0.4411   0.4927   0.7229
  0.7641   0.7649   0.8449   0.9307   0.9622   1.0005   1.0355   1.0669
  1.0903   1.1519   1.1559   1.1560   1.2240   1.4738   1.5391   1.5423
  1.6259   1.7113   1.7282   1.8002   2.0463   2.1729   2.3799   2.4575
  2.5584   2.5970   2.8093   3.5035   3.5096   3.6483   3.6963   3.7324
  3.8450   4.0375   4.2296   4.2703   4.3586   4.3811   4.5823   4.6488
  4.7176   4.9345   5.0315   5.0331   5.0627   5.1109   5.1298   5.1587
  5.1601   5.3687   5.4467   5.6575   5.7596   5.7784   5.8450   6.0030
  6.7376   6.7542   6.7557   6.7969   6.8394   6.9686   7.0176   7.1073
  7.3615   7.3810   7.4704   7.7270   7.7874   7.9030   7.9742   9.0189
 36.5452  50.3621  50.6165
 --------------------------------------------------------------
 
 -----------------------------------------------------------------
                    Cartesian Multipole Moments
 -----------------------------------------------------------------
    Charge (ESU x 10^10)
                 0.0000
    Dipole Moment (Debye)
         X       0.0060      Y       0.3353      Z      -0.0000
       Tot       0.3354
    Quadrupole Moments (Debye-Ang)
        XX     -17.8649     XY      -0.1135     YY     -15.2604
        XZ       0.0000     YZ      -0.0000     ZZ     -14.4731
    Octopole Moments (Debye-Ang^2)
       XXX      24.7457    XXY      -7.3352    XYY       7.0726
       YYY     -19.5177    XXZ      -0.0000    XYZ       0.0000
       YYZ      -0.0000    XZZ       6.6823    YZZ      -6.0496
       ZZZ      -0.0000
    Hexadecapole Moments (Debye-Ang^3)
      XXXX    -103.4298   XXXY      10.7472   XXYY     -22.3058
      XYYY       9.5555   YYYY     -32.7146   XXXZ       0.0000
      XXYZ      -0.0000   XYYZ       0.0000   YYYZ      -0.0000
      XXZZ     -17.9526   XYZZ       2.9672   YYZZ      -6.9919
      XZZZ       0.0000   YZZZ      -0.0000   ZZZZ     -11.0446
 -----------------------------------------------------------------
Archival summary:
1\1\centos77-c2\SP\ProcedureUnspecified\BasisUnspecified\21(2)\shihchen\SunJul1221:55:092020SunJul1221:55:092020\0\\#,ProcedureUnspecified,BasisUnspecified,\\0,2\N\O,1,1.09006\O,1,1.09013,2,140.965\\\@

 Total job time:  6.87s(wall), 30.85s(cpu) 
 Sun Jul 12 21:55:09 2020

        *************************************************************
        *                                                           *
        *  Thank you very much for using Q-Chem.  Have a nice day.  *
        *                                                           *
        *************************************************************


