                  Welcome to Q-Chem
     A Quantum Leap Into The Future Of Chemistry


 Q-Chem 5.3 (devel), Q-Chem, Inc., Pleasanton, CA (2020)

 Yihan Shao,  Zhengting Gan,  E. Epifanovsky,  A. T. B. Gilbert,  M. Wormit,  
 J. Kussmann,  A. W. Lange,  A. Behn,  Jia Deng,  Xintian Feng,  D. Ghosh,  
 M. Goldey,  P. R. Horn,  L. D. Jacobson,  I. Kaliman,  T. Kus,  A. Landau,  
 Jie Liu,  E. I. Proynov,  R. M. Richard,  R. P. Steele,  E. J. Sundstrom,  
 H. L. Woodcock III,  P. M. Zimmerman,  D. Zuev,  B. Alam,  B. Albrecht,  
 E. Alguire,  S. A. Baeppler,  D. Barton,  Z. Benda,  Y. A. Bernard,  
 E. J. Berquist,  K. B. Bravaya,  H. Burton,  K. Carter-Fenk,  D. Casanova,  
 Chun-Min Chang,  Yunqing Chen,  A. Chien,  K. D. Closser,  M. P. Coons,  
 S. Coriani,  S. Dasgupta,  A. L. Dempwolff,  M. Diedenhofen,  Hainam Do,  
 R. G. Edgar,  Po-Tung Fang,  S. Faraji,  S. Fatehi,  Qingguo Feng,  
 J. Fosso-Tande,  J. Gayvert,  Qinghui Ge,  A. Ghysels,  G. Gidofalvi,  
 J. Gomes,  J. Gonthier,  A. Gunina,  D. Hait,  M. W. D. Hanson-Heine,  
 P. H. P. Harbach,  A. W. Hauser,  M. F. Herbst,  J. E. Herr,  
 E. G. Hohenstein,  Z. C. Holden,  Kerwin Hui,  B. C. Huynh,  T.-C. Jagau,  
 Hyunjun Ji,  B. Kaduk,  K. Khistyaev,  Jaehoon Kim,  P. Klunzinger,  K. Koh,  
 D. Kosenkov,  L. Koulias,  T. Kowalczyk,  C. M. Krauter,  A. Kunitsa,  
 Ka Un Lao,  A. Laurent,  K. V. Lawler,  Joonho Lee,  D. Lefrancois,  
 S. Lehtola,  D. S. Levine,  Yi-Pei Li,  You-Sheng Lin,  Fenglai Liu,  
 Kuan-Yu Liu,  E. Livshits,  M. Loipersberger,  A. Luenser,  P. Manohar,  
 E. Mansoor,  S. F. Manzer,  Shan-Ping Mao,  Yuezhi Mao,  N. Mardirossian,  
 A. V. Marenich,  T. Markovich,  L. A. Martinez-Martinez,  S. A. Maurer,  
 N. J. Mayhall,  S. C. McKenzie,  J.-M. Mewes,  P. Morgante,  A. F. Morrison,  
 J. W. Mullinax,  K. Nanda,  T. S. Nguyen-Beck,  R. Olivares-Amaya,  
 K. J. Oosterbaan,  J. A. Parkhill,  S. K. Paul,  F. Pavosevic,  Zheng Pei,  
 T. M. Perrine,  F. Plasser,  P. Pokhilko,  S. Prager,  A. Prociuk,  
 E. Ramos,  B. Rana,  D. R. Rehn,  F. Rob,  M. Scheurer,  M. Schneider,  
 N. Sergueev,  S. M. Sharada,  S. Sharma,  D. W. Small,  T. Stauch,  
 C. J. Stein,  T. Stein,  Yu-Chuan Su,  S. P. Veccham,  Zhen Tao,  
 A. J. W. Thom,  A. Tkatchenko,  T. Tsuchimochi,  N. M. Tubman,  L. Vogt,  
 M. L. Vidal,  O. Vydrov,  M. A. Watson,  J. Wenzel,  M. de Wergifosse,  
 T. A. Wesolowski,  A. White,  J. Witte,  A. Yamada,  Jun Yang,  K. Yao,  
 S. Yeganeh,  S. R. Yost,  Zhi-Qiang You,  A. Zech,  Igor Ying Zhang,  
 Xing Zhang,  Yan Zhao,  Ying Zhu,  B. R. Brooks,  G. K. L. Chan,  
 C. J. Cramer,  M. S. Gordon,  W. J. Hehre,  A. Klamt,  M. W. Schmidt,  
 C. D. Sherrill,  D. G. Truhlar,  A. Aspuru-Guzik,  R. Baer,  A. T. Bell,  
 N. A. Besley,  Jeng-Da Chai,  A. E. DePrince, III,  R. A. DiStasio Jr.,  
 A. Dreuw,  B. D. Dunietz,  T. R. Furlani,  Chao-Ping Hsu,  Yousung Jung,  
 Jing Kong,  D. S. Lambrecht,  WanZhen Liang,  C. Ochsenfeld,  
 V. A. Rassolov,  L. V. Slipchenko,  J. E. Subotnik,  T. Van Voorhis,  
 J. M. Herbert,  A. I. Krylov,  P. M. W. Gill,  M. Head-Gordon

 Contributors to earlier versions of Q-Chem not listed above: 
 R. D. Adamson,  B. Austin,  J. Baker,  G. J. O. Beran,  K. Brandhorst,  
 S. T. Brown,  E. F. C. Byrd,  A. K. Chakraborty,  C.-L. Cheng,  
 Siu Hung Chien,  D. M. Chipman,  D. L. Crittenden,  H. Dachsel,  
 R. J. Doerksen,  A. D. Dutoi,  L. Fusti-Molnar,  W. A. Goddard III,  
 A. Golubeva-Zadorozhnaya,  S. R. Gwaltney,  G. Hawkins,  A. Heyden,  
 S. Hirata,  G. Kedziora,  F. J. Keil,  C. Kelley,  Jihan Kim,  R. A. King,  
 R. Z. Khaliullin,  P. P. Korambath,  W. Kurlancheek,  A. M. Lee,  M. S. Lee,  
 S. V. Levchenko,  Ching Yeh Lin,  D. Liotard,  R. C. Lochan,  I. Lotan,  
 P. E. Maslen,  N. Nair,  D. P. O'Neill,  D. Neuhauser,  E. Neuscamman,  
 C. M. Oana,  R. Olson,  B. Peters,  R. Peverati,  P. A. Pieniazek,  
 Y. M. Rhee,  J. Ritchie,  M. A. Rohrdanz,  E. Rosta,  N. J. Russ,  
 H. F. Schaefer III,  N. E. Schultz,  N. Shenvi,  A. C. Simmonett,  A. Sodt,  
 D. Stuck,  K. S. Thanthiriwatte,  V. Vanovschi,  Tao Wang,  A. Warshel,  
 C. F. Williams,  Q. Wu,  X. Xu,  W. Zhang

 Please cite Q-Chem as follows:
 Y. Shao et al., Mol. Phys. 113, 184-215 (2015)
 DOI: 10.1080/00268976.2014.952696

 Q-Chem 5.3.0 for Intel X86 EM64T Linux

 Parts of Q-Chem use Armadillo 9.800.1 (Horizon Scraper).
 http://arma.sourceforge.net/

 Q-Chem begins on Sun Jul 12 21:52:54 2020  

Host: centos77-c2
0

     Scratch files written to /tmp/28905.centos77-h1/qchem6295//
Processing $rem in /opt/qchem-5.3.0-intel2020u1//config/preferences:
Processing $rem in /home/shihchengli/.qchemrc:

Checking the input file for inconsistencies... 	...done.

--------------------------------------------------------------
User input:
--------------------------------------------------------------
$rem
   JOBTYPE  sp
   EXCHANGE   omegaB97X-D
   BASIS   6-311+G(2df,2pd)
   UNRESTRICTED   True
   max_scf_cycles   250
   geom_opt_max_cycles   1500
   basis2 6-31G*
   scf_algorithm rca_diis
   SYM_IGNORE  TRUE
   print_input   true
   geom_opt_dmax   80
   pop_mulliken false
   XC_GRID 000075000302
$end

$molecule
0 2
N       -0.4543220085     0.8556683658     0.0000000000
O       0.5120625756     0.1935893772     0.0000000000
O       -1.4424305672     0.2262722570     0.0000000000
$end
--------------------------------------------------------------
 ----------------------------------------------------------------
             Standard Nuclear Orientation (Angstroms)
    I     Atom           X                Y                Z
 ----------------------------------------------------------------
    1      N      -0.4543220085     0.8556683658     0.0000000000
    2      O       0.5120625756     0.1935893772     0.0000000000
    3      O      -1.4424305672     0.2262722570     0.0000000000
 ----------------------------------------------------------------
 Nuclear Repulsion Energy =          67.91764454 hartrees
 There are       12 alpha and       11 beta electrons
 Requested basis set is 6-311+G(2df,2pd)
 There are 24 shells and 102 basis functions

 Total QAlloc Memory Limit   2000 MB
 Mega-Array Size       188 MB
 MEM_STATIC part       192 MB

                       Distance Matrix (Angstroms)
             N (  1)   O (  2)
   O (  2)  1.171430
   O (  3)  1.171537  1.954766
 
 A cutoff of  1.0D-09 yielded    297 shell pairs
 There are      5439 function pairs (      7191 Cartesian)
 Smallest overlap matrix eigenvalue = 1.46E-03

 Scale SEOQF with 1.000000e-01/1.000000e-01/1.000000e-01

 Standard Electronic Orientation quadrupole field applied
 Nucleus-field energy     =     0.0000000011 hartrees
 Requested basis set is 6-31G(d)
 There are 12 shells and 42 basis functions
 A cutoff of  1.0D-09 yielded     77 shell pairs
 There are       968 function pairs (      1115 Cartesian)
 Smallest overlap matrix eigenvalue = 5.99E-03
 Guess from superposition of atomic densities
 Warning:  Energy on first SCF cycle will be non-variational
 SAD guess density has 23.000000 electrons
 Long-range K will be added via erf
 Coulomb attenuation parameter = 0.2 bohr**(-1)
 An unrestricted hybrid HF-DFT SCF calculation will be
 performed using Relaxed Constraint Minimization + Pulay DIIS
 Exchange:     0.2220 Hartree-Fock + 1.0000 wB97X-D + LR-HF
 Correlation:  1.0000 wB97X-D
 Using Euler-Maclaurin-Lebedev (75,302) quadrature formula
 Dispersion:   Grimme D
 SCF converges when DIIS error is below 1.0E-04
 using 6 threads for integral computing
 -------------------------------------------------------
 OpenMP Integral computing Module                
 Release: version 1.0, May 2013, Q-Chem Inc. Pittsburgh 
 -------------------------------------------------------
 using 6 threads for integral computing
 -------------------------------------------------------
 OpenMP Integral computing Module                
 Release: version 1.0, May 2013, Q-Chem Inc. Pittsburgh 
 -------------------------------------------------------
 ---------------------------------------
  Cycle       Energy         DIIS Error
 ---------------------------------------
    1    -205.6839527108      1.38E-01
    2    -204.8323883690      2.68E-02
    3    -204.8865630244      4.92E-03
    4    -204.9587082570      4.70E-03
    5    -204.9602159418      8.32E-04 Done RCA. Switching to DIIS
    6    -204.9622577403      6.31E-04
    7    -204.9623508604      9.86E-05 Convergence criterion met
 ---------------------------------------
 <S^2> = 0.7541
 SCF time:  CPU 7.79 s  wall 1.65 s
 SCF   energy in the small basis set = -204.96235086
 Total energy in the small basis set = -204.96235086
 ----------------------------------------------------
  Cycle       Energy    
 ----------------------------------------------------
    1     -20.9327518996     -2.09E+01
 Long-range K will be added via erf
 Coulomb attenuation parameter = 0.2 bohr**(-1)
 An unrestricted hybrid HF-DFT SCF calculation will be
 performed using Relaxed Constraint Minimization + Pulay DIIS
 Exchange:     0.2220 Hartree-Fock + 1.0000 wB97X-D + LR-HF
 Correlation:  1.0000 wB97X-D
 Using Euler-Maclaurin-Lebedev (75,302) quadrature formula
 Dispersion:   Grimme D
 SCF converges when DIIS error is below 1.0E-05
 Basis2 calculation detected. Using small basis as guess for larger.
 SCFMinFind is unable to tell whether the solution found is close.
 Resetting ReadMinima to 0 and attempting to follow guess.
 SCFMinFind following SCF Guess.
 using 6 threads for integral computing
 -------------------------------------------------------
 OpenMP Integral computing Module                
 Release: version 1.0, May 2013, Q-Chem Inc. Pittsburgh 
 -------------------------------------------------------
 using 6 threads for integral computing
 -------------------------------------------------------
 OpenMP Integral computing Module                
 Release: version 1.0, May 2013, Q-Chem Inc. Pittsburgh 
 -------------------------------------------------------
 ---------------------------------------
  Cycle       Energy         DIIS Error
 ---------------------------------------
    1    -205.0140388553      1.13E-02
    2    -205.0199493152      5.39E-03
    3    -205.0297601988      1.09E-03
    4    -205.0424463905      1.06E-03
    5    -205.0428402594      2.01E-04 Done RCA. Switching to DIIS
    6    -205.0433605598      1.86E-04
    7    -205.0433887467      7.37E-06 Convergence criterion met
 ---------------------------------------
 <S^2> = 0.7549
 SCF time:  CPU 21.68 s  wall 4.24 s
 SCF   energy in the final basis set = -205.04338875
 Total energy in the final basis set = -205.04338875
 
 --------------------------------------------------------------
 
                    Orbital Energies (a.u.)
 --------------------------------------------------------------
 
 Alpha MOs
 -- Occupied --
-19.3498 -19.3497 -14.6890  -1.4407  -1.2295  -0.7874  -0.6885  -0.6848
 -0.6679  -0.4598  -0.4437  -0.4275
 -- Virtual --
 -0.0155   0.1055   0.1383   0.1440   0.1508   0.2450   0.2499   0.2613
  0.2676   0.2834   0.3345   0.3841   0.4057   0.4491   0.4622   0.7111
  0.7591   0.7995   0.9346   1.0118   1.0154   1.0194   1.0367   1.0730
  1.1064   1.1153   1.1612   1.1859   1.4798   1.5230   1.5324   1.5743
  1.6166   1.6351   1.7821   2.0684   2.0964   2.1251   2.1905   2.3829
  2.4741   2.5331   3.5148   3.5730   3.6746   3.6911   3.7461   3.8886
  3.9814   4.1147   4.4364   4.5198   4.5587   4.5590   4.5818   4.6590
  4.7464   5.0177   5.0248   5.0386   5.0705   5.1320   5.1379   5.1471
  5.1508   5.2395   5.3890   5.4199   5.7359   5.7641   5.8124   6.5234
  6.6514   6.6897   6.7358   6.7550   6.7890   6.8179   6.9566   7.1422
  7.1665   7.2102   7.2441   7.3366   7.6979   7.7833   8.0108  36.2612
 50.1789  50.2434
 
 Beta MOs
 -- Occupied --
-19.3416 -19.3416 -14.6807  -1.4226  -1.2050  -0.7447  -0.6740  -0.6496
 -0.6426  -0.4508  -0.3984
 -- Virtual --
 -0.1283   0.0009   0.1145   0.1400   0.1531   0.1549   0.2476   0.2522
  0.2686   0.2728   0.2889   0.3383   0.3899   0.4185   0.4619   0.4808
  0.7292   0.7655   0.8020   0.9486   1.0193   1.0259   1.0274   1.0567
  1.0770   1.1102   1.1209   1.1800   1.2054   1.4963   1.5318   1.5446
  1.5928   1.6223   1.6437   1.7949   2.0823   2.1144   2.1301   2.1987
  2.4018   2.4805   2.5457   3.5320   3.5905   3.6854   3.6972   3.7749
  3.8960   3.9913   4.1311   4.4591   4.5322   4.5734   4.5805   4.6118
  4.6910   4.7719   5.0271   5.0438   5.0620   5.0905   5.1549   5.1570
  5.1570   5.1798   5.2556   5.4021   5.4384   5.7663   5.7747   5.8259
  6.5426   6.6643   6.7041   6.7581   6.7840   6.8227   6.8382   6.9725
  7.1637   7.1784   7.2181   7.2748   7.3637   7.7097   7.8037   8.0283
 36.2709  50.1864  50.2509
 --------------------------------------------------------------
 
 -----------------------------------------------------------------
                    Cartesian Multipole Moments
 -----------------------------------------------------------------
    Charge (ESU x 10^10)
                 0.0000
    Dipole Moment (Debye)
         X       0.0114      Y       0.7063      Z      -0.0000
       Tot       0.7064
    Quadrupole Moments (Debye-Ang)
        XX     -18.1895     XY      -0.2699     YY     -14.5340
        XZ       0.0000     YZ      -0.0000     ZZ     -14.7598
    Octopole Moments (Debye-Ang^2)
       XXX      25.1718    XXY      -7.7662    XYY       6.7582
       YYY     -18.9259    XXZ      -0.0000    XYZ      -0.0000
       YYZ      -0.0000    XZZ       6.8157    YZZ      -6.1220
       ZZZ      -0.0000
    Hexadecapole Moments (Debye-Ang^3)
      XXXX    -100.9589   XXXY      11.3845   XXYY     -21.8585
      XYYY       9.1938   YYYY     -36.8264   XXXZ       0.0000
      XXYZ       0.0000   XYYZ      -0.0000   YYYZ      -0.0000
      XXZZ     -17.4687   XYZZ       2.9799   YYZZ      -7.7099
      XZZZ       0.0000   YZZZ      -0.0000   ZZZZ     -11.1402
 -----------------------------------------------------------------
Archival summary:
1\1\centos77-c2\SP\ProcedureUnspecified\BasisUnspecified\21(2)\shihchen\SunJul1221:53:012020SunJul1221:53:012020\0\\#,ProcedureUnspecified,BasisUnspecified,\\0,2\N\O,1,1.17143\O,1,1.17154,2,113.089\\\@

 Total job time:  6.99s(wall), 32.51s(cpu) 
 Sun Jul 12 21:53:01 2020

        *************************************************************
        *                                                           *
        *  Thank you very much for using Q-Chem.  Have a nice day.  *
        *                                                           *
        *************************************************************


