                  Welcome to Q-Chem
     A Quantum Leap Into The Future Of Chemistry


 Q-Chem 5.3 (devel), Q-Chem, Inc., Pleasanton, CA (2020)

 Yihan Shao,  Zhengting Gan,  E. Epifanovsky,  A. T. B. Gilbert,  M. Wormit,  
 J. Kussmann,  A. W. Lange,  A. Behn,  Jia Deng,  Xintian Feng,  D. Ghosh,  
 M. Goldey,  P. R. Horn,  L. D. Jacobson,  I. Kaliman,  T. Kus,  A. Landau,  
 Jie Liu,  E. I. Proynov,  R. M. Richard,  R. P. Steele,  E. J. Sundstrom,  
 H. L. Woodcock III,  P. M. Zimmerman,  D. Zuev,  B. Alam,  B. Albrecht,  
 E. Alguire,  S. A. Baeppler,  D. Barton,  Z. Benda,  Y. A. Bernard,  
 E. J. Berquist,  K. B. Bravaya,  H. Burton,  K. Carter-Fenk,  D. Casanova,  
 Chun-Min Chang,  Yunqing Chen,  A. Chien,  K. D. Closser,  M. P. Coons,  
 S. Coriani,  S. Dasgupta,  A. L. Dempwolff,  M. Diedenhofen,  Hainam Do,  
 R. G. Edgar,  Po-Tung Fang,  S. Faraji,  S. Fatehi,  Qingguo Feng,  
 J. Fosso-Tande,  J. Gayvert,  Qinghui Ge,  A. Ghysels,  G. Gidofalvi,  
 J. Gomes,  J. Gonthier,  A. Gunina,  D. Hait,  M. W. D. Hanson-Heine,  
 P. H. P. Harbach,  A. W. Hauser,  M. F. Herbst,  J. E. Herr,  
 E. G. Hohenstein,  Z. C. Holden,  Kerwin Hui,  B. C. Huynh,  T.-C. Jagau,  
 Hyunjun Ji,  B. Kaduk,  K. Khistyaev,  Jaehoon Kim,  P. Klunzinger,  K. Koh,  
 D. Kosenkov,  L. Koulias,  T. Kowalczyk,  C. M. Krauter,  A. Kunitsa,  
 Ka Un Lao,  A. Laurent,  K. V. Lawler,  Joonho Lee,  D. Lefrancois,  
 S. Lehtola,  D. S. Levine,  Yi-Pei Li,  You-Sheng Lin,  Fenglai Liu,  
 Kuan-Yu Liu,  E. Livshits,  M. Loipersberger,  A. Luenser,  P. Manohar,  
 E. Mansoor,  S. F. Manzer,  Shan-Ping Mao,  Yuezhi Mao,  N. Mardirossian,  
 A. V. Marenich,  T. Markovich,  L. A. Martinez-Martinez,  S. A. Maurer,  
 N. J. Mayhall,  S. C. McKenzie,  J.-M. Mewes,  P. Morgante,  A. F. Morrison,  
 J. W. Mullinax,  K. Nanda,  T. S. Nguyen-Beck,  R. Olivares-Amaya,  
 K. J. Oosterbaan,  J. A. Parkhill,  S. K. Paul,  F. Pavosevic,  Zheng Pei,  
 T. M. Perrine,  F. Plasser,  P. Pokhilko,  S. Prager,  A. Prociuk,  
 E. Ramos,  B. Rana,  D. R. Rehn,  F. Rob,  M. Scheurer,  M. Schneider,  
 N. Sergueev,  S. M. Sharada,  S. Sharma,  D. W. Small,  T. Stauch,  
 C. J. Stein,  T. Stein,  Yu-Chuan Su,  S. P. Veccham,  Zhen Tao,  
 A. J. W. Thom,  A. Tkatchenko,  T. Tsuchimochi,  N. M. Tubman,  L. Vogt,  
 M. L. Vidal,  O. Vydrov,  M. A. Watson,  J. Wenzel,  M. de Wergifosse,  
 T. A. Wesolowski,  A. White,  J. Witte,  A. Yamada,  Jun Yang,  K. Yao,  
 S. Yeganeh,  S. R. Yost,  Zhi-Qiang You,  A. Zech,  Igor Ying Zhang,  
 Xing Zhang,  Yan Zhao,  Ying Zhu,  B. R. Brooks,  G. K. L. Chan,  
 C. J. Cramer,  M. S. Gordon,  W. J. Hehre,  A. Klamt,  M. W. Schmidt,  
 C. D. Sherrill,  D. G. Truhlar,  A. Aspuru-Guzik,  R. Baer,  A. T. Bell,  
 N. A. Besley,  Jeng-Da Chai,  A. E. DePrince, III,  R. A. DiStasio Jr.,  
 A. Dreuw,  B. D. Dunietz,  T. R. Furlani,  Chao-Ping Hsu,  Yousung Jung,  
 Jing Kong,  D. S. Lambrecht,  WanZhen Liang,  C. Ochsenfeld,  
 V. A. Rassolov,  L. V. Slipchenko,  J. E. Subotnik,  T. Van Voorhis,  
 J. M. Herbert,  A. I. Krylov,  P. M. W. Gill,  M. Head-Gordon

 Contributors to earlier versions of Q-Chem not listed above: 
 R. D. Adamson,  B. Austin,  J. Baker,  G. J. O. Beran,  K. Brandhorst,  
 S. T. Brown,  E. F. C. Byrd,  A. K. Chakraborty,  C.-L. Cheng,  
 Siu Hung Chien,  D. M. Chipman,  D. L. Crittenden,  H. Dachsel,  
 R. J. Doerksen,  A. D. Dutoi,  L. Fusti-Molnar,  W. A. Goddard III,  
 A. Golubeva-Zadorozhnaya,  S. R. Gwaltney,  G. Hawkins,  A. Heyden,  
 S. Hirata,  G. Kedziora,  F. J. Keil,  C. Kelley,  Jihan Kim,  R. A. King,  
 R. Z. Khaliullin,  P. P. Korambath,  W. Kurlancheek,  A. M. Lee,  M. S. Lee,  
 S. V. Levchenko,  Ching Yeh Lin,  D. Liotard,  R. C. Lochan,  I. Lotan,  
 P. E. Maslen,  N. Nair,  D. P. O'Neill,  D. Neuhauser,  E. Neuscamman,  
 C. M. Oana,  R. Olson,  B. Peters,  R. Peverati,  P. A. Pieniazek,  
 Y. M. Rhee,  J. Ritchie,  M. A. Rohrdanz,  E. Rosta,  N. J. Russ,  
 H. F. Schaefer III,  N. E. Schultz,  N. Shenvi,  A. C. Simmonett,  A. Sodt,  
 D. Stuck,  K. S. Thanthiriwatte,  V. Vanovschi,  Tao Wang,  A. Warshel,  
 C. F. Williams,  Q. Wu,  X. Xu,  W. Zhang

 Please cite Q-Chem as follows:
 Y. Shao et al., Mol. Phys. 113, 184-215 (2015)
 DOI: 10.1080/00268976.2014.952696

 Q-Chem 5.3.0 for Intel X86 EM64T Linux

 Parts of Q-Chem use Armadillo 9.800.1 (Horizon Scraper).
 http://arma.sourceforge.net/

 Q-Chem begins on Sun Jul 12 21:53:33 2020  

Host: centos77-c2
0

     Scratch files written to /tmp/28905.centos77-h1/qchem6550//
Processing $rem in /opt/qchem-5.3.0-intel2020u1//config/preferences:
Processing $rem in /home/shihchengli/.qchemrc:

Checking the input file for inconsistencies... 	...done.

--------------------------------------------------------------
User input:
--------------------------------------------------------------
$rem
   JOBTYPE  sp
   EXCHANGE   omegaB97X-D
   BASIS   6-311+G(2df,2pd)
   UNRESTRICTED   True
   max_scf_cycles   250
   geom_opt_max_cycles   1500
   basis2 6-31G*
   scf_algorithm rca_diis
   SYM_IGNORE  TRUE
   print_input   true
   geom_opt_dmax   80
   pop_mulliken false
   XC_GRID 000075000302
$end

$molecule
0 2
N       -0.4588233333     0.5905283145     0.0000000000
O       0.7069431959     0.3229238696     0.0000000000
O       -1.6328098627     0.3620778159     0.0000000000
$end
--------------------------------------------------------------
 ----------------------------------------------------------------
             Standard Nuclear Orientation (Angstroms)
    I     Atom           X                Y                Z
 ----------------------------------------------------------------
    1      N      -0.4588233333     0.5905283145     0.0000000000
    2      O       0.7069431959     0.3229238696     0.0000000000
    3      O      -1.6328098627     0.3620778159     0.0000000000
 ----------------------------------------------------------------
 Nuclear Repulsion Energy =          64.02577318 hartrees
 There are       12 alpha and       11 beta electrons
 Requested basis set is 6-311+G(2df,2pd)
 There are 24 shells and 102 basis functions

 Total QAlloc Memory Limit   2000 MB
 Mega-Array Size       188 MB
 MEM_STATIC part       192 MB

                       Distance Matrix (Angstroms)
             N (  1)   O (  2)
   O (  2)  1.196087
   O (  3)  1.196008  2.340081
 
 A cutoff of  1.0D-09 yielded    291 shell pairs
 There are      5348 function pairs (      7079 Cartesian)
 Smallest overlap matrix eigenvalue = 9.99E-04

 Scale SEOQF with 1.000000e-01/1.000000e-01/1.000000e-01

 Standard Electronic Orientation quadrupole field applied
 Nucleus-field energy     =     0.0000000013 hartrees
 Requested basis set is 6-31G(d)
 There are 12 shells and 42 basis functions
 A cutoff of  1.0D-09 yielded     77 shell pairs
 There are       968 function pairs (      1115 Cartesian)
 Smallest overlap matrix eigenvalue = 5.50E-03
 Guess from superposition of atomic densities
 Warning:  Energy on first SCF cycle will be non-variational
 SAD guess density has 23.000000 electrons
 Long-range K will be added via erf
 Coulomb attenuation parameter = 0.2 bohr**(-1)
 An unrestricted hybrid HF-DFT SCF calculation will be
 performed using Relaxed Constraint Minimization + Pulay DIIS
 Exchange:     0.2220 Hartree-Fock + 1.0000 wB97X-D + LR-HF
 Correlation:  1.0000 wB97X-D
 Using Euler-Maclaurin-Lebedev (75,302) quadrature formula
 Dispersion:   Grimme D
 SCF converges when DIIS error is below 1.0E-04
 using 6 threads for integral computing
 -------------------------------------------------------
 OpenMP Integral computing Module                
 Release: version 1.0, May 2013, Q-Chem Inc. Pittsburgh 
 -------------------------------------------------------
 using 6 threads for integral computing
 -------------------------------------------------------
 OpenMP Integral computing Module                
 Release: version 1.0, May 2013, Q-Chem Inc. Pittsburgh 
 -------------------------------------------------------
 ---------------------------------------
  Cycle       Energy         DIIS Error
 ---------------------------------------
    1    -205.5165450350      1.26E-01
    2    -204.8735038605      2.40E-02
    3    -204.9162678832      4.85E-03
    4    -204.9746768715      3.86E-03
    5    -204.9757620960      7.52E-04 Done RCA. Switching to DIIS
    6    -204.9772364972      5.26E-04
    7    -204.9772953081      4.84E-05 Convergence criterion met
 ---------------------------------------
 <S^2> = 0.7531
 SCF time:  CPU 9.89 s  wall 2.70 s
 SCF   energy in the small basis set = -204.97729531
 Total energy in the small basis set = -204.97729531
 ----------------------------------------------------
  Cycle       Energy    
 ----------------------------------------------------
    1     -20.8579027187     -2.09E+01
 Long-range K will be added via erf
 Coulomb attenuation parameter = 0.2 bohr**(-1)
 An unrestricted hybrid HF-DFT SCF calculation will be
 performed using Relaxed Constraint Minimization + Pulay DIIS
 Exchange:     0.2220 Hartree-Fock + 1.0000 wB97X-D + LR-HF
 Correlation:  1.0000 wB97X-D
 Using Euler-Maclaurin-Lebedev (75,302) quadrature formula
 Dispersion:   Grimme D
 SCF converges when DIIS error is below 1.0E-05
 Basis2 calculation detected. Using small basis as guess for larger.
 SCFMinFind is unable to tell whether the solution found is close.
 Resetting ReadMinima to 0 and attempting to follow guess.
 SCFMinFind following SCF Guess.
 using 6 threads for integral computing
 -------------------------------------------------------
 OpenMP Integral computing Module                
 Release: version 1.0, May 2013, Q-Chem Inc. Pittsburgh 
 -------------------------------------------------------
 using 6 threads for integral computing
 -------------------------------------------------------
 OpenMP Integral computing Module                
 Release: version 1.0, May 2013, Q-Chem Inc. Pittsburgh 
 -------------------------------------------------------
 ---------------------------------------
  Cycle       Energy         DIIS Error
 ---------------------------------------
    1    -205.0254403208      1.13E-02
    2    -205.0306969793      5.74E-03
    3    -205.0415865020      1.20E-03
    4    -205.0557991596      1.18E-03
    5    -205.0562940899      2.22E-04 Done RCA. Switching to DIIS
    6    -205.0569736434      2.15E-04
    7    -205.0570189291      1.83E-05
    8    -205.0570209566      1.29E-05
    9    -205.0570213574      4.15E-06 Convergence criterion met
 ---------------------------------------
 <S^2> = 0.7537
 SCF time:  CPU 21.63 s  wall 4.69 s
 SCF   energy in the final basis set = -205.05702136
 Total energy in the final basis set = -205.05702136
 
 --------------------------------------------------------------
 
                    Orbital Energies (a.u.)
 --------------------------------------------------------------
 
 Alpha MOs
 -- Occupied --
-19.3756 -19.3756 -14.6856  -1.3860  -1.2669  -0.7788  -0.6835  -0.6755
 -0.6696  -0.4983  -0.4776  -0.3232
 -- Virtual --
 -0.0182   0.0791   0.1349   0.1539   0.1547   0.1977   0.2463   0.2564
  0.2613   0.3113   0.3174   0.3209   0.3937   0.4386   0.6114   0.7701
  0.7731   0.8730   0.9170   0.9274   1.0043   1.0128   1.0450   1.0631
  1.1177   1.1495   1.1602   1.1624   1.3886   1.4788   1.4872   1.4926
  1.6769   1.6815   1.7099   1.9330   1.9823   2.4047   2.4542   2.4867
  2.5597   2.6445   3.4762   3.4769   3.6074   3.6093   3.6956   3.6961
  3.8817   4.0911   4.2264   4.4685   4.4796   4.5006   4.6370   4.6474
  4.8193   5.0314   5.0318   5.0497   5.0561   5.0579   5.0790   5.0927
  5.1856   5.2526   5.2538   5.4736   5.6045   5.6330   5.7087   6.2266
  6.4642   6.7349   6.7361   6.7517   6.7723   6.7955   7.0270   7.1511
  7.2379   7.3297   7.3656   7.4247   7.5230   7.8272   8.7176  36.0556
 50.1434  50.3222
 
 Beta MOs
 -- Occupied --
-19.3682 -19.3681 -14.6737  -1.3643  -1.2477  -0.7493  -0.6565  -0.6557
 -0.6301  -0.4713  -0.4521
 -- Virtual --
 -0.0175  -0.0001   0.0932   0.1408   0.1630   0.1677   0.2152   0.2504
  0.2624   0.2647   0.3164   0.3279   0.3284   0.4053   0.4424   0.6413
  0.7828   0.7965   0.8778   0.9337   0.9423   1.0131   1.0223   1.0497
  1.0746   1.1298   1.1631   1.1649   1.1659   1.4004   1.4854   1.4941
  1.4996   1.6957   1.6981   1.7174   1.9468   1.9840   2.4204   2.4654
  2.4952   2.5712   2.6624   3.5052   3.5057   3.6179   3.6198   3.7135
  3.7463   3.8973   4.1002   4.2475   4.4807   4.4919   4.5218   4.6842
  4.6942   4.8509   5.0442   5.0443   5.0624   5.0665   5.0668   5.1007
  5.1066   5.2109   5.2592   5.2600   5.4919   5.6113   5.6517   5.7313
  6.2341   6.4805   6.7572   6.7586   6.7780   6.7989   6.8249   7.0336
  7.1726   7.2631   7.3395   7.3767   7.4375   7.5336   7.8422   8.7348
 36.0697  50.1504  50.3292
 --------------------------------------------------------------
 
 -----------------------------------------------------------------
                    Cartesian Multipole Moments
 -----------------------------------------------------------------
    Charge (ESU x 10^10)
                -0.0000
    Dipole Moment (Debye)
         X       0.0007      Y       0.0688      Z      -0.0000
       Tot       0.0688
    Quadrupole Moments (Debye-Ang)
        XX     -17.9376     XY       0.0037     YY     -15.7761
        XZ       0.0000     YZ      -0.0000     ZZ     -14.8781
    Octopole Moments (Debye-Ang^2)
       XXX      24.8498    XXY      -7.3858    XYY       7.3039
       YYY     -20.0924    XXZ      -0.0000    XYZ       0.0000
       YYZ       0.0000    XZZ       6.8677    YZZ      -6.2719
       ZZZ       0.0000
    Hexadecapole Moments (Debye-Ang^3)
      XXXX    -121.7157   XXXY      10.8966   XXYY     -25.9126
      XYYY      10.0214   YYYY     -31.4590   XXXZ       0.0000
      XXYZ      -0.0000   XYYZ       0.0000   YYYZ       0.0000
      XXZZ     -21.4767   XYZZ       3.1298   YYZZ      -6.9292
      XZZZ       0.0000   YZZZ      -0.0000   ZZZZ     -11.4831
 -----------------------------------------------------------------
Archival summary:
1\1\centos77-c2\SP\ProcedureUnspecified\BasisUnspecified\21(2)\shihchen\SunJul1221:53:412020SunJul1221:53:412020\0\\#,ProcedureUnspecified,BasisUnspecified,\\0,2\N\O,1,1.19601\O,1,1.19609,2,156.06\\\@

 Total job time:  8.16s(wall), 34.21s(cpu) 
 Sun Jul 12 21:53:41 2020

        *************************************************************
        *                                                           *
        *  Thank you very much for using Q-Chem.  Have a nice day.  *
        *                                                           *
        *************************************************************


