                  Welcome to Q-Chem
     A Quantum Leap Into The Future Of Chemistry


 Q-Chem 5.3 (devel), Q-Chem, Inc., Pleasanton, CA (2020)

 Yihan Shao,  Zhengting Gan,  E. Epifanovsky,  A. T. B. Gilbert,  M. Wormit,  
 J. Kussmann,  A. W. Lange,  A. Behn,  Jia Deng,  Xintian Feng,  D. Ghosh,  
 M. Goldey,  P. R. Horn,  L. D. Jacobson,  I. Kaliman,  T. Kus,  A. Landau,  
 Jie Liu,  E. I. Proynov,  R. M. Richard,  R. P. Steele,  E. J. Sundstrom,  
 H. L. Woodcock III,  P. M. Zimmerman,  D. Zuev,  B. Alam,  B. Albrecht,  
 E. Alguire,  S. A. Baeppler,  D. Barton,  Z. Benda,  Y. A. Bernard,  
 E. J. Berquist,  K. B. Bravaya,  H. Burton,  K. Carter-Fenk,  D. Casanova,  
 Chun-Min Chang,  Yunqing Chen,  A. Chien,  K. D. Closser,  M. P. Coons,  
 S. Coriani,  S. Dasgupta,  A. L. Dempwolff,  M. Diedenhofen,  Hainam Do,  
 R. G. Edgar,  Po-Tung Fang,  S. Faraji,  S. Fatehi,  Qingguo Feng,  
 J. Fosso-Tande,  J. Gayvert,  Qinghui Ge,  A. Ghysels,  G. Gidofalvi,  
 J. Gomes,  J. Gonthier,  A. Gunina,  D. Hait,  M. W. D. Hanson-Heine,  
 P. H. P. Harbach,  A. W. Hauser,  M. F. Herbst,  J. E. Herr,  
 E. G. Hohenstein,  Z. C. Holden,  Kerwin Hui,  B. C. Huynh,  T.-C. Jagau,  
 Hyunjun Ji,  B. Kaduk,  K. Khistyaev,  Jaehoon Kim,  P. Klunzinger,  K. Koh,  
 D. Kosenkov,  L. Koulias,  T. Kowalczyk,  C. M. Krauter,  A. Kunitsa,  
 Ka Un Lao,  A. Laurent,  K. V. Lawler,  Joonho Lee,  D. Lefrancois,  
 S. Lehtola,  D. S. Levine,  Yi-Pei Li,  You-Sheng Lin,  Fenglai Liu,  
 Kuan-Yu Liu,  E. Livshits,  M. Loipersberger,  A. Luenser,  P. Manohar,  
 E. Mansoor,  S. F. Manzer,  Shan-Ping Mao,  Yuezhi Mao,  N. Mardirossian,  
 A. V. Marenich,  T. Markovich,  L. A. Martinez-Martinez,  S. A. Maurer,  
 N. J. Mayhall,  S. C. McKenzie,  J.-M. Mewes,  P. Morgante,  A. F. Morrison,  
 J. W. Mullinax,  K. Nanda,  T. S. Nguyen-Beck,  R. Olivares-Amaya,  
 K. J. Oosterbaan,  J. A. Parkhill,  S. K. Paul,  F. Pavosevic,  Zheng Pei,  
 T. M. Perrine,  F. Plasser,  P. Pokhilko,  S. Prager,  A. Prociuk,  
 E. Ramos,  B. Rana,  D. R. Rehn,  F. Rob,  M. Scheurer,  M. Schneider,  
 N. Sergueev,  S. M. Sharada,  S. Sharma,  D. W. Small,  T. Stauch,  
 C. J. Stein,  T. Stein,  Yu-Chuan Su,  S. P. Veccham,  Zhen Tao,  
 A. J. W. Thom,  A. Tkatchenko,  T. Tsuchimochi,  N. M. Tubman,  L. Vogt,  
 M. L. Vidal,  O. Vydrov,  M. A. Watson,  J. Wenzel,  M. de Wergifosse,  
 T. A. Wesolowski,  A. White,  J. Witte,  A. Yamada,  Jun Yang,  K. Yao,  
 S. Yeganeh,  S. R. Yost,  Zhi-Qiang You,  A. Zech,  Igor Ying Zhang,  
 Xing Zhang,  Yan Zhao,  Ying Zhu,  B. R. Brooks,  G. K. L. Chan,  
 C. J. Cramer,  M. S. Gordon,  W. J. Hehre,  A. Klamt,  M. W. Schmidt,  
 C. D. Sherrill,  D. G. Truhlar,  A. Aspuru-Guzik,  R. Baer,  A. T. Bell,  
 N. A. Besley,  Jeng-Da Chai,  A. E. DePrince, III,  R. A. DiStasio Jr.,  
 A. Dreuw,  B. D. Dunietz,  T. R. Furlani,  Chao-Ping Hsu,  Yousung Jung,  
 Jing Kong,  D. S. Lambrecht,  WanZhen Liang,  C. Ochsenfeld,  
 V. A. Rassolov,  L. V. Slipchenko,  J. E. Subotnik,  T. Van Voorhis,  
 J. M. Herbert,  A. I. Krylov,  P. M. W. Gill,  M. Head-Gordon

 Contributors to earlier versions of Q-Chem not listed above: 
 R. D. Adamson,  B. Austin,  J. Baker,  G. J. O. Beran,  K. Brandhorst,  
 S. T. Brown,  E. F. C. Byrd,  A. K. Chakraborty,  C.-L. Cheng,  
 Siu Hung Chien,  D. M. Chipman,  D. L. Crittenden,  H. Dachsel,  
 R. J. Doerksen,  A. D. Dutoi,  L. Fusti-Molnar,  W. A. Goddard III,  
 A. Golubeva-Zadorozhnaya,  S. R. Gwaltney,  G. Hawkins,  A. Heyden,  
 S. Hirata,  G. Kedziora,  F. J. Keil,  C. Kelley,  Jihan Kim,  R. A. King,  
 R. Z. Khaliullin,  P. P. Korambath,  W. Kurlancheek,  A. M. Lee,  M. S. Lee,  
 S. V. Levchenko,  Ching Yeh Lin,  D. Liotard,  R. C. Lochan,  I. Lotan,  
 P. E. Maslen,  N. Nair,  D. P. O'Neill,  D. Neuhauser,  E. Neuscamman,  
 C. M. Oana,  R. Olson,  B. Peters,  R. Peverati,  P. A. Pieniazek,  
 Y. M. Rhee,  J. Ritchie,  M. A. Rohrdanz,  E. Rosta,  N. J. Russ,  
 H. F. Schaefer III,  N. E. Schultz,  N. Shenvi,  A. C. Simmonett,  A. Sodt,  
 D. Stuck,  K. S. Thanthiriwatte,  V. Vanovschi,  Tao Wang,  A. Warshel,  
 C. F. Williams,  Q. Wu,  X. Xu,  W. Zhang

 Please cite Q-Chem as follows:
 Y. Shao et al., Mol. Phys. 113, 184-215 (2015)
 DOI: 10.1080/00268976.2014.952696

 Q-Chem 5.3.0 for Intel X86 EM64T Linux

 Parts of Q-Chem use Armadillo 9.800.1 (Horizon Scraper).
 http://arma.sourceforge.net/

 Q-Chem begins on Sun Jul 12 21:55:31 2020  

Host: centos77-c2
0

     Scratch files written to /tmp/28905.centos77-h1/qchem7320//
Processing $rem in /opt/qchem-5.3.0-intel2020u1//config/preferences:
Processing $rem in /home/shihchengli/.qchemrc:

Checking the input file for inconsistencies... 	...done.

--------------------------------------------------------------
User input:
--------------------------------------------------------------
$rem
   JOBTYPE  sp
   EXCHANGE   omegaB97X-D
   BASIS   6-311+G(2df,2pd)
   UNRESTRICTED   True
   max_scf_cycles   250
   geom_opt_max_cycles   1500
   basis2 6-31G*
   scf_algorithm rca_diis
   SYM_IGNORE  TRUE
   print_input   true
   geom_opt_dmax   80
   pop_mulliken false
   XC_GRID 000075000302
$end

$molecule
0 2
N       -0.5137565978     0.7297882274     0.0000000000
O       0.6565473823     0.2426005281     0.0000000000
O       -1.5274807846     0.3031412445     0.0000000000
$end
--------------------------------------------------------------
 ----------------------------------------------------------------
             Standard Nuclear Orientation (Angstroms)
    I     Atom           X                Y                Z
 ----------------------------------------------------------------
    1      N      -0.5137565978     0.7297882274     0.0000000000
    2      O       0.6565473823     0.2426005281     0.0000000000
    3      O      -1.5274807846     0.3031412445     0.0000000000
 ----------------------------------------------------------------
 Nuclear Repulsion Energy =          65.82136257 hartrees
 There are       12 alpha and       11 beta electrons
 Requested basis set is 6-311+G(2df,2pd)
 There are 24 shells and 102 basis functions

 Total QAlloc Memory Limit   2000 MB
 Mega-Array Size       188 MB
 MEM_STATIC part       192 MB

                       Distance Matrix (Angstroms)
             N (  1)   O (  2)
   O (  2)  1.267661
   O (  3)  1.099847  2.184867
 
 A cutoff of  1.0D-09 yielded    294 shell pairs
 There are      5413 function pairs (      7163 Cartesian)
 Smallest overlap matrix eigenvalue = 1.21E-03

 Scale SEOQF with 1.000000e-01/1.000000e-01/1.000000e-01

 Standard Electronic Orientation quadrupole field applied
 Nucleus-field energy     =     0.0000000012 hartrees
 Requested basis set is 6-31G(d)
 There are 12 shells and 42 basis functions
 A cutoff of  1.0D-09 yielded     77 shell pairs
 There are       968 function pairs (      1115 Cartesian)
 Smallest overlap matrix eigenvalue = 6.20E-03
 Guess from superposition of atomic densities
 Warning:  Energy on first SCF cycle will be non-variational
 SAD guess density has 23.000000 electrons
 Long-range K will be added via erf
 Coulomb attenuation parameter = 0.2 bohr**(-1)
 An unrestricted hybrid HF-DFT SCF calculation will be
 performed using Relaxed Constraint Minimization + Pulay DIIS
 Exchange:     0.2220 Hartree-Fock + 1.0000 wB97X-D + LR-HF
 Correlation:  1.0000 wB97X-D
 Using Euler-Maclaurin-Lebedev (75,302) quadrature formula
 Dispersion:   Grimme D
 SCF converges when DIIS error is below 1.0E-04
 using 6 threads for integral computing
 -------------------------------------------------------
 OpenMP Integral computing Module                
 Release: version 1.0, May 2013, Q-Chem Inc. Pittsburgh 
 -------------------------------------------------------
 using 6 threads for integral computing
 -------------------------------------------------------
 OpenMP Integral computing Module                
 Release: version 1.0, May 2013, Q-Chem Inc. Pittsburgh 
 -------------------------------------------------------
 ---------------------------------------
  Cycle       Energy         DIIS Error
 ---------------------------------------
    1    -205.6252821331      1.36E-01
    2    -204.8625908804      2.52E-02
    3    -204.9062634375      7.13E-03
    4    -204.9690900474      8.39E-03
    5    -204.9739371674      1.34E-03
    6    -204.9800476176      1.59E-03
    7    -204.9802339255      2.22E-04 Done RCA. Switching to DIIS
    8    -204.9804888027      2.47E-04
    9    -204.9805075022      3.27E-05 Convergence criterion met
 ---------------------------------------
 <S^2> = 0.7543
 SCF time:  CPU 10.74 s  wall 2.45 s
 SCF   energy in the small basis set = -204.98050750
 Total energy in the small basis set = -204.98050750
 ----------------------------------------------------
  Cycle       Energy    
 ----------------------------------------------------
    1     -20.9042719537     -2.09E+01
 Long-range K will be added via erf
 Coulomb attenuation parameter = 0.2 bohr**(-1)
 An unrestricted hybrid HF-DFT SCF calculation will be
 performed using Relaxed Constraint Minimization + Pulay DIIS
 Exchange:     0.2220 Hartree-Fock + 1.0000 wB97X-D + LR-HF
 Correlation:  1.0000 wB97X-D
 Using Euler-Maclaurin-Lebedev (75,302) quadrature formula
 Dispersion:   Grimme D
 SCF converges when DIIS error is below 1.0E-05
 Basis2 calculation detected. Using small basis as guess for larger.
 SCFMinFind is unable to tell whether the solution found is close.
 Resetting ReadMinima to 0 and attempting to follow guess.
 SCFMinFind following SCF Guess.
 using 6 threads for integral computing
 -------------------------------------------------------
 OpenMP Integral computing Module                
 Release: version 1.0, May 2013, Q-Chem Inc. Pittsburgh 
 -------------------------------------------------------
 using 6 threads for integral computing
 -------------------------------------------------------
 OpenMP Integral computing Module                
 Release: version 1.0, May 2013, Q-Chem Inc. Pittsburgh 
 -------------------------------------------------------
 ---------------------------------------
  Cycle       Energy         DIIS Error
 ---------------------------------------
    1    -205.0308326044      1.14E-02
    2    -205.0287301953      6.37E-03
    3    -205.0412790933      2.01E-03
    4    -205.0588975449      1.46E-03
    5    -205.0608247751      5.22E-04 Done RCA. Switching to DIIS
    6    -205.0628062756      7.91E-04
    7    -205.0633887355      2.46E-05
    8    -205.0633904848      5.11E-06 Convergence criterion met
 ---------------------------------------
 <S^2> = 0.7548
 SCF time:  CPU 19.98 s  wall 4.07 s
 SCF   energy in the final basis set = -205.06339048
 Total energy in the final basis set = -205.06339048
 
 --------------------------------------------------------------
 
                    Orbital Energies (a.u.)
 --------------------------------------------------------------
 
 Alpha MOs
 -- Occupied --
-19.3882 -19.3429 -14.6877  -1.4480  -1.2267  -0.7833  -0.7008  -0.6922
 -0.6777  -0.4713  -0.4638  -0.3743
 -- Virtual --
 -0.0103   0.0961   0.1373   0.1500   0.1517   0.2305   0.2479   0.2637
  0.2742   0.2970   0.3218   0.3260   0.3772   0.4319   0.5728   0.7524
  0.7640   0.8178   0.9191   0.9598   1.0042   1.0382   1.0499   1.0797
  1.1046   1.1351   1.1412   1.1565   1.4595   1.5243   1.5393   1.5957
  1.6004   1.6384   1.7349   1.9029   2.0860   2.2350   2.3206   2.4247
  2.5294   2.6307   3.4886   3.5025   3.6380   3.6745   3.7514   3.7555
  3.9845   4.0882   4.3527   4.3817   4.4399   4.5189   4.6480   4.6654
  4.8311   5.0107   5.0202   5.0563   5.0574   5.0831   5.0943   5.1204
  5.1756   5.3388   5.4019   5.5281   5.5392   5.6405   5.7215   6.2219
  6.4137   6.7271   6.7491   6.7788   6.7976   7.0012   7.1116   7.1641
  7.1920   7.2298   7.3125   7.3994   7.5872   7.8450   8.3366  36.1769
 50.0940  50.3380
 
 Beta MOs
 -- Occupied --
-19.3810 -19.3340 -14.6782  -1.4304  -1.2021  -0.7501  -0.6810  -0.6585
 -0.6470  -0.4549  -0.4297
 -- Virtual --
 -0.0727   0.0068   0.1090   0.1421   0.1588   0.1616   0.2389   0.2524
  0.2662   0.2864   0.3032   0.3296   0.3372   0.3877   0.4357   0.5969
  0.7722   0.7737   0.8211   0.9347   0.9723   1.0108   1.0545   1.0557
  1.0924   1.1188   1.1400   1.1543   1.1616   1.4701   1.5306   1.5451
  1.6059   1.6197   1.6561   1.7436   1.9171   2.0899   2.2529   2.3300
  2.4362   2.5389   2.6507   3.5109   3.5234   3.6542   3.6871   3.7652
  3.7783   4.0018   4.0978   4.3739   4.4027   4.4547   4.5383   4.6818
  4.6962   4.8591   5.0237   5.0339   5.0668   5.0731   5.0963   5.1156
  5.1328   5.2032   5.3574   5.4180   5.5467   5.5504   5.6519   5.7369
  6.2510   6.4264   6.7486   6.7732   6.8070   6.8239   7.0304   7.1201
  7.1801   7.2019   7.2445   7.3273   7.4241   7.5988   7.8662   8.3600
 36.1878  50.1027  50.3445
 --------------------------------------------------------------
 
 -----------------------------------------------------------------
                    Cartesian Multipole Moments
 -----------------------------------------------------------------
    Charge (ESU x 10^10)
                -0.0000
    Dipole Moment (Debye)
         X      -0.9554      Y       0.3733      Z      -0.0000
       Tot       1.0257
    Quadrupole Moments (Debye-Ang)
        XX     -17.0289     XY      -0.6801     YY     -15.2918
        XZ       0.0000     YZ       0.0000     ZZ     -14.8312
    Octopole Moments (Debye-Ang^2)
       XXX      22.1680    XXY      -7.2115    XYY       6.2033
       YYY     -19.6570    XXZ      -0.0000    XYZ       0.0000
       YYZ      -0.0000    XZZ       6.0356    YZZ      -6.1920
       ZZZ      -0.0000
    Hexadecapole Moments (Debye-Ang^3)
      XXXX    -108.4614   XXXY      10.3533   XXYY     -23.3641
      XYYY       9.4993   YYYY     -34.0691   XXXZ       0.0000
      XXYZ      -0.0000   XYYZ       0.0000   YYYZ      -0.0000
      XXZZ     -19.0147   XYZZ       2.9783   YYZZ      -7.2894
      XZZZ      -0.0000   YZZZ      -0.0000   ZZZZ     -11.3740
 -----------------------------------------------------------------
Archival summary:
1\1\centos77-c2\SP\ProcedureUnspecified\BasisUnspecified\21(2)\shihchen\SunJul1221:55:382020SunJul1221:55:382020\0\\#,ProcedureUnspecified,BasisUnspecified,\\0,2\N\O,1,1.09985\O,1,1.26766,2,134.574\\\@

 Total job time:  7.27s(wall), 33.02s(cpu) 
 Sun Jul 12 21:55:38 2020

        *************************************************************
        *                                                           *
        *  Thank you very much for using Q-Chem.  Have a nice day.  *
        *                                                           *
        *************************************************************


