                  Welcome to Q-Chem
     A Quantum Leap Into The Future Of Chemistry


 Q-Chem 5.3 (devel), Q-Chem, Inc., Pleasanton, CA (2020)

 Yihan Shao,  Zhengting Gan,  E. Epifanovsky,  A. T. B. Gilbert,  M. Wormit,  
 J. Kussmann,  A. W. Lange,  A. Behn,  Jia Deng,  Xintian Feng,  D. Ghosh,  
 M. Goldey,  P. R. Horn,  L. D. Jacobson,  I. Kaliman,  T. Kus,  A. Landau,  
 Jie Liu,  E. I. Proynov,  R. M. Richard,  R. P. Steele,  E. J. Sundstrom,  
 H. L. Woodcock III,  P. M. Zimmerman,  D. Zuev,  B. Alam,  B. Albrecht,  
 E. Alguire,  S. A. Baeppler,  D. Barton,  Z. Benda,  Y. A. Bernard,  
 E. J. Berquist,  K. B. Bravaya,  H. Burton,  K. Carter-Fenk,  D. Casanova,  
 Chun-Min Chang,  Yunqing Chen,  A. Chien,  K. D. Closser,  M. P. Coons,  
 S. Coriani,  S. Dasgupta,  A. L. Dempwolff,  M. Diedenhofen,  Hainam Do,  
 R. G. Edgar,  Po-Tung Fang,  S. Faraji,  S. Fatehi,  Qingguo Feng,  
 J. Fosso-Tande,  J. Gayvert,  Qinghui Ge,  A. Ghysels,  G. Gidofalvi,  
 J. Gomes,  J. Gonthier,  A. Gunina,  D. Hait,  M. W. D. Hanson-Heine,  
 P. H. P. Harbach,  A. W. Hauser,  M. F. Herbst,  J. E. Herr,  
 E. G. Hohenstein,  Z. C. Holden,  Kerwin Hui,  B. C. Huynh,  T.-C. Jagau,  
 Hyunjun Ji,  B. Kaduk,  K. Khistyaev,  Jaehoon Kim,  P. Klunzinger,  K. Koh,  
 D. Kosenkov,  L. Koulias,  T. Kowalczyk,  C. M. Krauter,  A. Kunitsa,  
 Ka Un Lao,  A. Laurent,  K. V. Lawler,  Joonho Lee,  D. Lefrancois,  
 S. Lehtola,  D. S. Levine,  Yi-Pei Li,  You-Sheng Lin,  Fenglai Liu,  
 Kuan-Yu Liu,  E. Livshits,  M. Loipersberger,  A. Luenser,  P. Manohar,  
 E. Mansoor,  S. F. Manzer,  Shan-Ping Mao,  Yuezhi Mao,  N. Mardirossian,  
 A. V. Marenich,  T. Markovich,  L. A. Martinez-Martinez,  S. A. Maurer,  
 N. J. Mayhall,  S. C. McKenzie,  J.-M. Mewes,  P. Morgante,  A. F. Morrison,  
 J. W. Mullinax,  K. Nanda,  T. S. Nguyen-Beck,  R. Olivares-Amaya,  
 K. J. Oosterbaan,  J. A. Parkhill,  S. K. Paul,  F. Pavosevic,  Zheng Pei,  
 T. M. Perrine,  F. Plasser,  P. Pokhilko,  S. Prager,  A. Prociuk,  
 E. Ramos,  B. Rana,  D. R. Rehn,  F. Rob,  M. Scheurer,  M. Schneider,  
 N. Sergueev,  S. M. Sharada,  S. Sharma,  D. W. Small,  T. Stauch,  
 C. J. Stein,  T. Stein,  Yu-Chuan Su,  S. P. Veccham,  Zhen Tao,  
 A. J. W. Thom,  A. Tkatchenko,  T. Tsuchimochi,  N. M. Tubman,  L. Vogt,  
 M. L. Vidal,  O. Vydrov,  M. A. Watson,  J. Wenzel,  M. de Wergifosse,  
 T. A. Wesolowski,  A. White,  J. Witte,  A. Yamada,  Jun Yang,  K. Yao,  
 S. Yeganeh,  S. R. Yost,  Zhi-Qiang You,  A. Zech,  Igor Ying Zhang,  
 Xing Zhang,  Yan Zhao,  Ying Zhu,  B. R. Brooks,  G. K. L. Chan,  
 C. J. Cramer,  M. S. Gordon,  W. J. Hehre,  A. Klamt,  M. W. Schmidt,  
 C. D. Sherrill,  D. G. Truhlar,  A. Aspuru-Guzik,  R. Baer,  A. T. Bell,  
 N. A. Besley,  Jeng-Da Chai,  A. E. DePrince, III,  R. A. DiStasio Jr.,  
 A. Dreuw,  B. D. Dunietz,  T. R. Furlani,  Chao-Ping Hsu,  Yousung Jung,  
 Jing Kong,  D. S. Lambrecht,  WanZhen Liang,  C. Ochsenfeld,  
 V. A. Rassolov,  L. V. Slipchenko,  J. E. Subotnik,  T. Van Voorhis,  
 J. M. Herbert,  A. I. Krylov,  P. M. W. Gill,  M. Head-Gordon

 Contributors to earlier versions of Q-Chem not listed above: 
 R. D. Adamson,  B. Austin,  J. Baker,  G. J. O. Beran,  K. Brandhorst,  
 S. T. Brown,  E. F. C. Byrd,  A. K. Chakraborty,  C.-L. Cheng,  
 Siu Hung Chien,  D. M. Chipman,  D. L. Crittenden,  H. Dachsel,  
 R. J. Doerksen,  A. D. Dutoi,  L. Fusti-Molnar,  W. A. Goddard III,  
 A. Golubeva-Zadorozhnaya,  S. R. Gwaltney,  G. Hawkins,  A. Heyden,  
 S. Hirata,  G. Kedziora,  F. J. Keil,  C. Kelley,  Jihan Kim,  R. A. King,  
 R. Z. Khaliullin,  P. P. Korambath,  W. Kurlancheek,  A. M. Lee,  M. S. Lee,  
 S. V. Levchenko,  Ching Yeh Lin,  D. Liotard,  R. C. Lochan,  I. Lotan,  
 P. E. Maslen,  N. Nair,  D. P. O'Neill,  D. Neuhauser,  E. Neuscamman,  
 C. M. Oana,  R. Olson,  B. Peters,  R. Peverati,  P. A. Pieniazek,  
 Y. M. Rhee,  J. Ritchie,  M. A. Rohrdanz,  E. Rosta,  N. J. Russ,  
 H. F. Schaefer III,  N. E. Schultz,  N. Shenvi,  A. C. Simmonett,  A. Sodt,  
 D. Stuck,  K. S. Thanthiriwatte,  V. Vanovschi,  Tao Wang,  A. Warshel,  
 C. F. Williams,  Q. Wu,  X. Xu,  W. Zhang

 Please cite Q-Chem as follows:
 Y. Shao et al., Mol. Phys. 113, 184-215 (2015)
 DOI: 10.1080/00268976.2014.952696

 Q-Chem 5.3.0 for Intel X86 EM64T Linux

 Parts of Q-Chem use Armadillo 9.800.1 (Horizon Scraper).
 http://arma.sourceforge.net/

 Q-Chem begins on Sun Jul 12 21:55:10 2020  

Host: centos77-c2
0

     Scratch files written to /tmp/28905.centos77-h1/qchem7132//
Processing $rem in /opt/qchem-5.3.0-intel2020u1//config/preferences:
Processing $rem in /home/shihchengli/.qchemrc:

Checking the input file for inconsistencies... 	...done.

--------------------------------------------------------------
User input:
--------------------------------------------------------------
$rem
   JOBTYPE  sp
   EXCHANGE   omegaB97X-D
   BASIS   6-311+G(2df,2pd)
   UNRESTRICTED   True
   max_scf_cycles   250
   geom_opt_max_cycles   1500
   basis2 6-31G*
   scf_algorithm rca_diis
   SYM_IGNORE  TRUE
   print_input   true
   geom_opt_dmax   80
   pop_mulliken false
   XC_GRID 000075000302
$end

$molecule
0 2
N       -0.4577981833     0.6485799627     0.0000000000
O       0.5408477148     0.2966791914     0.0000000000
O       -1.4677395317     0.3302708459     0.0000000000
$end
--------------------------------------------------------------
 ----------------------------------------------------------------
             Standard Nuclear Orientation (Angstroms)
    I     Atom           X                Y                Z
 ----------------------------------------------------------------
    1      N      -0.4577981833     0.6485799627     0.0000000000
    2      O       0.5408477148     0.2966791914     0.0000000000
    3      O      -1.4677395317     0.3302708459     0.0000000000
 ----------------------------------------------------------------
 Nuclear Repulsion Energy =          72.83139577 hartrees
 There are       12 alpha and       11 beta electrons
 Requested basis set is 6-311+G(2df,2pd)
 There are 24 shells and 102 basis functions

 Total QAlloc Memory Limit   2000 MB
 Mega-Array Size       188 MB
 MEM_STATIC part       192 MB

                       Distance Matrix (Angstroms)
             N (  1)   O (  2)
   O (  2)  1.058833
   O (  3)  1.058916  2.008868
 
 A cutoff of  1.0D-09 yielded    297 shell pairs
 There are      5439 function pairs (      7191 Cartesian)
 Smallest overlap matrix eigenvalue = 8.56E-04

 Scale SEOQF with 1.000000e-01/1.000000e-01/1.000000e-01

 Standard Electronic Orientation quadrupole field applied
 Nucleus-field energy     =     0.0000000011 hartrees
 Requested basis set is 6-31G(d)
 There are 12 shells and 42 basis functions
 A cutoff of  1.0D-09 yielded     77 shell pairs
 There are       968 function pairs (      1115 Cartesian)
 Smallest overlap matrix eigenvalue = 4.69E-03
 Guess from superposition of atomic densities
 Warning:  Energy on first SCF cycle will be non-variational
 SAD guess density has 23.000000 electrons
 Long-range K will be added via erf
 Coulomb attenuation parameter = 0.2 bohr**(-1)
 An unrestricted hybrid HF-DFT SCF calculation will be
 performed using Relaxed Constraint Minimization + Pulay DIIS
 Exchange:     0.2220 Hartree-Fock + 1.0000 wB97X-D + LR-HF
 Correlation:  1.0000 wB97X-D
 Using Euler-Maclaurin-Lebedev (75,302) quadrature formula
 Dispersion:   Grimme D
 SCF converges when DIIS error is below 1.0E-04
 using 6 threads for integral computing
 -------------------------------------------------------
 OpenMP Integral computing Module                
 Release: version 1.0, May 2013, Q-Chem Inc. Pittsburgh 
 -------------------------------------------------------
 using 6 threads for integral computing
 -------------------------------------------------------
 OpenMP Integral computing Module                
 Release: version 1.0, May 2013, Q-Chem Inc. Pittsburgh 
 -------------------------------------------------------
 ---------------------------------------
  Cycle       Energy         DIIS Error
 ---------------------------------------
    1    -206.3141191850      1.77E-01
    2    -204.8366389253      2.14E-02
    3    -204.8711704204      3.06E-03
    4    -204.9103153386      6.78E-04 Done RCA. Switching to DIIS
    5    -204.9104340134      2.46E-04
    6    -204.9104490697      4.72E-05 Convergence criterion met
 ---------------------------------------
 <S^2> = 0.7521
 SCF time:  CPU 7.99 s  wall 2.03 s
 SCF   energy in the small basis set = -204.91044907
 Total energy in the small basis set = -204.91044907
 ----------------------------------------------------
  Cycle       Energy    
 ----------------------------------------------------
    1     -21.1583385600     -2.12E+01
 Long-range K will be added via erf
 Coulomb attenuation parameter = 0.2 bohr**(-1)
 An unrestricted hybrid HF-DFT SCF calculation will be
 performed using Relaxed Constraint Minimization + Pulay DIIS
 Exchange:     0.2220 Hartree-Fock + 1.0000 wB97X-D + LR-HF
 Correlation:  1.0000 wB97X-D
 Using Euler-Maclaurin-Lebedev (75,302) quadrature formula
 Dispersion:   Grimme D
 SCF converges when DIIS error is below 1.0E-05
 Basis2 calculation detected. Using small basis as guess for larger.
 SCFMinFind is unable to tell whether the solution found is close.
 Resetting ReadMinima to 0 and attempting to follow guess.
 SCFMinFind following SCF Guess.
 using 6 threads for integral computing
 -------------------------------------------------------
 OpenMP Integral computing Module                
 Release: version 1.0, May 2013, Q-Chem Inc. Pittsburgh 
 -------------------------------------------------------
 using 6 threads for integral computing
 -------------------------------------------------------
 OpenMP Integral computing Module                
 Release: version 1.0, May 2013, Q-Chem Inc. Pittsburgh 
 -------------------------------------------------------
 ---------------------------------------
  Cycle       Energy         DIIS Error
 ---------------------------------------
    1    -204.9784464429      1.13E-02
    2    -204.9956560402      4.17E-03
    3    -205.0015059903      5.90E-04 Done RCA. Switching to DIIS
    4    -205.0080217991      2.72E-04
    5    -205.0081200116      6.05E-05
    6    -205.0081400671      1.67E-05
    7    -205.0081430084      1.51E-05
    8    -205.0081434458      3.90E-06 Convergence criterion met
 ---------------------------------------
 <S^2> = 0.7524
 SCF time:  CPU 21.98 s  wall 4.83 s
 SCF   energy in the final basis set = -205.00814345
 Total energy in the final basis set = -205.00814345
 
 --------------------------------------------------------------
 
                    Orbital Energies (a.u.)
 --------------------------------------------------------------
 
 Alpha MOs
 -- Occupied --
-19.3437 -19.3437 -14.6675  -1.5081  -1.3529  -0.7683  -0.7470  -0.7302
 -0.6852  -0.4925  -0.4862  -0.2991
 -- Virtual --
  0.0654   0.0965   0.1342   0.1427   0.1429   0.2502   0.2536   0.2625
  0.2899   0.3148   0.3263   0.3620   0.4364   0.5222   0.7359   0.7471
  0.7475   0.8504   0.9173   0.9420   0.9848   1.0188   1.0544   1.0676
  1.1481   1.1553   1.1763   1.2504   1.4668   1.5290   1.5434   1.6369
  1.7236   1.7385   1.8173   2.0786   2.1980   2.4035   2.4843   2.5783
  2.6162   2.8320   3.4741   3.4781   3.6147   3.6794   3.6830   3.8592
  4.0113   4.1503   4.3074   4.3379   4.3626   4.5049   4.5674   4.7605
  4.9843   5.0146   5.0165   5.0659   5.1043   5.1364   5.1575   5.1899
  5.3723   5.5276   5.7051   5.8313   5.8515   5.9464   6.0856   6.7212
  6.7346   6.7588   6.8168   6.8945   6.9950   7.0860   7.1043   7.3412
  7.4365   7.4489   7.9000   7.9819   7.9950   8.1951   9.2557  36.6495
 50.4195  50.8164
 
 Beta MOs
 -- Occupied --
-19.3365 -19.3364 -14.6575  -1.4897  -1.3335  -0.7348  -0.7181  -0.7042
 -0.6677  -0.4794  -0.4514
 -- Virtual --
 -0.0008   0.0827   0.1223   0.1431   0.1612   0.1681   0.2581   0.2622
  0.2680   0.3096   0.3282   0.3351   0.3796   0.4419   0.5343   0.7599
  0.7626   0.7665   0.8582   0.9350   0.9552   0.9941   1.0247   1.0703
  1.0804   1.1579   1.1614   1.1954   1.2543   1.4756   1.5336   1.5494
  1.6455   1.7438   1.7560   1.8269   2.0934   2.2011   2.4193   2.4927
  2.5901   2.6243   2.8526   3.4969   3.5008   3.6217   3.6952   3.7180
  3.8692   4.0289   4.1596   4.3245   4.3446   4.3930   4.5473   4.6021
  4.7749   5.0131   5.0273   5.0287   5.0723   5.1204   5.1504   5.1750
  5.1955   5.3901   5.5548   5.7131   5.8455   5.8711   5.9613   6.0957
  6.7416   6.7538   6.7822   6.8394   6.9197   7.0187   7.0910   7.1145
  7.3506   7.4541   7.4566   7.9134   7.9986   8.0098   8.2120   9.2794
 36.6602  50.4260  50.8230
 --------------------------------------------------------------
 
 -----------------------------------------------------------------
                    Cartesian Multipole Moments
 -----------------------------------------------------------------
    Charge (ESU x 10^10)
                 0.0000
    Dipole Moment (Debye)
         X       0.0060      Y       0.3220      Z       0.0000
       Tot       0.3221
    Quadrupole Moments (Debye-Ang)
        XX     -17.8042     XY      -0.1084     YY     -15.2739
        XZ       0.0000     YZ       0.0000     ZZ     -14.3813
    Octopole Moments (Debye-Ang^2)
       XXX      24.6679    XXY      -7.1921    XYY       7.0744
       YYY     -19.5062    XXZ      -0.0000    XYZ      -0.0000
       YYZ       0.0000    XZZ       6.6401    YZZ      -6.0082
       ZZZ       0.0000
    Hexadecapole Moments (Debye-Ang^3)
      XXXX    -100.2952   XXXY      10.5233   XXYY     -21.6957
      XYYY       9.5203   YYYY     -32.6719   XXXZ       0.0000
      XXYZ       0.0000   XYYZ       0.0000   YYYZ       0.0000
      XXZZ     -17.3966   XYZZ       2.9389   YYZZ      -6.9857
      XZZZ      -0.0000   YZZZ       0.0000   ZZZZ     -11.1144
 -----------------------------------------------------------------
Archival summary:
1\1\centos77-c2\SP\ProcedureUnspecified\BasisUnspecified\21(2)\shihchen\SunJul1221:55:172020SunJul1221:55:172020\0\\#,ProcedureUnspecified,BasisUnspecified,\\0,2\N\O,1,1.05883\O,1,1.05892,2,143.095\\\@

 Total job time:  7.72s(wall), 32.86s(cpu) 
 Sun Jul 12 21:55:17 2020

        *************************************************************
        *                                                           *
        *  Thank you very much for using Q-Chem.  Have a nice day.  *
        *                                                           *
        *************************************************************


