                  Welcome to Q-Chem
     A Quantum Leap Into The Future Of Chemistry


 Q-Chem 5.3 (devel), Q-Chem, Inc., Pleasanton, CA (2020)

 Yihan Shao,  Zhengting Gan,  E. Epifanovsky,  A. T. B. Gilbert,  M. Wormit,  
 J. Kussmann,  A. W. Lange,  A. Behn,  Jia Deng,  Xintian Feng,  D. Ghosh,  
 M. Goldey,  P. R. Horn,  L. D. Jacobson,  I. Kaliman,  T. Kus,  A. Landau,  
 Jie Liu,  E. I. Proynov,  R. M. Richard,  R. P. Steele,  E. J. Sundstrom,  
 H. L. Woodcock III,  P. M. Zimmerman,  D. Zuev,  B. Alam,  B. Albrecht,  
 E. Alguire,  S. A. Baeppler,  D. Barton,  Z. Benda,  Y. A. Bernard,  
 E. J. Berquist,  K. B. Bravaya,  H. Burton,  K. Carter-Fenk,  D. Casanova,  
 Chun-Min Chang,  Yunqing Chen,  A. Chien,  K. D. Closser,  M. P. Coons,  
 S. Coriani,  S. Dasgupta,  A. L. Dempwolff,  M. Diedenhofen,  Hainam Do,  
 R. G. Edgar,  Po-Tung Fang,  S. Faraji,  S. Fatehi,  Qingguo Feng,  
 J. Fosso-Tande,  J. Gayvert,  Qinghui Ge,  A. Ghysels,  G. Gidofalvi,  
 J. Gomes,  J. Gonthier,  A. Gunina,  D. Hait,  M. W. D. Hanson-Heine,  
 P. H. P. Harbach,  A. W. Hauser,  M. F. Herbst,  J. E. Herr,  
 E. G. Hohenstein,  Z. C. Holden,  Kerwin Hui,  B. C. Huynh,  T.-C. Jagau,  
 Hyunjun Ji,  B. Kaduk,  K. Khistyaev,  Jaehoon Kim,  P. Klunzinger,  K. Koh,  
 D. Kosenkov,  L. Koulias,  T. Kowalczyk,  C. M. Krauter,  A. Kunitsa,  
 Ka Un Lao,  A. Laurent,  K. V. Lawler,  Joonho Lee,  D. Lefrancois,  
 S. Lehtola,  D. S. Levine,  Yi-Pei Li,  You-Sheng Lin,  Fenglai Liu,  
 Kuan-Yu Liu,  E. Livshits,  M. Loipersberger,  A. Luenser,  P. Manohar,  
 E. Mansoor,  S. F. Manzer,  Shan-Ping Mao,  Yuezhi Mao,  N. Mardirossian,  
 A. V. Marenich,  T. Markovich,  L. A. Martinez-Martinez,  S. A. Maurer,  
 N. J. Mayhall,  S. C. McKenzie,  J.-M. Mewes,  P. Morgante,  A. F. Morrison,  
 J. W. Mullinax,  K. Nanda,  T. S. Nguyen-Beck,  R. Olivares-Amaya,  
 K. J. Oosterbaan,  J. A. Parkhill,  S. K. Paul,  F. Pavosevic,  Zheng Pei,  
 T. M. Perrine,  F. Plasser,  P. Pokhilko,  S. Prager,  A. Prociuk,  
 E. Ramos,  B. Rana,  D. R. Rehn,  F. Rob,  M. Scheurer,  M. Schneider,  
 N. Sergueev,  S. M. Sharada,  S. Sharma,  D. W. Small,  T. Stauch,  
 C. J. Stein,  T. Stein,  Yu-Chuan Su,  S. P. Veccham,  Zhen Tao,  
 A. J. W. Thom,  A. Tkatchenko,  T. Tsuchimochi,  N. M. Tubman,  L. Vogt,  
 M. L. Vidal,  O. Vydrov,  M. A. Watson,  J. Wenzel,  M. de Wergifosse,  
 T. A. Wesolowski,  A. White,  J. Witte,  A. Yamada,  Jun Yang,  K. Yao,  
 S. Yeganeh,  S. R. Yost,  Zhi-Qiang You,  A. Zech,  Igor Ying Zhang,  
 Xing Zhang,  Yan Zhao,  Ying Zhu,  B. R. Brooks,  G. K. L. Chan,  
 C. J. Cramer,  M. S. Gordon,  W. J. Hehre,  A. Klamt,  M. W. Schmidt,  
 C. D. Sherrill,  D. G. Truhlar,  A. Aspuru-Guzik,  R. Baer,  A. T. Bell,  
 N. A. Besley,  Jeng-Da Chai,  A. E. DePrince, III,  R. A. DiStasio Jr.,  
 A. Dreuw,  B. D. Dunietz,  T. R. Furlani,  Chao-Ping Hsu,  Yousung Jung,  
 Jing Kong,  D. S. Lambrecht,  WanZhen Liang,  C. Ochsenfeld,  
 V. A. Rassolov,  L. V. Slipchenko,  J. E. Subotnik,  T. Van Voorhis,  
 J. M. Herbert,  A. I. Krylov,  P. M. W. Gill,  M. Head-Gordon

 Contributors to earlier versions of Q-Chem not listed above: 
 R. D. Adamson,  B. Austin,  J. Baker,  G. J. O. Beran,  K. Brandhorst,  
 S. T. Brown,  E. F. C. Byrd,  A. K. Chakraborty,  C.-L. Cheng,  
 Siu Hung Chien,  D. M. Chipman,  D. L. Crittenden,  H. Dachsel,  
 R. J. Doerksen,  A. D. Dutoi,  L. Fusti-Molnar,  W. A. Goddard III,  
 A. Golubeva-Zadorozhnaya,  S. R. Gwaltney,  G. Hawkins,  A. Heyden,  
 S. Hirata,  G. Kedziora,  F. J. Keil,  C. Kelley,  Jihan Kim,  R. A. King,  
 R. Z. Khaliullin,  P. P. Korambath,  W. Kurlancheek,  A. M. Lee,  M. S. Lee,  
 S. V. Levchenko,  Ching Yeh Lin,  D. Liotard,  R. C. Lochan,  I. Lotan,  
 P. E. Maslen,  N. Nair,  D. P. O'Neill,  D. Neuhauser,  E. Neuscamman,  
 C. M. Oana,  R. Olson,  B. Peters,  R. Peverati,  P. A. Pieniazek,  
 Y. M. Rhee,  J. Ritchie,  M. A. Rohrdanz,  E. Rosta,  N. J. Russ,  
 H. F. Schaefer III,  N. E. Schultz,  N. Shenvi,  A. C. Simmonett,  A. Sodt,  
 D. Stuck,  K. S. Thanthiriwatte,  V. Vanovschi,  Tao Wang,  A. Warshel,  
 C. F. Williams,  Q. Wu,  X. Xu,  W. Zhang

 Please cite Q-Chem as follows:
 Y. Shao et al., Mol. Phys. 113, 184-215 (2015)
 DOI: 10.1080/00268976.2014.952696

 Q-Chem 5.3.0 for Intel X86 EM64T Linux

 Parts of Q-Chem use Armadillo 9.800.1 (Horizon Scraper).
 http://arma.sourceforge.net/

 Q-Chem begins on Sun Jul 12 21:54:34 2020  

Host: centos77-c2
0

     Scratch files written to /tmp/28905.centos77-h1/qchem6926//
Processing $rem in /opt/qchem-5.3.0-intel2020u1//config/preferences:
Processing $rem in /home/shihchengli/.qchemrc:

Checking the input file for inconsistencies... 	...done.

--------------------------------------------------------------
User input:
--------------------------------------------------------------
$rem
   JOBTYPE  sp
   EXCHANGE   omegaB97X-D
   BASIS   6-311+G(2df,2pd)
   UNRESTRICTED   True
   max_scf_cycles   250
   geom_opt_max_cycles   1500
   basis2 6-31G*
   scf_algorithm rca_diis
   SYM_IGNORE  TRUE
   print_input   true
   geom_opt_dmax   80
   pop_mulliken false
   XC_GRID 000075000302
$end

$molecule
0 2
N       -0.4549630603     0.8208376114     0.0000000000
O       0.7012709985     0.2078326476     0.0000000000
O       -1.6309979382     0.2468597410     0.0000000000
$end
--------------------------------------------------------------
 ----------------------------------------------------------------
             Standard Nuclear Orientation (Angstroms)
    I     Atom           X                Y                Z
 ----------------------------------------------------------------
    1      N      -0.4549630603     0.8208376114     0.0000000000
    2      O       0.7012709985     0.2078326476     0.0000000000
    3      O      -1.6309979382     0.2468597410     0.0000000000
 ----------------------------------------------------------------
 Nuclear Repulsion Energy =          59.80821069 hartrees
 There are       12 alpha and       11 beta electrons
 Requested basis set is 6-311+G(2df,2pd)
 There are 24 shells and 102 basis functions

 Total QAlloc Memory Limit   2000 MB
 Mega-Array Size       188 MB
 MEM_STATIC part       192 MB

                       Distance Matrix (Angstroms)
             N (  1)   O (  2)
   O (  2)  1.308683
   O (  3)  1.308629  2.332595
 
 A cutoff of  1.0D-09 yielded    291 shell pairs
 There are      5348 function pairs (      7079 Cartesian)
 Smallest overlap matrix eigenvalue = 2.14E-03

 Scale SEOQF with 1.000000e-01/1.000000e-01/1.000000e-01

 Standard Electronic Orientation quadrupole field applied
 Nucleus-field energy     =     0.0000000013 hartrees
 Requested basis set is 6-31G(d)
 There are 12 shells and 42 basis functions
 A cutoff of  1.0D-09 yielded     77 shell pairs
 There are       968 function pairs (      1115 Cartesian)
 Smallest overlap matrix eigenvalue = 1.02E-02
 Guess from superposition of atomic densities
 Warning:  Energy on first SCF cycle will be non-variational
 SAD guess density has 23.000000 electrons
 Long-range K will be added via erf
 Coulomb attenuation parameter = 0.2 bohr**(-1)
 An unrestricted hybrid HF-DFT SCF calculation will be
 performed using Relaxed Constraint Minimization + Pulay DIIS
 Exchange:     0.2220 Hartree-Fock + 1.0000 wB97X-D + LR-HF
 Correlation:  1.0000 wB97X-D
 Using Euler-Maclaurin-Lebedev (75,302) quadrature formula
 Dispersion:   Grimme D
 SCF converges when DIIS error is below 1.0E-04
 using 6 threads for integral computing
 -------------------------------------------------------
 OpenMP Integral computing Module                
 Release: version 1.0, May 2013, Q-Chem Inc. Pittsburgh 
 -------------------------------------------------------
 using 6 threads for integral computing
 -------------------------------------------------------
 OpenMP Integral computing Module                
 Release: version 1.0, May 2013, Q-Chem Inc. Pittsburgh 
 -------------------------------------------------------
 ---------------------------------------
  Cycle       Energy         DIIS Error
 ---------------------------------------
    1    -205.0391571350      9.81E-02
    2    -204.8050810719      2.85E-02
    3    -204.8663047751      7.03E-03
    4    -204.9496739437      7.21E-03
    5    -204.9555825888      6.91E-04 Done RCA. Switching to DIIS
    6    -204.9659740070      7.09E-04
    7    -204.9660858858      8.77E-05 Convergence criterion met
 ---------------------------------------
 <S^2> = 0.7566
 SCF time:  CPU 5.23 s  wall 0.95 s
 SCF   energy in the small basis set = -204.96608589
 Total energy in the small basis set = -204.96608589
 ----------------------------------------------------
  Cycle       Energy    
 ----------------------------------------------------
    1     -20.6889263843     -2.07E+01
 Long-range K will be added via erf
 Coulomb attenuation parameter = 0.2 bohr**(-1)
 An unrestricted hybrid HF-DFT SCF calculation will be
 performed using Relaxed Constraint Minimization + Pulay DIIS
 Exchange:     0.2220 Hartree-Fock + 1.0000 wB97X-D + LR-HF
 Correlation:  1.0000 wB97X-D
 Using Euler-Maclaurin-Lebedev (75,302) quadrature formula
 Dispersion:   Grimme D
 SCF converges when DIIS error is below 1.0E-05
 Basis2 calculation detected. Using small basis as guess for larger.
 SCFMinFind is unable to tell whether the solution found is close.
 Resetting ReadMinima to 0 and attempting to follow guess.
 SCFMinFind following SCF Guess.
 using 6 threads for integral computing
 -------------------------------------------------------
 OpenMP Integral computing Module                
 Release: version 1.0, May 2013, Q-Chem Inc. Pittsburgh 
 -------------------------------------------------------
 using 6 threads for integral computing
 -------------------------------------------------------
 OpenMP Integral computing Module                
 Release: version 1.0, May 2013, Q-Chem Inc. Pittsburgh 
 -------------------------------------------------------
 ---------------------------------------
  Cycle       Energy         DIIS Error
 ---------------------------------------
    1    -205.0064563517      1.15E-02
    2    -204.9898998506      7.59E-03
    3    -205.0095416072      1.94E-03
    4    -205.0345739606      1.33E-03
    5    -205.0371277151      7.62E-04 Done RCA. Switching to DIIS
    6    -205.0390883938      1.37E-03
    7    -205.0408445906      1.03E-05
    8    -205.0408455208      2.43E-06 Convergence criterion met
 ---------------------------------------
 <S^2> = 0.7575
 SCF time:  CPU 17.89 s  wall 3.63 s
 SCF   energy in the final basis set = -205.04084552
 Total energy in the final basis set = -205.04084552
 
 --------------------------------------------------------------
 
                    Orbital Energies (a.u.)
 --------------------------------------------------------------
 
 Alpha MOs
 -- Occupied --
-19.3851 -19.3851 -14.7053  -1.3229  -1.1885  -0.8150  -0.6626  -0.6403
 -0.6232  -0.4746  -0.4651  -0.4299
 -- Virtual --
 -0.0754   0.1000   0.1365   0.1468   0.1602   0.1857   0.2418   0.2618
  0.2637   0.2779   0.2835   0.3171   0.3283   0.3734   0.4308   0.7606
  0.7805   0.7984   0.9170   0.9833   1.0145   1.0325   1.0411   1.0461
  1.0887   1.1227   1.1261   1.1321   1.4508   1.5003   1.5172   1.5622
  1.5636   1.5703   1.6838   1.7719   1.9952   2.0485   2.1482   2.3479
  2.3760   2.4444   3.4906   3.5194   3.6700   3.6816   3.6884   3.7501
  3.8208   3.9205   4.1531   4.2529   4.6120   4.6527   4.7169   4.7529
  4.7971   4.9877   5.0228   5.0254   5.0358   5.0525   5.0614   5.0625
  5.0766   5.1690   5.2595   5.3606   5.3796   5.5244   5.6477   5.7337
  6.0636   6.2182   6.5811   6.6350   6.7273   6.7614   6.7639   6.7941
  7.0534   7.1318   7.1321   7.2628   7.2926   7.5628   7.8028  35.6621
 49.9576  50.0182
 
 Beta MOs
 -- Occupied --
-19.3762 -19.3762 -14.6973  -1.3024  -1.1629  -0.7783  -0.6318  -0.6125
 -0.5975  -0.4551  -0.4267
 -- Virtual --
 -0.1333  -0.0598   0.1079   0.1392   0.1516   0.1627   0.2003   0.2442
  0.2648   0.2685   0.2832   0.2867   0.3231   0.3594   0.3777   0.4320
  0.7781   0.7860   0.7992   0.9300   0.9948   1.0226   1.0498   1.0521
  1.0529   1.0931   1.1277   1.1388   1.1487   1.4634   1.5162   1.5246
  1.5743   1.5780   1.5804   1.6917   1.7855   1.9989   2.0686   2.1584
  2.3572   2.3870   2.4649   3.5104   3.5377   3.6767   3.6890   3.6988
  3.7822   3.8289   3.9380   4.1665   4.2688   4.6296   4.6735   4.7476
  4.7845   4.8083   5.0118   5.0308   5.0460   5.0528   5.0686   5.0745
  5.0826   5.1102   5.1860   5.2777   5.3717   5.3997   5.5459   5.6624
  5.7574   6.0738   6.2330   6.5951   6.6677   6.7524   6.7914   6.7923
  6.8122   7.0851   7.1432   7.1492   7.2844   7.3248   7.5833   7.8211
 35.6716  49.9663  50.0270
 --------------------------------------------------------------
 
 -----------------------------------------------------------------
                    Cartesian Multipole Moments
 -----------------------------------------------------------------
    Charge (ESU x 10^10)
                 0.0000
    Dipole Moment (Debye)
         X       0.0072      Y       0.4060      Z       0.0000
       Tot       0.4060
    Quadrupole Moments (Debye-Ang)
        XX     -17.9550     XY      -0.1464     YY     -15.3263
        XZ      -0.0000     YZ       0.0000     ZZ     -15.3039
    Octopole Moments (Debye-Ang^2)
       XXX      24.8233    XXY      -8.2723    XYY       7.1282
       YYY     -19.9135    XXZ       0.0000    XYZ      -0.0000
       YYZ       0.0000    XZZ       7.0650    YZZ      -6.4161
       ZZZ      -0.0000
    Hexadecapole Moments (Debye-Ang^3)
      XXXX    -123.5279   XXXY      12.2006   XXYY     -26.6152
      XYYY       9.8811   YYYY     -37.1501   XXXZ      -0.0000
      XXYZ       0.0000   XYYZ      -0.0000   YYYZ       0.0000
      XXZZ     -21.9489   XYZZ       3.1872   YYZZ      -7.9266
      XZZZ      -0.0000   YZZZ      -0.0000   ZZZZ     -11.9515
 -----------------------------------------------------------------
Archival summary:
1\1\centos77-c2\SP\ProcedureUnspecified\BasisUnspecified\21(2)\shihchen\SunJul1221:54:402020SunJul1221:54:402020\0\\#,ProcedureUnspecified,BasisUnspecified,\\0,2\N\O,1,1.30863\O,1,1.30868,2,126.053\\\@

 Total job time:  5.64s(wall), 25.65s(cpu) 
 Sun Jul 12 21:54:40 2020

        *************************************************************
        *                                                           *
        *  Thank you very much for using Q-Chem.  Have a nice day.  *
        *                                                           *
        *************************************************************


