                  Welcome to Q-Chem
     A Quantum Leap Into The Future Of Chemistry


 Q-Chem 5.3 (devel), Q-Chem, Inc., Pleasanton, CA (2020)

 Yihan Shao,  Zhengting Gan,  E. Epifanovsky,  A. T. B. Gilbert,  M. Wormit,  
 J. Kussmann,  A. W. Lange,  A. Behn,  Jia Deng,  Xintian Feng,  D. Ghosh,  
 M. Goldey,  P. R. Horn,  L. D. Jacobson,  I. Kaliman,  T. Kus,  A. Landau,  
 Jie Liu,  E. I. Proynov,  R. M. Richard,  R. P. Steele,  E. J. Sundstrom,  
 H. L. Woodcock III,  P. M. Zimmerman,  D. Zuev,  B. Alam,  B. Albrecht,  
 E. Alguire,  S. A. Baeppler,  D. Barton,  Z. Benda,  Y. A. Bernard,  
 E. J. Berquist,  K. B. Bravaya,  H. Burton,  K. Carter-Fenk,  D. Casanova,  
 Chun-Min Chang,  Yunqing Chen,  A. Chien,  K. D. Closser,  M. P. Coons,  
 S. Coriani,  S. Dasgupta,  A. L. Dempwolff,  M. Diedenhofen,  Hainam Do,  
 R. G. Edgar,  Po-Tung Fang,  S. Faraji,  S. Fatehi,  Qingguo Feng,  
 J. Fosso-Tande,  J. Gayvert,  Qinghui Ge,  A. Ghysels,  G. Gidofalvi,  
 J. Gomes,  J. Gonthier,  A. Gunina,  D. Hait,  M. W. D. Hanson-Heine,  
 P. H. P. Harbach,  A. W. Hauser,  M. F. Herbst,  J. E. Herr,  
 E. G. Hohenstein,  Z. C. Holden,  Kerwin Hui,  B. C. Huynh,  T.-C. Jagau,  
 Hyunjun Ji,  B. Kaduk,  K. Khistyaev,  Jaehoon Kim,  P. Klunzinger,  K. Koh,  
 D. Kosenkov,  L. Koulias,  T. Kowalczyk,  C. M. Krauter,  A. Kunitsa,  
 Ka Un Lao,  A. Laurent,  K. V. Lawler,  Joonho Lee,  D. Lefrancois,  
 S. Lehtola,  D. S. Levine,  Yi-Pei Li,  You-Sheng Lin,  Fenglai Liu,  
 Kuan-Yu Liu,  E. Livshits,  M. Loipersberger,  A. Luenser,  P. Manohar,  
 E. Mansoor,  S. F. Manzer,  Shan-Ping Mao,  Yuezhi Mao,  N. Mardirossian,  
 A. V. Marenich,  T. Markovich,  L. A. Martinez-Martinez,  S. A. Maurer,  
 N. J. Mayhall,  S. C. McKenzie,  J.-M. Mewes,  P. Morgante,  A. F. Morrison,  
 J. W. Mullinax,  K. Nanda,  T. S. Nguyen-Beck,  R. Olivares-Amaya,  
 K. J. Oosterbaan,  J. A. Parkhill,  S. K. Paul,  F. Pavosevic,  Zheng Pei,  
 T. M. Perrine,  F. Plasser,  P. Pokhilko,  S. Prager,  A. Prociuk,  
 E. Ramos,  B. Rana,  D. R. Rehn,  F. Rob,  M. Scheurer,  M. Schneider,  
 N. Sergueev,  S. M. Sharada,  S. Sharma,  D. W. Small,  T. Stauch,  
 C. J. Stein,  T. Stein,  Yu-Chuan Su,  S. P. Veccham,  Zhen Tao,  
 A. J. W. Thom,  A. Tkatchenko,  T. Tsuchimochi,  N. M. Tubman,  L. Vogt,  
 M. L. Vidal,  O. Vydrov,  M. A. Watson,  J. Wenzel,  M. de Wergifosse,  
 T. A. Wesolowski,  A. White,  J. Witte,  A. Yamada,  Jun Yang,  K. Yao,  
 S. Yeganeh,  S. R. Yost,  Zhi-Qiang You,  A. Zech,  Igor Ying Zhang,  
 Xing Zhang,  Yan Zhao,  Ying Zhu,  B. R. Brooks,  G. K. L. Chan,  
 C. J. Cramer,  M. S. Gordon,  W. J. Hehre,  A. Klamt,  M. W. Schmidt,  
 C. D. Sherrill,  D. G. Truhlar,  A. Aspuru-Guzik,  R. Baer,  A. T. Bell,  
 N. A. Besley,  Jeng-Da Chai,  A. E. DePrince, III,  R. A. DiStasio Jr.,  
 A. Dreuw,  B. D. Dunietz,  T. R. Furlani,  Chao-Ping Hsu,  Yousung Jung,  
 Jing Kong,  D. S. Lambrecht,  WanZhen Liang,  C. Ochsenfeld,  
 V. A. Rassolov,  L. V. Slipchenko,  J. E. Subotnik,  T. Van Voorhis,  
 J. M. Herbert,  A. I. Krylov,  P. M. W. Gill,  M. Head-Gordon

 Contributors to earlier versions of Q-Chem not listed above: 
 R. D. Adamson,  B. Austin,  J. Baker,  G. J. O. Beran,  K. Brandhorst,  
 S. T. Brown,  E. F. C. Byrd,  A. K. Chakraborty,  C.-L. Cheng,  
 Siu Hung Chien,  D. M. Chipman,  D. L. Crittenden,  H. Dachsel,  
 R. J. Doerksen,  A. D. Dutoi,  L. Fusti-Molnar,  W. A. Goddard III,  
 A. Golubeva-Zadorozhnaya,  S. R. Gwaltney,  G. Hawkins,  A. Heyden,  
 S. Hirata,  G. Kedziora,  F. J. Keil,  C. Kelley,  Jihan Kim,  R. A. King,  
 R. Z. Khaliullin,  P. P. Korambath,  W. Kurlancheek,  A. M. Lee,  M. S. Lee,  
 S. V. Levchenko,  Ching Yeh Lin,  D. Liotard,  R. C. Lochan,  I. Lotan,  
 P. E. Maslen,  N. Nair,  D. P. O'Neill,  D. Neuhauser,  E. Neuscamman,  
 C. M. Oana,  R. Olson,  B. Peters,  R. Peverati,  P. A. Pieniazek,  
 Y. M. Rhee,  J. Ritchie,  M. A. Rohrdanz,  E. Rosta,  N. J. Russ,  
 H. F. Schaefer III,  N. E. Schultz,  N. Shenvi,  A. C. Simmonett,  A. Sodt,  
 D. Stuck,  K. S. Thanthiriwatte,  V. Vanovschi,  Tao Wang,  A. Warshel,  
 C. F. Williams,  Q. Wu,  X. Xu,  W. Zhang

 Please cite Q-Chem as follows:
 Y. Shao et al., Mol. Phys. 113, 184-215 (2015)
 DOI: 10.1080/00268976.2014.952696

 Q-Chem 5.3.0 for Intel X86 EM64T Linux

 Parts of Q-Chem use Armadillo 9.800.1 (Horizon Scraper).
 http://arma.sourceforge.net/

 Q-Chem begins on Sun Jul 12 21:53:18 2020  

Host: centos77-c2
0

     Scratch files written to /tmp/28905.centos77-h1/qchem6454//
Processing $rem in /opt/qchem-5.3.0-intel2020u1//config/preferences:
Processing $rem in /home/shihchengli/.qchemrc:

Checking the input file for inconsistencies... 	...done.

--------------------------------------------------------------
User input:
--------------------------------------------------------------
$rem
   JOBTYPE  sp
   EXCHANGE   omegaB97X-D
   BASIS   6-311+G(2df,2pd)
   UNRESTRICTED   True
   max_scf_cycles   250
   geom_opt_max_cycles   1500
   basis2 6-31G*
   scf_algorithm rca_diis
   SYM_IGNORE  TRUE
   print_input   true
   geom_opt_dmax   80
   pop_mulliken false
   XC_GRID 000075000302
$end

$molecule
0 2
N       -0.4576191636     0.6615909352     0.0000000000
O       0.6721248883     0.2879679630     0.0000000000
O       -1.5991957248     0.3259711018     0.0000000000
$end
--------------------------------------------------------------
 ----------------------------------------------------------------
             Standard Nuclear Orientation (Angstroms)
    I     Atom           X                Y                Z
 ----------------------------------------------------------------
    1      N      -0.4576191636     0.6615909352     0.0000000000
    2      O       0.6721248883     0.2879679630     0.0000000000
    3      O      -1.5991957248     0.3259711018     0.0000000000
 ----------------------------------------------------------------
 Nuclear Repulsion Energy =          64.71756836 hartrees
 There are       12 alpha and       11 beta electrons
 Requested basis set is 6-311+G(2df,2pd)
 There are 24 shells and 102 basis functions

 Total QAlloc Memory Limit   2000 MB
 Mega-Array Size       188 MB
 MEM_STATIC part       192 MB

                       Distance Matrix (Angstroms)
             N (  1)   O (  2)
   O (  2)  1.189923
   O (  3)  1.189890  2.271639
 
 A cutoff of  1.0D-09 yielded    292 shell pairs
 There are      5373 function pairs (      7115 Cartesian)
 Smallest overlap matrix eigenvalue = 1.38E-03

 Scale SEOQF with 1.000000e-01/1.000000e-01/1.000000e-01

 Standard Electronic Orientation quadrupole field applied
 Nucleus-field energy     =     0.0000000012 hartrees
 Requested basis set is 6-31G(d)
 There are 12 shells and 42 basis functions
 A cutoff of  1.0D-09 yielded     77 shell pairs
 There are       968 function pairs (      1115 Cartesian)
 Smallest overlap matrix eigenvalue = 7.52E-03
 Guess from superposition of atomic densities
 Warning:  Energy on first SCF cycle will be non-variational
 SAD guess density has 23.000000 electrons
 Long-range K will be added via erf
 Coulomb attenuation parameter = 0.2 bohr**(-1)
 An unrestricted hybrid HF-DFT SCF calculation will be
 performed using Relaxed Constraint Minimization + Pulay DIIS
 Exchange:     0.2220 Hartree-Fock + 1.0000 wB97X-D + LR-HF
 Correlation:  1.0000 wB97X-D
 Using Euler-Maclaurin-Lebedev (75,302) quadrature formula
 Dispersion:   Grimme D
 SCF converges when DIIS error is below 1.0E-04
 using 6 threads for integral computing
 -------------------------------------------------------
 OpenMP Integral computing Module                
 Release: version 1.0, May 2013, Q-Chem Inc. Pittsburgh 
 -------------------------------------------------------
 using 6 threads for integral computing
 -------------------------------------------------------
 OpenMP Integral computing Module                
 Release: version 1.0, May 2013, Q-Chem Inc. Pittsburgh 
 -------------------------------------------------------
 ---------------------------------------
  Cycle       Energy         DIIS Error
 ---------------------------------------
    1    -205.5502253243      1.29E-01
    2    -204.8874254208      2.44E-02
    3    -204.9313644721      4.80E-03
    4    -204.9909018543      3.86E-03
    5    -204.9919748285      7.36E-04 Done RCA. Switching to DIIS
    6    -204.9934220605      5.10E-04
    7    -204.9934756586      5.00E-05 Convergence criterion met
 ---------------------------------------
 <S^2> = 0.7533
 SCF time:  CPU 5.06 s  wall 0.89 s
 SCF   energy in the small basis set = -204.99347566
 Total energy in the small basis set = -204.99347566
 ----------------------------------------------------
  Cycle       Energy    
 ----------------------------------------------------
    1     -20.8704485920     -2.09E+01
 Long-range K will be added via erf
 Coulomb attenuation parameter = 0.2 bohr**(-1)
 An unrestricted hybrid HF-DFT SCF calculation will be
 performed using Relaxed Constraint Minimization + Pulay DIIS
 Exchange:     0.2220 Hartree-Fock + 1.0000 wB97X-D + LR-HF
 Correlation:  1.0000 wB97X-D
 Using Euler-Maclaurin-Lebedev (75,302) quadrature formula
 Dispersion:   Grimme D
 SCF converges when DIIS error is below 1.0E-05
 Basis2 calculation detected. Using small basis as guess for larger.
 SCFMinFind is unable to tell whether the solution found is close.
 Resetting ReadMinima to 0 and attempting to follow guess.
 SCFMinFind following SCF Guess.
 using 6 threads for integral computing
 -------------------------------------------------------
 OpenMP Integral computing Module                
 Release: version 1.0, May 2013, Q-Chem Inc. Pittsburgh 
 -------------------------------------------------------
 using 6 threads for integral computing
 -------------------------------------------------------
 OpenMP Integral computing Module                
 Release: version 1.0, May 2013, Q-Chem Inc. Pittsburgh 
 -------------------------------------------------------
 ---------------------------------------
  Cycle       Energy         DIIS Error
 ---------------------------------------
    1    -205.0429606851      1.13E-02
    2    -205.0483553022      5.62E-03
    3    -205.0588328431      1.16E-03
    4    -205.0724261774      1.13E-03
    5    -205.0728765939      2.13E-04 Done RCA. Switching to DIIS
    6    -205.0734809908      2.06E-04
    7    -205.0735174176      1.30E-05
    8    -205.0735179702      9.56E-06 Convergence criterion met
 ---------------------------------------
 <S^2> = 0.7538
 SCF time:  CPU 19.96 s  wall 3.99 s
 SCF   energy in the final basis set = -205.07351797
 Total energy in the final basis set = -205.07351797
 
 --------------------------------------------------------------
 
                    Orbital Energies (a.u.)
 --------------------------------------------------------------
 
 Alpha MOs
 -- Occupied --
-19.3718 -19.3717 -14.6896  -1.3968  -1.2646  -0.7799  -0.6854  -0.6769
 -0.6736  -0.4914  -0.4762  -0.3509
 -- Virtual --
 -0.0169   0.0903   0.1365   0.1524   0.1532   0.2276   0.2523   0.2623
  0.2662   0.3074   0.3077   0.3180   0.3903   0.4368   0.5706   0.7633
  0.7699   0.8377   0.9120   0.9448   1.0095   1.0250   1.0497   1.0813
  1.0942   1.1348   1.1485   1.1521   1.4373   1.4946   1.5162   1.5725
  1.6424   1.6506   1.6593   1.9280   2.0367   2.3155   2.4047   2.4547
  2.5143   2.6653   3.4803   3.4850   3.6589   3.6835   3.6914   3.7029
  3.9346   4.0671   4.3117   4.4678   4.4757   4.4902   4.6383   4.6744
  4.7415   5.0285   5.0303   5.0342   5.0461   5.0682   5.0761   5.0939
  5.1859   5.3540   5.3612   5.4603   5.5473   5.5835   5.7561   6.3714
  6.4360   6.7325   6.7350   6.7710   6.7874   6.8425   7.0751   7.1289
  7.1857   7.2681   7.2863   7.3436   7.5742   7.8183   8.5223  36.1063
 50.1809  50.2382
 
 Beta MOs
 -- Occupied --
-19.3641 -19.3640 -14.6789  -1.3761  -1.2436  -0.7478  -0.6610  -0.6546
 -0.6355  -0.4691  -0.4472
 -- Virtual --
 -0.0473   0.0012   0.1049   0.1413   0.1617   0.1655   0.2375   0.2580
  0.2653   0.2768   0.3145   0.3171   0.3230   0.4010   0.4406   0.6021
  0.7792   0.7873   0.8407   0.9281   0.9587   1.0173   1.0395   1.0545
  1.0896   1.1117   1.1468   1.1536   1.1559   1.4474   1.5008   1.5226
  1.5820   1.6568   1.6624   1.6764   1.9418   2.0391   2.3325   2.4142
  2.4662   2.5246   2.6843   3.5064   3.5103   3.6675   3.6925   3.7074
  3.7465   3.9516   4.0770   4.3354   4.4831   4.4885   4.5016   4.6804
  4.7145   4.7771   5.0426   5.0431   5.0514   5.0543   5.0743   5.0962
  5.1096   5.2122   5.3614   5.3683   5.4823   5.5664   5.5963   5.7723
  6.3793   6.4662   6.7543   6.7586   6.7991   6.8131   6.8578   7.0826
  7.1543   7.1977   7.2863   7.2979   7.3626   7.5866   7.8337   8.5446
 36.1190  50.1881  50.2455
 --------------------------------------------------------------
 
 -----------------------------------------------------------------
                    Cartesian Multipole Moments
 -----------------------------------------------------------------
    Charge (ESU x 10^10)
                -0.0000
    Dipole Moment (Debye)
         X       0.0040      Y       0.2130      Z       0.0000
       Tot       0.2130
    Quadrupole Moments (Debye-Ang)
        XX     -17.9179     XY      -0.0608     YY     -15.5853
        XZ      -0.0000     YZ       0.0000     ZZ     -14.8582
    Octopole Moments (Debye-Ang^2)
       XXX      24.8093    XXY      -7.5913    XYY       7.2251
       YYY     -19.9374    XXZ       0.0000    XYZ      -0.0000
       YYZ       0.0000    XZZ       6.8591    YZZ      -6.2448
       ZZZ       0.0000
    Hexadecapole Moments (Debye-Ang^3)
      XXXX    -117.3941   XXXY      11.1779   XXYY     -25.1665
      XYYY       9.8926   YYYY     -32.6757   XXXZ       0.0000
      XXYZ       0.0000   XYYZ      -0.0000   YYYZ       0.0000
      XXZZ     -20.6574   XYZZ       3.1008   YYZZ      -7.0921
      XZZZ      -0.0000   YZZZ       0.0000   ZZZZ     -11.4058
 -----------------------------------------------------------------
Archival summary:
1\1\centos77-c2\SP\ProcedureUnspecified\BasisUnspecified\21(2)\shihchen\SunJul1221:53:242020SunJul1221:53:242020\0\\#,ProcedureUnspecified,BasisUnspecified,\\0,2\N\O,1,1.18989\O,1,1.18992,2,145.317\\\@

 Total job time:  5.82s(wall), 27.42s(cpu) 
 Sun Jul 12 21:53:24 2020

        *************************************************************
        *                                                           *
        *  Thank you very much for using Q-Chem.  Have a nice day.  *
        *                                                           *
        *************************************************************


