                  Welcome to Q-Chem
     A Quantum Leap Into The Future Of Chemistry


 Q-Chem 5.3 (devel), Q-Chem, Inc., Pleasanton, CA (2020)

 Yihan Shao,  Zhengting Gan,  E. Epifanovsky,  A. T. B. Gilbert,  M. Wormit,  
 J. Kussmann,  A. W. Lange,  A. Behn,  Jia Deng,  Xintian Feng,  D. Ghosh,  
 M. Goldey,  P. R. Horn,  L. D. Jacobson,  I. Kaliman,  T. Kus,  A. Landau,  
 Jie Liu,  E. I. Proynov,  R. M. Richard,  R. P. Steele,  E. J. Sundstrom,  
 H. L. Woodcock III,  P. M. Zimmerman,  D. Zuev,  B. Alam,  B. Albrecht,  
 E. Alguire,  S. A. Baeppler,  D. Barton,  Z. Benda,  Y. A. Bernard,  
 E. J. Berquist,  K. B. Bravaya,  H. Burton,  K. Carter-Fenk,  D. Casanova,  
 Chun-Min Chang,  Yunqing Chen,  A. Chien,  K. D. Closser,  M. P. Coons,  
 S. Coriani,  S. Dasgupta,  A. L. Dempwolff,  M. Diedenhofen,  Hainam Do,  
 R. G. Edgar,  Po-Tung Fang,  S. Faraji,  S. Fatehi,  Qingguo Feng,  
 J. Fosso-Tande,  J. Gayvert,  Qinghui Ge,  A. Ghysels,  G. Gidofalvi,  
 J. Gomes,  J. Gonthier,  A. Gunina,  D. Hait,  M. W. D. Hanson-Heine,  
 P. H. P. Harbach,  A. W. Hauser,  M. F. Herbst,  J. E. Herr,  
 E. G. Hohenstein,  Z. C. Holden,  Kerwin Hui,  B. C. Huynh,  T.-C. Jagau,  
 Hyunjun Ji,  B. Kaduk,  K. Khistyaev,  Jaehoon Kim,  P. Klunzinger,  K. Koh,  
 D. Kosenkov,  L. Koulias,  T. Kowalczyk,  C. M. Krauter,  A. Kunitsa,  
 Ka Un Lao,  A. Laurent,  K. V. Lawler,  Joonho Lee,  D. Lefrancois,  
 S. Lehtola,  D. S. Levine,  Yi-Pei Li,  You-Sheng Lin,  Fenglai Liu,  
 Kuan-Yu Liu,  E. Livshits,  M. Loipersberger,  A. Luenser,  P. Manohar,  
 E. Mansoor,  S. F. Manzer,  Shan-Ping Mao,  Yuezhi Mao,  N. Mardirossian,  
 A. V. Marenich,  T. Markovich,  L. A. Martinez-Martinez,  S. A. Maurer,  
 N. J. Mayhall,  S. C. McKenzie,  J.-M. Mewes,  P. Morgante,  A. F. Morrison,  
 J. W. Mullinax,  K. Nanda,  T. S. Nguyen-Beck,  R. Olivares-Amaya,  
 K. J. Oosterbaan,  J. A. Parkhill,  S. K. Paul,  F. Pavosevic,  Zheng Pei,  
 T. M. Perrine,  F. Plasser,  P. Pokhilko,  S. Prager,  A. Prociuk,  
 E. Ramos,  B. Rana,  D. R. Rehn,  F. Rob,  M. Scheurer,  M. Schneider,  
 N. Sergueev,  S. M. Sharada,  S. Sharma,  D. W. Small,  T. Stauch,  
 C. J. Stein,  T. Stein,  Yu-Chuan Su,  S. P. Veccham,  Zhen Tao,  
 A. J. W. Thom,  A. Tkatchenko,  T. Tsuchimochi,  N. M. Tubman,  L. Vogt,  
 M. L. Vidal,  O. Vydrov,  M. A. Watson,  J. Wenzel,  M. de Wergifosse,  
 T. A. Wesolowski,  A. White,  J. Witte,  A. Yamada,  Jun Yang,  K. Yao,  
 S. Yeganeh,  S. R. Yost,  Zhi-Qiang You,  A. Zech,  Igor Ying Zhang,  
 Xing Zhang,  Yan Zhao,  Ying Zhu,  B. R. Brooks,  G. K. L. Chan,  
 C. J. Cramer,  M. S. Gordon,  W. J. Hehre,  A. Klamt,  M. W. Schmidt,  
 C. D. Sherrill,  D. G. Truhlar,  A. Aspuru-Guzik,  R. Baer,  A. T. Bell,  
 N. A. Besley,  Jeng-Da Chai,  A. E. DePrince, III,  R. A. DiStasio Jr.,  
 A. Dreuw,  B. D. Dunietz,  T. R. Furlani,  Chao-Ping Hsu,  Yousung Jung,  
 Jing Kong,  D. S. Lambrecht,  WanZhen Liang,  C. Ochsenfeld,  
 V. A. Rassolov,  L. V. Slipchenko,  J. E. Subotnik,  T. Van Voorhis,  
 J. M. Herbert,  A. I. Krylov,  P. M. W. Gill,  M. Head-Gordon

 Contributors to earlier versions of Q-Chem not listed above: 
 R. D. Adamson,  B. Austin,  J. Baker,  G. J. O. Beran,  K. Brandhorst,  
 S. T. Brown,  E. F. C. Byrd,  A. K. Chakraborty,  C.-L. Cheng,  
 Siu Hung Chien,  D. M. Chipman,  D. L. Crittenden,  H. Dachsel,  
 R. J. Doerksen,  A. D. Dutoi,  L. Fusti-Molnar,  W. A. Goddard III,  
 A. Golubeva-Zadorozhnaya,  S. R. Gwaltney,  G. Hawkins,  A. Heyden,  
 S. Hirata,  G. Kedziora,  F. J. Keil,  C. Kelley,  Jihan Kim,  R. A. King,  
 R. Z. Khaliullin,  P. P. Korambath,  W. Kurlancheek,  A. M. Lee,  M. S. Lee,  
 S. V. Levchenko,  Ching Yeh Lin,  D. Liotard,  R. C. Lochan,  I. Lotan,  
 P. E. Maslen,  N. Nair,  D. P. O'Neill,  D. Neuhauser,  E. Neuscamman,  
 C. M. Oana,  R. Olson,  B. Peters,  R. Peverati,  P. A. Pieniazek,  
 Y. M. Rhee,  J. Ritchie,  M. A. Rohrdanz,  E. Rosta,  N. J. Russ,  
 H. F. Schaefer III,  N. E. Schultz,  N. Shenvi,  A. C. Simmonett,  A. Sodt,  
 D. Stuck,  K. S. Thanthiriwatte,  V. Vanovschi,  Tao Wang,  A. Warshel,  
 C. F. Williams,  Q. Wu,  X. Xu,  W. Zhang

 Please cite Q-Chem as follows:
 Y. Shao et al., Mol. Phys. 113, 184-215 (2015)
 DOI: 10.1080/00268976.2014.952696

 Q-Chem 5.3.0 for Intel X86 EM64T Linux

 Parts of Q-Chem use Armadillo 9.800.1 (Horizon Scraper).
 http://arma.sourceforge.net/

 Q-Chem begins on Sun Jul 12 21:53:49 2020  

Host: centos77-c2
0

     Scratch files written to /tmp/28905.centos77-h1/qchem6667//
Processing $rem in /opt/qchem-5.3.0-intel2020u1//config/preferences:
Processing $rem in /home/shihchengli/.qchemrc:

Checking the input file for inconsistencies... 	...done.

--------------------------------------------------------------
User input:
--------------------------------------------------------------
$rem
   JOBTYPE  sp
   EXCHANGE   omegaB97X-D
   BASIS   6-311+G(2df,2pd)
   UNRESTRICTED   True
   max_scf_cycles   250
   geom_opt_max_cycles   1500
   basis2 6-31G*
   scf_algorithm rca_diis
   SYM_IGNORE  TRUE
   print_input   true
   geom_opt_dmax   80
   pop_mulliken false
   XC_GRID 000075000302
$end

$molecule
0 2
N       -0.4600643419     0.5172638048     0.0000000000
O       0.7317440817     0.3591486287     0.0000000000
O       -1.6563697399     0.3991175666     0.0000000000
$end
--------------------------------------------------------------
 ----------------------------------------------------------------
             Standard Nuclear Orientation (Angstroms)
    I     Atom           X                Y                Z
 ----------------------------------------------------------------
    1      N      -0.4600643419     0.5172638048     0.0000000000
    2      O       0.7317440817     0.3591486287     0.0000000000
    3      O      -1.6563697399     0.3991175666     0.0000000000
 ----------------------------------------------------------------
 Nuclear Repulsion Energy =          63.47955865 hartrees
 There are       12 alpha and       11 beta electrons
 Requested basis set is 6-311+G(2df,2pd)
 There are 24 shells and 102 basis functions

 Total QAlloc Memory Limit   2000 MB
 Mega-Array Size       188 MB
 MEM_STATIC part       192 MB

                       Distance Matrix (Angstroms)
             N (  1)   O (  2)
   O (  2)  1.202251
   O (  3)  1.202125  2.388448
 
 A cutoff of  1.0D-09 yielded    291 shell pairs
 There are      5348 function pairs (      7079 Cartesian)
 Smallest overlap matrix eigenvalue = 6.93E-04

 Scale SEOQF with 1.000000e-01/1.000000e-01/1.000000e-01

 Standard Electronic Orientation quadrupole field applied
 Nucleus-field energy     =     0.0000000013 hartrees
 Requested basis set is 6-31G(d)
 There are 12 shells and 42 basis functions
 A cutoff of  1.0D-09 yielded     77 shell pairs
 There are       968 function pairs (      1115 Cartesian)
 Smallest overlap matrix eigenvalue = 4.11E-03
 Guess from superposition of atomic densities
 Warning:  Energy on first SCF cycle will be non-variational
 SAD guess density has 23.000000 electrons
 Long-range K will be added via erf
 Coulomb attenuation parameter = 0.2 bohr**(-1)
 An unrestricted hybrid HF-DFT SCF calculation will be
 performed using Relaxed Constraint Minimization + Pulay DIIS
 Exchange:     0.2220 Hartree-Fock + 1.0000 wB97X-D + LR-HF
 Correlation:  1.0000 wB97X-D
 Using Euler-Maclaurin-Lebedev (75,302) quadrature formula
 Dispersion:   Grimme D
 SCF converges when DIIS error is below 1.0E-04
 using 6 threads for integral computing
 -------------------------------------------------------
 OpenMP Integral computing Module                
 Release: version 1.0, May 2013, Q-Chem Inc. Pittsburgh 
 -------------------------------------------------------
 using 6 threads for integral computing
 -------------------------------------------------------
 OpenMP Integral computing Module                
 Release: version 1.0, May 2013, Q-Chem Inc. Pittsburgh 
 -------------------------------------------------------
 ---------------------------------------
  Cycle       Energy         DIIS Error
 ---------------------------------------
    1    -205.4850130818      1.24E-01
    2    -204.8554341957      2.35E-02
    3    -204.8968138852      4.85E-03
    4    -204.9536879656      3.84E-03
    5    -204.9547743686      7.59E-04 Done RCA. Switching to DIIS
    6    -204.9562642971      5.23E-04
    7    -204.9563274079      5.19E-05 Convergence criterion met
 ---------------------------------------
 <S^2> = 0.7532
 SCF time:  CPU 5.18 s  wall 0.95 s
 SCF   energy in the small basis set = -204.95632741
 Total energy in the small basis set = -204.95632741
 ----------------------------------------------------
  Cycle       Energy    
 ----------------------------------------------------
    1     -20.8483735675     -2.08E+01
 Long-range K will be added via erf
 Coulomb attenuation parameter = 0.2 bohr**(-1)
 An unrestricted hybrid HF-DFT SCF calculation will be
 performed using Relaxed Constraint Minimization + Pulay DIIS
 Exchange:     0.2220 Hartree-Fock + 1.0000 wB97X-D + LR-HF
 Correlation:  1.0000 wB97X-D
 Using Euler-Maclaurin-Lebedev (75,302) quadrature formula
 Dispersion:   Grimme D
 SCF converges when DIIS error is below 1.0E-05
 Basis2 calculation detected. Using small basis as guess for larger.
 SCFMinFind is unable to tell whether the solution found is close.
 Resetting ReadMinima to 0 and attempting to follow guess.
 SCFMinFind following SCF Guess.
 using 6 threads for integral computing
 -------------------------------------------------------
 OpenMP Integral computing Module                
 Release: version 1.0, May 2013, Q-Chem Inc. Pittsburgh 
 -------------------------------------------------------
 using 6 threads for integral computing
 -------------------------------------------------------
 OpenMP Integral computing Module                
 Release: version 1.0, May 2013, Q-Chem Inc. Pittsburgh 
 -------------------------------------------------------
 ---------------------------------------
  Cycle       Energy         DIIS Error
 ---------------------------------------
    1    -205.0033709637      1.13E-02
    2    -205.0086217901      5.76E-03
    3    -205.0195798070      1.22E-03
    4    -205.0339593189      1.20E-03
    5    -205.0344825050      2.25E-04 Done RCA. Switching to DIIS
    6    -205.0352250803      2.15E-04
    7    -205.0352856953      2.54E-05
    8    -205.0352935133      1.90E-05
    9    -205.0352953217      8.12E-06 Convergence criterion met
 ---------------------------------------
 <S^2> = 0.7538
 SCF time:  CPU 21.95 s  wall 4.05 s
 SCF   energy in the final basis set = -205.03529532
 Total energy in the final basis set = -205.03529532
 
 --------------------------------------------------------------
 
                    Orbital Energies (a.u.)
 --------------------------------------------------------------
 
 Alpha MOs
 -- Occupied --
-19.3778 -19.3778 -14.6762  -1.3753  -1.2645  -0.7770  -0.6812  -0.6710
 -0.6642  -0.5030  -0.4770  -0.2966
 -- Virtual --
 -0.0185   0.0611   0.1336   0.1550   0.1561   0.1692   0.2410   0.2601
  0.2612   0.3065   0.3307   0.3329   0.3955   0.4382   0.6426   0.7739
  0.7770   0.9157   0.9168   0.9408   0.9940   1.0167   1.0434   1.0540
  1.1388   1.1643   1.1677   1.1699   1.2867   1.4675   1.4725   1.4736
  1.7002   1.7003   1.7893   1.9247   1.9375   2.4523   2.5090   2.5529
  2.6168   2.6244   3.4763   3.4763   3.5497   3.5507   3.6939   3.7022
  3.8708   4.1061   4.1524   4.4675   4.4720   4.5076   4.6383   4.6412
  4.8962   5.0344   5.0345   5.0484   5.0704   5.0722   5.0886   5.0955
  5.1329   5.1784   5.1786   5.5156   5.5334   5.6975   5.7078   6.0990
  6.1679   6.7391   6.7397   6.7742   6.7753   6.9945   7.0274   7.0858
  7.3294   7.3588   7.4911   7.4973   7.5611   7.8086   8.8616  36.0136
 50.1033  50.3962
 
 Beta MOs
 -- Occupied --
-19.3709 -19.3708 -14.6629  -1.3528  -1.2478  -0.7488  -0.6547  -0.6510
 -0.6232  -0.4716  -0.4522
 -- Virtual --
 -0.0005   0.0116   0.0733   0.1394   0.1624   0.1674   0.1888   0.2441
  0.2640   0.2660   0.3107   0.3388   0.3412   0.4054   0.4415   0.6677
  0.7862   0.8022   0.9323   0.9327   0.9490   1.0006   1.0258   1.0474
  1.0654   1.1468   1.1709   1.1739   1.1798   1.3009   1.4747   1.4802
  1.4813   1.7166   1.7173   1.7964   1.9388   1.9391   2.4635   2.5254
  2.5591   2.6338   2.6348   3.5082   3.5082   3.5630   3.5639   3.7208
  3.7527   3.8853   4.1134   4.1735   4.4813   4.4835   4.5369   4.6926
  4.6948   4.9204   5.0454   5.0476   5.0564   5.0820   5.0855   5.1078
  5.1145   5.1574   5.1856   5.1858   5.5281   5.5404   5.7144   5.7282
  6.1066   6.1902   6.7628   6.7631   6.7999   6.8000   7.0002   7.0533
  7.1085   7.3531   7.3659   7.4996   7.5103   7.5697   7.8225   8.8728
 36.0296  50.1098  50.4028
 --------------------------------------------------------------
 
 -----------------------------------------------------------------
                    Cartesian Multipole Moments
 -----------------------------------------------------------------
    Charge (ESU x 10^10)
                -0.0000
    Dipole Moment (Debye)
         X      -0.0012      Y      -0.0297      Z       0.0000
       Tot       0.0297
    Quadrupole Moments (Debye-Ang)
        XX     -18.0209     XY       0.0507     YY     -15.8090
        XZ      -0.0000     YZ      -0.0000     ZZ     -14.8451
    Octopole Moments (Debye-Ang^2)
       XXX      24.9752    XXY      -7.2636    XYY       7.3144
       YYY     -20.0793    XXZ       0.0000    XYZ      -0.0000
       YYZ      -0.0000    XZZ       6.8520    YZZ      -6.2738
       ZZZ      -0.0000
    Hexadecapole Moments (Debye-Ang^3)
      XXXX    -125.2175   XXXY      10.7329   XXYY     -26.4633
      XYYY      10.0637   YYYY     -30.1988   XXXZ       0.0000
      XXYZ      -0.0000   XYYZ       0.0000   YYYZ      -0.0000
      XXZZ     -22.0709   XYZZ       3.1440   YYZZ      -6.7347
      XZZZ       0.0000   YZZZ      -0.0000   ZZZZ     -11.3839
 -----------------------------------------------------------------
Archival summary:
1\1\centos77-c2\SP\ProcedureUnspecified\BasisUnspecified\21(2)\shihchen\SunJul1221:53:552020SunJul1221:53:552020\0\\#,ProcedureUnspecified,BasisUnspecified,\\0,2\N\O,1,1.20213\O,1,1.20225,2,166.803\\\@

 Total job time:  6.15s(wall), 29.91s(cpu) 
 Sun Jul 12 21:53:55 2020

        *************************************************************
        *                                                           *
        *  Thank you very much for using Q-Chem.  Have a nice day.  *
        *                                                           *
        *************************************************************


