                  Welcome to Q-Chem
     A Quantum Leap Into The Future Of Chemistry


 Q-Chem 5.3 (devel), Q-Chem, Inc., Pleasanton, CA (2020)

 Yihan Shao,  Zhengting Gan,  E. Epifanovsky,  A. T. B. Gilbert,  M. Wormit,  
 J. Kussmann,  A. W. Lange,  A. Behn,  Jia Deng,  Xintian Feng,  D. Ghosh,  
 M. Goldey,  P. R. Horn,  L. D. Jacobson,  I. Kaliman,  T. Kus,  A. Landau,  
 Jie Liu,  E. I. Proynov,  R. M. Richard,  R. P. Steele,  E. J. Sundstrom,  
 H. L. Woodcock III,  P. M. Zimmerman,  D. Zuev,  B. Alam,  B. Albrecht,  
 E. Alguire,  S. A. Baeppler,  D. Barton,  Z. Benda,  Y. A. Bernard,  
 E. J. Berquist,  K. B. Bravaya,  H. Burton,  K. Carter-Fenk,  D. Casanova,  
 Chun-Min Chang,  Yunqing Chen,  A. Chien,  K. D. Closser,  M. P. Coons,  
 S. Coriani,  S. Dasgupta,  A. L. Dempwolff,  M. Diedenhofen,  Hainam Do,  
 R. G. Edgar,  Po-Tung Fang,  S. Faraji,  S. Fatehi,  Qingguo Feng,  
 J. Fosso-Tande,  J. Gayvert,  Qinghui Ge,  A. Ghysels,  G. Gidofalvi,  
 J. Gomes,  J. Gonthier,  A. Gunina,  D. Hait,  M. W. D. Hanson-Heine,  
 P. H. P. Harbach,  A. W. Hauser,  M. F. Herbst,  J. E. Herr,  
 E. G. Hohenstein,  Z. C. Holden,  Kerwin Hui,  B. C. Huynh,  T.-C. Jagau,  
 Hyunjun Ji,  B. Kaduk,  K. Khistyaev,  Jaehoon Kim,  P. Klunzinger,  K. Koh,  
 D. Kosenkov,  L. Koulias,  T. Kowalczyk,  C. M. Krauter,  A. Kunitsa,  
 Ka Un Lao,  A. Laurent,  K. V. Lawler,  Joonho Lee,  D. Lefrancois,  
 S. Lehtola,  D. S. Levine,  Yi-Pei Li,  You-Sheng Lin,  Fenglai Liu,  
 Kuan-Yu Liu,  E. Livshits,  M. Loipersberger,  A. Luenser,  P. Manohar,  
 E. Mansoor,  S. F. Manzer,  Shan-Ping Mao,  Yuezhi Mao,  N. Mardirossian,  
 A. V. Marenich,  T. Markovich,  L. A. Martinez-Martinez,  S. A. Maurer,  
 N. J. Mayhall,  S. C. McKenzie,  J.-M. Mewes,  P. Morgante,  A. F. Morrison,  
 J. W. Mullinax,  K. Nanda,  T. S. Nguyen-Beck,  R. Olivares-Amaya,  
 K. J. Oosterbaan,  J. A. Parkhill,  S. K. Paul,  F. Pavosevic,  Zheng Pei,  
 T. M. Perrine,  F. Plasser,  P. Pokhilko,  S. Prager,  A. Prociuk,  
 E. Ramos,  B. Rana,  D. R. Rehn,  F. Rob,  M. Scheurer,  M. Schneider,  
 N. Sergueev,  S. M. Sharada,  S. Sharma,  D. W. Small,  T. Stauch,  
 C. J. Stein,  T. Stein,  Yu-Chuan Su,  S. P. Veccham,  Zhen Tao,  
 A. J. W. Thom,  A. Tkatchenko,  T. Tsuchimochi,  N. M. Tubman,  L. Vogt,  
 M. L. Vidal,  O. Vydrov,  M. A. Watson,  J. Wenzel,  M. de Wergifosse,  
 T. A. Wesolowski,  A. White,  J. Witte,  A. Yamada,  Jun Yang,  K. Yao,  
 S. Yeganeh,  S. R. Yost,  Zhi-Qiang You,  A. Zech,  Igor Ying Zhang,  
 Xing Zhang,  Yan Zhao,  Ying Zhu,  B. R. Brooks,  G. K. L. Chan,  
 C. J. Cramer,  M. S. Gordon,  W. J. Hehre,  A. Klamt,  M. W. Schmidt,  
 C. D. Sherrill,  D. G. Truhlar,  A. Aspuru-Guzik,  R. Baer,  A. T. Bell,  
 N. A. Besley,  Jeng-Da Chai,  A. E. DePrince, III,  R. A. DiStasio Jr.,  
 A. Dreuw,  B. D. Dunietz,  T. R. Furlani,  Chao-Ping Hsu,  Yousung Jung,  
 Jing Kong,  D. S. Lambrecht,  WanZhen Liang,  C. Ochsenfeld,  
 V. A. Rassolov,  L. V. Slipchenko,  J. E. Subotnik,  T. Van Voorhis,  
 J. M. Herbert,  A. I. Krylov,  P. M. W. Gill,  M. Head-Gordon

 Contributors to earlier versions of Q-Chem not listed above: 
 R. D. Adamson,  B. Austin,  J. Baker,  G. J. O. Beran,  K. Brandhorst,  
 S. T. Brown,  E. F. C. Byrd,  A. K. Chakraborty,  C.-L. Cheng,  
 Siu Hung Chien,  D. M. Chipman,  D. L. Crittenden,  H. Dachsel,  
 R. J. Doerksen,  A. D. Dutoi,  L. Fusti-Molnar,  W. A. Goddard III,  
 A. Golubeva-Zadorozhnaya,  S. R. Gwaltney,  G. Hawkins,  A. Heyden,  
 S. Hirata,  G. Kedziora,  F. J. Keil,  C. Kelley,  Jihan Kim,  R. A. King,  
 R. Z. Khaliullin,  P. P. Korambath,  W. Kurlancheek,  A. M. Lee,  M. S. Lee,  
 S. V. Levchenko,  Ching Yeh Lin,  D. Liotard,  R. C. Lochan,  I. Lotan,  
 P. E. Maslen,  N. Nair,  D. P. O'Neill,  D. Neuhauser,  E. Neuscamman,  
 C. M. Oana,  R. Olson,  B. Peters,  R. Peverati,  P. A. Pieniazek,  
 Y. M. Rhee,  J. Ritchie,  M. A. Rohrdanz,  E. Rosta,  N. J. Russ,  
 H. F. Schaefer III,  N. E. Schultz,  N. Shenvi,  A. C. Simmonett,  A. Sodt,  
 D. Stuck,  K. S. Thanthiriwatte,  V. Vanovschi,  Tao Wang,  A. Warshel,  
 C. F. Williams,  Q. Wu,  X. Xu,  W. Zhang

 Please cite Q-Chem as follows:
 Y. Shao et al., Mol. Phys. 113, 184-215 (2015)
 DOI: 10.1080/00268976.2014.952696

 Q-Chem 5.3.0 for Intel X86 EM64T Linux

 Parts of Q-Chem use Armadillo 9.800.1 (Horizon Scraper).
 http://arma.sourceforge.net/

 Q-Chem begins on Sun Jul 12 21:52:38 2020  

Host: centos77-c2
0

     Scratch files written to /tmp/28905.centos77-h1/qchem6212//
Processing $rem in /opt/qchem-5.3.0-intel2020u1//config/preferences:
Processing $rem in /home/shihchengli/.qchemrc:

Checking the input file for inconsistencies... 	...done.

--------------------------------------------------------------
User input:
--------------------------------------------------------------
$rem
   JOBTYPE  sp
   EXCHANGE   omegaB97X-D
   BASIS   6-311+G(2df,2pd)
   UNRESTRICTED   True
   max_scf_cycles   250
   geom_opt_max_cycles   1500
   basis2 6-31G*
   scf_algorithm rca_diis
   SYM_IGNORE  TRUE
   print_input   true
   geom_opt_dmax   80
   pop_mulliken false
   XC_GRID 000075000302
$end

$molecule
0 2
N       -0.4553596567     0.7947178543     0.0000000000
O       0.5741556459     0.2230308806     0.0000000000
O       -1.5034859892     0.2577812651     0.0000000000
$end
--------------------------------------------------------------
 ----------------------------------------------------------------
             Standard Nuclear Orientation (Angstroms)
    I     Atom           X                Y                Z
 ----------------------------------------------------------------
    1      N      -0.4553596567     0.7947178543     0.0000000000
    2      O       0.5741556459     0.2230308806     0.0000000000
    3      O      -1.5034859892     0.2577812651     0.0000000000
 ----------------------------------------------------------------
 Nuclear Repulsion Energy =          66.62687182 hartrees
 There are       12 alpha and       11 beta electrons
 Requested basis set is 6-311+G(2df,2pd)
 There are 24 shells and 102 basis functions

 Total QAlloc Memory Limit   2000 MB
 Mega-Array Size       188 MB
 MEM_STATIC part       192 MB

                       Distance Matrix (Angstroms)
             N (  1)   O (  2)
   O (  2)  1.177594
   O (  3)  1.177654  2.077932
 
 A cutoff of  1.0D-09 yielded    295 shell pairs
 There are      5429 function pairs (      7179 Cartesian)
 Smallest overlap matrix eigenvalue = 1.48E-03

 Scale SEOQF with 1.000000e-01/1.000000e-01/1.000000e-01

 Standard Electronic Orientation quadrupole field applied
 Nucleus-field energy     =     0.0000000012 hartrees
 Requested basis set is 6-31G(d)
 There are 12 shells and 42 basis functions
 A cutoff of  1.0D-09 yielded     77 shell pairs
 There are       968 function pairs (      1115 Cartesian)
 Smallest overlap matrix eigenvalue = 6.18E-03
 Guess from superposition of atomic densities
 Warning:  Energy on first SCF cycle will be non-variational
 SAD guess density has 23.000000 electrons
 Long-range K will be added via erf
 Coulomb attenuation parameter = 0.2 bohr**(-1)
 An unrestricted hybrid HF-DFT SCF calculation will be
 performed using Relaxed Constraint Minimization + Pulay DIIS
 Exchange:     0.2220 Hartree-Fock + 1.0000 wB97X-D + LR-HF
 Correlation:  1.0000 wB97X-D
 Using Euler-Maclaurin-Lebedev (75,302) quadrature formula
 Dispersion:   Grimme D
 SCF converges when DIIS error is below 1.0E-04
 using 6 threads for integral computing
 -------------------------------------------------------
 OpenMP Integral computing Module                
 Release: version 1.0, May 2013, Q-Chem Inc. Pittsburgh 
 -------------------------------------------------------
 using 6 threads for integral computing
 -------------------------------------------------------
 OpenMP Integral computing Module                
 Release: version 1.0, May 2013, Q-Chem Inc. Pittsburgh 
 -------------------------------------------------------
 ---------------------------------------
  Cycle       Energy         DIIS Error
 ---------------------------------------
    1    -205.6303697228      1.34E-01
    2    -204.8741212149      2.56E-02
    3    -204.9230605752      4.78E-03
    4    -204.9884405509      4.20E-03
    5    -204.9896694132      7.58E-04 Done RCA. Switching to DIIS
    6    -204.9913218783      5.44E-04
    7    -204.9913860245      7.47E-05 Convergence criterion met
 ---------------------------------------
 <S^2> = 0.7537
 SCF time:  CPU 11.35 s  wall 3.19 s
 SCF   energy in the small basis set = -204.99138602
 Total energy in the small basis set = -204.99138602
 ----------------------------------------------------
  Cycle       Energy    
 ----------------------------------------------------
    1     -20.9068659750     -2.09E+01
 Long-range K will be added via erf
 Coulomb attenuation parameter = 0.2 bohr**(-1)
 An unrestricted hybrid HF-DFT SCF calculation will be
 performed using Relaxed Constraint Minimization + Pulay DIIS
 Exchange:     0.2220 Hartree-Fock + 1.0000 wB97X-D + LR-HF
 Correlation:  1.0000 wB97X-D
 Using Euler-Maclaurin-Lebedev (75,302) quadrature formula
 Dispersion:   Grimme D
 SCF converges when DIIS error is below 1.0E-05
 Basis2 calculation detected. Using small basis as guess for larger.
 SCFMinFind is unable to tell whether the solution found is close.
 Resetting ReadMinima to 0 and attempting to follow guess.
 SCFMinFind following SCF Guess.
 using 6 threads for integral computing
 -------------------------------------------------------
 OpenMP Integral computing Module                
 Release: version 1.0, May 2013, Q-Chem Inc. Pittsburgh 
 -------------------------------------------------------
 using 6 threads for integral computing
 -------------------------------------------------------
 OpenMP Integral computing Module                
 Release: version 1.0, May 2013, Q-Chem Inc. Pittsburgh 
 -------------------------------------------------------
 ---------------------------------------
  Cycle       Energy         DIIS Error
 ---------------------------------------
    1    -205.0426913225      1.13E-02
    2    -205.0486899742      5.39E-03
    3    -205.0584284629      1.09E-03
    4    -205.0710031923      1.05E-03
    5    -205.0713883713      1.97E-04 Done RCA. Switching to DIIS
    6    -205.0718972097      1.83E-04
    7    -205.0719242906      1.07E-05
    8    -205.0719245722      3.99E-06 Convergence criterion met
 ---------------------------------------
 <S^2> = 0.7544
 SCF time:  CPU 17.95 s  wall 3.50 s
 SCF   energy in the final basis set = -205.07192457
 Total energy in the final basis set = -205.07192457
 
 --------------------------------------------------------------
 
                    Orbital Energies (a.u.)
 --------------------------------------------------------------
 
 Alpha MOs
 -- Occupied --
-19.3591 -19.3591 -14.6897  -1.4228  -1.2461  -0.7832  -0.6879  -0.6804
 -0.6731  -0.4677  -0.4660  -0.4025
 -- Virtual --
 -0.0147   0.1021   0.1384   0.1467   0.1517   0.2460   0.2464   0.2656
  0.2661   0.2883   0.3306   0.3773   0.4062   0.4223   0.4900   0.7287
  0.7634   0.8080   0.9107   0.9912   1.0077   1.0408   1.0425   1.0647
  1.1223   1.1244   1.1364   1.1542   1.4837   1.5413   1.5520   1.5689
  1.5897   1.6093   1.8490   1.8959   2.1204   2.1583   2.2504   2.4712
  2.4756   2.5434   3.5013   3.5378   3.6815   3.6949   3.7293   3.8286
  4.0088   4.1018   4.4314   4.4378   4.5235   4.5238   4.6172   4.6526
  4.7426   5.0221   5.0258   5.0306   5.0737   5.1019   5.1100   5.1168
  5.1522   5.3381   5.3724   5.4635   5.6654   5.7037   5.7747   6.2316
  6.6202   6.7523   6.7638   6.7712   6.7808   6.8025   7.0189   7.0511
  7.1919   7.1934   7.4444   7.4535   7.6197   7.7830   8.0389  36.2006
 50.1926  50.1988
 
 Beta MOs
 -- Occupied --
-19.3510 -19.3510 -14.6807  -1.4040  -1.2227  -0.7443  -0.6690  -0.6480
 -0.6450  -0.4592  -0.4218
 -- Virtual --
 -0.1027   0.0023   0.1133   0.1409   0.1573   0.1575   0.2502   0.2503
  0.2673   0.2774   0.2942   0.3349   0.3846   0.4184   0.4290   0.5170
  0.7475   0.7709   0.8105   0.9258   1.0037   1.0147   1.0507   1.0612
  1.0692   1.1262   1.1299   1.1546   1.1682   1.4953   1.5598   1.5599
  1.5760   1.5957   1.6274   1.8622   1.9070   2.1246   2.1765   2.2596
  2.4820   2.4835   2.5654   3.5213   3.5567   3.6940   3.7018   3.7615
  3.8363   4.0189   4.1199   4.4484   4.4576   4.5379   4.5379   4.6513
  4.6873   4.7714   5.0338   5.0390   5.0469   5.0886   5.1170   5.1301
  5.1355   5.1800   5.3560   5.3901   5.4809   5.6755   5.7275   5.7856
  6.2539   6.6314   6.7786   6.7846   6.8009   6.8057   6.8196   7.0455
  7.0663   7.1990   7.2066   7.4690   7.4722   7.6351   7.8020   8.0613
 36.2111  50.2001  50.2063
 --------------------------------------------------------------
 
 -----------------------------------------------------------------
                    Cartesian Multipole Moments
 -----------------------------------------------------------------
    Charge (ESU x 10^10)
                 0.0000
    Dipole Moment (Debye)
         X       0.0090      Y       0.5385      Z       0.0000
       Tot       0.5385
    Quadrupole Moments (Debye-Ang)
        XX     -18.0363     XY      -0.2005     YY     -14.9380
        XZ      -0.0000     YZ       0.0000     ZZ     -14.7899
    Octopole Moments (Debye-Ang^2)
       XXX      24.9590    XXY      -7.7995    XYY       6.9414
       YYY     -19.3261    XXZ       0.0000    XYZ      -0.0000
       YYZ       0.0000    XZZ       6.8288    YZZ      -6.1649
       ZZZ       0.0000
    Hexadecapole Moments (Debye-Ang^3)
      XXXX    -106.8522   XXXY      11.4501   XXYY     -23.0623
      XYYY       9.4616   YYYY     -35.3785   XXXZ      -0.0000
      XXYZ       0.0000   XYYZ      -0.0000   YYYZ       0.0000
      XXZZ     -18.6031   XYZZ       3.0228   YYZZ      -7.4780
      XZZZ      -0.0000   YZZZ       0.0000   ZZZZ     -11.2041
 -----------------------------------------------------------------
Archival summary:
1\1\centos77-c2\SP\ProcedureUnspecified\BasisUnspecified\21(2)\shihchen\SunJul1221:52:462020SunJul1221:52:462020\0\\#,ProcedureUnspecified,BasisUnspecified,\\0,2\N\O,1,1.17759\O,1,1.17765,2,123.831\\\@

 Total job time:  8.06s(wall), 33.02s(cpu) 
 Sun Jul 12 21:52:46 2020

        *************************************************************
        *                                                           *
        *  Thank you very much for using Q-Chem.  Have a nice day.  *
        *                                                           *
        *************************************************************


