                  Welcome to Q-Chem
     A Quantum Leap Into The Future Of Chemistry


 Q-Chem 5.3 (devel), Q-Chem, Inc., Pleasanton, CA (2020)

 Yihan Shao,  Zhengting Gan,  E. Epifanovsky,  A. T. B. Gilbert,  M. Wormit,  
 J. Kussmann,  A. W. Lange,  A. Behn,  Jia Deng,  Xintian Feng,  D. Ghosh,  
 M. Goldey,  P. R. Horn,  L. D. Jacobson,  I. Kaliman,  T. Kus,  A. Landau,  
 Jie Liu,  E. I. Proynov,  R. M. Richard,  R. P. Steele,  E. J. Sundstrom,  
 H. L. Woodcock III,  P. M. Zimmerman,  D. Zuev,  B. Alam,  B. Albrecht,  
 E. Alguire,  S. A. Baeppler,  D. Barton,  Z. Benda,  Y. A. Bernard,  
 E. J. Berquist,  K. B. Bravaya,  H. Burton,  K. Carter-Fenk,  D. Casanova,  
 Chun-Min Chang,  Yunqing Chen,  A. Chien,  K. D. Closser,  M. P. Coons,  
 S. Coriani,  S. Dasgupta,  A. L. Dempwolff,  M. Diedenhofen,  Hainam Do,  
 R. G. Edgar,  Po-Tung Fang,  S. Faraji,  S. Fatehi,  Qingguo Feng,  
 J. Fosso-Tande,  J. Gayvert,  Qinghui Ge,  A. Ghysels,  G. Gidofalvi,  
 J. Gomes,  J. Gonthier,  A. Gunina,  D. Hait,  M. W. D. Hanson-Heine,  
 P. H. P. Harbach,  A. W. Hauser,  M. F. Herbst,  J. E. Herr,  
 E. G. Hohenstein,  Z. C. Holden,  Kerwin Hui,  B. C. Huynh,  T.-C. Jagau,  
 Hyunjun Ji,  B. Kaduk,  K. Khistyaev,  Jaehoon Kim,  P. Klunzinger,  K. Koh,  
 D. Kosenkov,  L. Koulias,  T. Kowalczyk,  C. M. Krauter,  A. Kunitsa,  
 Ka Un Lao,  A. Laurent,  K. V. Lawler,  Joonho Lee,  D. Lefrancois,  
 S. Lehtola,  D. S. Levine,  Yi-Pei Li,  You-Sheng Lin,  Fenglai Liu,  
 Kuan-Yu Liu,  E. Livshits,  M. Loipersberger,  A. Luenser,  P. Manohar,  
 E. Mansoor,  S. F. Manzer,  Shan-Ping Mao,  Yuezhi Mao,  N. Mardirossian,  
 A. V. Marenich,  T. Markovich,  L. A. Martinez-Martinez,  S. A. Maurer,  
 N. J. Mayhall,  S. C. McKenzie,  J.-M. Mewes,  P. Morgante,  A. F. Morrison,  
 J. W. Mullinax,  K. Nanda,  T. S. Nguyen-Beck,  R. Olivares-Amaya,  
 K. J. Oosterbaan,  J. A. Parkhill,  S. K. Paul,  F. Pavosevic,  Zheng Pei,  
 T. M. Perrine,  F. Plasser,  P. Pokhilko,  S. Prager,  A. Prociuk,  
 E. Ramos,  B. Rana,  D. R. Rehn,  F. Rob,  M. Scheurer,  M. Schneider,  
 N. Sergueev,  S. M. Sharada,  S. Sharma,  D. W. Small,  T. Stauch,  
 C. J. Stein,  T. Stein,  Yu-Chuan Su,  S. P. Veccham,  Zhen Tao,  
 A. J. W. Thom,  A. Tkatchenko,  T. Tsuchimochi,  N. M. Tubman,  L. Vogt,  
 M. L. Vidal,  O. Vydrov,  M. A. Watson,  J. Wenzel,  M. de Wergifosse,  
 T. A. Wesolowski,  A. White,  J. Witte,  A. Yamada,  Jun Yang,  K. Yao,  
 S. Yeganeh,  S. R. Yost,  Zhi-Qiang You,  A. Zech,  Igor Ying Zhang,  
 Xing Zhang,  Yan Zhao,  Ying Zhu,  B. R. Brooks,  G. K. L. Chan,  
 C. J. Cramer,  M. S. Gordon,  W. J. Hehre,  A. Klamt,  M. W. Schmidt,  
 C. D. Sherrill,  D. G. Truhlar,  A. Aspuru-Guzik,  R. Baer,  A. T. Bell,  
 N. A. Besley,  Jeng-Da Chai,  A. E. DePrince, III,  R. A. DiStasio Jr.,  
 A. Dreuw,  B. D. Dunietz,  T. R. Furlani,  Chao-Ping Hsu,  Yousung Jung,  
 Jing Kong,  D. S. Lambrecht,  WanZhen Liang,  C. Ochsenfeld,  
 V. A. Rassolov,  L. V. Slipchenko,  J. E. Subotnik,  T. Van Voorhis,  
 J. M. Herbert,  A. I. Krylov,  P. M. W. Gill,  M. Head-Gordon

 Contributors to earlier versions of Q-Chem not listed above: 
 R. D. Adamson,  B. Austin,  J. Baker,  G. J. O. Beran,  K. Brandhorst,  
 S. T. Brown,  E. F. C. Byrd,  A. K. Chakraborty,  C.-L. Cheng,  
 Siu Hung Chien,  D. M. Chipman,  D. L. Crittenden,  H. Dachsel,  
 R. J. Doerksen,  A. D. Dutoi,  L. Fusti-Molnar,  W. A. Goddard III,  
 A. Golubeva-Zadorozhnaya,  S. R. Gwaltney,  G. Hawkins,  A. Heyden,  
 S. Hirata,  G. Kedziora,  F. J. Keil,  C. Kelley,  Jihan Kim,  R. A. King,  
 R. Z. Khaliullin,  P. P. Korambath,  W. Kurlancheek,  A. M. Lee,  M. S. Lee,  
 S. V. Levchenko,  Ching Yeh Lin,  D. Liotard,  R. C. Lochan,  I. Lotan,  
 P. E. Maslen,  N. Nair,  D. P. O'Neill,  D. Neuhauser,  E. Neuscamman,  
 C. M. Oana,  R. Olson,  B. Peters,  R. Peverati,  P. A. Pieniazek,  
 Y. M. Rhee,  J. Ritchie,  M. A. Rohrdanz,  E. Rosta,  N. J. Russ,  
 H. F. Schaefer III,  N. E. Schultz,  N. Shenvi,  A. C. Simmonett,  A. Sodt,  
 D. Stuck,  K. S. Thanthiriwatte,  V. Vanovschi,  Tao Wang,  A. Warshel,  
 C. F. Williams,  Q. Wu,  X. Xu,  W. Zhang

 Please cite Q-Chem as follows:
 Y. Shao et al., Mol. Phys. 113, 184-215 (2015)
 DOI: 10.1080/00268976.2014.952696

 Q-Chem 5.3.0 for Intel X86 EM64T Linux

 Parts of Q-Chem use Armadillo 9.800.1 (Horizon Scraper).
 http://arma.sourceforge.net/

 Q-Chem begins on Sun Jul 12 21:54:17 2020  

Host: centos77-c2
0

     Scratch files written to /tmp/28905.centos77-h1/qchem6835//
Processing $rem in /opt/qchem-5.3.0-intel2020u1//config/preferences:
Processing $rem in /home/shihchengli/.qchemrc:

Checking the input file for inconsistencies... 	...done.

--------------------------------------------------------------
User input:
--------------------------------------------------------------
$rem
   JOBTYPE  sp
   EXCHANGE   omegaB97X-D
   BASIS   6-311+G(2df,2pd)
   UNRESTRICTED   True
   max_scf_cycles   250
   geom_opt_max_cycles   1500
   basis2 6-31G*
   scf_algorithm rca_diis
   SYM_IGNORE  TRUE
   print_input   true
   geom_opt_dmax   80
   pop_mulliken false
   XC_GRID 000075000302
$end

$molecule
0 2
N       -0.4557316207     0.7741788229     0.0000000000
O       0.6662509906     0.2317569682     0.0000000000
O       -1.5952093700     0.2695942088     0.0000000000
$end
--------------------------------------------------------------
 ----------------------------------------------------------------
             Standard Nuclear Orientation (Angstroms)
    I     Atom           X                Y                Z
 ----------------------------------------------------------------
    1      N      -0.4557316207     0.7741788229     0.0000000000
    2      O       0.6662509906     0.2317569682     0.0000000000
    3      O      -1.5952093700     0.2695942088     0.0000000000
 ----------------------------------------------------------------
 Nuclear Repulsion Energy =          62.53218563 hartrees
 There are       12 alpha and       11 beta electrons
 Requested basis set is 6-311+G(2df,2pd)
 There are 24 shells and 102 basis functions

 Total QAlloc Memory Limit   2000 MB
 Mega-Array Size       188 MB
 MEM_STATIC part       192 MB

                       Distance Matrix (Angstroms)
             N (  1)   O (  2)
   O (  2)  1.246221
   O (  3)  1.246200  2.261777
 
 A cutoff of  1.0D-09 yielded    292 shell pairs
 There are      5373 function pairs (      7115 Cartesian)
 Smallest overlap matrix eigenvalue = 1.88E-03

 Scale SEOQF with 1.000000e-01/1.000000e-01/1.000000e-01

 Standard Electronic Orientation quadrupole field applied
 Nucleus-field energy     =     0.0000000013 hartrees
 Requested basis set is 6-31G(d)
 There are 12 shells and 42 basis functions
 A cutoff of  1.0D-09 yielded     77 shell pairs
 There are       968 function pairs (      1115 Cartesian)
 Smallest overlap matrix eigenvalue = 8.37E-03
 Guess from superposition of atomic densities
 Warning:  Energy on first SCF cycle will be non-variational
 SAD guess density has 23.000000 electrons
 Long-range K will be added via erf
 Coulomb attenuation parameter = 0.2 bohr**(-1)
 An unrestricted hybrid HF-DFT SCF calculation will be
 performed using Relaxed Constraint Minimization + Pulay DIIS
 Exchange:     0.2220 Hartree-Fock + 1.0000 wB97X-D + LR-HF
 Correlation:  1.0000 wB97X-D
 Using Euler-Maclaurin-Lebedev (75,302) quadrature formula
 Dispersion:   Grimme D
 SCF converges when DIIS error is below 1.0E-04
 using 6 threads for integral computing
 -------------------------------------------------------
 OpenMP Integral computing Module                
 Release: version 1.0, May 2013, Q-Chem Inc. Pittsburgh 
 -------------------------------------------------------
 using 6 threads for integral computing
 -------------------------------------------------------
 OpenMP Integral computing Module                
 Release: version 1.0, May 2013, Q-Chem Inc. Pittsburgh 
 -------------------------------------------------------
 ---------------------------------------
  Cycle       Energy         DIIS Error
 ---------------------------------------
    1    -205.2925313677      1.13E-01
    2    -204.8585601410      2.66E-02
    3    -204.9114523551      5.89E-03
    4    -204.9844798019      6.64E-03
    5    -204.9874867735      1.37E-03
    6    -204.9914897397      1.61E-03
    7    -204.9916793151      3.07E-04 Done RCA. Switching to DIIS
    8    -204.9919362422      4.17E-04
    9    -204.9919669592      6.87E-06 Convergence criterion met
 ---------------------------------------
 <S^2> = 0.7548
 SCF time:  CPU 14.31 s  wall 4.05 s
 SCF   energy in the small basis set = -204.99196696
 Total energy in the small basis set = -204.99196696
 ----------------------------------------------------
  Cycle       Energy    
 ----------------------------------------------------
    1     -20.7796929027     -2.08E+01
 Long-range K will be added via erf
 Coulomb attenuation parameter = 0.2 bohr**(-1)
 An unrestricted hybrid HF-DFT SCF calculation will be
 performed using Relaxed Constraint Minimization + Pulay DIIS
 Exchange:     0.2220 Hartree-Fock + 1.0000 wB97X-D + LR-HF
 Correlation:  1.0000 wB97X-D
 Using Euler-Maclaurin-Lebedev (75,302) quadrature formula
 Dispersion:   Grimme D
 SCF converges when DIIS error is below 1.0E-05
 Basis2 calculation detected. Using small basis as guess for larger.
 SCFMinFind is unable to tell whether the solution found is close.
 Resetting ReadMinima to 0 and attempting to follow guess.
 SCFMinFind following SCF Guess.
 using 6 threads for integral computing
 -------------------------------------------------------
 OpenMP Integral computing Module                
 Release: version 1.0, May 2013, Q-Chem Inc. Pittsburgh 
 -------------------------------------------------------
 using 6 threads for integral computing
 -------------------------------------------------------
 OpenMP Integral computing Module                
 Release: version 1.0, May 2013, Q-Chem Inc. Pittsburgh 
 -------------------------------------------------------
 ---------------------------------------
  Cycle       Energy         DIIS Error
 ---------------------------------------
    1    -205.0370262966      1.14E-02
    2    -205.0337586695      6.44E-03
    3    -205.0477199633      1.49E-03
    4    -205.0656994702      1.47E-03
    5    -205.0668132714      1.47E-04 Done RCA. Switching to DIIS
    6    -205.0686279198      8.32E-05
    7    -205.0686363576      9.13E-06 Convergence criterion met
 ---------------------------------------
 <S^2> = 0.7554
 SCF time:  CPU 20.41 s  wall 4.45 s
 SCF   energy in the final basis set = -205.06863636
 Total energy in the final basis set = -205.06863636
 
 --------------------------------------------------------------
 
                    Orbital Energies (a.u.)
 --------------------------------------------------------------
 
 Alpha MOs
 -- Occupied --
-19.3767 -19.3765 -14.6991  -1.3640  -1.2200  -0.7981  -0.6703  -0.6623
 -0.6486  -0.4775  -0.4686  -0.4064
 -- Virtual --
 -0.0479   0.0987   0.1380   0.1507   0.1566   0.2200   0.2458   0.2638
  0.2671   0.2894   0.2994   0.3240   0.3758   0.4052   0.4434   0.7552
  0.7745   0.8079   0.9083   0.9763   1.0136   1.0374   1.0494   1.0653
  1.0971   1.1214   1.1286   1.1286   1.4531   1.5190   1.5435   1.5630
  1.5724   1.5950   1.7027   1.8294   2.0386   2.1437   2.2346   2.4153
  2.4156   2.5355   3.4900   3.5136   3.6851   3.6904   3.7163   3.7309
  3.9154   3.9887   4.3036   4.3854   4.5071   4.6123   4.6732   4.6900
  4.7428   5.0139   5.0257   5.0281   5.0335   5.0629   5.0658   5.0798
  5.1018   5.2896   5.3751   5.4242   5.4422   5.4747   5.6976   5.9434
  6.2625   6.5493   6.7301   6.7339   6.7678   6.7803   6.8279   6.9393
  7.0859   7.1468   7.1777   7.3667   7.5768   7.6838   7.9069  35.8981
 50.0411  50.1055
 
 Beta MOs
 -- Occupied --
-19.3683 -19.3682 -14.6900  -1.3439  -1.1963  -0.7618  -0.6427  -0.6370
 -0.6169  -0.4599  -0.4320
 -- Virtual --
 -0.1072  -0.0310   0.1087   0.1406   0.1588   0.1610   0.2296   0.2495
  0.2655   0.2765   0.2939   0.3075   0.3274   0.3820   0.4261   0.4589
  0.7744   0.7814   0.8095   0.9228   0.9888   1.0206   1.0576   1.0594
  1.0699   1.1008   1.1337   1.1380   1.1406   1.4644   1.5258   1.5617
  1.5699   1.5817   1.6127   1.7110   1.8428   2.0421   2.1628   2.2447
  2.4248   2.4260   2.5565   3.5118   3.5339   3.6925   3.7030   3.7243
  3.7666   3.9249   4.0066   4.3186   4.3999   4.5265   4.6405   4.6863
  4.7250   4.7756   5.0343   5.0363   5.0437   5.0485   5.0724   5.0851
  5.0979   5.1326   5.3073   5.3918   5.4334   5.4558   5.4988   5.7111
  5.9703   6.2717   6.5663   6.7570   6.7594   6.7941   6.8071   6.8420
  6.9611   7.1090   7.1557   7.1926   7.3943   7.5978   7.7026   7.9265
 35.9089  50.0491  50.1135
 --------------------------------------------------------------
 
 -----------------------------------------------------------------
                    Cartesian Multipole Moments
 -----------------------------------------------------------------
    Charge (ESU x 10^10)
                -0.0000
    Dipole Moment (Debye)
         X       0.0048      Y       0.3916      Z      -0.0000
       Tot       0.3916
    Quadrupole Moments (Debye-Ang)
        XX     -17.9557     XY      -0.1399     YY     -15.3221
        XZ       0.0000     YZ      -0.0000     ZZ     -15.0689
    Octopole Moments (Debye-Ang^2)
       XXX      24.8363    XXY      -8.0098    XYY       7.1194
       YYY     -19.7959    XXZ      -0.0000    XYZ       0.0000
       YYZ      -0.0000    XZZ       6.9567    YZZ      -6.3152
       ZZZ      -0.0000
    Hexadecapole Moments (Debye-Ang^3)
      XXXX    -118.0552   XXXY      11.7950   XXYY     -25.4353
      XYYY       9.7966   YYYY     -35.3950   XXXZ       0.0000
      XXYZ       0.0000   XYYZ       0.0000   YYYZ      -0.0000
      XXZZ     -20.8313   XYZZ       3.1280   YYZZ      -7.5710
      XZZZ       0.0000   YZZZ      -0.0000   ZZZZ     -11.6081
 -----------------------------------------------------------------
Archival summary:
1\1\centos77-c2\SP\ProcedureUnspecified\BasisUnspecified\21(2)\shihchen\SunJul1221:54:262020SunJul1221:54:262020\0\\#,ProcedureUnspecified,BasisUnspecified,\\0,2\N\O,1,1.2462\O,1,1.24622,2,130.314\\\@

 Total job time:  9.54s(wall), 37.29s(cpu) 
 Sun Jul 12 21:54:26 2020

        *************************************************************
        *                                                           *
        *  Thank you very much for using Q-Chem.  Have a nice day.  *
        *                                                           *
        *************************************************************


