32
# Point -15 Energy = 0.0
C       20.5809240616     3.4335450285     7.6245248553
H       18.5098818940     3.6221764302     6.5193690916
C       19.4354645779     3.0792165707     6.6782247557
H       19.5251482294     2.5100636638     7.6204891824
H       20.0521204550     2.2920601359     5.7402733088
C       19.7774644672     1.5982817022     6.5676558229
H       19.1769592807     1.4579482318     5.6593720931
H       20.3350122588     0.7160828627     6.8479844783
H       20.7517379133     3.7117211857     6.5573774362
H       21.4224411410     3.1754313118     8.2506311092
H       20.5401450568     4.5189749926     7.4827931146
Si       16.4362653571     3.4028415714     4.4056242670
O       16.3160382732     4.9961671562     4.7452869599
O       17.9531630271     3.0560899420     3.8829901578
O       15.3900681079     2.9927360004     3.1960212731
O       16.0665581513     2.5563736112     5.7734572338
Si       16.5226220538     6.5855618949     4.4127514536
Si       13.9943793789     2.5704678066     2.4600926802
Si       18.8692550084     2.5185446290     2.6366443829
Si       15.6883836101     1.1305020637     6.4650245385
H       17.9214200438     6.8405965521     3.9459417913
H       15.5946252831     6.9592565541     3.2888983579
H       16.2702928094     7.4699454840     5.6187572913
H       12.8495196506     3.3228339027     3.0305160059
H       14.0179639026     2.8676517646     0.9932042761
H       18.5057212429     3.3027350255     1.4232647320
H       13.7299900459     1.1103467501     2.6540417631
H       18.5732975914     1.0768172438     2.3724260198
H       16.3483584360     0.8945813821     7.8048608549
H       14.2025314915     0.9861330597     6.6638091097
H       20.3631041129     2.6572937584     2.8612470271
H       16.1471236866     0.0603237318     5.5436099362
32
# Point -14 Energy = 0.0
C       20.5867288005     3.4416030285     7.6301515552
H       18.5349865108     3.6468637140     6.4998660972
C       19.4373684813     3.0752140464     6.6932507001
H       19.4590422274     2.5130947802     7.6432000849
H       20.0932598354     2.2759540851     5.7161598073
C       19.7718369858     1.5963877581     6.5369318808
H       19.1442706373     1.4486207482     5.6483984552
H       20.3280725936     0.7148369126     6.8256087797
H       20.8001725230     3.7120489095     6.5700829066
H       21.4178634398     3.1582989764     8.2607954661
H       20.5308515678     4.5311750505     7.5326508834
Si       16.4364585669     3.4034561423     4.4048194006
O       16.3154918911     4.9968363791     4.7430052076
O       17.9528953843     3.0576900141     3.8809794443
O       15.3899704450     2.9912665231     3.1973681404
O       16.0698357438     2.5590538568     5.7733547106
Si       16.5200328396     6.5866434977     4.4084120196
Si       13.9931269755     2.5664884069     2.4631721864
Si       18.8682449470     2.5192194161     2.6333843299
Si       15.6936783113     1.1325980315     6.4678694521
H       17.9179855196     6.8423341194     3.9395362430
H       15.5902174367     6.9580714561     3.2854240073
H       16.2684531281     7.4718809419     5.6138507291
H       12.8483735414     3.3184245460     3.0342128151
H       14.0147690682     2.8620413449     0.9959955157
H       18.5023100087     3.3018764007     1.4198266740
H       13.7306124044     1.1063871372     2.6592352263
H       18.5728916603     1.0770600272     2.3713508885
H       16.3556391620     0.8989945187     7.8068726934
H       14.2082268828     0.9873039311     6.6685483979
H       20.3621020758     2.6594787974     2.8560586971
H       16.1522110051     0.0620985024     5.5467919647
32
# Point -13 Energy = 0.0
C       20.5922041669     3.4511409260     7.6343286313
H       18.5610929210     3.6673686557     6.4787845880
C       19.4392264142     3.0701670741     6.7077771084
H       19.3922523819     2.5187926707     7.6625771414
H       20.1354217326     2.2569955318     5.6937330457
C       19.7683869152     1.5950617022     6.5082175735
H       19.1155273781     1.4367321734     5.6400244064
H       20.3226303305     0.7151405005     6.8091577064
H       20.8480859692     3.7135032119     6.5830339674
H       21.4114066055     3.1435897402     8.2707671806
H       20.5203429799     4.5427592065     7.5805868508
Si       16.4364873316     3.4040104314     4.4038756634
O       16.3150615309     4.9973859625     4.7409585409
O       17.9523545793     3.0591340907     3.8785837942
O       15.3895105683     2.9901884777     3.1985996218
O       16.0729677076     2.5614206201     5.7729530794
Si       16.5177634487     6.5876460326     4.4046466780
Si       13.9913660303     2.5632929305     2.4662002670
Si       18.8667469270     2.5198926114     2.6295172015
Si       15.6986930362     1.1342850685     6.4701314558
H       17.9148552841     6.8438811324     3.9336095330
H       15.5860662846     6.9572035898     3.2827148130
H       16.2672009511     7.4735036357     5.6097444439
H       12.8469039313     3.3148470360     3.0381645941
H       14.0109468743     2.8575539566     0.9988061383
H       18.4983898263     3.3013446281     1.4160060614
H       13.7305204598     1.1032108678     2.6640617589
H       18.5717682083     1.0774056425     2.3693701118
H       16.3627477580     0.9025936306     7.8081705861
H       14.2136451781     0.9882483850     6.6728347899
H       20.3606527515     2.6613978081     2.8501305889
H       16.1567541377     0.0636040692     5.5490974387
32
# Point -12 Energy = 0.0
C       20.5973465577     3.4624957620     7.6368888507
H       18.5877986237     3.6829490400     6.4556714981
C       19.4410358910     3.0640579497     6.7219393076
H       19.3253853456     2.5270886747     7.6785817010
H       20.1782321791     2.2349394636     5.6728586525
C       19.7669137115     1.5940436289     6.4814342073
H       19.0903783783     1.4220194934     5.6342933047
H       20.3183751059     0.7168604212     6.7986119116
H       20.8953968009     3.7164973522     6.5960873298
H       21.4030512138     3.1316124703     8.2803708012
H       20.5085576989     4.5540870649     7.6261879846
Si       16.4363996438     3.4045160837     4.4028674828
O       16.3147843447     4.9978249735     4.7392345026
O       17.9516010801     3.0604428358     3.8759095171
O       15.3887642038     2.9895218115     3.1997616608
O       16.0759734306     2.5634695843     5.7723105045
Si       16.5158555225     6.5885842696     4.4015641648
Si       13.9891890856     2.5609050584     2.4691862990
Si       18.8648499819     2.5206001635     2.6251645590
Si       15.7034344023     1.1355486159     6.4718450559
H       17.9120808146     6.8452613770     3.9283053088
H       15.5822377662     6.9566772830     3.2808612819
H       16.2665491415     7.4748157594     5.6065503419
H       12.8451892109     3.3121165615     3.0423619371
H       14.0066215317     2.8542285917     1.0016485307
H       18.4940754979     3.3011879523     1.4119236647
H       13.7298056812     1.1008371499     2.6685102868
H       18.5700251033     1.0778906201     2.3665840020
H       16.3696614419     0.9053518466     7.8088025179
H       14.2187889312     0.9889456238     6.6766669873
H       20.3588398125     2.6630885477     2.8436204932
H       16.1607824654     0.0648359699     5.5505607121
32
# Point -11 Energy = 0.0
C       20.6020994259     3.4759301766     7.6376600504
H       18.6146723880     3.6928900334     6.4303072361
C       19.4427549833     3.0568375492     6.7359035897
H       19.2591345768     2.5378016260     7.6912956091
H       20.2212718548     2.2096942007     5.6532586527
C       19.7673623280     1.5931552642     6.4564037785
H       19.0685616249     1.4043101747     5.6312722781
H       20.3152738662     0.7200403579     6.7937118049
H       20.9419592795     3.7214565511     6.6091063567
H       21.3927162458     3.1226264558     8.2894225479
H       20.4953649754     4.5654611191     7.6690685915
Si       16.4362307170     3.4049745525     4.4018722610
O       16.3146988699     4.9981548505     4.7379146608
O       17.9506837145     3.0616082284     3.8730811493
O       15.3878006863     2.9892816937     3.2008960292
O       16.0788379839     2.5651968324     5.7714891294
Si       16.5143724030     6.5894612736     4.3992611773
Si       13.9866842958     2.5593551240     2.4721250860
Si       18.8626371863     2.5213338134     2.6204770712
Si       15.7078527639     1.1363820745     6.4730524109
H       17.9097424506     6.8464698396     3.9237663704
H       15.5788336650     6.9565095781     3.2799317400
H       16.2665308529     7.4758160312     5.6043616553
H       12.8433062532     3.3102696457     3.0467669527
H       14.0019294114     2.8521036189     1.0045192810
H       18.4894953314     3.3014083477     1.4077222088
H       13.7285374808     1.0992958674     2.6725600853
H       18.5677409569     1.0785094464     2.3631264411
H       16.3762865480     0.9072496805     7.8088311987
H       14.2236009185     0.9893995364     6.6800388245
H       20.3567406010     2.6645297794     2.8367279360
H       16.1642659610     0.0657886772     5.5512331956
32
# Point -10 Energy = 0.0
C       20.6063868717     3.4915213534     7.6364723773
H       18.6414022974     3.6968684724     6.4029539901
C       19.4443063335     3.0484723037     6.7498482230
H       19.1942338612     2.5506410156     7.7009159945
H       20.2640595741     2.1813703415     5.6345068734
C       19.7697376710     1.5923343675     6.4328506079
H       19.0498616535     1.3835701670     5.6310341104
H       20.3134550190     0.7249028938     6.7939615221
H       20.9875958129     3.7287577357     6.6219750841
H       21.3802869592     3.1166292204     8.2976902683
H       20.4806769774     4.5770099181     7.7089629753
Si       16.4359994708     3.4053789665     4.4009553968
O       16.3148264086     4.9983721851     4.7370497203
O       17.9496385643     3.0626069748     3.8702253348
O       15.3866808550     2.9894624072     3.2020302609
O       16.0815199445     2.5666058823     5.7705463332
Si       16.5133640369     6.5902709800     4.3977868063
Si       13.9839358701     2.5586456056     2.4749925475
Si       18.8601873001     2.5220554718     2.6156198288
Si       15.7118656131     1.1367947106     6.4738046186
H       17.9079108530     6.8474859742     3.9200943879
H       15.5759503368     6.9566964826     3.2799363953
H       16.2671582135     7.4765074927     5.6032123082
H       12.8413245329     3.3093220392     3.0513066710
H       13.9970133988     2.8511730762     1.0073928857
H       18.4847823728     3.3019645106     1.4035474221
H       13.7267785528     1.0985918212     2.6761864105
H       18.5649904953     1.0792244415     2.3591600611
H       16.3824871872     0.9082980053     7.8083354291
H       14.2279893142     0.9896333239     6.6829447400
H       20.3544269648     2.6656717271     2.8296753241
H       16.1671472836     0.0664621324     5.5511904513
32
# Point -9 Energy = 0.0
C       20.6101800675     3.5090531431     7.6331897532
H       18.6679476382     3.6952876109     6.3744402570
C       19.4456063507     3.0390203597     6.7639334883
H       19.1313618294     2.5652659818     7.7077148381
H       20.3060483276     2.1502592540     5.6160804178
C       19.7739236327     1.5916654689     6.4104122601
H       19.0339958988     1.3600338229     5.6335890981
H       20.3128844922     0.7317844500     6.7986755649
H       21.0321827840     3.7386284574     6.6346338411
H       21.3656465358     3.1131301415     8.3048841097
H       20.4646242364     4.5885691698     7.7458344472
Si       16.4357161745     3.4057202396     4.4001572711
O       16.3151529994     4.9984750879     4.7366361653
O       17.9484991335     3.0634291298     3.8674500626
O       15.3854639582     2.9900168067     3.2031745171
O       16.0839828291     2.5677173427     5.7695299986
Si       16.5128188111     6.5910055538     4.3971066120
Si       13.9810336542     2.5587010753     2.4777549545
Si       18.8575861272     2.5227327086     2.6107492703
Si       15.7154187046     1.1368199781     6.4741695919
H       17.9065912156     6.8483018501     3.9173028373
H       15.5736166598     6.9571961445     3.2807950616
H       16.2683666423     7.4769091310     5.6030364849
H       12.8393063409     3.3092029258     3.0558846716
H       13.9920175945     2.8513264418     1.0102287762
H       18.4800640238     3.3027922381     1.3995219186
H       13.7246213530     1.0986516893     2.6793817188
H       18.5618794663     1.0799943519     2.3548652544
H       16.3881592747     0.9085674563     7.8074151497
H       14.2318927248     0.9896735657     6.6853985988
H       20.3519755789     2.6664989961     2.8226738843
H       16.1694155401     0.0668714266     5.5505444849
32
# Point -8 Energy = 0.0
C       20.6135568438     3.5279933386     7.6277616247
H       18.6945919919     3.6893282584     6.3459423448
C       19.4466045564     3.0286861571     6.7782752132
H       19.0710407800     2.5813827954     7.7119785430
H       20.3466486034     2.1167424422     5.5974661619
C       19.7795334636     1.5913810520     6.3886688079
H       19.0205147993     1.3343262131     5.6388015501
H       20.3130493886     0.7410325973     6.8070565838
H       21.0757406002     3.7510459573     6.6471286460
H       21.3486899460     3.1110859715     8.3107041219
H       20.4476756416     4.5996493467     7.7799257969
Si       16.4353958653     3.4059943017     4.3994903464
O       16.3156240568     4.9984696722     4.7366110252
O       17.9473098671     3.0641043140     3.8648297261
O       15.3842166299     2.9908468366     3.2043283300
O       16.0862313584     2.5685745948     5.7684802931
Si       16.5126336334     6.5916637451     4.3970922925
Si       13.9780819143     2.5593381478     2.4803884150
Si       18.8549367922     2.5233741508     2.6059917340
Si       15.7185478116     1.1365179468     6.4742400849
H       17.9056857845     6.8489480178     3.9152943984
H       15.5717497702     6.9579220762     3.2823339401
H       16.2699830885     7.4770638076     5.6036585312
H       12.8373102688     3.3097109961     3.0604086003
H       13.9870797508     2.8523153494     1.0129900472
H       18.4754515080     3.3038319904     1.3957252285
H       13.7222184251     1.0992910147     2.6821803992
H       18.5585723582     1.0808051557     2.3504242609
H       16.3933065858     0.9082029262     7.8061943036
H       14.2353457395     0.9895333015     6.6874544946
H       20.3494780237     2.6670864316     2.8158893465
H       16.1711747528     0.0670530935     5.5494501683
32
# Point -7 Energy = 0.0
C       20.6167095809     3.5475890265     7.6202635690
H       18.7218731673     3.6806439116     6.3185719326
C       19.4473037926     3.0178062982     6.7929328365
H       19.0135861705     2.5988211990     7.7139569923
H       20.3852896879     2.0811901197     5.5782872990
C       19.7859304449     1.5918177041     6.3672045608
H       19.0088237665     1.3074452941     5.6463633751
H       20.3129240411     0.7529296561     6.8182966726
H       21.1184596910     3.7656914736     6.6596433642
H       21.3293108787     3.1090881856     8.3149187765
H       20.4305968451     4.6095302984     7.8116972908
Si       16.4350633698     3.4062065319     4.3989453912
O       16.3161539670     4.9983728726     4.7368689504
O       17.9461274577     3.0647066513     3.8624006995
O       15.3830104450     2.9918173199     3.2054899600
O       16.0883227591     2.5692403855     5.7674323829
Si       16.5126241051     6.5922555808     4.3975477902
Si       13.9751921584     2.5602860798     2.4828933734
Si       18.8523529541     2.5240404168     2.6014305215
Si       15.7213919112     1.1359681426     6.4741294147
H       17.9050016536     6.8494986421     3.9138809454
H       15.5701595641     6.9587564412     3.2843193312
H       16.2717445822     7.4770361065     5.6048260978
H       12.8353886223     3.3105336793     3.0648158244
H       13.9823162098     2.8537832351     1.0156597572
H       18.4710274789     3.3050480190     1.3921879563
H       13.7197739913     1.1002339125     2.6846653519
H       18.5552818018     1.0816829202     2.3460006752
H       16.3980610743     0.9074069667     7.8048113141
H       14.2384931271     0.9892062368     6.6892097870
H       20.3470353558     2.6676060469     2.8094215915
H       16.1726499452     0.0670626456     5.5480915745
32
# Point -6 Energy = 0.0
C       20.6198947505     3.5670342318     7.6108913414
H       18.7504496319     3.6708724386     6.2930294713
C       19.4477489740     3.0067698813     6.8079111055
H       18.9591239892     2.6175414051     7.7138397897
H       20.4215078815     2.0439042203     5.5584091075
C       19.7924195519     1.5933361272     6.3457004307
H       18.9983385780     1.2805660931     5.6558657283
H       20.3112594598     0.7676752295     6.8316943681
H       21.1606378014     3.7819873599     6.6724808677
H       21.3073789275     3.1057206220     8.3174130246
H       20.4142566212     4.6174367206     7.8416697503
Si       16.4347441410     3.4063722169     4.3984994490
O       16.3166436673     4.9982108165     4.7372909112
O       17.9450054726     3.0653368904     3.8601639086
O       15.3819049795     2.9927893132     3.2066595950
O       16.0903446475     2.5697854316     5.7664136325
Si       16.5125682056     6.5928020098     4.3982585472
Si       13.9724585501     2.5612526802     2.4852931731
Si       18.8499333893     2.5248272383     2.5971008887
Si       15.7241480429     1.1352550425     6.4739503372
H       17.9042982676     6.8500541785     3.9128352802
H       15.5685976740     6.9595797265     3.2865122857
H       16.2733576124     7.4769006468     5.6062710175
H       12.8335758213     3.3113247162     3.0690824380
H       13.9778010264     2.8553500024     1.0182433122
H       18.4668326380     3.3064334397     1.3888971871
H       13.7174953041     1.1011804772     2.6869477299
H       18.5522190244     1.0826849352     2.3417159224
H       16.4026349001     0.9063969087     7.8033945148
H       14.2415424821     0.9886741642     6.6907829939
H       20.3447351470     2.6682825790     2.8033005553
H       16.1741234400     0.0669642565     5.5466466954
32
# Point -5 Energy = 0.0
C       20.6233570148     3.5856299093     7.5999042093
H       18.7809683280     3.6612109394     6.2694897807
C       19.4479974807     2.9959198666     6.8231709781
H       18.9076500123     2.6375759361     7.7117594914
H       20.4550232147     2.0051195828     5.5379927191
C       19.7984791580     1.5962344543     6.3240212488
H       18.9886735532     1.2547672168     5.6669338922
H       20.3069866185     0.7854071328     6.8467481596
H       21.2025620885     3.7992003018     6.6859874939
H       21.2827355590     3.0999131952     8.3181706144
H       20.3993911595     4.6227078766     7.8702497874
Si       16.4344497404     3.4065141380     4.3981216845
O       16.3169986703     4.9980144504     4.7377709949
O       17.9439743203     3.0660953661     3.8580913616
O       15.3809286799     2.9936559087     3.2078359844
O       16.0923781281     2.5702748544     5.7654369018
Si       16.5122591467     6.5933310440     4.3990404550
Si       13.9699321870     2.5619994751     2.4876200715
Si       18.8477346869     2.5258363130     2.5929924838
Si       15.7270018019     1.1344526241     6.4737877509
H       17.9033472514     6.8507147135     3.9119483991
H       15.5668219418     6.9603017490     3.2887192720
H       16.2745656178     7.4767270818     5.6077692400
H       12.8318766610     3.3117955452     3.0732153667
H       13.9735514369     2.8567068140     1.0207585167
H       18.4628591008     3.3080054363     1.3858081852
H       13.7155353889     1.1018845259     2.6891324105
H       18.5495369485     1.0838801890     2.3376313090
H       16.4072414923     0.9053572279     7.8020340563
H       14.2446909895     0.9879198469     6.6922793678
H       20.3426263865     2.6693300573     2.7974957754
H       16.1758458358     0.0668182275     5.5452473980
32
# Point -4 Energy = 0.0
C       20.6272687185     3.6028769619     7.5875491625
H       18.8139687877     3.6522105968     6.2477071315
C       19.4480914242     2.9854847528     6.8386475598
H       18.8590936934     2.6589501917     7.7078125998
H       20.4857640050     1.9650471424     5.5174789896
C       19.8038978840     1.6006873475     6.3022514278
H       18.9797452720     1.2308232162     5.6793477588
H       20.2994949850     0.8062206200     6.8631753423
H       21.2443947630     3.8165643058     6.7004507209
H       21.2552231620     3.0911481401     8.3172105019
H       20.3864463102     4.6248975913     7.8976194797
Si       16.4341698554     3.4066587743     4.3977781823
O       16.3171425204     4.9978146315     4.7382330555
O       17.9430312318     3.0670605775     3.8561368878
O       15.3800717375     2.9943632460     3.2090120571
O       16.0944697797     2.5707584425     5.7644967317
Si       16.5115442053     6.5938726707     4.3997702885
Si       13.9676118271     2.5623891079     2.4898994914
Si       18.8457603675     2.5271509340     2.5890609961
Si       15.7300742165     1.1336142739     6.4736813521
H       17.9019776629     6.8515585401     3.9110698882
H       15.5646470579     6.9608792036     3.2908202105
H       16.2751939086     7.4765687277     5.6091767883
H       12.8302648198     3.3117745239     3.0772360301
H       13.9695312833     2.8576751723     1.0232222723
H       18.4590579467     3.3097961267     1.3828601435
H       13.7139612087     1.1022031185     2.6912892452
H       18.5472996362     1.0853314578     2.3337466264
H       16.4120314216     0.9044089299     7.8007665315
H       14.2480690487     0.9869367509     6.6937639744
H       20.3407093972     2.6709040436     2.7919376497
H       16.1779724624     0.0666718801     5.5439562827
32
# Point -3 Energy = 0.0
C       20.6317054791     3.6184903270     7.5740038008
H       18.8498353641     3.6438029049     6.2272234063
C       19.4480429339     2.9755610732     6.8542718016
H       18.8133631483     2.6816247617     7.7020866996
H       20.5138301961     1.9239314573     5.4975080702
C       19.8087715745     1.6067267562     6.2806636409
H       18.9717494055     1.2091357989     5.6930936538
H       20.2886902971     0.8301631117     6.8808500327
H       21.2861061422     3.8333797530     6.7160107400
H       21.2247373530     3.0794789615     8.3145251409
H       20.3755513855     4.6237927353     7.9237242663
Si       16.4338748066     3.4068324011     4.3974369745
O       16.3170231172     4.9976382996     4.7386355405
O       17.9421447268     3.0682802128     3.8542500804
O       15.3792943267     2.9949108411     3.2101736251
O       16.0966229656     2.5712673286     5.7635720645
Si       16.5103390418     6.5944544101     4.4003923158
Si       13.9654548838     2.5623912021     2.4921402027
Si       18.8439708702     2.5288245188     2.5852473150
Si       15.7334033980     1.1327704345     6.4736255587
H       17.9000941100     6.8526330164     3.9101229026
H       15.5619669402     6.9613151095     3.2927696276
H       16.2751599591     7.4764582676     5.6104351682
H       12.8286931586     3.3112164515     3.0811639794
H       13.9656719268     2.8582134661     1.0256409583
H       18.4553593976     3.3118430144     1.3799934008
H       13.7127580707     1.1021032861     2.6934412239
H       18.5454885183     1.0870851474     2.3300170729
H       16.4170652057     0.9036041419     7.7995788192
H       14.2517201634     0.9857318622     6.6952527646
H       20.3389450502     2.6730847522     2.7865455233
H       16.1805466832     0.0665561955     5.5427689888
32
# Point -2 Energy = 0.0
C       20.6366531792     3.6323605215     7.5593541970
H       18.8887914689     3.6354638238     6.2075648159
C       19.4478324304     2.9661360067     6.8699902405
H       18.7703671420     2.7054752679     7.6946842954
H       20.5394209401     1.8820958794     5.4788038226
C       19.8134021179     1.6142584681     6.2596453193
H       18.9650516431     1.1897807318     5.7083464481
H       20.2748822668     0.8572093477     6.8997068201
H       21.3274648678     3.8490706139     6.7326084899
H       21.1912796430     3.0654164729     8.3100542607
H       20.3665987149     4.6193785000     7.9483341464
Si       16.4335246618     3.4070581135     4.3970726777
O       16.3166122801     4.9975064393     4.7389676735
O       17.9412680280     3.0697732342     3.8523896757
O       15.3785433694     2.9953374059     3.2113012205
O       16.0988048057     2.5718158822     5.7626335158
Si       16.5086209874     6.5950986080     4.4009075280
Si       13.9633996546     2.5620576792     2.4943317031
Si       18.8423055940     2.5308812245     2.5814977838
Si       15.7369551901     1.1319320404     6.4735821070
H       17.8976710614     6.8539565748     3.9090985836
H       15.5587513587     6.9616459355     3.2945796602
H       16.2744565862     7.4764096142     5.6115550829
H       12.8271094395     3.3101748763     3.0850052637
H       13.9618999000     2.8583852076     1.0280063871
H       18.4516966327     3.3141818128     1.3771640429
H       13.7118581782     1.1016370396     2.6955679207
H       18.5440328169     1.0891692256     2.3263792776
H       16.4223189141     0.9029394238     7.7984249928
H       14.2556112880     0.9843226584     6.6967190202
H       20.3372751698     2.6758862497     2.7812541820
H       16.1835202692     0.0664871208     5.5416342055
32
# Point -1 Energy = 0.0
C       20.6420300951     3.6444974860     7.5436015839
H       18.9309182807     3.6264068384     6.1883712095
C       19.4474146893     2.9571271796     6.8857779276
H       18.7300217558     2.7303016724     7.6857391056
H       20.5627600347     1.8399601797     5.4620582127
C       19.8181667516     1.6230978688     6.2396200351
H       18.9600615881     1.1726052489     5.7254125366
H       20.2586057651     0.8872358014     6.9196624767
H       21.3680701442     3.8632049963     6.7499697050
H       21.1549913875     3.0497646501     8.3036980663
H       20.3593662048     4.6117861723     7.9711294412
Si       16.4330792778     3.4073543615     4.3966694868
O       16.3159011001     4.9974338066     4.7392416204
O       17.9403535762     3.0715380126     3.8505326942
O       15.3777691528     2.9957023518     3.2123731147
O       16.1009600073     2.5724061714     5.7616511283
Si       16.5064115131     6.5958216925     4.4013557632
Si       13.9613874197     2.5614873429     2.4964463948
Si       18.8407054277     2.5333236883     2.5777792115
Si       15.7406474730     1.1310963644     6.4734963334
H       17.8947344382     6.8555269180     3.9080400432
H       15.5550279959     6.9619253822     3.2962972657
H       16.2731236137     7.4764229966     5.6125921224
H       12.8254703309     3.3087605876     3.0887467296
H       13.9581602352     2.8583140626     1.0302960026
H       18.4480246249     3.3168429713     1.3743527053
H       13.7111748374     1.1009050088     2.6976166967
H       18.5428452008     1.0915966805     2.3227750771
H       16.4277071143     0.9023762130     7.7972459286
H       14.2596577452     0.9827314804     6.6981068000
H       20.3356434095     2.6792785541     2.7760317769
H       16.1867894093     0.0664692593     5.5404781643
32
# Point 0 Energy = 0
C       20.6477110000     3.6549790000     7.5266840000
H       18.9761800000     3.6157410000     6.1694560000
C       19.4467280000     2.9484220000     6.9016430000
H       18.6922510000     2.7558520000     7.6754250000
H       20.5840390000     1.7980300000     5.4478400000
C       19.8234060000     1.6330100000     6.2209870000
H       18.9571360000     1.1573250000     5.7446630000
H       20.2404540000     0.9200090000     6.9405780000
H       21.4074060000     3.8754920000     6.7676150000
H       21.1161610000     3.0334640000     8.2953550000
H       20.3536290000     4.6012450000     7.9917750000
Si       16.4325060000     3.4077350000     4.3962220000
O       16.3148940000     4.9974300000     4.7394840000
O       17.9393640000     3.0735620000     3.8486780000
O       15.3769370000     2.9960700000     3.2133680000
O       16.1030250000     2.5730330000     5.7606000000
Si       16.5037570000     6.5966350000     4.4017980000
Si       13.9593780000     2.5607940000     2.4984440000
Si       18.8391290000     2.5361430000     2.5740860000
Si       15.7443760000     1.1302530000     6.4733110000
H       17.8913405600     6.8573308000     3.9070238400
H       15.5508605600     6.9622108000     3.2979838400
H       16.2712205600     7.4764908000     5.6136238400
H       12.8237502400     3.3071035200     3.0923555200
H       13.9544302400     2.8581435200     1.0324755200
H       18.4443303200     3.3198514400     1.3715668800
H       13.7106302400     1.1000235200     2.6995155200
H       18.5418503200     1.0943714400     2.3191668800
H       16.4331100800     0.9018602400     7.7959848800
H       14.2637500800     0.9809802400     6.6993448800
H       20.3340103200     2.6832114400     2.7708868800
H       16.1902300800     0.0665002400     5.5392248800
32
# Point 1 Energy = 0.0
C       20.6535631057     3.6639109384     7.5084963425
H       19.0245101633     3.6026276757     6.1508182120
C       19.4457133503     2.9399189402     6.9176180888
H       18.6569754045     2.7818713550     7.6639344818
H       20.6033993306     1.7567496305     5.4364849481
C       19.8293419252     1.6437766471     6.2040296868
H       18.9565126057     1.1436243571     5.7664360023
H       20.2208927382     0.9552852826     6.9622866833
H       21.4450067599     3.8858033666     6.7849896899
H       21.0750957905     3.0173719581     8.2849491346
H       20.3492000330     4.5880116483     8.0099951909
Si       16.4317863043     3.4082102317     4.3957352162
O       16.3136029655     4.9975014475     4.7397269709
O       17.9382796999     3.0758324086     3.8468426539