32
# Point -15 Energy = 0.0
C       20.6305616881     3.7221648584     7.4796797314
H       18.9726910423     3.6486172582     6.1222445901
C       19.4334635884     2.9950750398     6.8719877496
H       18.6746142380     2.8190446073     7.6459819924
H       20.5784820552     1.8179714863     5.4497478893
C       19.8176383380     1.6662736770     6.2234850489
H       18.9538883764     1.1823981230     5.7525495239
H       20.2268794761     0.9704640522     6.9648105983
H       21.3851997302     3.9253291067     6.7110538650
H       21.1050521094     3.1245834514     8.2639439308
H       20.3332094582     4.6809595086     7.9166460401
Si       16.4645729113     3.3656770631     4.3525884762
O       16.4291930108     4.9512280053     4.6521558914
O       17.9545673680     3.0541239890     3.8698281005
O       15.3534962949     2.9786084239     3.1729993273
O       16.1459158677     2.5740185839     5.7247355346
Si       16.1692887104     6.5570214914     4.5493661183
Si       14.0267060632     2.3577984222     2.3783320394
Si       18.5438488741     2.5793168028     2.4323030999
Si       15.5527517149     1.2474848495     6.4730094405
H       18.0864229934     6.5800074434     4.1014068864
H       15.6852694428     7.0535598677     3.6401890532
H       16.5716932705     7.2292086176     5.7563940400
H       12.8548473414     3.3052684943     2.9727526843
H       14.0190381910     2.8341733923     0.9627147455
H       18.3763899360     3.2591423279     1.3929376125
H       13.7151403142     1.0783389725     2.5912976470
H       18.5815346093     1.1033174284     2.3201201611
H       16.4488954067     0.9985593988     7.8156897929
H       14.2706300549     1.0609759269     6.7332047929
H       20.3115655431     2.6700824480     2.7949352685
H       16.1945325811     0.0825088819     5.6380736875
32
# Point -14 Energy = 0.0
C       20.6347264350     3.7130308833     7.4847822720
H       18.9758869402     3.6442970735     6.1272685936
C       19.4366727229     2.9888677812     6.8754116806
H       18.6779371145     2.8119440136     7.6492771712
H       20.5800538387     1.8133832587     5.4502601027
C       19.8190700157     1.6610072824     6.2238547667
H       18.9546884939     1.1788329054     5.7522201446
H       20.2281544971     0.9631335752     6.9632754339
H       21.3899049490     3.9171577570     6.7169249600
H       21.1082306494     3.1128491154     8.2676243509
H       20.3385150670     4.6710040184     7.9242849307
Si       16.4651407117     3.3699737397     4.3570754670
O       16.4258652007     4.9558063912     4.6606010249
O       17.9560086150     3.0557702645     3.8697514313
O       15.3572447049     2.9830259301     3.1771013929
O       16.1450771188     2.5748389026     5.7282325929
Si       16.1795235170     6.5628709553     4.5313809016
Si       14.0227847611     2.3726514249     2.3900650218
Si       18.5659111812     2.5752167074     2.4408335532
Si       15.5652423970     1.2387893373     6.4720851653
H       18.0641284683     6.6214329164     4.0860810831
H       15.6698718052     7.0493452532     3.6005349064
H       16.5336738439     7.2611306080     5.7448053332
H       12.8530318003     3.3066385671     2.9851606930
H       14.0139424809     2.8356173853     0.9698592898
H       18.3880817306     3.2626017315     1.3891889354
H       13.7155266552     1.0812724197     2.6050136551
H       18.5775322320     1.0985163224     2.3207434639
H       16.4465697678     0.9892624943     7.8143726448
H       14.2696641904     1.0543410568     6.7295716100
H       20.3159293015     2.6673490778     2.7923654031
H       16.1933893929     0.0813428507     5.6271573846
32
# Point -13 Energy = 0.0
C       20.6384402856     3.7044120332     7.4898330862
H       18.9786392761     3.6402321997     6.1322621893
C       19.4395540946     2.9829855068     6.8787868634
H       18.6809669643     2.8050246762     7.6525235456
H       20.5814909819     1.8093488944     5.4506995455
C       19.8203979752     1.6561513919     6.2241531250
H       18.9554658423     1.1755394441     5.7518203258
H       20.2294481102     0.9562759654     6.9616495373
H       21.3941201258     3.9096402730     6.7227452291
H       21.1110634087     3.1017028051     8.2712332213
H       20.3432074871     4.6614976120     7.9318877020
Si       16.4653104477     3.3741314765     4.3615695374
O       16.4218618176     4.9602131700     4.6690860707
O       17.9570908704     3.0575505212     3.8696677619
O       15.3606732352     2.9871437047     3.1811958036
O       16.1439685038     2.5754425500     5.7317114705
Si       16.1917273496     6.5684486868     4.5141434811
Si       14.0187299074     2.3875674661     2.4014779831
Si       18.5876413955     2.5715875697     2.4496263865
Si       15.5778524619     1.2299926204     6.4712629620
H       18.0428707873     6.6590169881     4.0698826736
H       15.6555940238     7.0440342652     3.5623789400
H       16.4979397340     7.2910439338     5.7324359195
H       12.8511594091     3.3079731951     2.9973777011
H       14.0087918498     2.8374999498     0.9769437507
H       18.3986682154     3.2666265471     1.3859663194
H       13.7158301421     1.0842097576     2.6178997144
H       18.5736846789     1.0947169497     2.3212442266
H       16.4445250120     0.9800213978     7.8129700531
H       14.2688589490     1.0476102380     6.7260887111
H       20.3199234632     2.6655052409     2.7899581623
H       16.1924837947     0.0801549697     5.6166833607
32
# Point -12 Energy = 0.0
C       20.6416950118     3.6963558482     7.4947789758
H       18.9809399849     3.6364419140     6.1371705949
C       19.4420967872     2.9774644223     6.8820755872
H       18.6836912404     2.7983445619     7.6556862467
H       20.5827803906     1.8058648080     5.4510597972
C       19.8216074679     1.6517240474     6.2243759433
H       18.9562041513     1.1725268474     5.7513560602
H       20.2307426780     0.9499260770     6.9599467497
H       21.3978387167     3.9028029213     6.7284579286
H       21.1135397954     3.0912092957     8.2747331011
H       20.3472813940     4.6525001820     7.9393769223
Si       16.4650724699     3.3781331690     4.3660177357
O       16.4171780930     4.9644366748     4.6775188025
O       17.9578056164     3.0594309741     3.8695349333
O       15.3637731593     2.9909212906     3.1852370830
O       16.1425766705     2.5758467542     5.7351381600
Si       16.2058760780     6.5737179668     4.4977694826
Si       14.0145456687     2.4024815120     2.4125225696
Si       18.6090313388     2.5683736450     2.4586496300
Si       15.5905618552     1.2211418280     6.4705436295
H       18.0227905379     6.6928296786     4.0530571015
H       15.6423863161     7.0377634355     3.5259830403
H       16.4646738635     7.3188667269     5.7195444171
H       12.8492244131     3.3092265907     3.0092986554
H       14.0036164177     2.8397240926     0.9838969721
H       18.4081514196     3.2711252363     1.3832297124
H       13.7160433322     1.0870917417     2.6299241014
H       18.5700042743     1.0918404395     2.3216290608
H       16.4427374866     0.9709122705     7.8114957289
H       14.2681927115     1.0408372576     6.7227614281
H       20.3235308296     2.6644880709     2.7877075949
H       16.1917904299     0.0789517194     5.6066876138
32
# Point -11 Energy = 0.0
C       20.6444865181     3.6889066680     7.4995656446
H       18.9827853183     3.6329431301     6.1419374882
C       19.4442930552     2.9723385279     6.8852396839
H       18.6861002888     2.7919616809     7.6587302651
H       20.5839103004     1.8029212945     5.4513353989
C       19.8226848404     1.6477394251     6.2245202614
H       18.9568876075     1.1698010798     5.7508350118
H       20.2320204470     0.9441151011     6.9581832876
H       21.4010586316     3.8966665847     6.7340048632
H       21.1156522738     3.0814303771     8.2780865252
H       20.3507370929     4.6440696458     7.9466728649
Si       16.4644214621     3.3819609952     4.3703649837
O       16.4118160997     4.9684653410     4.6858026806
O       17.9581480534     3.0613736190     3.8693093854
O       15.3665396121     2.9943176349     3.1891781405
O       16.1408912305     2.5760703508     5.7384779361
Si       16.2219349559     6.5786391946     4.4823668712
Si       14.0102390026     2.4173291207     2.4231487949
Si       18.6300753861     2.5655125273     2.4678712110
Si       15.6033509043     1.2122871054     6.4699300281
H       18.0040020147     6.7229647700     4.0358671219
H       15.6301946182     7.0306942611     3.4915993009
H       16.4340262269     7.3445296513     5.7063965594
H       12.8472247931     3.3103561785     3.0208169269
H       13.9984497929     2.8421901213     0.9906469130
H       18.4165403277     3.2759958776     1.3809363686
H       13.7161599439     1.0898610050     2.6410575124
H       18.5665025393     1.0898003875     2.3219045990
H       16.4411832869     0.9620149771     7.8099656665
H       14.2676439368     1.0340811379     6.7195966932
H       20.3267369588     2.6642240294     2.7856079752
H       16.1912830800     0.0777401994     5.5972083970
32
# Point -10 Energy = 0.0
C       20.6468149357     3.6821050902     7.5041382194
H       18.9841758671     3.6297501984     6.1465056752
C       19.4461384355     2.9676391913     6.8882409353
H       18.6881875114     2.7859333497     7.6616208867
H       20.5848703950     1.8005026400     5.4515217448
C       19.8236177034     1.6442076379     6.2245842681
H       18.9575010280     1.1673648602     5.7502663788
H       20.2332638062     0.9388701406     6.9563774035
H       21.4037822757     3.8912465271     6.7393268868
H       21.1173965409     3.0724240834     8.2812562840
H       20.3535805676     4.6362612499     7.9536943785
Si       16.4633563992     3.3855966465     4.3745549021
O       16.4057846239     4.9722878961     4.6938382018
O       17.9581170422     3.0633366936     3.8689467256
O       15.3689714798     2.9972915978     3.1929710983
O       16.1389048382     2.5761335399     5.7416959696
Si       16.2398584260     6.5831699813     4.4680362970
Si       14.0058196334     2.4320471481     2.4333056480
Si       18.6507702961     2.5629360793     2.4772592705
Si       15.6162004667     1.2034809760     6.4694273055
H       17.9865933187     6.7495383251     4.0185908218
H       15.6189639961     7.0230121675     3.4594658952
H       16.4061097243     7.3679763002     5.6932602660
H       12.8451621702     3.3113230667     3.0318254822
H       13.9933287981     2.8447968783     0.9971214494
H       18.4238503673     3.2811276646     1.3790412388
H       13.7161749470     1.0924625405     2.6512733740
H       18.5631900559     1.0885040165     2.3220772462
H       16.4398385325     0.9534121305     7.8083981756
H       14.2671913587     1.0274054247     6.7166032648
H       20.3295301504     2.6646299660     2.7836536779
H       16.1909349088     0.0765279922     5.5882859888
32
# Point -9 Energy = 0.0
C       20.6486846817     3.6759874223     7.5084417992
H       18.9851165390     3.6268747239     6.1508178059
C       19.4476318270     2.9633947223     6.8910414925
H       18.6899494994     2.7803154136     7.6643241270
H       20.5856519106     1.7985873222     5.4516149529
C       19.8243950902     1.6411345867     6.2245671939
H       18.9580300256     1.1652176142     5.7496607094
H       20.2344555491     0.9342138161     6.9545489733
H       21.4060165520     3.8865521922     6.7443644483
H       21.1187716810     3.0642438972     8.2842056974
H       20.3558234786     4.6291268340     7.9603598191
Si       16.4618804459     3.3890216031     4.3785307088
O       16.3990989529     4.9758935651     4.7015243879
O       17.9577149944     3.0652752438     3.8684023534
O       15.3710712309     2.9998025394     3.1965681837
O       16.1366132278     2.5760576332     5.7447579656
Si       16.2595899163     6.5872653821     4.4548716541
Si       14.0012999830     2.4465745064     2.4429417734
Si       18.6711150104     2.5605715311     2.4867824942
Si       15.6290920692     1.1947776758     6.4690430533
H       17.9706269879     6.7726871511     4.0015192420
H       15.6086418316     7.0149242516     3.4298029720
H       16.3809966415     7.3891634568     5.6804004332
H       12.8430416653     3.3120925034     3.0422181274
H       13.9882931523     2.8474430864     1.0032492461
H       18.4301027874     3.2864026504     1.3774974537
H       13.7160846330     1.0948442168     2.6605481407
H       18.5600763196     1.0878535162     2.3221529755
H       16.4386796439     0.9451880608     7.8068138273
H       14.2668141748     1.0208774158     6.7137918841
H       20.3319013933     2.6656143958     2.7818390804
H       16.1907187047     0.0753230701     5.5799623844
32
# Point -8 Energy = 0.0
C       20.6501044864     3.6705851402     7.5124220215
H       18.9856165016     3.6243254147     6.1548171160
C       19.4487755412     2.9596299697     6.8936042956
H       18.6913861372     2.7751614668     7.6668071469
H       20.5862477224     1.7971482903     5.4516117301
C       19.8250075943     1.6385218640     6.2244691832
H       18.9584611538     1.1633554901     5.7490296856
H       20.2355791199     0.9301639189     6.9527190349
H       21.4077728357     3.8825870326     6.7490581724
H       21.1197802949     3.0569379507     8.2868988811
H       20.3574831261     4.6227140791     7.9665880156
Si       16.4600008164     3.3922174693     4.3822361526
O       16.3917806138     4.9792723060     4.7087603514
O       17.9569477303     3.0671417830     3.8676321208
O       15.3728447103     3.0018109900     3.1999226451
O       16.1340152148     2.5758648280     5.7476307951
Si       16.2810616807     6.5908782926     4.4429607737
Si       13.9966950751     2.4608529855     2.4520061881
Si       18.6911104441     2.5583427079     2.4964104521
Si       15.6420080253     1.1862325152     6.4687873788
H       17.9561410735     6.7925671963     3.9849534713
H       15.5991804356     7.0066556931     3.4028088727
H       16.3587159484     7.4080610303     5.6680737438
H       12.8408717370     3.3126343477     3.0518907624
H       13.9833851391     2.8500287915     1.0089606576
H       18.4353239777     3.2916976759     1.3762568911
H       13.7158866712     1.0969573469     2.6688615589
H       18.5571695873     1.0877475176     2.3221371804
H       16.4376836006     0.9374277804     7.8052353096
H       14.2664922137     1.0145674013     6.7111753460
H       20.3338442932     2.6670789443     2.7801585076
H       16.1906070986     0.0741337804     5.5722809181
32
# Point -7 Energy = 0.0
C       20.6510873960     3.6659243808     7.5160256256
H       18.9856891035     3.6221079758     6.1584481618
C       19.4495753243     2.9563659657     6.8958934801
H       18.6925006682     2.7705221188     7.6690386345
H       20.5866524078     1.7961533110     5.4515092477
C       19.8254474777     1.6363667238     6.2242911556
H       18.9587820219     1.1617714493     5.7483858882
H       20.2366188229     0.9267331306     6.9509093095
H       21.4090669296     3.8793483717     6.7533494576
H       21.1204285956     3.0505482607     8.2893010004
H       20.3585823858     4.6170657758     7.9722992288
Si       16.4577286148     3.3951663718     4.3856164363
O       16.3838570966     4.9824150878     4.7154468621
O       17.9558243228     3.0688870299     3.8665930005
O       15.3743009203     3.0032794019     3.2029896465
O       16.1311126644     2.5755780451     5.7502830888
Si       16.3041947383     6.5939600214     4.4323861493
Si       13.9920224320     2.4748281329     2.4604489961
Si       18.7107592860     2.5561713338     2.5061139346
Si       15.6549315206     1.1779013280     6.4686728838
H       17.9431505702     6.8093518243     3.9692011717
H       15.5905388010     6.9984448212     3.3786569858
H       16.3392515686     7.4246514700     5.6565238258
H       12.8386640253     3.3129235768     3.0607425802
H       13.9786492934     2.8524568700     1.0141886123
H       18.4395447756     3.2968864042     1.3752708049
H       13.7155801523     1.0987573218     2.6761968790
H       18.5544767297     1.0880826502     2.3220345932
H       16.4368281554     0.9302160195     7.8036871932
H       14.2662060661     1.0085479938     6.7087684664
H       20.3353549941     2.6689198900     2.7786062305
H       16.1905727389     0.0729689418     5.5652858293
32
# Point -6 Energy = 0.0
C       20.6516507472     3.6620254964     7.5192009895
H       18.9853517803     3.6202250659     6.1616575158
C       19.4500403478     2.9536196451     6.8978747519
H       18.6932997193     2.7664443565     7.6709891336
H       20.5868622844     1.7955653686     5.4513050419
C       19.8257087397     1.6346621264     6.2240346704
H       18.9589813692     1.1604554388     5.7477425590
H       20.2375599780     0.9239288339     6.9491417320
H       21.4099190051     3.8768273071     6.7571810708
H       21.1207264633     3.0451100379     8.2913785071
H       20.3591496260     4.6122191545     7.9774160597
Si       16.4550786710     3.3978514251     4.3886190821
O       16.3753615872     4.9853142184     4.7214878333
O       17.9543569412     3.0704607017     3.8652437304
O       15.3754518059     3.0041729672     3.2057270905
O       16.1279104317     2.5752208623     5.7526857576
Si       16.3288989526     6.5964610356     4.4232255894
Si       13.9873019798     2.4884501781     2.4682220544
Si       18.7300658256     2.5539783532     2.5158652728
Si       15.6678466543     1.1698400549     6.4687145447
H       17.9316491071     6.8232298814     3.9545725940
H       15.5826833252     6.9905369600     3.3574935171
H       16.3225417111     7.4389285161     5.6459770644
H       12.8364332184     3.3129408363     3.0686771430
H       13.9741321288     2.8546345570     1.0188694286
H       18.4427998070     3.3018413731     1.3744904883
H       13.7151656234     1.1002043051     2.6825409970
H       18.5520030968     1.0887551177     2.3218492726
H       16.4360919874     0.9236364025     7.8021956136
H       14.2659371658     1.0028936096     6.7065879379
H       20.3364321080     2.6710297400     2.7771765227
H       16.1905884114     0.0718380737     5.5590217940
32
# Point -5 Energy = 0.0
C       20.6518161142     3.6589027038     7.5218986191
H       18.9846259478     3.6186763272     6.1643943889
C       19.4501831672     2.9514036628     6.8995157146
H       18.6937932784     2.7629710427     7.6726313040
H       20.5868754156     1.7953431123     5.4509969430
C       19.8257871430     1.6333968659     6.2237018001
H       18.9590490930     1.1593946484     5.7471133713
H       20.2383890108     0.9217530301     6.9474380168
H       21.4103535292     3.8750086675     6.7604977108
H       21.1206874517     3.0406511143     8.2930993479
H       20.3592186029     4.6082053176     7.9818642671
Si       16.4520693806     3.4002572524     4.3911946948
O       16.3663327241     4.9879637220     4.7267916552
O       17.9525607026     3.0718123360     3.8635454037
O       15.3763120541     3.0044604745     3.2080963293
O       16.1244162749     2.5748175587     5.7548124146
Si       16.3550732737     6.5983318563     4.4155527044
Si       13.9825559719     2.5016749695     2.4752795555
Si       18.7490358132     2.5516852126     2.5256386266
Si       15.6807384310     1.1621044889     6.4689294969
H       17.9216108113     6.8344034520     3.9413762572
H       15.5755874772     6.9831773092     3.3394363713
H       16.3084792959     7.4508952443     5.6366392866
H       12.8341969534     3.3126730209     3.0756032814
H       13.9698819198     2.8564749328     1.0229435237
H       18.4451268892     3.3064359836     1.3738679392
H       13.7146451159     1.1012639667     2.6878845175
H       18.5497524043     1.0896622341     2.3215846603
H       16.4354547829     0.9177708177     7.8007878796
H       14.2656678167     0.9976801404     6.7046520726
H       20.3370766591     2.6732987736     2.7758637688
H       16.1906270941     0.0707517609     5.5535334371
32
# Point -4 Energy = 0.0
C       20.6516092227     3.6565638482     7.5240715690
H       18.9835368800     3.6174584962     6.1666111567
C       19.4500196454     2.9497263232     6.9007861362
H       18.6939946231     2.7601405726     7.6739401034
H       20.5866915872     1.7954413410     5.4505830378
C       19.8256801942     1.6325557844     6.2232950181
H       18.9589762329     1.1585738481     5.7465122172
H       20.2390934788     0.9202023778     6.9458192729
H       21.4103991729     3.8738710392     6.7632465216
H       21.1203287425     3.0371915199     8.2944331390
H       20.3588283327     4.6050488061     7.9855734631
Si       16.4487225496     3.4023705422     4.3932975934
O       16.3568143762     4.9903597530     4.7312723225
O       17.9504535302     3.0728921141     3.8614619811
O       15.3768989111     3.0041151674     3.2100627361
O       16.1206407414     2.5743932672     5.7566396802
Si       16.3826061408     6.5995240647     4.4094371633
Si       13.9778089324     2.5144648795     2.4815784997
Si       18.7676763535     2.5492150548     2.5354102305
Si       15.6935927055     1.1547501846     6.4693367326
H       17.9129922619     6.8430852104     3.9299145383
H       15.5692305339     6.9766032400     3.3245752150
H       16.2969134278     7.4605614993     5.6286934120
H       12.8319757487     3.3121138522     3.0814357856
H       13.9659485393     2.8578983077     1.0263559863
H       18.4465665124     3.3105463555     1.3733564972
H       13.7140221680     1.1019082179     2.6922217333
H       18.5477266469     1.0907038658     2.3212436943
H       16.4348972447     0.9126989986     7.7994920216
H       14.2653811676     0.9929848181     6.7029804407
H       20.3372920408     2.6756165096     2.7746626167
H       16.1906619549     0.0697221405     5.5488648449
32
# Point -3 Energy = 0.0
C       20.6510598279     3.6550102967     7.5256757847
H       18.9821135666     3.6165655866     6.1682637760
C       19.4495688408     2.9485916207     6.9016581484
H       18.6939202035     2.7579866917     7.6748928899
H       20.5863122528     1.7958115207     5.4500616594
C       19.8253870845     1.6321200669     6.2228170992
H       18.9587549147     1.1579757925     5.7459530124
H       20.2396620422     0.9192683487     6.9443056752
H       21.4100886946     3.8733868709     6.7653775379
H       21.1196710497     3.0347432265     8.2953512992
H       20.3580229302     4.6027673139     7.9884776712
Si       16.4450632359     3.4041806121     4.3948862976
O       16.3468554290     4.9925010227     4.7348503338
O       17.9480560145     3.0736516580     3.8589607111
O       15.3772320081     3.0031155642     3.2115961250
O       16.1165970287     2.5739742123     5.7581473673
Si       16.4113760242     6.5999913693     4.4049447001
Si       13.9730876142     2.5267896314     2.4870790498
Si       18.7859958217     2.5464937934     2.5451585887
Si       15.7063960900     1.1478325054     6.4699567255
H       17.9057344541     6.8494953056     3.9204794562
H       15.5635956129     6.9710364640     3.3129726467
H       16.2876518121     7.4679409389     5.6222980191
H       12.8297929592     3.3112644087     3.0860958815
H       13.9623833372     2.8588334440     1.0290570080
H       18.4471613946     3.3140530034     1.3729114319
H       13.7133018410     1.1021159012     2.6955505293
H       18.5459260411     1.0917837424     2.3208289677
H       16.4344010452     0.9084983059     7.7983362976
H       14.2650611462     0.9888862415     6.7015934206
H       20.3370839795     2.6778730669     2.7735681592
H       16.1906663031     0.0687634730     5.5450590897
32
# Point -2 Energy = 0.0
C       20.6502015560     3.6542369535     7.5266703678
H       18.9803885453     3.6159891316     6.1693120964
C       19.4488528628     2.9479993780     6.9021063819
H       18.6935894878     2.7565384522     7.6754694505
H       20.5857404555     1.7964023271     5.4494313971
C       19.8249086012     1.6320676022     6.2222710324
H       18.9583782697     1.1575816704     5.7454495209
H       20.2400843977     0.9189374913     6.9429161895
H       21.4094587917     3.8735226589     6.7668440595
H       21.1187384790     3.0333100543     8.2958271445
H       20.3568514091     4.6013715454     7.9905157511
Si       16.4411195808     3.4056799475     4.3959238754
O       16.3365095585     4.9943892112     4.7374533679
O       17.9453912638     3.0740447786     3.8560124587
O       15.3773331862     3.0014461970     3.2126710287
O       16.1123008231     2.5735879958     5.7593185575
Si       16.4412520676     6.5996906772     4.4021368851
Si       13.9684209590     2.5386270007     2.4917447759
Si       18.8040037909     2.5434510529     2.5548646192
Si       15.7191358387     1.1414067625     6.4708110034
H       17.8997646962     6.8538577715     3.9133489000
H       15.5586672765     6.9666755533     3.3046662721
H       16.2804639653     7.4730480044     5.6175866524
H       12.8276747380     3.3101335569     3.0895115147
H       13.9592390398     2.8592185704     1.0310021823
H       18.4469560984     3.3168423132     1.3724904722
H       13.7124907303     1.1018733882     2.6978722239
H       18.5443490003     1.0928106155     2.3203429136
H       16.4339487456     0.9052436677     7.7973486707
H       14.2646923739     0.9854645070     6.7005116852
H       20.3364604922     2.6799604115     2.7725761363
H       16.1906135191     0.0678927521     5.5421577733
32
# Point -1 Energy = 0.0
C       20.6490717112     3.6542323793     7.5270177725
H       18.9783977045     3.6157184615     6.1697200792
C       19.4478967013     2.9479454553     6.9021080462
H       18.6930247803     2.7558202711     7.6756519723
H       20.5849807326     1.7971602034     5.4486911206
C       19.8242470215     1.6323733897     6.2216599415
H       18.9578403403     1.1573715769     5.7450151944
H       20.2403511982     0.9191917738     6.9416683437
H       21.4085499175     3.8742392064     6.7676029607
H       21.1175583559     3.0328877212     8.2958359473
H       20.3553674417     4.6008651942     7.9916317085
Si       16.4369226184     3.4068646836     4.3963781712
O       16.3258349723     4.9960293312     4.7390167701
O       17.9424847373     3.0740281563     3.8525919516
O       15.3772263087     2.9990982388     3.2132668559
O       16.1077701193     2.5732638844     5.7601395869
Si       16.4720947920     6.5985831218     4.4010707154
Si       13.9638400507     2.5499633552     2.4955428115
Si       18.8217109554     2.5400209726     2.5645117515
Si       15.7317997328     1.1355283891     6.4719216873
H       17.8949983577     6.8563965230     3.9087834772
H       15.5544289601     6.9636892513     3.2996713886
H       16.2750850518     7.4758951579     5.6146676228
H       12.8256499898     3.3087382383     3.0916174793
H       13.9565696475     2.8590021630     1.0321526990
H       18.4459966850     3.3188078175     1.3720542738
H       13.7115969721     1.1011750458     2.6991913674
H       18.5429921409     1.0936992590     2.3197879984
H       16.4335237113     0.9030076161     7.7965562781
H       14.2642600824     0.9828013719     6.6997556473
H       20.3354318251     2.6817734928     2.7716831467
H       16.1904769845     0.0671302980     5.5402005931
32
# Point 0 Energy = 0
C       20.6477110000     3.6549790000     7.5266840000
H       18.9761800000     3.6157410000     6.1694560000
C       19.4467280000     2.9484220000     6.9016430000
H       18.6922510000     2.7558520000     7.6754250000
H       20.5840390000     1.7980300000     5.4478400000
C       19.8234060000     1.6330100000     6.2209870000
H       18.9571360000     1.1573250000     5.7446630000
H       20.2404540000     0.9200090000     6.9405780000
H       21.4074060000     3.8754920000     6.7676150000
H       21.1161610000     3.0334640000     8.2953550000
H       20.3536290000     4.6012450000     7.9917750000
Si       16.4325060000     3.4077350000     4.3962220000
O       16.3148940000     4.9974300000     4.7394840000
O       17.9393640000     3.0735620000     3.8486780000
O       15.3769370000     2.9960700000     3.2133680000
O       16.1030250000     2.5730330000     5.7606000000
Si       16.5037570000     6.5966350000     4.4017980000
Si       13.9593780000     2.5607940000     2.4984440000
Si       18.8391290000     2.5361430000     2.5740860000
Si       15.7443760000     1.1302530000     6.4733110000
H       17.8913405600     6.8573308000     3.9070238400
H       15.5508605600     6.9622108000     3.2979838400
H       16.2712205600     7.4764908000     5.6136238400
H       12.8237502400     3.3071035200     3.0923555200
H       13.9544302400     2.8581435200     1.0324755200
H       18.4443303200     3.3198514400     1.3715668800
H       13.7106302400     1.1000235200     2.6995155200
H       18.5418503200     1.0943714400     2.3191668800
H       16.4331100800     0.9018602400     7.7959848800
H       14.2637500800     0.9809802400     6.6993448800
H       20.3340103200     2.6832114400     2.7708868800
H       16.1902300800     0.0665002400     5.5392248800
32
# Point 1 Energy = 0.0
C       20.6461653571     3.6564516056     7.5256390651
H       18.9737795720     3.6160420064     6.1684925020
C       19.4453783275     2.9494169821     6.9006941176
H       18.6912965573     2.7566494673     7.6747755895
H       20.5829230528     1.7989529722     5.4468786648
C       19.8223907039     1.6339465850     6.2202563689
H       18.9562607249     1.1574205678     5.7444062715
H       20.2403845074     0.9213616681     6.9396606026
H       21.4060766868     3.8772286917     6.7668454902
H       21.1145807384     3.0350170285     8.2943643734
H       20.3517010040     4.6024996387     7.9909005809
Si       16.4279083430     3.4082968600     4.3954326177
O       16.3037569229     4.9986053543     4.7388055435
O       17.9360608733     3.0726101472     3.8442535450