32
# Point -15 Energy = 0.0
C       20.7655189934     3.6202507646     7.4013496613
H       18.6943884948     3.5126360866     6.4529779790
C       19.5776109786     2.9261053549     6.7860931229
H       18.5952663033     3.1163658338     7.2578207619
H       20.7694427444     2.2015321959     5.7351171509
C       19.9496171583     1.6562061556     6.1720741040
H       19.2930585921     0.7908059969     6.3470673135
H       19.8646043900     0.6425782301     6.5995600713
H       20.8573513448     3.5279458607     6.3437240225
H       20.7589794647     3.9102136925     8.4653417355
H       20.8695165958     3.9289697093     8.4599665199
Si       16.4476796776     3.4138461278     4.3803044223
O       16.3353852017     5.0019866128     4.7288565533
O       17.9511933529     3.0817241230     3.8113658897
O       15.3797719051     3.0063248521     3.2078901730
O       16.1384394454     2.5752960923     5.7425867472
Si       16.5185391908     6.6026608389     4.3950758007
Si       13.9523634764     2.5729253628     2.5090240305
Si       18.8328627411     2.5504220928     2.5215386865
Si       15.7893431358     1.1281311667     6.4569993506
H       17.8996965566     6.8659744457     3.8833446243
H       15.5515036859     6.9716747611     3.3049038470
H       16.3013710780     7.4779819391     5.6129208903
H       12.8243236205     3.3166245062     3.1200791043
H       13.9291311124     2.8759304915     1.0444353434
H       18.4218843958     3.3379329621     1.3281376964
H       13.7069681451     1.1114063599     2.7077286748
H       18.5327807495     1.1091076236     2.2663569171
H       16.4948159373     0.8961100974     7.7695076650
H       14.3114749770     0.9778459019     6.7011709053
H       20.3297803763     2.6973312051     2.7006746719
H       16.2233167788     0.0684545564     5.5131709237
32
# Point -14 Energy = 0.0
C       20.7591822882     3.6242717072     7.4060688670
H       18.7066626245     3.5222661396     6.4274164070
C       19.5707529391     2.9275319344     6.7914806416
H       18.5971683111     3.0948163990     7.2880959715
H       20.7634089028     2.1695428459     5.7040206235
C       19.9400494585     1.6539206109     6.1725176559
H       19.2547178083     0.8035694421     6.3042899392
H       19.8807980348     0.6531729624     6.6321360301
H       20.9211144818     3.5632898643     6.3525242274
H       20.7721202590     3.8417768174     8.4865368498
H       20.8425500987     3.9930770942     8.4462178305
Si       16.4470368040     3.4132906690     4.3806746582
O       16.3343675249     5.0014783780     4.7291299415
O       17.9505016763     3.0813073044     3.8122568376
O       15.3793126136     3.0054594402     3.2081503370
O       16.1373535824     2.5747777823     5.7431774894
Si       16.5174864872     6.6021201364     4.3951698502
Si       13.9522043694     2.5717965994     2.5090105596
Si       18.8327163502     2.5498729836     2.5228647046
Si       15.7882346343     1.1277645995     6.4574969932
H       17.8987484065     6.8655090214     3.8838018640
H       15.5507089348     6.9709018461     3.3046826550
H       16.2998714216     7.4775698217     5.6128494409
H       12.8239022284     3.3154354706     3.1196769007
H       13.9292742255     2.8745794426     1.0443681138
H       18.4220153235     3.3372172062     1.3291791699
H       13.7069254518     1.1102686760     2.7078629515
H       18.5328750114     1.1085168272     2.2676996192
H       16.4933855666     0.8959150926     7.7702537734
H       14.3103370441     0.9773092179     6.7012934884
H       20.3295879710     2.6969781847     2.7023347643
H       16.2226097657     0.0679974826     5.5139262037
32
# Point -13 Energy = 0.0
C       20.7531512968     3.6288907937     7.4103662856
H       18.7197591711     3.5309866857     6.4026623828
C       19.5642568815     2.9291466985     6.7968138776
H       18.6005469148     3.0727228432     7.3182334504
H       20.7559811646     2.1396695626     5.6743442642
C       19.9315710440     1.6520039980     6.1730033574
H       19.2193032314     0.8187241328     6.2623960201
H       19.9003887607     0.6652089771     6.6632707251
H       20.9758518295     3.5935093479     6.3646947800
H       20.7978425485     3.7785251522     8.5008650647
H       20.7980567571     4.0485562258     8.4325346445
Si       16.4466592125     3.4128915759     4.3811352585
O       16.3337051874     5.0011560273     4.7293878799
O       17.9500317859     3.0809377661     3.8131871613
O       15.3790443864     3.0047211499     3.2085787356
O       16.1365611212     2.5745275860     5.7439336114
Si       16.5168461920     6.6017334782     4.3951273302
Si       13.9521830168     2.5708153034     2.5092617888
Si       18.8327035059     2.5492401743     2.5242240838
Si       15.7873877887     1.1277333389     6.4582805952
H       17.8981994350     6.8650984806     3.8840359529
H       15.5502898101     6.9702509529     3.3043468677
H       16.2988844770     7.4774069540     5.6125907106
H       12.8236827459     3.3144895432     3.1195411292
H       13.9295012000     2.8732766971     1.0445460354
H       18.4222572357     3.3363528181     1.3302191054
H       13.7069599019     1.1093038425     2.7083734609
H       18.5330238889     1.1078382427     2.2691917319
H       16.4922706830     0.8961166109     7.7712675958
H       14.3094659067     0.9771935972     6.7017855724
H       20.3295446652     2.6964851867     2.7039439754
H       16.2220688536     0.0677882570     5.5150219252
32
# Point -12 Energy = 0.0
C       20.7470528281     3.6335469423     7.4148460056
H       18.7334508028     3.5389104794     6.3791380630
C       19.5577334724     2.9306587693     6.8024257991
H       18.6050110764     3.0498497292     7.3484066173
H       20.7471901659     2.1112477926     5.6462535331
C       19.9236606453     1.6501943260     6.1737163629
H       19.1862705235     0.8358175732     6.2211448075
H       19.9225874011     0.6783521506     6.6928158049
H       21.0237280791     3.6213736680     6.3794881713
H       20.8228280047     3.7164769626     8.5101289887
H       20.7526502559     4.1014295891     8.4158983122
Si       16.4464031420     3.4125250017     4.3817352440
O       16.3332419308     5.0008792113     4.7297506687
O       17.9496916441     3.0805003851     3.8143376752
O       15.3789339983     3.0040617537     3.2090974102
O       16.1357716083     2.5743552989     5.7448298527
Si       16.5165173542     6.6013752830     4.3951698178
Si       13.9523294686     2.5699892299     2.5095358122
Si       18.8328525542     2.5484632198     2.5258575472
Si       15.7864212969     1.1278149377     6.4592151137
H       17.8980030186     6.8646246599     3.8844190786
H       15.5502585513     6.9696664554     3.3040414104
H       16.2982007673     7.4773075826     5.6123901250
H       12.8236450106     3.3137783927     3.1193566239
H       13.9299914237     2.8721063049     1.0447406918
H       18.4227677147     3.3353469498     1.3314984302
H       13.7070615854     1.1085127020     2.7089181107
H       18.5332610112     1.1070288171     2.2709694246
H       16.4909566543     0.8964143292     7.7724719168
H       14.3084540090     0.9772843954     6.7023578002
H       20.3296630634     2.6957617184     2.7058990382
H       16.2213915380     0.0676473893     5.5163111025
32
# Point -11 Energy = 0.0
C       20.7406833385     3.6380293607     7.4198282486
H       18.7476795972     3.5464093068     6.3570085120
C       19.5509454555     2.9320826432     6.8084446335
H       18.6103104368     3.0262786737     7.3785912321
H       20.7370831752     2.0839705365     5.6197629581
C       19.9159480007     1.6485062988     6.1747018431
H       19.1552601936     0.8547446024     6.1802640173
H       19.9467095163     0.6925837220     6.7206438427
H       21.0670763705     3.6479900693     6.3968783200
H       20.8471299577     3.6542047476     8.5149815727
H       20.7083387545     4.1530516470     8.3959665271
Si       16.4461381654     3.4121519817     4.3824572368
O       16.3328036108     5.0006068615     4.7301963525
O       17.9493832464     3.0799823761     3.8157619261
O       15.3789134940     3.0034244643     3.2096383332
O       16.1348045257     2.5742160062     5.7458335822
Si       16.5163141793     6.6010077697     4.3952848873
Si       13.9526163606     2.5692373194     2.5096969665
Si       18.8331354304     2.5475451267     2.5278602607
Si       15.7851457576     1.1279581301     6.4602505831
H       17.8979929055     6.8640737993     3.8850043316
H       15.5504746762     6.9690944507     3.3037084173
H       16.2975619478     7.4772295884     5.6122252973
H       12.8237201205     3.3132012251     3.1189346625
H       13.9307815753     2.8709874968     1.0448156078
H       18.4235616966     3.3341960946     1.3330934061
H       13.7072188258     1.1078098907     2.7093488884
H       18.5335951169     1.1060865297     2.2731129695
H       16.4891959183     0.8967684835     7.7738498900
H       14.3071031136     0.9775047899     6.7028902060
H       20.3299039943     2.6948364490     2.7083659848
H       16.2204511424     0.0675315587     5.5177638632
32
# Point -10 Energy = 0.0
C       20.7339947335     3.6421711748     7.4255212243
H       18.7625554832     3.5538412927     6.3362974612
C       19.5437937304     2.9334711234     6.8149211945
H       18.6163138704     3.0021504523     7.4086820511
H       20.7257669460     2.0576019731     5.5948601871
C       19.9081976442     1.6469765777     6.1759634280
H       19.1260610103     0.8754846815     6.1395153595
H       19.9721744683     0.7079134752     6.7466640845
H       21.1070490181     3.6737239700     6.4169101974
H       20.8714389854     3.5916163808     8.5155654995
H       20.6654066896     4.2033701132     8.3729291460
Si       16.4458041361     3.4117586168     4.3832930383
O       16.3322964553     5.0003249614     4.7307062330
O       17.9490625844     3.0793926161     3.8174818233
O       15.3789518924     3.0027709289     3.2101753956
O       16.1335882528     2.5740976961     5.7469348616
Si       16.5161219460     6.6006182654     4.3954490211
Si       13.9530334674     2.5684930772     2.5096945987
Si       18.8335413114     2.5465031137     2.5302738078
Si       15.7835008092     1.1281486903     6.4613778981
H       17.8980593409     6.8634541908     3.8857929724
H       15.5508378931     6.9684999768     3.3033043597
H       16.2968154632     7.4771629478     5.6120638476
H       12.8238738200     3.3126754022     3.1181993062
H       13.9318839011     2.8698456681     1.0447183203
H       18.4246375679     3.3329041470     1.3350339481
H       13.7074425692     1.1071257865     2.7096181209
H       18.5340447804     1.1050221504     2.2756658487
H       16.4869071838     0.8971838141     7.7754067408
H       14.3053510172     0.9778165299     6.7033465390
H       20.3302505635     2.6937531542     2.7114138693
H       16.2192230657     0.0674290513     5.5193849762
32
# Point -9 Energy = 0.0
C       20.7269875470     3.6458336428     7.4320707882
H       18.7782550371     3.5614663553     6.3169167939
C       19.5362290815     2.9348756697     6.8218717620
H       18.6229130027     2.9776194060     7.4385308902
H       20.7133751951     2.0319288444     5.5715610346
C       19.9002539867     1.6456259436     6.1775195460
H       19.0985698664     0.8980339132     6.0987406019
H       19.9984817035     0.7243399771     6.7708665761
H       21.1443541190     3.6986459456     6.4396552487
H       20.8961078332     3.5289339140     8.5119164396
H       20.6240480488     4.2521321121     8.3470176116
Si       16.4453643064     3.4113406669     4.3842370581
O       16.3316568842     5.0000285755     4.7312689618
O       17.9487018712     3.0787482646     3.8195039392
O       15.3790275103     3.0020768683     3.2106965160
O       16.1320887226     2.5739955624     5.7481280039
Si       16.5158551096     6.6002035904     4.3956474680
Si       13.9535711585     2.5677080962     2.5095075457
Si       18.8340598400     2.5453639872     2.5331132272
Si       15.7814692939     1.1283786424     6.4625930067
H       17.8981162824     6.8627823413     3.8867797876
H       15.5512652862     6.9678616318     3.3028064310
H       16.2958534429     7.4771048360     5.6118865053
H       12.8240808149     3.3121369912     3.1171186405
H       13.9332949924     2.8686275473     1.0444268629
H       18.4259819081     3.3314879167     1.3373299239
H       13.7077440750     1.1064088503     2.7097072315
H       18.5346235939     1.1038571205     2.2786453031
H       16.4840669687     0.8976672120     7.7771440816
H       14.3031813243     0.9781896479     6.7037122135
H       20.3306885849     2.6925622054     2.7150683422
H       16.2177132083     0.0673357221     5.5211770175
32
# Point -8 Energy = 0.0
C       20.7196715965     3.6489172459     7.4395620999
H       18.7949704012     3.5693970630     6.2986889563
C       19.5282236599     2.9363325551     6.8292904571
H       18.6299965280     2.9528335357     7.4679705210
H       20.7000683217     2.0067415912     5.5499187127
C       19.8920342096     1.6444464166     6.1794235212
H       19.0727988314     0.9223594853     6.0578801295
H       20.0252317886     0.7418464045     6.7933411238
H       21.1794904878     3.7226921551     6.4651822843
H       20.9212137304     3.4665009365     8.5040480152
H       20.5844812674     4.2991212146     8.3184099947
Si       16.4447898607     3.4108999541     4.3852834208
O       16.3308366858     4.9997176572     4.7318806158
O       17.9482765168     3.0780701111     3.8218236461
O       15.3791179230     3.0013327606     3.2111943089
O       16.1302856259     2.5739058253     5.7494052246
Si       16.5154466637     6.5997663414     4.3958788320
Si       13.9542132960     2.5668565149     2.5091264500
Si       18.8346739566     2.5441610024     2.5363745048
Si       15.7790475417     1.1286390145     6.4638855384
H       17.8980938197     6.8620782635     3.8879653987
H       15.5516868727     6.9671718028     3.3022129488
H       16.2945971138     7.4770535246     5.6116925398
H       12.8243156480     3.3115456069     3.1156829247
H       13.9349967171     2.8673089762     1.0439326234
H       18.4275696947     3.3299773101     1.3399782664
H       13.7081245390     1.1056300053     2.7096045282
H       18.5353320978     1.1026214423     2.2820450554
H       16.4806727475     0.8982164345     7.7790516790
H       14.3005922282     0.9785969547     6.7039749630
H       20.3311987212     2.6913147119     2.7193272092
H       16.2159315076     0.0672491825     5.5231288663
32
# Point -7 Energy = 0.0
C       20.7120475747     3.6513710448     7.4480174142
H       18.8128735009     3.5775795227     6.2813799465
C       19.5197588465     2.9378564345     6.8371561795
H       18.6374472995     2.9279210775     7.4968375242
H       20.6860323755     1.9818273430     5.5300185363
C       19.8835254468     1.6433978249     6.1817671639
H       19.0488775263     0.9483678502     6.0169741358
H       20.0521437485     0.7604073187     6.8142743729
H       21.2128214877     3.7457476028     6.4935339966
H       20.9466584897     3.4047457382     8.4919766973
H       20.5469284447     4.3442002631     8.2872034716
Si       16.4440543726     3.4104428037     4.3864250303
O       16.3297983607     4.9993954325     4.7325443621
O       17.9477606808     3.0773796206     3.8244278397
O       15.3791969551     3.0005441506     3.2116621742
O       16.1281624449     2.5738237592     5.7507544711
Si       16.5148461299     6.5993132645     4.3961560867
Si       13.9549355161     2.5659373365     2.5085459436
Si       18.8353581611     2.5429306120     2.5400392338
Si       15.7762319561     1.1289178599     6.4652349517
H       17.8979377771     6.8613625606     3.8893609489
H       15.5520467847     6.9664367503     3.3015420835
H       16.2929926532     7.4770063307     5.6115007243
H       12.8245502419     3.3108876824     3.1138943123
H       13.9369585836     2.8658980746     1.0432326136
H       18.4293664952     3.3284132169     1.3429670011
H       13.7085712298     1.1047851151     2.7092959534
H       18.5361550812     1.1013509027     2.2858384001
H       16.4767259257     0.8988165895     7.7811052971
H       14.2975822930     0.9790136090     6.7041171268
H       20.3317544628     2.6900574646     2.7241690063
H       16.2138797538     0.0671668439     5.5252123606
32
# Point -6 Energy = 0.0
C       20.7041001340     3.6531945398     7.4573996809
H       18.8320926047     3.5858067647     6.2647383758
C       19.5108197246     2.9394400254     6.8454378907
H       18.6451490047     2.9029836054     7.5249914205
H       20.6714716893     1.9569708554     5.5119654879
C       19.8747755938     1.6424121879     6.1846725585
H       19.0270375808     0.9758912034     5.9761484459
H       20.0790550210     0.7799994388     6.8339267323
H       21.2446017867     3.7676992270     6.5247138527
H       20.9722462613     3.3441606367     8.4757345228
H       20.5115933184     4.3872993107     8.2534130618
Si       16.4431322123     3.4099788051     4.3876533538
O       16.3285133620     4.9990674500     4.7332689449
O       17.9471265273     3.0766968793     3.8272973829
O       15.3792348699     2.9997298680     3.2120926208
O       16.1257024486     2.5737435055     5.7521593191
Si       16.5140187363     6.5988540231     4.3965042231
Si       13.9557064279     2.5649725368     2.5077609568
Si       18.8360797226     2.5417092405     2.5440788387
Si       15.7730134948     1.1292006720     6.4666109012
H       17.8976097944     6.8606544516     3.8909877923
H       15.5523042938     6.9656748665     3.3008276624
H       16.2910086196     7.4769593175     5.6113460339
H       12.8247542885     3.3101753264     3.1117608177
H       13.9391413783     2.8644323132     1.0423255018
H       18.4313317964     3.3268435517     1.3462782291
H       13.7090580001     1.1038932928     2.7087620297
H       18.5370628414     1.1000837425     2.2899829551
H       16.4722241478     0.8994412904     7.7832683905
H       14.2941444905     0.9794181091     6.7041137328
H       20.3323230957     2.6888294295     2.7295595456
H       16.2115473326     0.0670855333     5.5273840978
32
# Point -5 Energy = 0.0
C       20.6957990734     3.6544314890     7.4676230075
H       18.8527023366     3.5937571477     6.2485315187
C       19.5013932475     2.9410585514     6.8540986563
H       18.6529958659     2.8780957647     7.5523264778
H       20.6565971540     1.9319598463     5.4958698311
C       19.8658774811     1.6414033501     6.1882771360
H       19.0075811945     1.0046924145     5.9355901054
H       20.1059035708     0.8006117379     6.8525973756
H       21.2749933662     3.7884691196     6.5586848413
H       20.9977404613     3.2852739305     8.4553769300
H       20.4786498604     4.4283840427     8.2169875426
Si       16.4419988046     3.4095196148     4.3889584855
O       16.3269610277     4.9987408610     4.7340662068
O       17.9463452750     3.0760394081     3.8304092033
O       15.3792000572     2.9989183907     3.2124768532
O       16.1228880817     2.5736587989     5.7536000245
Si       16.5129437087     6.5984000742     4.3969555004
Si       13.9564902646     2.5640015041     2.5067655058
Si       18.8368013670     2.5405306203     2.5484583679
Si       15.7693772214     1.1294720038     6.4679761606
H       17.8970859836     6.8599706718     3.8928737409
H       15.5524329729     6.9649132971     3.3001128558
H       16.2886324706     7.4769079279     5.6112733496
H       12.8248968171     3.3094410451     3.1092928242
H       13.9415011140     2.8629706775     1.0412098940
H       18.4334224159     3.3253185048     1.3498902798
H       13.7095486301     1.1029914998     2.7079786405
H       18.5380150113     1.0988574172     2.2944263546
H       16.4671596654     0.9000567196     7.7854961184
H       14.2902655858     0.9797934187     6.7039341502
H       20.3328681286     2.6876602431     2.7354570099
H       16.2089123852     0.0670019072     5.5295904119
32
# Point -4 Energy = 0.0
C       20.6871053426     3.6551584505     7.4785671229
H       18.8747255411     3.6010433901     6.2325711376
C       19.4914685550     2.9426766587     6.8630983855
H       18.6609011477     2.8533100013     7.5787751268
H       20.6416139572     1.9065913531     5.4818350565
C       19.8569502478     1.6402783693     6.1927177644
H       18.9908428698     1.0344832902     5.8955203666
H       20.1326990299     0.8222522156     6.8705882699
H       21.3040818413     3.8080310766     6.5953777425
H       21.0229017987     3.2286168715     8.4309856300
H       20.4482390673     4.4674216099     8.1778338823
Si       16.4406316326     3.4090778860     4.3903293223
O       16.3251275463     4.9984238451     4.7349483760
O       17.9453889034     3.0754218008     3.8337378658
O       15.3790611297     2.9981434467     3.2128050881
O       16.1197022137     2.5735639894     5.7550550362
Si       16.5116115512     6.5979637024     4.3975439777
Si       13.9572498471     2.5630737471     2.5055530078
Si       18.8374842973     2.5394241281     2.5531394785
Si       15.7653048565     1.1297173732     6.4692905310
H       17.8963541876     6.8593251744     3.8950478684
H       15.5524181230     6.9641839075     3.2994435228
H       16.2858661728     7.4768479532     5.6113303229
H       12.8249479561     3.3087302500     3.1065014703
H       13.9439924235     2.8615837206     1.0398840852
H       18.4355952399     3.3238862626     1.3537790615
H       13.7100013853     1.1021273316     2.7069198175
H       18.5389653934     1.0977061322     2.2991116370
H       16.4615214621     0.9006266992     7.7877400565
H       14.2859287215     0.9801276117     6.7035454698
H       20.3333520575     2.6865705895     2.7418154842
H       16.2059461012     0.0669131619     5.5317733955
32
# Point -3 Energy = 0.0
C       20.6779786337     3.6554718937     7.4900920099
H       18.8981427288     3.6072583764     6.2167266799
C       19.4810383220     2.9442554797     6.8723953950
H       18.6688024652     2.8286636954     7.6043046808
H       20.6267117142     1.8806767589     5.4699504194
C       19.8481221486     1.6389476665     6.1981181177
H       18.9771537623     1.0649488476     5.8561716626
H       20.1594916477     0.8449507806     6.8881755632
H       21.3318942260     3.8264141834     6.6347044971
H       21.0475093539     3.1746926540     8.4026660199
H       20.4204698188     4.5043533982     8.1358414744
Si       16.4390113583     3.4086664414     4.3917538017
O       16.3230049215     4.9981251706     4.7359258360
O       17.9442318278     3.0748559855     3.8372565995
O       15.3787887866     2.9974399712     3.2130672220
O       16.1161301116     2.5734549322     5.7565024775
Si       16.5100209654     6.5975572939     4.3983008478
Si       13.9579491343     2.5622419016     2.5041173510
Si       18.8380908133     2.5384142040     2.5580824423
Si       15.7607785229     1.1299248086     6.4705144915
H       17.8954106581     6.8587294187     3.8975356911
H       15.5522533980     6.9635195952     3.2988627921
H       16.2827217417     7.4767764085     5.6115613224
H       12.8248803823     3.3080937325     3.1033983662
H       13.9465709794     2.8603442627     1.0383466541
H       18.4378090213     3.3225900308     1.3579187728
H       13.7103734530     1.1013520200     2.7055610219
H       18.5398665219     1.0966594790     2.3039814184
H       16.4552990698     0.9011172011     7.7899523418
H       14.2811173033     0.9804138629     6.7029161151
H       20.3337387722     2.6855738567     2.7485870121
H       16.2026180363     0.0668176885     5.5338762628
32
# Point -2 Energy = 0.0
C       20.6683842603     3.6554769069     7.5020499761
H       18.9229043511     3.6120096110     6.2009277376
C       19.4701003936     2.9457583372     6.8819471591
H       18.6766637872     2.8041863871     7.6289103828
H       20.6120580625     1.8540445627     5.4602881423
C       19.8395173526     1.6373323707     6.2045810417
H       18.9668143684     1.0957714783     5.8177718641
H       20.1863455840     0.8687590887     6.9055916079
H       21.3584160566     3.8436982215     6.6765725424
H       21.0713678939     3.1239520136     8.3705395034
H       20.3954202210     4.5390780563     8.0909000937
Si       16.4371228021     3.4082977322     4.3932192274
O       16.3205901107     4.9978538829     4.7370057678
O       17.9428522657     3.0743518324     3.8409379325
O       15.3783572277     2.9968410764     3.2132536165
O       16.1121614288     2.5733295462     5.7579213730
Si       16.5081761189     6.5971928692     4.3992513750
Si       13.9585551105     2.5615562966     2.5024541781
Si       18.8385862729     2.5375206190     2.5632473201
Si       15.7557844321     1.1300857703     6.4716119694
H       17.8942570181     6.8581929655     3.9003557889
H       15.5519376060     6.9629515320     3.2984076340
H       16.2792175203     7.4766921038     5.6120034513
H       12.8246703468     3.3075815601     3.0999961209
H       13.9491949923     2.8593203672     1.0365974238
H       18.4400253902     3.3214665448     1.3622822501
H       13.7106245338     1.1007149369     2.7038819858
H       18.5406732923     1.0957420911     2.3089806033
H       16.4484865662     0.9014994905     7.7920886727
H       14.2758188541     0.9806499079     6.7020188135
H       20.3339953655     2.6846783382     2.7557225730
H       16.1989010139     0.0667155030     5.5358472319
32
# Point -1 Energy = 0.0
C       20.6582983055     3.6552789744     7.5142941706
H       18.9489424475     3.6149405269     6.1851596433
C       19.4586593592     2.9471546089     6.8917106866
H       18.6844751056     2.7799057617     7.6526075902
H       20.5977953050     1.8265411033     5.4529040330
C       19.8312473146     1.6353686932     6.2121855319
H       18.9600769240     1.1266517032     5.7805359137
H       20.2133194327     0.8937487203     6.9230167317
H       21.3836058404     3.8600054353     6.7208976832
H       21.0943050116     3.0767761067     8.3347315080
H       20.3731367798     4.5714435348     8.0429088361
Si       16.4349557855     3.4079835584     4.3947127328
O       16.3178845213     4.9976191127     4.7381917191
O       17.9412333211     3.0739178726     3.8447541681
O       15.3777452077     2.9963761663     3.2133559219
O       16.1077919319     2.5731880502     5.7592926344
Si       16.5060847101     6.5968818481     4.4004135251
Si       13.9590391224     2.5610614198     2.5005621259
Si       18.8389405044     2.5367592413     2.5685946361
Si       15.7503159494     1.1301954984     6.4725521975
H       17.8928980549     6.8577241621     3.9035181201
H       15.5514723189     6.9625074511     3.2981073911
H       16.2753756167     7.4765959050     5.6126847031
H       12.8242984209     3.3072388929     3.0963092889
H       13.9518261171     2.8585709453     1.0346385283
H       18.4422094374     3.3205457837     1.3668412367
H       13.7107194722     1.1002599713     2.7018688182
H       18.5413455971     1.0949740119     2.3140579198
H       16.4410859994     0.9017518468     7.7941102183
H       14.2700282214     0.9808372323     6.7008327149
H       20.3340934531     2.6838894155     2.7631724960
H       16.1947750112     0.0666084456     5.5376419356
32
# Point 0 Energy = 0
C       20.6477110000     3.6549790000     7.5266840000
H       18.9761800000     3.6157410000     6.1694560000
C       19.4467280000     2.9484220000     6.9016430000
H       18.6922510000     2.7558520000     7.6754250000
H       20.5840390000     1.7980300000     5.4478400000
C       19.8234060000     1.6330100000     6.2209870000
H       18.9571360000     1.1573250000     5.7446630000
H       20.2404540000     0.9200090000     6.9405780000
H       21.4074060000     3.8754920000     6.7676150000
H       21.1161610000     3.0334640000     8.2953550000
H       20.3536290000     4.6012450000     7.9917750000
Si       16.4325060000     3.4077350000     4.3962220000
O       16.3148940000     4.9974300000     4.7394840000
O       17.9393640000     3.0735620000     3.8486780000
O       15.3769370000     2.9960700000     3.2133680000
O       16.1030250000     2.5730330000     5.7606000000
Si       16.5037570000     6.5966350000     4.4017980000
Si       13.9593780000     2.5607940000     2.4984440000
Si       18.8391290000     2.5361430000     2.5740860000
Si       15.7443760000     1.1302530000     6.4733110000
H       17.8913405600     6.8573308000     3.9070238400
H       15.5508605600     6.9622108000     3.2979838400
H       16.2712205600     7.4764908000     5.6136238400
H       12.8237502400     3.3071035200     3.0923555200
H       13.9544302400     2.8581435200     1.0324755200
H       18.4443303200     3.3198514400     1.3715668800
H       13.7106302400     1.1000235200     2.6995155200
H       18.5418503200     1.0943714400     2.3191668800
H       16.4331100800     0.9018602400     7.7959848800
H       14.2637500800     0.9809802400     6.6993448800
H       20.3340103200     2.6832114400     2.7708868800
H       16.1902300800     0.0665002400     5.5392248800
32
# Point 1 Energy = 0.0
C       20.6366343657     3.6546530424     7.5391030484
H       19.0045718563     3.6141857033     6.1538922572
C       19.4343281536     2.9495560237     6.9116988390
H       18.7000175371     2.7320718934     7.6973872907
H       20.5708846499     1.7683975221     5.4451292870
C       19.8160632957     1.6302373649     6.2310108132
H       18.9581239070     1.1875957323     5.7103138879
H       20.2677451810     0.9476441795     6.9583426663
H       21.4297716105     3.8903215411     6.8167204689
H       21.1367685783     2.9941975177     8.2525055989
H       20.3368882802     4.6282077004     7.9374290802
Si       16.4297733998     3.4075628152     4.3977342364
O       16.3116246713     4.9972963866     4.7408763604
O       17.9372378474     3.0732937179     3.8526809961