32
# Point -15 Energy = 0.0
C       19.7808319414     3.3189987017     6.7491295667
H       18.6373135082     1.6787985831     8.3230965778
C       18.9337717354     2.6144575368     7.8013790934
H       19.4829854258     2.3236489634     8.7049330336
H       17.7727328534     3.1979196689     6.0737190851
C       18.6960560163     2.6361262586     6.2945149768
H       18.6087417434     1.6459420900     5.8360992069
H       19.5070877147     3.1820065837     5.7871242246
H       19.2704913603     4.2109328053     6.3491086432
H       19.9409974313     2.6828686493     5.8664721930
H       20.7631839656     3.6122626189     7.1331631261
Si       16.8540590096     3.3470451162     4.3846758087
O       16.7728845978     4.9455343392     4.7074214743
O       18.3851786826     3.0092409889     3.9045724725
O       15.8159108424     2.9622720459     3.1810159186
O       16.4114705369     2.5684349419     5.7495273722
Si       17.0054729764     6.5221177433     4.2951421710
Si       14.3572500312     2.5109602128     2.5658549446
Si       19.2695945383     2.3794774590     2.6566305812
Si       16.1031387145     1.2010189554     6.6081680306
H       18.3983525535     6.7357076887     3.7884441693
H       16.0589134349     6.8584824311     3.1785077942
H       16.7932621826     7.4546010399     5.4700723681
H       13.2503895708     3.3027574934     3.1589917249
H       14.3469001110     2.7607447559     1.1029772793
H       18.8892999305     3.1053577489     1.4051596232
H       14.0757424823     1.0623162861     2.8268850322
H       18.9660007594     0.9220081136     2.4474325926
H       16.7878839307     1.0273877829     7.9556584522
H       14.6296746963     1.1148739895     6.8366286765
H       20.7716923200     2.5127068102     2.8332756822
H       16.5307150025     0.0662935974     5.7513834643
32
# Point -14 Energy = 0.0
C       19.8373390567     3.3752330103     6.7720507500
H       18.5256133743     1.8070983074     8.3921677846
C       18.9698005082     2.6081900456     7.7624892110
H       19.5236695026     2.2934121694     8.6552414093
H       17.8768115329     3.2134073975     5.9969516514
C       18.7463717569     2.5849443012     6.2531812757
H       18.5766536515     1.5852979388     5.8394988847
H       19.6063602500     3.0332744425     5.7309271070
H       19.2882676146     4.2195482697     6.3235959714
H       20.1220617275     2.7485872817     5.9145246901
H       20.7569267064     3.7527703363     7.2310946399
Si       16.8315275201     3.3428840469     4.3921779316
O       16.7539027223     4.9407888712     4.7179424080
O       18.3612774774     2.9978535475     3.9133210904
O       15.7975446788     2.9599458014     3.1841240322
O       16.3875549178     2.5595356602     5.7539117278
Si       16.9926169336     6.5184494121     4.3135615174
Si       14.3431799468     2.5151880683     2.5541612709
Si       19.2485485157     2.3714793459     2.6660485234
Si       16.0681509215     1.1854887341     6.5984354607
H       18.3882833997     6.7293690015     3.8137357868
H       16.0519399952     6.8625495674     3.1941918605
H       16.7783671951     7.4470047259     5.4912812750
H       13.2341766284     3.3080798706     3.1415584144
H       14.3421702237     2.7685084734     1.0910576826
H       18.8760512504     3.1050772027     1.4173097229
H       14.0568748847     1.0666564050     2.8092810655
H       18.9387719596     0.9168958598     2.4504111106
H       16.7477527112     1.0023687671     7.9463132526
H       14.5930537916     1.0995936445     6.8214833046
H       20.7501247662     2.4977204589     2.8501974012
H       16.4962344788     0.0561010353     5.7349371457
32
# Point -13 Energy = 0.0
C       19.8703371503     3.4316634094     6.7803890054
H       18.4062845233     1.9676923422     8.4107182394
C       19.0109926353     2.6017046841     7.7266763382
H       19.5624295037     2.2550898582     8.6092213013
H       17.9949730096     3.2233583572     5.9200040944
C       18.7981724836     2.5282395299     6.2171614366
H       18.5356795485     1.5293734351     5.8516577382
H       19.7019202313     2.8636583122     5.6840647010
H       19.2795279300     4.2207443127     6.2872268311
H       20.2642087289     2.8227382230     5.9540291007
H       20.7214762027     3.8935034026     7.2918107563
Si       16.8149390401     3.3383250747     4.4038637110
O       16.7406627117     4.9355233975     4.7331273947
O       18.3432822496     2.9865715545     3.9258805403
O       15.7845596047     2.9579731027     3.1916902538
O       16.3698354623     2.5500241024     5.7624132448
Si       16.9851357154     6.5143621429     4.3370760649
Si       14.3343582236     2.5201746710     2.5473841450
Si       19.2333871781     2.3640700055     2.6790367198
Si       16.0393958808     1.1694890435     6.5926315654
H       18.3834273032     6.7229483309     3.8439322011
H       16.0501199057     6.8663507867     3.2152945209
H       16.7688786366     7.4386149905     5.5178612139
H       13.2235248487     3.3139124853     3.1299110890
H       14.3420826510     2.7777607772     1.0842473749
H       18.8683665588     3.1055589012     1.4333296474
H       14.0433650107     1.0716628463     2.7959509118
H       18.9177532440     0.9124110743     2.4566391398
H       16.7139066718     0.9767820851     7.9407704806
H       14.5626906555     1.0839258256     6.8103242813
H       20.7343794943     2.4835741517     2.8704717114
H       16.4679276060     0.0455207835     5.7223696057
32
# Point -12 Energy = 0.0
C       19.9277494468     3.4460239955     6.7805952453
H       18.3401899099     2.1405158359     8.3984073100
C       19.0358308423     2.6191931960     7.6984996262
H       19.5705444612     2.2412370739     8.5778835099
H       18.1173832477     3.2209224413     5.8360020167
C       18.8447487470     2.4797616241     6.1920499321
H       18.4983484671     1.4938769651     5.8765285538
H       19.7806976129     2.6971067149     5.6673640758
H       19.3475965073     4.1951961281     6.2231956043
H       20.3958827212     2.8239821921     6.0101378322
H       20.7237808134     3.9561820724     7.3275164318
Si       16.7909353738     3.3411935423     4.4156860262
O       16.7118838254     4.9378746406     4.7455906565
O       18.3208949753     2.9889521885     3.9437878992
O       15.7689789538     2.9575641702     3.1972509293
O       16.3440227453     2.5484943471     5.7711137576
Si       16.9561630457     6.5182931276     4.3560394488
Si       14.3267821173     2.5197577021     2.5354738642
Si       19.2204753560     2.3722849067     2.7012582507
Si       16.0058708030     1.1618661185     6.5884686973
H       18.3575329210     6.7299660980     3.8734783826
H       16.0286656510     6.8721705722     3.2285426783
H       16.7301848130     7.4391826475     5.5376384248
H       13.2093034561     3.3104250446     3.1090308980
H       14.3460374898     2.7796571201     1.0721012184
H       18.8633443994     3.1178716524     1.4563187905
H       14.0366728519     1.0703962775     2.7786928064
H       18.9063548656     0.9217725501     2.4735828408
H       16.6718152779     0.9650047039     7.9392686943
H       14.5273135695     1.0709045950     6.7962285652
H       20.7196335278     2.4921883404     2.9043421837
H       16.4423618048     0.0434834154     5.7150902093
32
# Point -11 Energy = 0.0
C       19.9850655726     3.4574086408     6.7774058765
H       18.2704769062     2.3179901137     8.3607129131
C       19.0607499866     2.6393077446     7.6715468581
H       19.5714430245     2.2273313657     8.5500709942
H       18.2448125051     3.2148313414     5.7526855658
C       18.8907764579     2.4316095177     6.1701946282
H       18.4584428369     1.4648292496     5.9036371276
H       19.8545607907     2.5265685740     5.6594732061
H       19.4193213895     4.1683480619     6.1589513295
H       20.5184331675     2.8206502906     6.0633502252
H       20.7304605985     4.0116959318     7.3527432109
Si       16.7675794899     3.3444575827     4.4284729895
O       16.6828819047     4.9406164871     4.7587811697
O       18.2993967742     2.9925307749     3.9628933246
O       15.7542184820     2.9571384595     3.2038162166
O       16.3190973446     2.5474165771     5.7808793559
Si       16.9261382152     6.5226834171     4.3755451270
Si       14.3203212771     2.5187023779     2.5246257205
Si       19.2089330618     2.3820212519     2.7249317564
Si       15.9737786618     1.1547748432     6.5855801928
H       18.3304789588     6.7381163434     3.9036993530
H       16.0061078382     6.8778242174     3.2422212383
H       16.6898276786     7.4402313861     5.5577714947
H       13.1958944725     3.3058100839     3.0891670107
H       14.3509899137     2.7809129588     1.0610629670
H       18.8594173132     3.1313215673     1.4806378703
H       14.0317674757     1.0683736736     2.7625308069
H       18.8971861513     0.9324516024     2.4921630986
H       16.6310292694     0.9543506837     7.9391539186
H       14.4934220393     1.0578366798     6.7831708143
H       20.7061161619     2.5031803899     2.9398269024
H       16.4188548799     0.0419798104     5.7094620970
32
# Point -10 Energy = 0.0
C       20.0514130377     3.4705765676     6.7850873372
H       18.2159332029     2.5086319220     8.2937136747
C       19.0842905415     2.6610762591     7.6414456514
H       19.5570740139     2.2123455116     8.5233189205
H       18.3825775042     3.1919943054     5.6642101796
C       18.9375470793     2.3787740656     6.1495634107
H       18.4197761937     1.4424393495     5.9286235052
H       19.9197483485     2.3465135697     5.6667599151
H       19.5144983416     4.1481620815     6.1068260829
H       20.6478252580     2.8226532616     6.1339254915
H       20.7417682872     4.0614302512     7.3921779449
Si       16.7422955362     3.3475827275     4.4394284884
O       16.6516396461     4.9431931156     4.7700879459
O       18.2758499979     2.9965589221     3.9794058719
O       15.7366947589     2.9566432993     3.2093098458
O       16.2931611868     2.5463071088     5.7891604830
Si       16.8931083274     6.5269506820     4.3929692757
Si       14.3108597410     2.5174389154     2.5138073958
Si       19.1949228992     2.3924800752     2.7456910690
Si       15.9413599138     1.1478549999     6.5815576328
H       18.3000203343     6.7465582617     3.9311093796
H       15.9798611337     6.8830448158     3.2543479782
H       16.6468026923     7.4411025495     5.5758379460
H       13.1798338599     3.3006977213     3.0702012744
H       14.3518016617     2.7821652061     1.0501498692
H       18.8520889093     3.1452747405     1.5022244253
H       14.0243710581     1.0660734182     2.7464584928
H       18.8860247482     0.9437291929     2.5080995113
H       16.5905356347     0.9442450800     7.9375965671
H       14.4593853691     1.0447998921     6.7695977298
H       20.6901061051     2.5154586927     2.9716293574
H       16.3948052780     0.0405454387     5.7028427068
32
# Point -9 Energy = 0.0
C       20.1310034749     3.4878296523     6.8119387511
H       18.1769540120     2.7094695014     8.1874254288
C       19.1062838316     2.6848400478     7.6056330334
H       19.5217896447     2.1978186778     8.4961366030
H       18.5382966079     3.1459307518     5.5676823249
C       18.9906214609     2.3183196756     6.1291230563
H       18.3899436480     1.4233954523     5.9477008093
H       19.9822070736     2.1555196620     5.6941071203
H       19.6429678369     4.1382072193     6.0732108348
H       20.7920038754     2.8326837631     6.2347972682
H       20.7562404256     4.1075288491     7.4597843710
Si       16.7133100288     3.3508376373     4.4472875286
O       16.6167367793     4.9459177353     4.7781138708
O       18.2482022388     3.0010937917     3.9912615337
O       15.7139375577     2.9562642587     3.2130336624
O       16.2650971734     2.5456255203     5.7950288169
Si       16.8556279401     6.5313362228     4.4065936691
Si       14.2954792434     2.5161851326     2.5031191797
Si       19.1756546535     2.4034868860     2.7610224875
Si       15.9077728434     1.1416772838     6.5758366203
H       18.2644982161     6.7553306565     3.9531895869
H       15.9478857672     6.8880387062     3.2636468428
H       16.6004130550     7.4421983286     5.5901629578
H       13.1585478230     3.2954813424     3.0527367248
H       14.3448007260     2.7834246434     1.0393773980
H       18.8379655742     3.1594517158     1.5186486617
H       14.0115496091     1.0637737404     2.7309303729
H       18.8697891119     0.9554362881     2.5192150540
H       16.5502222989     0.9353400403     7.9337138140
H       14.4244421104     1.0325288219     6.7557781559
H       20.6689676089     2.5287206289     2.9964066082
H       16.3687683495     0.0396093666     5.6945222129
32
# Point -8 Energy = 0.0
C       20.2271844027     3.5116180143     6.8699880886
H       18.1590987414     2.9158605557     8.0319485223
C       19.1274229363     2.7111819910     7.5595152442
H       19.4587873288     2.1871484137     8.4643166808
H       18.7236881408     3.0671072402     5.4610682696
C       19.0580514642     2.2458408951     6.1078621684
H       18.3792485694     1.4022570935     5.9555328276
H       20.0498371752     1.9516200458     5.7488296549
H       19.8181267780     4.1413005845     6.0684198998
H       20.9576736772     2.8534379337     6.3881996741
H       20.7661598092     4.1531770061     7.5720950613
Si       16.6784946466     3.3547978950     4.4499275262
O       16.5766366654     4.9494323160     4.7806015903
O       18.2138347835     3.0063889944     3.9948854941
O       15.6825583432     2.9565070927     3.2138655858
O       16.2339600173     2.5462188495     5.7969182262
Si       16.8120852252     6.5363849084     4.4136849024
Si       14.2699777971     2.5155312260     2.4928446260
Si       19.1472152603     2.4149560976     2.7665004222
Si       15.8725653701     1.1372514478     6.5674398724
H       18.2219264454     6.7646756766     3.9657830557
H       15.9074949252     6.8933210197     3.2681933009
H       16.5503616511     7.4442912571     5.5981551566
H       13.1284483059     3.2910173898     3.0380361141
H       14.3244208083     2.7850143779     1.0288960101
H       18.8120460754     3.1736315319     1.5256747554
H       13.9890794559     1.0621474374     2.7167493592
H       18.8440729846     0.9674990217     2.5215987833
H       16.5109418485     0.9287463004     7.9259568865
H       14.3882692200     1.0222926683     6.7422181653
H       20.6390738838     2.5426756155     3.0082575451
H       16.3392378642     0.0399711029     5.6832018905
32
# Point -7 Energy = 0.0
C       20.3361731683     3.5415760635     6.9684818504
H       18.1712007625     3.1184434904     7.8160644201
C       19.1504764680     2.7411797998     7.4975734821
H       19.3625109092     2.1881253292     8.4208818109
H       18.9537840739     2.9456359593     5.3487675144
C       19.1496179503     2.1577195692     6.0872267713
H       18.4000898309     1.3734246828     5.9468862820
H       20.1300164384     1.7360234778     5.8418192415
H       20.0474707788     4.1539161268     6.1039117625
H       21.1374120618     2.8828458746     6.6181486452
H       20.7549507548     4.2014686591     7.7330795556
Si       16.6369357097     3.3605326364     4.4454147049
O       16.5310421686     4.9548625625     4.7755727718
O       18.1711986137     3.0132797532     3.9863711901
O       15.6399953318     2.9583520066     3.2111974661
O       16.2005124625     2.5493747494     5.7935541061
Si       16.7619176062     6.5431500413     4.4117648331
Si       14.2307341714     2.5164816375     2.4842237152
Si       19.1063843776     2.4274561286     2.7570250059
Si       15.8372840783     1.1359905503     6.5557850345
H       18.1712169834     6.7754282759     3.9645200574
H       15.8566478123     6.8998914470     3.2666280566
H       16.4977525678     7.4486267805     5.5976037497
H       13.0866641191     3.2885068436     3.0287326561
H       14.2851760947     2.7877093211     1.0197972721
H       18.7695779185     3.1882572782     1.5185241849
H       13.9534517778     1.0622579845     2.7057154664
H       18.8051490322     0.9804847442     2.5107226772
H       16.4760061005     0.9259839230     7.9129588668
H       14.3525957460     1.0156835229     6.7303176890
H       20.5975778783     2.5577615601     3.0001127346
H       16.3064568526     0.0428712211     5.6677817856
32
# Point -6 Energy = 0.0
C       20.4416212677     3.5728170601     7.1016303361
H       18.2241201407     3.2985458839     7.5393929851
C       19.1800500207     2.7751356597     7.4169404761
H       19.2364588529     2.2128603093     8.3572798826
H       19.2350744813     2.7797855008     5.2491090742
C       19.2698355443     2.0560656185     6.0733500288
H       18.4611290639     1.3348231657     5.9203618256
H       20.2208416176     1.5207462878     5.9818079231
H       20.3178800049     4.1624612146     6.1838882568
H       21.2974626845     2.9125327973     6.9286874706
H       20.7034229178     4.2552637423     7.9149963718
Si       16.5911714495     3.3689609836     4.4339057941
O       16.4828665116     4.9630995670     4.7634878751
O       18.1223597723     3.0226470436     3.9644976516
O       15.5877325222     2.9628791555     3.2060225525
O       16.1684521936     2.5558814273     5.7852974625
Si       16.7078412913     6.5525530415     4.4013067087
Si       14.1785250305     2.5202401928     2.4793831624
Si       19.0540994501     2.4419489357     2.7304649571
Si       15.8061375133     1.1386049775     6.5414247022
H       18.1147090568     6.7884786014     3.9486602280
H       15.7970795533     6.9088430794     3.2602700720
H       16.4464120977     7.4560190872     5.5893350708
H       13.0344683554     3.2891561075     3.0280350652
H       14.2265951724     2.7928449090     1.0141893952
H       18.7104746362     3.2044461004     1.4954637762
H       13.9055398198     1.0652973927     2.7000188013
H       18.7536451090     0.9953963218     2.4845442790
H       16.4507933119     0.9275800851     7.8946801365
H       14.3217764168     1.0134669112     6.7219393111
H       20.5456480790     2.5748353482     2.9685436464
H       16.2737566608     0.0490854915     5.6482500812
32
# Point -5 Energy = 0.0
C       20.5211218422     3.5998418857     7.2379352267
H       18.3184371620     3.4301550976     7.2311161538
C       19.2183503405     2.8102027472     7.3237536911
H       19.1003300419     2.2687458656     8.2707052678
H       19.5445627103     2.5861833087     5.1905358574
C       19.4071779123     1.9517432891     6.0753128980
H       18.5568585961     1.2891785389     5.8840964499
H       20.3050179783     1.3304959458     6.1614543238
H       20.5870409336     4.1504985265     6.2907676132
H       21.3912462774     2.9367490105     7.2732520217
H       20.6128505334     4.3179636792     8.0577650765
Si       16.5476893272     3.3794160831     4.4197274687
O       16.4384192264     4.9733018595     4.7494952291
O       18.0741924247     3.0338961760     3.9352006655
O       15.5337305706     2.9702469130     3.2013205159
O       16.1426278147     2.5643319526     5.7753600087
Si       16.6568185057     6.5639355002     4.3887016933
Si       14.1221138415     2.5275509608     2.4793781009
Si       18.9985422229     2.4584353042     2.6935323404
Si       15.7828447066     1.1432894519     6.5263290713
H       18.0598673853     6.8032441894     3.9263894109
H       15.7371685938     6.9202985527     3.2547168378
H       16.4020658818     7.4651589343     5.5799309816
H       12.9801129915     3.2935405706     3.0360803112
H       14.1592049080     2.8019933535     1.0134083290
H       18.6444898242     3.2229633712     1.4633215255
H       13.8536504341     1.0719153980     2.6995170828
H       18.6978428082     1.0124157077     2.4485778104
H       16.4373841133     0.9308588804     7.8736557596
H       14.2993619910     1.0139214632     6.7172614008
H       20.4911568315     2.5935658056     2.9220655385
H       16.2457018691     0.0572636772     5.6265006980
32
# Point -4 Energy = 0.0
C       20.5675448680     3.6234451164     7.3429175475
H       18.4346991233     3.4996697094     6.9385347387
C       19.2619975949     2.8413163228     7.2299583301
H       18.9787697699     2.3483734230     8.1684992366
H       19.8383960330     2.3907536325     5.1862753419
C       19.5397548136     1.8560372349     6.0967576042
H       18.6683751342     1.2389112804     5.8529370337
H       20.3649210826     1.1841397105     6.3561138162
H       20.8137061892     4.1171262788     6.3943241951
H       21.4069489006     2.9630412030     7.5817249755
H       20.5113674497     4.3901105047     8.1211834371
Si       16.5117792264     3.3896574716     4.4082680220
O       16.4025166234     4.9830237970     4.7398257787
O       18.0331477231     3.0447411228     3.9078886680
O       15.4866387021     2.9793518868     3.1994084548
O       16.1243632302     2.5715971235     5.7673080707
Si       16.6151207092     6.5750527919     4.3819665994
Si       14.0720772145     2.5382030890     2.4822694024
Si       18.9494138834     2.4752852525     2.6578380063
Si       15.7662220837     1.1464784553     6.5120358510
H       18.0142617572     6.8174390555     3.9098209223
H       15.6864776118     6.9330770651     3.2557379481
H       16.3679427707     7.4730096632     5.5773027910
H       12.9328689124     3.3013513650     3.0482549642
H       14.0977633079     2.8159856423     1.0158844031
H       18.5849819622     3.2431625655     1.4333396401
H       13.8073398247     1.0818150366     2.7004569749
H       18.6477319898     1.0301712967     2.4125600455
H       16.4307607796     0.9311086790     7.8530311283
H       14.2836559038     1.0137339949     6.7136025182
H       20.4431553509     2.6117609047     2.8765282946
H       16.2232800740     0.0643713245     5.6046106197
32
# Point -3 Energy = 0.0
C       20.5914679236     3.6464314368     7.4093220462
H       18.5519686670     3.5223013414     6.6928489073
C       19.3071652110     2.8660852500     7.1421232755
H       18.8841118522     2.4375429309     8.0595601556
H       20.0869274266     2.2115176132     5.2237811398
C       19.6514216727     1.7742584310     6.1310233536
H       18.7741850107     1.1888091958     5.8338772952
H       20.3940065825     1.0807241373     6.5400597538
H       20.9900071414     4.0754096725     6.4815629271
H       21.3707068889     2.9987122007     7.8224915762
H       20.4241247030     4.4641580126     8.1166719389
Si       16.4843116890     3.3976522919     4.4013406347
O       16.3755342336     4.9901930382     4.7362930159
O       18.0009444655     3.0532001125     3.8869151436
O       15.4493883124     2.9883349999     3.2002760303
O       16.1121783786     2.5754566631     5.7622014132
Si       16.5838021208     6.5838650303     4.3834637575
Si       14.0325653224     2.5504726751     2.4855616637
Si       18.9105476787     2.4906675213     2.6292340016
Si       15.7534715172     1.1458927613     6.4988234207
H       17.9797709530     6.8290506068     3.9037302554
H       15.6479884261     6.9453043019     3.2641591204
H       16.3430968443     7.4773777766     5.5834930585
H       12.8959338822     3.3108152858     3.0601795604
H       14.0489670559     2.8332866153     1.0192047779
H       18.5378959161     3.2633754626     1.4108483805
H       13.7703194283     1.0932591131     2.6997178573
H       18.6075051046     1.0468773509     2.3816545893
H       16.4258412733     0.9258659091     7.8341881862
H       14.2714966997     1.0106302124     6.7087021302
H       20.4051199406     2.6275265052     2.8403421635
H       16.2052082779     0.0682475445     5.5835138298
32
# Point -2 Energy = 0.0
C       20.6075513099     3.6642339169     7.4536365793
H       18.6704044576     3.5373389773     6.4985672971
C       19.3533532034     2.8880929723     7.0596933237
H       18.8128631496     2.5303556148     7.9453883267
H       20.2852121247     2.0570290556     5.2814528830
C       19.7340028182     1.7101999507     6.1644557361
H       18.8560580044     1.1542520104     5.8155673172
H       20.3855612886     1.0072649274     6.6947505874
H       21.1355603954     4.0312632856     6.5650758997
H       21.3073263356     3.0316960602     8.0080542475
H       20.3632701626     4.5263209137     8.0817706993
Si       16.4637604884     3.4025319219     4.3978652975
O       16.3548040033     4.9941314829     4.7365060790
O       17.9763171942     3.0591301171     3.8713196650
O       15.4206348741     2.9945711190     3.2032196521
O       16.1052671306     2.5758728808     5.7597299899
Si       16.5589817759     6.5895466138     4.3894458016
Si       14.0024940820     2.5601079132     2.4890149328
Si       18.8810045907     2.5040935447     2.6071240728
Si       15.7449383273     1.1418590060     6.4875973566
H       17.9523234802     6.8378957605     3.9040267379
H       15.6174241255     6.9545348472     3.2760009585
H       16.3230884699     7.4782393052     5.5940520973
H       12.8676752921     3.3173032558     3.0710684837
H       14.0114266400     2.8484540959     1.0228701390
H       18.5015871816     3.2818292792     1.3946272999
H       13.7425942042     1.1019888725     2.6982933463
H       18.5772659875     1.0616250663     2.3564817232
H       16.4232831605     0.9170613440     7.8181744933
H       14.2633097379     1.0040041091     6.7037224538
H       20.3760641337     2.6416609611     2.8126580557
H       16.1925724701     0.0688128190     5.5649538271
32
# Point -1 Energy = 0.0
C       20.6264276257     3.6663551501     7.4943074838
H       18.8103770061     3.5764123469     6.3338352672
C       19.4007060012     2.9152125513     6.9797008202
H       18.7510308507     2.6347278265     7.8187836192
H       20.4461772830     1.9243414827     5.3515218358
C       19.7874978211     1.6656978556     6.1899299395
H       18.9103919051     1.1494284189     5.7815956736
H       20.3305767443     0.9528459536     6.8199236851
H       21.2751813644     3.9693698793     6.6637673210
H       21.2222520964     3.0397189570     8.1645276732
H       20.3392048209     4.5683385124     8.0436213036
Si       16.4473536294     3.4052478349     4.3962552170
O       16.3355713519     4.9959894722     4.7372987071
O       17.9566226554     3.0650449271     3.8587434041
O       15.3973024951     2.9963075535     3.2077940867
O       16.1030197001     2.5747386911     5.7594771363
Si       16.5334014343     6.5931627935     4.3949189335
Si       13.9788769205     2.5626394948     2.4936418582
Si       18.8579924389     2.5180233242     2.5890394983
Si       15.7425953374     1.1365185584     6.4797055024
H       17.9239688473     6.8464734926     3.9044223069
H       15.5861738764     6.9593486708     3.2865630950
H       16.3002990976     7.4775940489     5.6032498663
H       12.8444504953     3.3153719539     3.0819636499
H       13.9807005518     2.8554976659     1.0275639313
H       18.4712528383     3.2991819975     1.3816574580
H       13.7233718872     1.1033960147     2.6989018567
H       18.5560649794     1.0761891951     2.3362894544
H       16.4263792886     0.9091825344     7.8060952518
H       14.2614035367     0.9941511809     6.7012541862
H       20.3531699500     2.6589311287     2.7897634682
H       16.1881857695     0.0678625325     5.5510518692
32
# Point 0 Energy = 0
C       20.6477110000     3.6549790000     7.5266840000
H       18.9761800000     3.6157410000     6.1694560000
C       19.4467280000     2.9484220000     6.9016430000
H       18.6922510000     2.7558520000     7.6754250000
H       20.5840390000     1.7980300000     5.4478400000
C       19.8234060000     1.6330100000     6.2209870000
H       18.9571360000     1.1573250000     5.7446630000
H       20.2404540000     0.9200090000     6.9405780000
H       21.4074060000     3.8754920000     6.7676150000
H       21.1161610000     3.0334640000     8.2953550000
H       20.3536290000     4.6012450000     7.9917750000
Si       16.4325060000     3.4077350000     4.3962220000
O       16.3148940000     4.9974300000     4.7394840000
O       17.9393640000     3.0735620000     3.8486780000
O       15.3769370000     2.9960700000     3.2133680000
O       16.1030250000     2.5730330000     5.7606000000
Si       16.5037570000     6.5966350000     4.4017980000
Si       13.9593780000     2.5607940000     2.4984440000
Si       18.8391290000     2.5361430000     2.5740860000
Si       15.7443760000     1.1302530000     6.4733110000
H       17.8913405600     6.8573308000     3.9070238400
H       15.5508605600     6.9622108000     3.2979838400
H       16.2712205600     7.4764908000     5.6136238400
H       12.8237502400     3.3071035200     3.0923555200
H       13.9544302400     2.8581435200     1.0324755200
H       18.4443303200     3.3198514400     1.3715668800
H       13.7106302400     1.1000235200     2.6995155200
H       18.5418503200     1.0943714400     2.3191668800
H       16.4331100800     0.9018602400     7.7959848800
H       14.2637500800     0.9809802400     6.6993448800
H       20.3340103200     2.6832114400     2.7708868800
H       16.1902300800     0.0665002400     5.5392248800
32
# Point 1 Energy = 0.0
C       20.6672342741     3.6419998737     7.5399252572
H       19.1518727565     3.6187090036     5.9992805712
C       19.4894739383     2.9817177581     6.8257838906
H       18.6424819423     2.8843701220     7.5174724508
H       20.7012017874     1.6721391287     5.5800919523
C       19.8517607169     1.6043157574     6.2709372024
H       19.0115505339     1.1526172767     5.7281677593
H       20.1371720719     0.9153183992     7.0734703104
H       21.5173279440     3.7597876340     6.8581137676
H       20.9992973529     3.0419046268     8.3919273586
H       20.3973293393     4.6355263860     7.9123043423
Si       16.4183791915     3.4103573086     4.3977331383
O       16.2935673407     4.9984454456     4.7451757513
O       17.9234785268     3.0841766345     3.8410228422