32
# Point -15 Energy = 0.0
C       20.6824666176     3.6779660652     7.3642074712
H       18.6744566048     3.4143784889     6.9166097129
C       19.4667080278     2.7439088177     7.2876998752
H       19.1072481445     2.2734325909     8.2125542273
H       20.2577949025     0.9686553223     6.3977347544
C       19.6434304732     1.8166533659     6.0733461778
H       20.2366505699     2.3988299300     5.3481006397
H       18.7496785503     1.4444095156     5.5683137764
H       21.5767508734     3.0415254454     7.4138791095
H       20.7317701895     4.4329636141     8.1509937890
H       20.7610599271     4.1900573750     6.3955074980
Si       16.4389987138     3.3809939788     4.4160043539
O       16.3141130157     4.9706197261     4.7480318887
O       17.9600819371     3.0749951305     3.8828735631
O       15.3529292647     2.9766717873     3.2665382667
O       16.1539794394     2.5193284238     5.7704168821
Si       16.4621549812     6.5780719635     4.4409006491
Si       13.9602289627     2.5103761836     2.5292569490
Si       18.8675065948     2.5802045606     2.5896620391
Si       15.8222633801     1.0768713241     6.4932568906
H       17.8398711137     6.8658071258     3.9447037391
H       15.4945321538     6.9298067589     3.3490373791
H       16.2178856572     7.4449583243     5.6635616799
H       12.8367233593     3.2366198028     3.1407249963
H       13.9622094911     2.8244788355     1.0705416582
H       18.4472058226     3.3590251380     1.3880692587
H       13.7559504400     1.0477938437     2.7227965863
H       18.5968589527     1.1306906424     2.3219956768
H       16.5182096535     0.8655575868     7.8097824548
H       14.3416781911     0.9065331606     6.7253332330
H       20.3569781221     2.7547853857     2.7743439406
H       16.2796064729     0.0363317864     5.5503862435
32
# Point -14 Energy = 0.0
C       20.6824191642     3.6806155917     7.3804523685
H       18.6870928685     3.4227460758     6.8540362230
C       19.4634144624     2.7560084953     7.2625443868
H       19.0715836803     2.3021377514     8.1825050753
H       20.3915852195     1.0309595042     6.4001051174
C       19.6702827098     1.7928868201     6.0821753154
H       20.1464924753     2.3922680953     5.2885120665
H       18.7901254639     1.3019372012     5.6612018963
H       21.5792457838     3.0469102374     7.3483136952
H       20.7511739930     4.3583320185     8.2335629389
H       20.7306841628     4.2825496061     6.4630826758
Si       16.4361679614     3.3832932371     4.4151951754
O       16.3130663597     4.9730387551     4.7479211333
O       17.9561048330     3.0739466231     3.8813194931
O       15.3520711894     2.9792123087     3.2632479137
O       16.1472314882     2.5236231279     5.7702589258
Si       16.4652039739     6.5798556733     4.4387136995
Si       13.9575504720     2.5156413798     2.5272647033
Si       18.8627444734     2.5753436569     2.5894780494
Si       15.8123146150     1.0814175624     6.4923542507
H       17.8439110437     6.8646436663     3.9428277378
H       15.4990217813     6.9332883543     3.3458828174
H       16.2222182973     7.4478581720     5.6605841044
H       12.8335436701     3.2440828825     3.1371377467
H       13.9596054657     2.8282523807     1.0679783474
H       18.4450532261     3.3548557613     1.3877270962
H       13.7493391693     1.0533165751     2.7216213005
H       18.5889356116     1.1265792291     2.3227068780
H       16.5073917517     0.8683220622     7.8093993188
H       14.3315292039     0.9138044783     6.7237878014
H       20.3527407728     2.7466443565     2.7751444261
H       16.2681352567     0.0389303602     5.5501226818
32
# Point -13 Energy = 0.0
C       20.6814519001     3.6833188407     7.3950445038
H       18.7000842426     3.4301452941     6.7942303376
C       19.4606761839     2.7679174156     7.2372211662
H       19.0380864198     2.3309246035     8.1516913297
H       20.5118000969     1.1032177881     6.3906996929
C       19.6951071243     1.7707424082     6.0916494491
H       20.0477309673     2.3670034094     5.2342238334
H       18.8436670941     1.1696261230     5.7643160348
H       21.5801296028     3.0621209355     7.2808078704
H       20.7706157422     4.2774706648     8.3067447922
H       20.6985955869     4.3703048812     6.5386539811
Si       16.4339301697     3.3854945558     4.4143232062
O       16.3125339996     4.9753266170     4.7478663654
O       17.9527148278     3.0729521821     3.8796214909
O       15.3517618164     2.9816945118     3.2599310286
O       16.1411869036     2.5277242421     5.7699869624
Si       16.4686663639     6.5815266580     4.4366962594
Si       13.9553977937     2.5208964744     2.5252760469
Si       18.8585460991     2.5707072635     2.5890804871
Si       15.8031924221     1.0857080100     6.4912559533
H       17.8483214075     6.8634763592     3.9410831501
H       15.5038626002     6.9366805832     3.3429655805
H       16.2269732601     7.4505395273     5.6578502322
H       12.8309108795     3.2514441041     3.1336917943
H       13.9574320639     2.8321680920     1.0654526593
H       18.4433619183     3.3509630311     1.3872466315
H       13.7433031270     1.0588143196     2.7203095582
H       18.5816782219     1.1226990159     2.3231039933
H       16.4974650703     0.8707905427     7.8087767860
H       14.3222323624     0.9207101571     6.7220983500
H       20.3490532437     2.7388266765     2.7756896078
H       16.2575110883     0.0413667121     5.5495762256
32
# Point -12 Energy = 0.0
C       20.6797914369     3.6859525829     7.4082226798
H       18.7134808279     3.4372569436     6.7371984667
C       19.4584294733     2.7797382213     7.2117522066
H       19.0065639321     2.3598115198     8.1201697486
H       20.6169572636     1.1826089392     6.3684641239
C       19.7177583460     1.7503177117     6.1014933740
H       19.9425888670     2.3236677427     5.1877729028
H       18.9097966944     1.0502054153     5.8756837221
H       21.5792506353     3.0868876042     7.2125242563
H       20.7907507834     4.1909758482     8.3700662647
H       20.6651937659     4.4520792922     6.6221485590
Si       16.4322304431     3.3875893789     4.4133785464
O       16.3124309415     4.9774790753     4.7478267295
O       17.9498666535     3.0720197947     3.8777848814
O       15.3519619205     2.9840696793     3.2565766636
O       16.1357968432     2.5316423309     5.7696058822
Si       16.4724307701     6.5830786852     4.4347776393
Si       13.9537458593     2.5260533486     2.5232785313
Si       18.8548844573     2.5662945992     2.5884893180
Si       15.7948686445     1.0897601517     6.4899918779
H       17.8529896780     6.8623140506     3.9394024110
H       15.5089437791     6.9399400460     3.3402020849
H       16.2320155118     7.4530152757     5.6552714535
H       12.8287814802     3.2586069741     3.1303526244
H       13.9556704385     2.8361106569     1.0629459271
H       18.4420987798     3.3473169207     1.3866303614
H       13.7378419953     1.0641982431     2.7188753421
H       18.5750868447     1.1190384385     2.3232328777
H       16.4883970915     0.8730170356     7.8079530362
H       14.3137603039     0.9272458216     6.7202886385
H       20.3458852359     2.7313611955     2.7760052578
H       16.2477309027     0.0436484767     5.5487989712
32
# Point -11 Energy = 0.0
C       20.6776495425     3.6883541637     7.4202635168
H       18.7274209625     3.4447577805     6.6828420660
C       19.4566116751     2.7915837597     7.1861504658
H       18.9767721566     2.3888616481     8.0879570402
H       20.7058524606     1.2661724188     6.3329293835
C       19.7381286892     1.7316844780     6.1114516353
H       19.8333886284     2.2635125607     5.1515747825
H       18.9877415814     0.9459879361     5.9928738315
H       21.5764405751     3.1208065097     7.1447403191
H       20.8120813800     4.0994803876     8.4231326092
H       20.6310310868     4.5266179136     6.7134087101
Si       16.4310073723     3.3895729645     4.4123495997
O       16.3126655693     4.9794965397     4.7477564133
O       17.9475075078     3.0711608569     3.8758102695
O       15.3526230037     2.9862896346     3.2531759610
O       16.1310098921     2.5353945096     5.7691213641
Si       16.4763774761     6.5845096423     4.4328782762
Si       13.9525584134     2.5310219403     2.5212662582
Si       18.8517221038     2.5621059779     2.5877188474
Si       15.7873153355     1.0935992293     6.4885967822
H       17.8577936793     6.8611695095     3.9377050802
H       15.5141429645     6.9430243863     3.3375014975
H       16.2372043288     7.4553050769     5.6527488793
H       12.8271018862     3.2654736026     3.1270934034
H       13.9542866133     2.8399594792     1.0604454764
H       18.4412165716     3.3438856450     1.3858744466
H       13.7329455719     1.0693776930     2.7173428920
H       18.5691512391     1.1155861485     2.3231376008
H       16.4801592103     0.8750667447     7.8069699204
H       14.3060864477     0.9334144230     6.7183913392
H       20.3431965693     2.7242793198     2.7761074792
H       16.2387901057     0.0457891199     5.5478492133
32
# Point -10 Energy = 0.0
C       20.6752151734     3.6903298949     7.4314603233
H       18.7421237458     3.4532790438     6.6309606639
C       19.4551604691     2.8035743461     7.1604241493
H       18.9484263124     2.4181820259     8.0550314618
H       20.7775958960     1.3509376249     6.2842573472
C       19.7561509715     1.7148864619     6.1213075384
H       19.7224967042     2.1883504963     5.1277816003
H       19.0764735448     0.8587651427     6.1131236140
H       21.5715506470     3.1633376352     7.0788192838
H       20.8349277890     4.0036743855     8.4656217041
H       20.5967666015     4.5926735052     6.8121442682
Si       16.4301951525     3.3914456561     4.4112255436
O       16.3131418853     4.9813850112     4.7476087063
O       17.9455795156     3.0703916232     3.8736969596
O       15.3536902625     2.9883095115     3.2497232569
O       16.1267728393     2.5390043428     5.7685412174
Si       16.4803813074     6.5858227594     4.4309156041
Si       13.9517914968     2.5357141646     2.5192393084
Si       18.8490145892     2.5581454207     2.5867813698
Si       15.7805045688     1.0972574538     6.4871098556
H       17.8626049398     6.8600608300     3.9359051663
H       15.5193301623     6.9458949228     3.3347711490
H       16.2423953598     7.4574353379     5.6501799359
H       12.8258115791     3.2719482568     3.1238942545
H       13.9532362519     2.8435941528     1.0579443743
H       18.4406585626     3.3406396610     1.3849728110
H       13.7285967397     1.0742639536     2.7157444288
H       18.5638541646     1.1123339926     2.3228623398
H       16.4727253846     0.8770137021     7.8058728909
H       14.2991845826     0.9392255793     6.7164461726
H       20.3409404824     2.7176170535     2.7760077846
H       16.2306829187     0.0478080522     5.5467902763
32
# Point -9 Energy = 0.0
C       20.6726458141     3.6916682380     7.4420976977
H       18.7578711898     3.4633555670     6.5812593396
C       19.4540130338     2.8158328965     7.1345808919
H       18.9212161776     2.4479184629     8.0213380738
H       20.8316431034     1.4340569021     6.2232430054
C       19.7718029752     1.6999357812     6.1309036550
H       19.6122611607     2.1004507982     5.1181624758
H       19.1747384937     0.7897316294     6.2335016190
H       21.5644809445     3.2138069774     7.0161661396
H       20.8594147789     3.9043296522     8.4972823601
H       20.5631056443     4.6490374169     6.9178808863
Si       16.4297259067     3.3932141251     4.4099986687
O       16.3137624286     4.9831568539     4.7473406879
O       17.9440223355     3.0697344152     3.8714461919
O       15.3551057595     2.9900914092     3.2462167868
O       16.1230312603     2.5425011695     5.7678761465
Si       16.4843157349     6.5870277506     4.4288113577
Si       13.9513970616     2.5400495108     2.5172024500
Si       18.8467139682     2.5544233539     2.5856904446
Si       15.7744075375     1.1007724340     6.4855729536
H       17.8672933916     6.8590125445     3.9339201201
H       15.5243730744     6.9485200295     3.3319234948
H       16.2474440843     7.4594385909     5.6474667958
H       12.8248465802     3.2779426647     3.1207410790
H       13.9524697931     2.8469023160     1.0554406031
H       18.4403636076     3.3375564505     1.3839212327
H       13.7247740808     1.0787756692     2.7141164189
H       18.5591743308     1.1092803060     2.3224521696
H       16.4660698718     0.8789367624     7.8047095443
H       14.2930276844     0.9446944958     6.7144965391
H       20.3390670340     2.7114165545     2.7757179851
H       16.2234017585     0.0497302722     5.5456875455
32
# Point -8 Energy = 0.0
C       20.6700583557     3.6921578925     7.4524226264
H       18.7749778511     3.4753686560     6.5333636065
C       19.4531053085     2.8284772993     7.1086317861
H       18.8948267031     2.4782446762     7.9867984900
H       20.8678122390     1.5129274385     6.1512678744
C       19.7851121236     1.6868084269     6.1401617404
H       19.5049457805     2.0023960042     5.1240227622
H       19.2811059724     0.7394526995     6.3510908115
H       21.5551975509     3.2714165979     6.9581660932
H       20.8854777843     3.8023249580     8.5179363232
H       20.5307285791     4.6945834145     7.0299111438
Si       16.4295324335     3.3948921647     4.4086664985
O       16.3144322585     4.9848309835     4.7469184374
O       17.9427760928     3.0692180069     3.8690641075
O       15.3568119708     2.9916086200     3.2426589116
O       16.1197300439     2.5459184911     5.7671398623
Si       16.4880587643     6.5881414394     4.4265001770
Si       13.9513268445     2.5439621461     2.5151630594
Si       18.8447725103     2.5509586967     2.5844637047
Si       15.7689929212     1.1041845084     6.4840274595
H       17.8717340037     6.8580558591     3.9316813564
H       15.5291444898     6.9508789225     3.3288844944
H       16.2522113243     7.4613518826     5.6445265074
H       12.8241434598     3.2833830261     3.1176238515
H       13.9519381088     2.8497896973     1.0529355872
H       18.4402718739     3.3346254107     1.3827213256
H       13.7214541068     1.0828457977     2.7124943297
H       18.5550889570     1.1064328548     2.3219526792
H       16.4601640082     0.8809135926     7.8035267168
H       14.2875859310     0.9498403199     6.7125845987
H       20.3375267354     2.7057263444     2.7752547856
H       16.2169355133     0.0515851720     5.5446036519
32
# Point -7 Energy = 0.0
C       20.6675210438     3.6916095976     7.4626152356
H       18.7937481139     3.4894914193     6.4868444257
C       19.4523715916     2.8416101063     7.0825951105
H       18.8689636388     2.5093447127     7.9513254211
H       20.8862789157     1.5852858383     6.0702053306
C       19.7961578430     1.6754403646     6.1490982803
H       19.4026658128     1.8969172629     5.1461744063
H       19.3940343169     0.7078833973     6.4631666582
H       21.5437328911     3.3352648842     6.9061077263
H       20.9128920063     3.6986666297     8.5274835944
H       20.5002175222     4.7283225794     7.1472597039
Si       16.4295514560     3.3965005018     4.4072335009
O       16.3150640942     4.9864320053     4.7463222598
O       17.9417846921     3.0688765513     3.8665642554
O       15.3587557383     2.9928496590     3.2390557905
O       16.1168139970     2.5492911590     5.7663485398
Si       16.4915006875     6.5891873405     4.4239386804
Si       13.9515365018     2.5474086080     2.5131283265
Si       18.8431466097     2.5477794450     2.5831250762
Si       15.7642246882     1.1075328668     6.4825100712
H       17.8758153987     6.8572273825     3.9291453619
H       15.5335317621     6.9529651036     3.3256025371
H       16.2565709376     7.4632138866     5.6413018279
H       12.8236439102     3.2882179435     3.1145343593
H       13.9515986243     2.8521911518     1.0504320778
H       18.4403311659     3.3318517199     1.3813841463
H       13.7186131178     1.0864292242     2.7109062486
H       18.5515759285     1.1038104819     2.3214085933
H       16.4549722473     0.8830128017     7.8023664524
H       14.2828240915     0.9546838561     6.7107451866
H       20.3362744157     2.7005993177     2.7746438764
H       16.2112668394     0.0534042015     5.5435922987
32
# Point -6 Energy = 0.0
C       20.6650491947     3.6898786130     7.4727649843
H       18.8144257771     3.5056505350     6.4412539057
C       19.4517447732     2.8553068169     7.0564993668
H       18.8433815361     2.5413893739     7.9148409814
H       20.8875417010     1.6492620367     5.9822879599
C       19.8050685653     1.6657263582     6.1578307440
H       19.3073323445     1.7867346358     5.1849598774
H       19.5119412769     0.6944379841     6.5673390564
H       21.5301680002     3.4043776861     6.8611006204
H       20.9413238052     3.5944968408     8.5259105650
H       20.4719954204     4.7494630639     7.2686761084
Si       16.4297271814     3.3980651610     4.4057120873
O       16.3155841623     4.9879879658     4.7455509618
O       17.9409993164     3.0687466411     3.8639693034
O       15.3608923604     2.9938209310     3.2354164913
O       16.1142286683     2.5526514162     5.7655197234
Si       16.4945529079     6.5901937666     4.4211133337
Si       13.9519897334     2.5503743475     2.5111020893
Si       18.8418006331     2.5449209692     2.5817061803
Si       15.7600598295     1.1108507442     6.4810482755
H       17.8794495584     6.8565659721     3.9263034376
H       15.5374473806     6.9547883878     3.3220561959
H       16.2604188907     7.4650607860     5.6377707450
H       12.8232995454     3.2924255778     3.1114635474
H       13.9514213905     2.8540803322     1.0479316055
H       18.4405032904     3.3292578110     1.3799329052
H       13.7162287157     1.0895093342     2.7093663598
H       18.5486155288     1.1014425002     2.3208618190
H       16.4504481607     0.8852851839     7.8012616243
H       14.2786988390     0.9592447441     6.7089995637
H       20.3352730572     2.6960881286     2.7739230561
H       16.2063690552     0.0552173549     5.5426918847
32
# Point -5 Energy = 0.0
C       20.6626074938     3.6868833179     7.4828591395
H       18.8371457372     3.5235194130     6.3961681736
C       19.4511574684     2.8696052324     7.0303850206
H       18.8179089421     2.5745098844     7.8772959895
H       20.8723578082     1.7033874421     5.8899574980
C       19.8120112020     1.6575236338     6.1665703502
H       19.2206128911     1.6744314346     5.2403184452
H       19.6332655180     0.6980963721     6.6616303984
H       21.5146007054     3.4777478238     6.8240041893
H       20.9703970128     3.4910825954     8.5132999817
H       20.4462935352     4.7574638293     7.3926655804
Si       16.4300146705     3.3996142670     4.4041225921
O       16.3159377184     4.9895267722     4.7446239967
O       17.9403816316     3.0688626621     3.8613115372
O       15.3631892220     2.9945468489     3.2317516573
O       16.1119214932     2.5560243124     5.7646709159
Si       16.4971561299     6.5911904083     4.4180449942
Si       13.9526618113     2.5528769974     2.5090819392
Si       18.8407101628     2.5424218062     2.5802466231
Si       15.7564468172     1.1141604571     6.4796566301
H       17.8825807100     6.8561078984     3.9231875385
H       15.5408385530     6.9563744832     3.3182586608
H       16.2636819239     7.4669214707     5.6339521264
H       12.8230761791     3.2960178165     3.1083989158
H       13.9513941017     2.8554750561     1.0454319692
H       18.4407693703     3.3268814169     1.3784041163
H       13.7142809815     1.0921014333     2.7078697912
H       18.5461916954     1.0993653433     2.3203494951
H       16.4465315562     0.8877558425     7.8002323317
H       14.2751568773     0.9635384273     6.7073504928
H       20.3344970487     2.6922384148     2.7731437197
H       16.2022036321     0.0570488866     5.5419205504
32
# Point -4 Energy = 0.0
C       20.6601200952     3.6826154418     7.4927881379
H       18.8619000511     3.5425509492     6.3512296679
C       19.4505441009     2.8844987323     7.0043044246
H       18.7924644630     2.6087741870     7.8386863207
H       20.8416581476     1.7465641535     5.7957246979
C       19.8171734668     1.6506612949     6.1756004416
H       19.1439140202     1.5623837476     5.3118712657
H       19.7565050236     0.7175231775     6.7444777619
H       21.4971088306     3.5543769264     6.7953857806
H       20.9997602692     3.3897834067     8.4898409681
H       20.4231577394     4.7520698369     7.5175579260
Si       16.4303823340     3.4011737356     4.4024921240
O       16.3160929316     4.9910718518     4.7435806639
O       17.9399060592     3.0692512949     3.8586319049
O       15.3656282077     2.9950668321     3.2280720187
O       16.1098432313     2.5594234139     5.7638181939
Si       16.4992858222     6.5922039047     4.4147885387
Si       13.9535417936     2.5549648396     2.5070573572
Si       18.8398639779     2.5403176160     2.5787930071
Si       15.7533255431     1.1174693516     6.4783349363
H       17.8851910947     6.8558812356     3.9198702271
H       15.5436933092     6.9577617174     3.3142572729
H       16.2663235777     7.4688130245     5.6299055438
H       12.8229566460     3.2990397014     3.1053226080
H       13.9515249072     2.8564361728     1.0429253861
H       18.4411328484     3.3247701416     1.3768467286
H       13.7127532878     1.0942514603     2.7063903153
H       18.5442927258     1.0976168827     2.3199025968
H       16.4431478531     0.8904191731     7.7992841354
H       14.2721347370     0.9675734267     6.7057800817
H       20.3339341893     2.6890812855     2.7723701911
H       16.1987193157     0.0589130845     5.5412741354
32
# Point -3 Energy = 0.0
C       20.6574868778     3.6771397482     7.5023671009
H       18.8885276974     3.5620449585     6.3061794798
C       19.4498436108     2.8999353093     6.9783198694
H       18.7670590430     2.6441713888     7.7990627443
H       20.7964593238     1.7780129294     5.7020643542
C       19.8207426420     1.6449542932     6.1852443203
H       19.0783874257     1.4527486222     5.3989973389
H       19.8802253658     0.7511719481     6.8146707493
H       21.4777192379     3.6333116492     6.7755186132
H       21.0291395172     3.2920034398     8.4558368535
H       20.4024919273     4.7333202262     7.6416011377
Si       16.4308129898     3.4027627941     4.4008525441
O       16.3160421427     4.9926380101     4.7424764716
O       17.9395606055     3.0699264685     3.8559777813
O       15.3682063337     2.9954297037     3.2243871283
O       16.1079494795     2.5628477807     5.7629752048
Si       16.5009534783     6.5932533794     4.4114275141
Si       13.9546329179     2.5567105308     2.5050094136
Si       18.8392643167     2.5386347433     2.5773968384
Si       15.7506289900     1.1207675825     6.4770688303
H       17.8873020352     6.8559008024     3.9164585506
H       15.5460414412     6.9589955101     3.3101281338
H       16.2683459550     7.4707375299     5.6257251391
H       12.8229414891     3.3015639021     3.1022107406
H       13.9518422962     2.8570598421     1.0403978201
H       18.4416193965     3.3229737805     1.3753193651
H       13.7116326692     1.0960299901     2.7048816063
H       18.5429113645     1.0962297356     2.3195454366
H       16.4402101532     0.8932379458     7.7984086306
H       14.2695605441     0.9713494419     6.7042510480
H       20.3335859749     2.6866269593     2.7716769479
H       16.1958533581     0.0608110544     5.5407276532
32
# Point -2 Energy = 0.0
C       20.6546017620     3.6705845527     7.5113671807
H       18.9167295930     3.5812330020     6.2608729910
C       19.4490021484     2.9158221810     6.9525003093
H       18.7417839129     2.6806075064     7.7585326117
H       20.7377922321     1.7972216784     5.6113588009
C       19.8228863563     1.6402188765     6.1958299705
H       19.0249553873     1.3474947826     5.5008788696
H       20.0030410697     0.7973546772     6.8712564699
H       21.4563904003     3.7136676080     6.7644166521
H       21.0583645807     3.1991397823     8.4117090955
H       20.3841245078     4.7015298728     7.7630575960
Si       16.4313032900     3.4043903791     4.3992381257
O       16.3158003343     4.9942284206     4.7413777698
O       17.9393461008     3.0708859280     3.8534000513
O       15.3709345117     2.9956869829     3.2207046401
O       16.1062018993     2.5662807882     5.7621527636
Si       16.5022035997     6.5943469763     4.4080654948
Si       13.9559511375     2.5582018945     2.5029120544
Si       18.8389254049     2.5373849611     2.5761118550
Si       15.7482861452     1.1240280625     6.4758324722
H       17.8889702942     6.8561648030     3.9130837604
H       15.5479503212     6.9601220453     3.3059675100
H       16.2697870484     7.4726808030     5.6215294867
H       12.8230474343     3.3036818675     3.0990341444
H       13.9523921845     2.8574655354     1.0378296341
H       18.4422738590     3.3215364079     1.3738864337
H       13.7109096453     1.0975232664     2.7032815455
H       18.5420442291     1.0952252494     2.3192960503
H       16.4376233843     0.8961463370     7.7975860247
H       14.2673572394     0.9748565950     6.7027108839
H       20.3334661481     2.6848610110     2.7711444629
H       16.1935344381     0.0627291658     5.5402396490
32
# Point -1 Energy = 0.0
C       20.6513685039     3.6631271925     7.5195479805
H       18.9461023132     3.5993591773     6.2152775486
C       19.4479750860     2.9320339852     6.9269176191
H       18.7167880156     2.7179120256     7.7172540885
H       20.6666612693     1.8039116683     5.5258868360
C       19.8237404013     1.6362859593     6.2076593488
H       18.9843474379     1.2484483091     5.6165082776
H       20.1235811862     0.8542714321     6.9134494014
H       21.4330102413     3.7946384206     6.7618918361
H       21.0873678133     3.1125385096     8.3579970590
H       20.3678785069     4.6572534376     7.8802824987
Si       16.4318617645     3.4060531089     4.3976834774
O       16.3154014983     4.9958332603     4.7403561824
O       17.9392741089     3.0721099411     3.8509502265
O       15.3738348332     2.9958868396     3.2170302342
O       16.1045688078     2.5696907675     5.7613590328
Si       16.5031076766     6.5954800333     4.4048167017
Si       13.9575222169     2.5595324554     2.5007344977
Si       18.8388706404     2.5365624182     2.5749913804
Si       15.7462251794     1.1272082402     6.4745923486
H       17.8902811962     6.8566536530     3.9098899019
H       15.5495172483     6.9611827636     3.3018826071
H       16.2707149067     7.4746130293     5.6174504846
H       12.8233041728     3.3054943229     3.0957602436
H       13.9532330578     2.8577833172     1.0351972880
H       18.4431551576     3.3204901133     1.3726141132
H       13.7105773942     1.0988239015     2.7015181534
H       18.5416905589     1.0946094483     2.3191671260
H       16.4352891618     0.8990555445     7.7967887425
H       14.2654461734     0.9780758293     6.7010975178
H       20.3335979027     2.6837436397     2.7708546881
H       16.1916861689     0.0646392559     5.5397579177
32
# Point 0 Energy = 0
C       20.6477110000     3.6549790000     7.5266840000
H       18.9761800000     3.6157410000     6.1694560000
C       19.4467280000     2.9484220000     6.9016430000
H       18.6922510000     2.7558520000     7.6754250000
H       20.5840390000     1.7980300000     5.4478400000
C       19.8234060000     1.6330100000     6.2209870000
H       18.9571360000     1.1573250000     5.7446630000
H       20.2404540000     0.9200090000     6.9405780000
H       21.4074060000     3.8754920000     6.7676150000
H       21.1161610000     3.0334640000     8.2953550000
H       20.3536290000     4.6012450000     7.9917750000
Si       16.4325060000     3.4077350000     4.3962220000
O       16.3148940000     4.9974300000     4.7394840000
O       17.9393640000     3.0735620000     3.8486780000
O       15.3769370000     2.9960700000     3.2133680000
O       16.1030250000     2.5730330000     5.7606000000
Si       16.5037570000     6.5966350000     4.4017980000
Si       13.9593780000     2.5607940000     2.4984440000
Si       18.8391290000     2.5361430000     2.5740860000
Si       15.7443760000     1.1302530000     6.4733110000
H       17.8913405600     6.8573308000     3.9070238400
H       15.5508605600     6.9622108000     3.2979838400
H       16.2712205600     7.4764908000     5.6136238400
H       12.8237502400     3.3071035200     3.0923555200
H       13.9544302400     2.8581435200     1.0324755200
H       18.4443303200     3.3198514400     1.3715668800
H       13.7106302400     1.1000235200     2.6995155200
H       18.5418503200     1.0943714400     2.3191668800
H       16.4331100800     0.9018602400     7.7959848800
H       14.2637500800     0.9809802400     6.6993448800
H       20.3340103200     2.6832114400     2.7708868800
H       16.1902300800     0.0665002400     5.5392248800
32
# Point 1 Energy = 0.0
C       20.6436091789     3.6462924054     7.5326478535
H       19.0065769895     3.6299259608     6.1235404644
C       19.4452414606     2.9648662293     6.8767298591
H       18.6683248202     2.7942084765     7.6332195492
H       20.4909131659     1.7798017211     5.3793555102
C       19.8219377633     1.6303187932     6.2359770271
H       18.9437524529     1.0758298611     5.8837775217
H       20.3521393400     0.9925348389     6.9520421747
H       21.3794443278     3.9554596367     6.7812777971
H       21.1447532480     2.9629302056     8.2245969288
H       20.3414193277     4.5343356818     8.0963003378
Si       16.4332530259     3.4094129969     4.3948775139
O       16.3143193151     4.9989910045     4.7388124013
O       17.9396338337     3.0752019238     3.8466195933