32
# Point -15 Energy = 0.0
C       20.6263014838     3.5506315751     7.6380219045
H       18.9000283758     3.5974971341     6.2985202269
C       19.4200814181     2.8967122546     6.9610203514
H       18.7113284368     2.6373676042     7.7574381639
H       18.9301673235     1.4497186699     5.4693699027
C       19.8042936029     1.7221581561     6.0737650192
H       20.1167594027     0.8239731174     6.6096046022
H       20.5923030112     1.9778634199     5.3540354285
H       20.9119678123     3.0319593017     8.5627137117
H       20.4657904174     4.6138329946     7.8266049647
H       21.5014408552     3.4582493236     6.9804365900
Si       16.4524539345     3.4158602086     4.4287760573
O       16.2812474773     4.9925164492     4.8174360484
O       17.9856414343     3.1307375915     3.9094549379
O       15.4545678196     2.9985277599     3.1854587569
O       16.0686224561     2.5540203241     5.7622397178
Si       16.4819889810     6.5939523637     4.4827893795
Si       14.0152184430     2.5981663529     2.4735312293
Si       18.8528387839     2.5994904547     2.6037003838
Si       15.7455574507     1.0803041551     6.4274358269
H       17.8745232140     6.8749676017     3.9986723671
H       15.5377761314     6.9787952947     3.3756333128
H       16.2385386824     7.4444624917     5.7075152589
H       12.8421030164     3.3196003852     3.0667195837
H       13.9918942348     2.9283896394     1.0062265307
H       18.4709592782     3.3963554334     1.3896054998
H       13.7400790662     1.1269815782     2.6248492353
H       18.5754496158     1.1532550281     2.2917571091
H       16.4365246499     0.8303779365     7.7456021631
H       14.2732615314     0.9143093808     6.6374668614
H       20.3541597346     2.7432104896     2.7898115544
H       16.2141125250     0.0390575297     5.4709526802
32
# Point -14 Energy = 0.0
C       20.6272016301     3.5562313336     7.6322074340
H       18.9048684408     3.5984945097     6.2909430981
C       19.4212309070     2.8992986228     6.9581114885
H       18.7090060580     2.6445869619     7.7529753270
H       18.9817518700     1.5200288934     5.3850061016
C       19.8049341615     1.7143759825     6.0837259013
H       19.9909861538     0.7864348482     6.6283443005
H       20.6826252963     1.9209659059     5.4583856967
H       21.0114958337     2.9533031902     8.4654106724
H       20.4077442859     4.5724435081     7.9656729943
H       21.4564296666     3.6135990880     6.9143379128
Si       16.4511455652     3.4151970282     4.4269668473
O       16.2837767253     4.9928142111     4.8127514291
O       17.9826663703     3.1265699011     3.9059239600
O       15.4494100346     2.9983698286     3.1874671451
O       16.0705337604     2.5551398372     5.7624676395
Si       16.4839570020     6.5940851563     4.4779486738
Si       14.0115621626     2.5954735471     2.4752874445
Si       18.8521578300     2.5949939830     2.6022463636
Si       15.7446178707     1.0833551007     6.4305182828
H       17.8762774454     6.8735952259     3.9933343805
H       15.5393837485     6.9777629116     3.3708575047
H       16.2411376811     7.4465682598     5.7018124187
H       12.8408503818     3.3186021307     3.0683832866
H       13.9895152686     2.9232306470     1.0079810435
H       18.4696592059     3.3912175764     1.3889936457
H       13.7382556731     1.1249288728     2.6301805703
H       18.5733361327     1.1490552220     2.2938481030
H       16.4350995725     0.8344642826     7.7490975031
H       14.2716788295     0.9187279487     6.6412785544
H       20.3530456549     2.7387283672     2.7892856818
H       16.2116393809     0.0406591181     5.4754139547
32
# Point -13 Energy = 0.0
C       20.6282821902     3.5619885484     7.6259821835
H       18.9098028461     3.5995043133     6.2830910516
C       19.4225433160     2.9019830562     6.9549078270
H       18.7069332985     2.6518865072     7.7482449738
H       19.0494565583     1.5869199938     5.3077965073
C       19.8056866452     1.7068192471     6.0935096975
H       19.8636299370     0.7590725435     6.6334377698
H       20.7586760764     1.8564769874     5.5708223751
H       21.1098697006     2.8937074553     8.3516934130
H       20.3647216234     4.5093323073     8.1007947998
H       21.3969412501     3.7709846181     6.8702336320
Si       16.4498271608     3.4145619190     4.4250587100
O       16.2862871337     4.9931265008     4.8079575502
O       17.9796479572     3.1224514694     3.9022189048
O       15.4441968836     2.9982362930     3.1894383679
O       16.0725287541     2.5562895745     5.7626112286
Si       16.4858770121     6.5942342064     4.4729905723
Si       14.0078173132     2.5928500890     2.4770596564
Si       18.8513676907     2.5905296208     2.6005885386
Si       15.7438370828     1.0864565017     6.4335677060
H       17.8779534490     6.8722493640     3.9878032347
H       15.5408787187     6.9767422841     3.3660192552
H       16.2437515902     7.4486859968     5.6960036008
H       12.8395481220     3.3176764440     3.0701232096
H       13.9869960539     2.9181861284     1.0097673356
H       18.4681826400     3.3860854259     1.3881825580
H       13.7363249574     1.1229563691     2.6354942484
H       18.5711039995     1.1448904534     2.2957765056
H       16.4339221147     0.8386478947     7.7525210148
H       14.2702728145     0.9231748397     6.6451530904
H       20.3518303198     2.7342931767     2.7884762879
H       16.2092853903     0.0423018711     5.4798395541
32
# Point -12 Energy = 0.0
C       20.6295226237     3.5679426695     7.6193734002
H       18.9148185389     3.6005514671     6.2749815304
C       19.4240070904     2.9047957400     6.9514319705
H       18.7050948710     2.6592937919     7.7432670847
H       19.1320523944     1.6491932034     5.2393658320
C       19.8065557887     1.6995202643     6.1031442260
H       19.7369229089     0.7419851287     6.6248585471
H       20.8190620952     1.7856485152     5.6897217963
H       21.2045439368     2.8547735631     8.2240834087
H       20.3379430213     4.4263813677     8.2282733690
H       21.3246508421     3.9265895803     6.8491355112
Si       16.4484993742     3.4139585507     4.4230556596
O       16.2887667659     4.9934573673     4.8030516889
O       17.9765916598     3.1183936176     3.8983541649
O       15.4389395501     2.9981203425     3.1913723549
O       16.0746056872     2.5574754158     5.7626744703
Si       16.4877292329     6.5944036549     4.4679082986
Si       14.0040014780     2.5902780489     2.4788405501
Si       18.8504850657     2.5861099887     2.5987478580
Si       15.7432190949     1.0896143241     6.4365911903
H       17.8795325797     6.8709410710     3.9820795548
H       15.5422455603     6.9757280613     3.3611049537
H       16.2463479178     7.4508224486     5.6900776299
H       12.8382061224     3.3168002729     3.0719226827
H       13.9843605607     2.9132329316     1.0115765049
H       18.4665486644     3.3809652994     1.3871884626
H       13.7343128712     1.1210446675     2.6407862652
H       18.5687811943     1.1407707985     2.2975665435
H       16.4329901857     0.8429432727     7.7558845739
H       14.2690473565     0.9276474567     6.6490895420
H       20.3505285575     2.7299274762     2.7874127486
H       16.2070670093     0.0439916422     5.4842429863
32
# Point -11 Energy = 0.0
C       20.6308985552     3.5741227994     7.6124169989
H       18.9199005786     3.6016539492     6.2666386805
C       19.4256069195     2.9077586388     6.9477130918
H       18.7034703630     2.6668281967     7.7380669218
H       19.2280518647     1.7057726133     5.1812066585
C       19.8075421385     1.6925035890     6.1126633027
H       19.6130841616     0.7350851876     6.6028153474
H       20.8626819513     1.7098117668     5.8133265238
H       21.2930574882     2.8375941853     8.0854455268
H       20.3281847970     4.3259860609     8.3445948054
H       21.2415837248     4.0766553269     6.8514653954
Si       16.4471629947     3.4133882229     4.4209649893
O       16.2912052815     4.9938083821     4.7980357481
O       17.9735035062     3.1144038846     3.8943490750
O       15.4336503122     2.9980151008     3.1932705534
O       16.0767601320     2.5587001910     5.7626634126
Si       16.4894978323     6.5945952178     4.4627014227
Si       14.0001338116     2.5877418368     2.4806222144
Si       18.8495281814     2.5817441532     2.5967508953
Si       15.7427625153     1.0928312366     6.4395960062
H       17.8810011239     6.8696777418     3.9761723429
H       15.5434746268     6.9747146120     3.3561065045
H       16.2488975764     7.4529811068     5.6840301477
H       12.8368359299     3.3159538129     3.0737636692
H       13.9816366289     2.9083516431     1.0133993924
H       18.4647803704     3.3758615291     1.3860334591
H       13.7322448647     1.1191769732     2.6460503685
H       18.5663957835     1.1367034075     2.2992463362
H       16.4322942841     0.8473595711     7.7592008374
H       14.2680004273     0.9321414764     6.6530851115
H       20.3491566245     2.7256482962     2.7861320822
H       16.2049952503     0.0457312903     5.4886375384
32
# Point -10 Energy = 0.0
C       20.6323829876     3.5805470729     7.6051560138
H       18.9250329201     3.6028224268     6.2580923272
C       19.4273246144     2.9108850450     6.9437857212
H       18.7020353626     2.6745005825     7.7326740388
H       19.3357376670     1.7557214630     5.1346528310
C       19.8086423556     1.6857854831     6.1221053168
H       19.4942817031     0.7381062431     6.5677503121
H       20.8887446880     1.6303472971     5.9397742978
H       21.3730982296     2.8427269539     7.9389197379
H       20.3357556200     4.2109915817     8.4465202524
H       21.1500611491     4.2175784119     6.8770429729
Si       16.4458190818     3.4128498975     4.4187969488
O       16.2935944224     4.9941786684     4.7929160576
O       17.9703900124     3.1104858884     3.8902270826
O       15.4283422205     2.9979138374     3.1951358802
O       16.0789854125     2.5599636929     5.7625859646
Si       16.4911715214     6.5948082025     4.4573756444
Si       13.9962344260     2.5852286203     2.4823965162
Si       18.8485162341     2.5774373869     2.5946287406
Si       15.7424609833     1.0961066541     6.4425894545
H       17.8823507820     6.8684629584     3.9700983331
H       15.5445624034     6.9736962015     3.3510214008
H       16.2513759855     7.4551622189     5.6778635147
H       12.8354504251     3.3151210480     3.0756275446
H       13.9788549284     2.9035270454     1.0152269650
H       18.4629040266     3.3707763106     1.3847445455
H       13.7301451127     1.1173395159     2.6512784815
H       18.5639750572     1.1326923058     2.3008468228
H       16.4318183056     0.8519005127     7.7624828842
H       14.2671245731     0.9366510860     6.6571354363
H       20.3477317248     2.7214666921     2.7846773828
H       16.2030756642     0.0475206955     5.4930359374
32
# Point -9 Energy = 0.0
C       20.6339475562     3.5872224276     7.5976388572
H       18.9301991959     3.6040601469     6.2493767839
C       19.4291400437     2.9141794357     6.9396883951
H       18.7007626704     2.6823132508     7.7271211842
H       19.4531948822     1.7982547553     5.1008552424
C       19.8098496279     1.6793736730     6.1315117102
H       19.3825957782     0.7506137838     6.5203337946
H       20.8967826756     1.5486549114     6.0671287403
H       21.4425640292     2.8701815882     7.7878457361
H       20.3604860814     4.0846174845     8.5311710801
H       21.0526378146     4.3460037856     6.9250890759
Si       16.4444690767     3.4123403070     4.4165643303
O       16.2959284091     4.9945650132     4.7877030136
O       17.9672580806     3.1066393139     3.8860148084
O       15.4230287519     2.9978101632     3.1969726296
O       16.0812730833     2.5612628006     5.7624516413
Si       16.4927439842     6.5950396024     4.4519423461
Si       13.9923237547     2.5827286316     2.4841554760
Si       18.8474688049     2.5731910408     2.5924157829
Si       15.7423037358     1.0994369047     6.4455787390
H       17.8835789587     6.8672964603     3.9638810727
H       15.5455115955     6.9726671629     3.3458525738
H       16.2537639964     7.4573629164     5.6715864495
H       12.8340634550     3.3142901505     3.0774958686
H       13.9760478509     2.8987484035     1.0170506844
H       18.4609481595     3.3657095967     1.3833525083
H       13.7280357938     1.1155218525     2.6564611899
H       18.5615447008     1.1287382818     2.3024006464
H       16.4315405291     0.8565645084     7.7657438731
H       14.2664075384     0.9411692839     6.6612349541
H       20.3462715009     2.7173874834     2.7830961063
H       16.2013084846     0.0493568796     5.4974500658
32
# Point -8 Energy = 0.0
C       20.6355637721     3.5941447632     7.5899174469
H       18.9353834650     3.6053630820     6.2405295373
C       19.4310320855     2.9176376348     6.9354622098
H       18.6996235445     2.6902602072     7.7214431316
H       19.5783459595     1.8327480461     5.0807602785
C       19.8111541717     1.6732673983     6.1409254131
H       19.2799840253     0.7720195853     6.4614557601
H       20.8866587403     1.4661245780     6.1934115048
H       21.4996186796     2.9194207166     7.6356823042
H       20.4017316118     3.9503723773     8.5961050336
H       20.9520326149     4.4589111660     6.9942445055
Si       16.4431148825     3.4118541356     4.4142819741
O       16.2982042323     4.9949620588     4.7824105697
O       17.9641148701     3.1028600238     3.8817410290
O       15.4177234485     2.9976982065     3.1987863360
O       16.0836134349     2.5625917076     5.7622712588
Si       16.4942141249     6.5952842694     4.4464179334
Si       13.9884219122     2.5802353607     2.4858916273
Si       18.8464052611     2.5690025299     2.5901484214
Si       15.7422762830     1.1028155110     6.4485708564
H       17.8846888520     6.8661742383     3.9575497692
H       15.5463310066     6.9716220580     3.3406080244
H       16.2560486062     7.4595774536     5.6652134208
H       12.8326894350     3.3134537352     3.0793511173
H       13.9732483679     2.8940095793     1.0188628481
H       18.4589425731     3.3606590430     1.3818907174
H       13.7259364436     1.1137170514     2.6615882705
H       18.5591280236     1.1248388645     2.3039410326
H       16.4314347362     0.8613449738     7.7689967208
H       14.2658330086     0.9456882346     6.6653773056
H       20.3447935074     2.7134091833     2.7814382670
H       16.1996889204     0.0512342273     5.5018907351
32
# Point -7 Energy = 0.0
C       20.6372042074     3.6012994694     7.5820452636
H       18.9405708994     3.6067203189     6.2315898514
C       19.4329795589     2.9212472665     6.9311493278
H       18.6985889326     2.6983277069     7.7156754735
H       19.7089878986     1.8587423995     5.0750911904
C       19.8125437979     1.6674577435     6.1503892840
H       19.1882489034     0.8015987837     6.3922138543
H       20.8585675685     1.3841090161     6.3166355529
H       21.5427411299     2.9893743452     7.4859234080
H       20.4583887559     3.8119610983     8.6393812687
H       20.8510545711     4.5536922798     7.0826039433
Si       16.4417589075     3.4113842665     4.4119662115
O       16.3004218280     4.9953625659     4.7770556004
O       17.9609676410     3.0991402883     3.8774356157
O       15.4124395479     2.9975727670     3.2005835947
O       16.0859960045     2.5639422448     5.7620565868
Si       16.4955861249     6.5955351554     4.4408229927
Si       13.9845480682     2.5777456355     2.4875983446
Si       18.8453441609     2.5648654337     2.5878637520
Si       15.7423611605     1.1062335746     6.4515724986
H       17.8856893375     6.8650887459     3.9511379488
H       15.5470352099     6.9705558281     3.3353002605
H       16.2582234389     7.4617975491     5.6587638242
H       12.8313429317     3.3126089661     3.0811773502
H       13.9704888909     2.8893089809     1.0206568861
H       18.4569173392     3.3556200091     1.3803938676
H       13.7238633963     1.1119217580     2.6666492345
H       18.5567452663     1.1209883924     2.3055006944
H       16.4314714206     0.8662308259     7.7722538030
H       14.2653814403     0.9501996663     6.6695557538
H       20.3433146830     2.7095241201     2.7797546065
H       16.1982075785     0.0531447986     5.5063675154
32
# Point -6 Energy = 0.0
C       20.6388435783     3.6086622960     7.5740754030
H       18.9457483805     3.6081146698     6.2225973391
C       19.4349620991     2.9249884761     6.9267914852
H       18.6976306434     2.7064950581     7.7098534154
H       19.8428310347     1.8759456328     5.0843326834
C       19.8140045204     1.6619282359     6.1599446031
H       19.1090077746     0.8385091061     6.3138981909
H       20.8130314706     1.3038985889     6.4348392131
H       21.5707666366     3.0784675656     7.3420131016
H       20.5289244097     3.6731869046     8.6596124929
H       20.7525260394     4.6282169315     7.1877641007
Si       16.4404040665     3.4109220881     4.4096342628
O       16.3025841282     4.9957577411     4.7716571594
O       17.9578235738     3.0954691238     3.8731284641
O       15.4071896158     2.9974294461     3.2023718450
O       16.0884100690     2.5653042883     5.7618199672
Si       16.4968693078     6.5957836179     4.4351813013
Si       13.9807198524     2.5752595929     2.4892701265
Si       18.8443026784     2.5607697067     2.5855982682
Si       15.7425387287     1.1096802489     6.4545899660
H       17.8865946530     6.8640292211     3.9446819794
H       15.5476440271     6.9694639304     3.3299455632
H       16.2602889768     7.4640128158     5.6522609762
H       12.8300382356     3.3117575206     3.0829607875
H       13.9678001704     2.8846493565     1.0224276048
H       18.4549017883     3.3505856167     1.3788967102
H       13.7218293280     1.1101361475     2.6716338637
H       18.5544130039     1.1171781727     2.3071107960
H       16.4316190369     0.8712071393     7.7755266809
H       14.2650309438     0.9546952966     6.6737635974
H       20.3418508338     2.7057187426     2.7780947950
H       16.1968509945     0.0550787213     5.5108886167
32
# Point -5 Energy = 0.0
C       20.6404596881     3.6162005234     7.5660586851
H       18.9509049855     3.6095234807     6.2135905467
C       19.4369609430     2.9288348860     6.9224285449
H       18.6967224159     2.7147356445     7.7040106047
H       19.9775388511     1.8842300917     5.1087190335
C       19.8155211805     1.6566556838     6.1696296615
H       19.0436659898     0.8818116382     6.2279729082
H       20.7508906384     1.2266989972     6.5461206308
H       21.5829186728     3.1846607450     7.2072613646
H       20.6114172360     3.5378513314     8.6560027718
H       20.6592053616     4.6808861832     7.3068848650
Si       16.4390537378     3.4104578472     4.4073036085
O       16.3046969847     4.9961376141     4.7662356640
O       17.9546895665     3.0918327282     3.8688484479
O       15.4019851876     2.9972647530     3.2041591200
O       16.0908451017     2.5666662340     5.7615739102
Si       16.4980778163     6.5960197762     4.4295187287
Si       13.9769528062     2.5727805466     2.4909028228
Si       18.8432960628     2.5567019938     2.5833866178
Si       15.7427879870     1.1131432826     6.4576290855
H       17.8874238943     6.8629821069     3.9382195145
H       15.5481818310     6.9683424602     3.3245631177
H       16.2622525365     7.4662112623     5.6457309707
H       12.8287889366     3.3109054185     3.0846902803
H       13.9652102637     2.8800374504     1.0241713673
H       18.4529235323     3.3455468678     1.3774328137
H       13.7198429110     1.1083637724     2.6765327168
H       18.5521436597     1.1133967270     2.3088000032
H       16.4318452455     0.8762559338     7.7788258547
H       14.2647581848     0.9591672719     6.6779945595
H       20.3404161412     2.7019740987     2.7765057214
H       16.1956022503     0.0570246492     5.5154608181
32
# Point -4 Energy = 0.0
C       20.6420341988     3.6238743881     7.5580418787
H       18.9560323469     3.6109196049     6.2046055976
C       19.4389596021     2.9327547513     6.9180971410
H       18.6958408517     2.7230181293     7.6981780316
H       20.1107682618     1.8836272893     5.1482260500
C       19.8170780657     1.6516112232     6.1794784885
H       18.9933932965     0.9304925167     6.1360545784
H       20.6732880666     1.1536121309     6.6486721581
H       21.5788307003     3.3055011210     7.0847629758
H       20.7036101097     3.4096544314     8.6283699509
H       20.5737111524     4.7106712987     7.4367618474
Si       16.4377116754     3.4099810390     4.4049913559
O       16.3067689682     4.9964914551     4.7608120334
O       17.9515720165     3.0882149990     3.8646224295
O       15.3968364287     2.9970761849     3.2059537726
O       16.0932911755     2.5680155247     5.7613306786
Si       16.4992301128     6.5962329081     4.4238620744
Si       13.9732598949     2.5703147641     2.4924937969
Si       18.8423371481     2.5526460421     2.5812604531
Si       15.7430873740     1.1166096129     6.4606951347
H       17.8882003389     6.8619315541     3.9317879160
H       15.5486766943     6.9671882544     3.3191740442
H       16.2641279922     7.4683798473     5.6392014430
H       12.8276075100     3.3100627261     3.0863576590
H       13.9627436023     2.8754835386     1.0258862047
H       18.4510075464     3.3404928214     1.3760333946
H       13.7179085855     1.1066113153     2.6813375838
H       18.5499451414     1.1096301182     2.3105936440
H       16.4321181092     0.8813570631     7.7821605466
H       14.2645392728     0.9636086044     6.6822431340
H       20.3390227091     2.6982664711     2.7750299225
H       16.1944416514     0.0589702712     5.5200894405
32
# Point -3 Energy = 0.0
C       20.6435532091     3.6316387089     7.5500660981
H       18.9611248752     3.6122725052     6.1956749396
C       19.4409443980     2.9367122688     6.9138294553
H       18.6949661804     2.7313077928     7.6923830320
H       20.2402098105     1.8743198042     5.2025672033
C       19.8186595017     1.6467615365     6.1895197497
H       18.9591038747     0.9834849707     6.0398875981
H       20.5816493532     1.0856202925     6.7408141547
H       21.5585571898     3.4381844366     6.9773214506
H       20.8029721187     3.2920980735     8.5771520574
H       20.4984503635     4.7171375093     7.5739084278
Si       16.4363818786     3.4094808203     4.4027136211
O       16.3088110492     4.9968082140     4.7554068153
O       17.9484765914     3.0845981163     3.8604743574
O       15.3917518219     2.9968622820     3.2077641842
O       16.0957392997     2.5693392075     5.7611018746
Si       16.5003483199     6.5964118705     4.4182378852
Si       13.9696510937     2.5678711602     2.4940420201
Si       18.8414359266     2.5485831957     2.5792474061
Si       15.7434155275     1.1200659876     6.4637927692
H       17.8889506193     6.8608599910     3.9254227125
H       15.5491594128     6.9659989758     3.3138003698
H       16.2659352556     7.4705050643     5.6327002924
H       12.8265049279     3.3092431483     3.0879579525
H       13.9604201855     2.8710008660     1.0275718557
H       18.4491753393     3.3354108272     1.3747262520
H       13.7160264516     1.1048882587     2.6860418751
H       18.5478206095     1.1058623515     2.3125130018
H       16.4324072029     0.8864891699     7.7855385167
H       14.2643506061     0.9680135893     6.6865048775
H       20.3376801622     2.6945681522     2.7737041987
H       16.1933474441     0.0609028527     5.5247783554
32
# Point -2 Energy = 0.0
C       20.6450076216     3.6394446564     7.5421654180
H       18.9661798411     3.6135494474     6.1868262344
C       19.4429048492     2.9406689967     6.9096521629
H       18.6940828381     2.7395679567     7.6866484241
H       20.3636272350     1.8566308751     5.2711942064
C       19.8202503986     1.6420702005     6.1997758474
H       18.9414402907     1.0396911958     5.9413167623
H       20.4776576362     1.0235738692     6.8210276032
H       21.5225735814     3.5796250049     6.8873799423
H       20.9067683652     3.1883948793     8.5033974858
H       20.4355521480     4.7004520832     7.7146451405
Si       16.4350684233     3.4089464314     4.4004849468
O       16.3108361716     4.9970769674     4.7500393316
O       17.9454079983     3.0809631730     3.8564244775
O       15.3867378905     2.9966226547     3.2095984671
O       16.0981816792     2.5706245036     5.7608980418
Si       16.5014574219     6.5965455306     4.4126712969
Si       13.9661330588     2.5654609208     2.4955480936
Si       18.8405991997     2.5444929633     2.5773702202
Si       15.7437519808     1.1234995920     6.4669259540
H       17.8897037736     6.8597487393     3.9191561482
H       15.5496624324     6.9647731724     3.3084639805
H       16.2676995309     7.4725735355     5.6262544113
H       12.8254903020     3.3084635214     3.0894894748
H       13.9582549217     2.8666050075     1.0292297330
H       18.4474442343     3.3302868141     1.3735348398
H       13.7141922842     1.1032064847     2.6906409288
H       18.5457683826     1.1020758394     2.3145747552
H       16.4326846048     0.8916306736     7.7889659136
H       14.2641696489     0.9723781861     6.6907766364
H       20.3363953079     2.6908483335     2.7725584544
H       16.1922965474     0.0628097906     5.5295300274
32
# Point -1 Energy = 0.0
C       20.6463932954     3.6472416079     7.5343657513
H       18.9711973176     3.6147167449     6.1780814250
C       19.4448338989     2.9445853353     6.9055855770
H       18.6931798456     2.7477614445     7.6809918033
H       20.4788958355     1.8310121287     5.3533022900
C       19.8218367378     1.6374991221     6.2102622458
H       18.9407616459     1.0980036133     5.8422573102
H       20.3632239821     0.9681824160     6.8879848771
H       21.4717651764     3.7265323950     6.8169608249
H       21.0121355969     3.1013851978     8.4087392090
H       20.3868093699     4.6613766147     7.8551940520
Si       16.4337752618     3.4083676126     4.3983177758
O       16.3128587348     4.9972873571     4.7447268739
O       17.9423697594     3.0772908320     3.8524886814
O       15.3817989658     2.9963579836     3.2114641697
O       16.1006118936     2.5718593674     5.7607282970
Si       16.5025843537     6.5966231921     4.4071849421
Si       13.9627088927     2.5630970691     2.4970142007
Si       18.8398303162     2.5403536411     2.5756460604
Si       15.7440777764     1.1268986569     6.4700979016
H       17.8904902031     6.8585786577     3.9130158715
H       15.5502187146     6.9635103124     3.3031855945
H       16.2694503703     7.4745725911     5.6198884684
H       12.8245705721     3.3077432232     3.0909537809
H       13.9562571364     2.8623131741     1.0308628211
H       18.4458267845     3.3251056265     1.3724775015
H       13.7123976674     1.1015798151     2.6951322287
H       18.5437819841     1.0982519196     2.3167905794
H       16.4329257393     0.8967607510     7.7924471639
H       14.2639756178     0.9767003460     6.6950567015
H       20.3351718736     2.6870740878     2.7716147960
H       16.1912652804     0.0646791633     5.5343455842
32
# Point 0 Energy = 0
C       20.6477110000     3.6549790000     7.5266840000
H       18.9761800000     3.6157410000     6.1694560000
C       19.4467280000     2.9484220000     6.9016430000
H       18.6922510000     2.7558520000     7.6754250000
H       20.5840390000     1.7980300000     5.4478400000
C       19.8234060000     1.6330100000     6.2209870000
H       18.9571360000     1.1573250000     5.7446630000
H       20.2404540000     0.9200090000     6.9405780000
H       21.4074060000     3.8754920000     6.7676150000
H       21.1161610000     3.0334640000     8.2953550000
H       20.3536290000     4.6012450000     7.9917750000
Si       16.4325060000     3.4077350000     4.3962220000
O       16.3148940000     4.9974300000     4.7394840000
O       17.9393640000     3.0735620000     3.8486780000
O       15.3769370000     2.9960700000     3.2133680000
O       16.1030250000     2.5730330000     5.7606000000
Si       16.5037570000     6.5966350000     4.4017980000
Si       13.9593780000     2.5607940000     2.4984440000
Si       18.8391290000     2.5361430000     2.5740860000
Si       15.7443760000     1.1302530000     6.4733110000
H       17.8913405600     6.8573308000     3.9070238400
H       15.5508605600     6.9622108000     3.2979838400
H       16.2712205600     7.4764908000     5.6136238400
H       12.8237502400     3.3071035200     3.0923555200
H       13.9544302400     2.8581435200     1.0324755200
H       18.4443303200     3.3198514400     1.3715668800
H       13.7106302400     1.1000235200     2.6995155200
H       18.5418503200     1.0943714400     2.3191668800
H       16.4331100800     0.9018602400     7.7959848800
H       14.2637500800     0.9809802400     6.6993448800
H       20.3340103200     2.6832114400     2.7708868800
H       16.1902300800     0.0665002400     5.5392248800
32
# Point 1 Energy = 0.0
C       20.6489660458     3.6626083328     7.5191275549
H       18.9811328309     3.6165903096     6.1609585169
C       19.4485869739     2.9521415179     6.8978303991
H       18.6912947690     2.7638057283     7.6699537942
H       20.6772627582     1.7583504709     5.5535253390
C       19.8249475121     1.6285657837     6.2319507771
H       18.9903382583     1.2165878904     5.6504919564
H       20.1116091755     0.8794676661     6.9779436143
H       21.3311243205     4.0230515806     6.7403843253
H       21.2159647541     2.9865210229     8.1659079466
H       20.3369945260     4.5219221504     8.1207045753
Si       16.4312636645     3.4070404844     4.3942045811
O       16.3169574624     4.9974968675     4.7343218540
O       17.9363912754     3.0697584434     3.8449983008