32
# Point -15 Energy = 0.0
C       20.8459598747     3.4546527958     7.3608124825
H       19.0221049611     3.6259210152     6.2021108197
C       19.4382346818     2.8049712477     6.7990356583
H       19.2323729771     3.2768870175     7.7686603461
H       20.2992119960     2.3932313064     6.0311282663
C       19.5419336705     1.5980222314     6.1619991185
H       19.4908197426     0.6769201869     5.5836123296
H       20.4372993556     1.3885328837     6.7575018430
H       21.7336076345     4.0707370608     7.2724230556
H       20.8286998425     3.1947857723     8.4234943280
H       19.7925112480     3.7200315495     7.5660500624
Si       16.4196610619     3.3936491925     4.3835930993
O       16.3344042602     4.9886879738     4.7316021964
O       17.9161232163     3.0350921677     3.8184355388
O       15.3424231028     3.0022280530     3.2103955512
O       16.0942815816     2.5635888935     5.7466670829
Si       16.5463149483     6.5795319636     4.3965986535
Si       13.9122904863     2.5944719773     2.5126812581
Si       18.7899296108     2.4851822973     2.5306040182
Si       15.7150542441     1.1204883069     6.4623292227
H       17.9322994776     6.8193692888     3.8856438401
H       15.5870213369     6.9657222353     3.3042481264
H       16.3429390987     7.4613767644     5.6126027703
H       12.7957885285     3.3582164488     3.1212584482
H       13.8946106879     2.8956228179     1.0472037435
H       18.3954151307     3.2796043459     1.3350607892
H       13.6402195281     1.1374095917     2.7125615629
H       18.4657517712     1.0502437753     2.2759196012
H       16.4181326848     0.8790443849     7.7763610541
H       14.2378011658     0.9980585724     6.7053866735
H       20.2900193709     2.6069517148     2.7106724638
H       16.1347433220     0.0540681668     5.5205113556
32
# Point -14 Energy = 0.0
C       20.8344048393     3.4650352377     7.3685493689
H       19.0197036554     3.6241480268     6.1967796539
C       19.4392538925     2.8119425984     6.8031629804
H       19.1910842903     3.2502174648     7.7786471843
H       20.3313844538     2.3704136440     5.9904039635
C       19.5634712889     1.5950394079     6.1657929265
H       19.4745918554     0.6886463692     5.5680290648
H       20.4338026968     1.3513827821     6.7849361618
H       21.7212832067     4.0784778795     7.2494109451
H       20.8513712628     3.1745704207     8.4232662900
H       19.8006032049     3.7812231679     7.5965153764
Si       16.4197033263     3.3944601813     4.3835909110
O       16.3339188004     4.9892786952     4.7311622624
O       17.9161958336     3.0361426213     3.8186727566
O       15.3427868440     3.0024894912     3.2104866044
O       16.0941992616     2.5645435474     5.7470637785
Si       16.5454883711     6.5804660882     4.3956632086
Si       13.9126547575     2.5940745165     2.5125979632
Si       18.7904238070     2.4861309385     2.5312088696
Si       15.7155343983     1.1218704078     6.4629372089
H       17.9314768160     6.8204056342     3.8848582428
H       15.5862355310     6.9659979298     3.3031222620
H       16.3417357624     7.4625192118     5.6114274579
H       12.7959325494     3.3577253230     3.1208397771
H       13.8951334767     2.8948069342     1.0470581892
H       18.3957992214     3.2800467462     1.3353644663
H       13.6409816520     1.1370148599     2.7128971188
H       18.4666087858     1.0509769441     2.2768769214
H       16.4183054393     0.8808398099     7.7771253561
H       14.2380828634     0.9989906463     6.7058332771
H       20.2904109188     2.6082928502     2.7114051275
H       16.1354175376     0.0551316241     5.5214796849
32
# Point -13 Energy = 0.0
C       20.8227106439     3.4757486303     7.3767352283
H       19.0172554513     3.6224727474     6.1918954172
C       19.4402765011     2.8191959201     6.8076546264
H       19.1496626285     3.2218960081     7.7867386236
H       20.3621437444     2.3460272670     5.9503384893
C       19.5844260332     1.5927575368     6.1696507561
H       19.4551224952     0.7021049813     5.5548454777
H       20.4286577915     1.3141771708     6.8098415948
H       21.7088888551     4.0844375798     7.2250303296
H       20.8738485860     3.1559187038     8.4217917368
H       19.8120252585     3.8430790882     7.6270557477
Si       16.4198925208     3.3952689226     4.3837273574
O       16.3333933127     4.9898538670     4.7308742628
O       17.9164953948     3.0373465234     3.8191621559
O       15.3434292566     3.0026558273     3.2106268001
O       16.0942398739     2.5654462101     5.7475630306
Si       16.5444885162     6.5814098192     4.3949160908
Si       13.9133938297     2.5934475216     2.5124462628
Si       18.7913010563     2.4873360792     2.5321282078
Si       15.7162254876     1.1231539209     6.4635998364
H       17.9304969434     6.8215970086     3.8843730349
H       15.5853240546     6.9662007872     3.3021143316
H       16.3401750707     7.4636353407     5.6104354209
H       12.7963272079     3.3568852342     3.1202742679
H       13.8961165665     2.8937781361     1.0468467633
H       18.3965820567     3.2807210098     1.3359614112
H       13.6422484207     1.1363612127     2.7131247601
H       18.4680115454     1.0519377889     2.2781056609
H       16.4186100003     0.8825904614     7.7779962216
H       14.2385689976     0.9996728659     6.7062170993
H       20.2911590037     2.6100372963     2.7125719645
H       16.1364834951     0.0561505332     5.5225223914
32
# Point -12 Energy = 0.0
C       20.8108286382     3.4868295459     7.3854234541
H       19.0147012187     3.6208857440     6.1874799487
C       19.4412679713     2.8267567134     6.8125550132
H       19.1082526237     3.1919860647     7.7928225199
H       20.3916039990     2.3198489334     5.9107159046
C       19.6048296257     1.5911889862     6.1735866289
H       19.4321513748     0.7175281063     5.5442507037
H       20.4219178241     1.2769198552     6.8322027702
H       21.6962099682     4.0884394003     7.1989707732
H       20.8962557941     3.1389659835     8.4192060518
H       19.8269235907     3.9054352488     7.6577577926
Si       16.4202225685     3.3960795742     4.3840097777
O       16.3328059799     4.9904166859     4.7307448547
O       17.9170251271     3.0387192156     3.8199292653
O       15.3443616574     3.0027238886     3.2108102889
O       16.0943866550     2.5662981119     5.7481678761
Si       16.5432860095     6.5823678883     4.3943669896
Si       13.9145308581     2.5925776330     2.5122027022
Si       18.7925842200     2.4888200858     2.5333981938
Si       15.7171124166     1.1243372484     6.4643151941
H       17.9293348150     6.8229584725     3.8842149241
H       15.5842683492     6.9663289364     3.3012224467
H       16.3382063577     7.4647277929     5.6096340305
H       12.7969828179     3.3556743342     3.1195250045
H       13.8975989410     2.8925235333     1.0465459532
H       18.3977955336     3.2816470185     1.3368832036
H       13.6440511275     1.1354333818     2.7132173392
H       18.4699965256     1.0531465478     2.2796376496
H       16.4190167942     0.8842992948     7.7789801488
H       14.2392426727     1.0000926709     6.7065180753
H       20.2922831562     2.6122182936     2.7142274793
H       16.1379453887     0.0571268099     5.5236424020
32
# Point -11 Energy = 0.0
C       20.7987138041     3.4983118318     7.3946574133
H       19.0119923462     3.6193799373     6.1835518141
C       19.4421971237     2.8346483448     6.8179004505
H       19.0670213022     3.1605635963     7.7967901948
H       20.4198089082     2.2916249781     5.8713262730
C       19.6247211655     1.5903474620     6.1776124525
H       19.4054742599     0.7351832235     5.5365288113
H       20.4136332071     1.2396938527     6.8520214287
H       21.6830058080     4.0902188386     7.1709505519
H       20.9186815216     3.1238130396     8.4156059127
H       19.8454834109     3.9681593784     7.6886825300
Si       16.4206874833     3.3968956313     4.3844425089
O       16.3321347437     4.9909691140     4.7307797291
O       17.9177875965     3.0402769254     3.8209940194
O       15.3455940402     3.0026907979     3.2110293539
O       16.0946253818     2.5670979138     5.7488777632
Si       16.5418498713     6.5833442673     4.3940262599
Si       13.9160870057     2.5914519337     2.5118435579
Si       18.7942938415     2.4906083756     2.5350475106
Si       15.7181844707     1.1254151698     6.4650765768
H       17.9279627950     6.8245057218     3.8844095790
H       15.5830465371     6.9663806258     3.3004472810
H       16.3357786664     7.4657967266     5.6090326429
H       12.7979082681     3.3540697960     3.1185573279
H       13.8996152996     2.8910325522     1.0461324202
H       18.3994671043     3.2828490016     1.3381555177
H       13.6464201637     1.1342162054     2.7131460672
H       18.4725983105     1.0546267296     2.2814959807
H       16.4195026145     0.8859643252     7.7800774737
H       14.2400919206     1.0002327688     6.7067133245
H       20.2938006640     2.6148727004     2.7164166598
H       16.1398109643     0.0580602345     5.5248359729
32
# Point -10 Energy = 0.0
C       20.7863270758     3.5102268267     7.4044677825
H       19.0090943043     3.6179545839     6.1801249201
C       19.4430378495     2.8428933731     6.8237165644
H       19.0261588648     3.1277196176     7.7985372468
H       20.4467248765     2.2610737898     5.8319729674
C       19.6441463137     1.5902492508     6.1817347956
H       19.3749655347     0.7553688307     5.5320589639
H       20.4038565061     1.2026636037     6.8693246428
H       21.6690028229     4.0894313852     7.1407448504
H       20.9411546138     3.1105117318     8.4110450514
H       19.8679378194     4.0311356385     7.7198432167
Si       16.4212813506     3.3977206030     4.3850263201
O       16.3313574238     4.9915126021     4.7309827625
O       17.9187842835     3.0420374284     3.8223692135
O       15.3471342671     3.0025543544     3.2112746962
O       16.0949453920     2.5678426388     5.7496883855
Si       16.5401472777     6.5843428239     4.3939035886
Si       13.9180801899     2.5900581075     2.5113462269
Si       18.7964468282     2.4927298833     2.5370953222
Si       15.7194369525     1.1263799062     6.4658728897
H       17.9263500128     6.8262557268     3.8849792649
H       15.5816323939     6.9663545997     3.2997913396
H       16.3328413192     7.4668406908     5.6086412147
H       12.7991101698     3.3520480146     3.1173408501
H       13.9021937389     2.8892968013     1.0455843452
H       18.4016175555     3.2843557351     1.3397961983
H       13.6493840162     1.1326948222     2.7128824050
H       18.4758482000     1.0564055233     2.2836935056
H       16.4200532008     0.8875799975     7.7812823237
H       14.2411115463     1.0000721556     6.7067786277
H       20.2957253470     2.6180415875     2.7191718467
H       16.1420925529     0.0589493665     5.5260930313
32
# Point -9 Energy = 0.0
C       20.7736376182     3.5226020744     7.4148702983
H       19.0059899285     3.6166183843     6.1772073295
C       19.4437703060     2.8515139388     6.8300164022
H       18.9858788422     3.0935634374     7.7979645174
H       20.4722298912     2.2279091750     5.7924934243
C       19.6631547666     1.5909128837     6.1859525292
H       19.3406246726     0.7784208817     5.5312825028
H       20.3926457290     1.1660680115     6.8841690048
H       21.6538886851     4.0856682229     7.1082220118
H       20.9636212986     3.0990475984     8.4055334115
H       19.8945669667     4.0942379655     7.7511819164
Si       16.4219980674     3.3985582230     4.3857582768
O       16.3304525259     4.9920485815     4.7313547766
O       17.9200147140     3.0440190779     3.8240595663
O       15.3489867806     3.0023129624     3.2115363591
O       16.0953398852     2.5685290425     5.7505923831
Si       16.5381449392     6.5853674464     4.3940054407
Si       13.9205231012     2.5883846110     2.5106914771
Si       18.7990543658     2.4952147150     2.5395501183
Si       15.7208712613     1.1272232177     6.4666906681
H       17.9244634807     6.8282257665     3.8859391273
H       15.5799961529     6.9662499302     3.2992568118
H       16.3293466254     7.4678577236     5.6084672439
H       12.8005917174     3.3495857903     3.1158519390
H       13.9053528720     2.8873091932     1.0448834767
H       18.4042584758     3.2861975307     1.3418138128
H       13.6529666877     1.1308551428     2.7124015713
H       18.4797712107     1.0585114506     2.2862329616
H       16.4206641291     0.8891398678     7.7825843083
H       14.2423033368     0.9995891567     6.7066915927
H       20.2980656440     2.6217672415     2.7225104189
H       16.1448059221     0.0597927550     5.5273996815
32
# Point -8 Energy = 0.0
C       20.7606261924     3.5354605161     7.4258615992
H       19.0026828262     3.6153928801     6.1747984780
C       19.4443830822     2.8605324714     6.8367968743
H       18.9464177603     3.0582254482     7.7949778643
H       20.4961068160     2.1918573314     5.7527735230
C       19.6817990835     1.5923592238     6.1902524573
H       19.3026143854     0.8046957851     5.5346863202
H       20.3800681690     1.1302213671     6.8966517413
H       21.6373104518     4.0784868826     7.0733827523
H       20.9859288237     3.0893219816     8.3990361995
H       19.9256856684     4.1572964918     7.7825483979
Si       16.4228312314     3.3994132162     4.3866309602
O       16.3294000887     4.9925794060     4.7318921076
O       17.9214756325     3.0462407321     3.8260596051
O       15.3511511703     3.0019662801     3.2118042041
O       16.0958068783     2.5691551441     5.7515792798
Si       16.5358102123     6.5864227311     4.3943326773
Si       13.9234209168     2.5864215630     2.5098655483
Si       18.8021195799     2.4980931471     2.5424069702
Si       15.7224960213     1.1279384258     6.4675150586
H       17.9222687732     6.8304333386     3.8872933071
H       15.5781046681     6.9660665705     3.2988439706
H       16.3252525558     7.4688466695     5.6085131887
H       12.8023513142     3.3466619246     3.1140765878
H       13.9090981798     2.8850641615     1.0440171040
H       18.4073890145     3.2884048291     1.3442049320
H       13.6571850605     1.1286849531     2.7116855904
H       18.4843829367     1.0609733894     2.2891052168
H       16.4213431701     0.8906389617     7.7839689158
H       14.2436773977     0.9987641388     6.7064341798
H       20.3008224928     2.6260916619     2.7264304886
H       16.1479700462     0.0605903767     5.5287392603
32
# Point -7 Energy = 0.0
C       20.7472882604     3.5488185347     7.4374152796
H       18.9991996672     3.6143141474     6.1728862981
C       19.4448748267     2.8699712326     6.8440357459
H       18.9080330459     3.0218593693     7.7894882197
H       20.5180410902     2.1526891342     5.7127731556
C       19.7001327795     1.5946098989     6.1946058986
H       19.2613062792     0.8345505214     5.5427599450
H       20.3662026638     1.0955051412     6.9069198315
H       21.6188789769     4.0674570206     7.0363979243
H       21.0078183522     3.0811361170     8.3914755377
H       19.9616153137     4.2200579267     7.8136873301
Si       16.4237738300     3.4002917008     4.3876319228
O       16.3281830910     4.9931090743     4.7325850001
O       17.9231598535     3.0487204315     3.8283519619
O       15.3536204025     3.0015157085     3.2120686509
O       16.0963494655     2.5697219245     5.7526358670
Si       16.5331135781     6.5875142602     4.3948775950
Si       13.9267684984     2.5841619797     2.5088625366
Si       18.8056346982     2.5013925935     2.5456453795
Si       15.7243267579     1.1285229786     6.4683316008
H       17.9197322421     6.8328948435     3.8890304913
H       15.5759231856     6.9658056691     3.2985488275
H       16.3205271420     7.4698085235     5.6087730767
H       12.8043810041     3.3432598769     3.1120133086
H       13.9134180819     2.8825578328     1.0429802237
H       18.4109925976     3.2910046299     1.3469517681
H       13.6620450136     1.1261755453     2.7107269857
H       18.4896852154     1.0638176492     2.2922884592
H       16.4221110054     0.8920766902     7.7854188257
H       14.2452519392     0.9975835517     6.7059959771
H       20.3039867801     2.6310523433     2.7309072491
H       16.1516049620     0.0613451489     5.5300944868
32
# Point -6 Energy = 0.0
C       20.7336363496     3.5626833280     7.4494786433
H       18.9955907784     3.6134324904     6.1714445211
C       19.4452551574     2.8798507466     6.8516894413
H       18.8709986792     2.9846432835     7.7814121066
H       20.5376313703     2.1102599892     5.6725560544
C       19.7182081892     1.5976843454     6.1989664078
H       19.2173161798     0.8683111263     5.5559384412
H       20.3511394408     1.0623524773     6.9151776063
H       21.5981821187     4.0522205200     6.9976342890
H       21.0289324484     3.0741831295     8.3827340206
H       20.0026401513     4.2821464277     7.8442408651
Si       16.4248177916     3.4012013079     4.3887433251
O       16.3267890908     4.9936437070     4.7334161998
O       17.9250550259     3.0514733760     3.8309061558
O       15.3563790350     3.0009648910     3.2123213500
O       16.0969754036     2.5702348298     5.7537466971
Si       16.5300318823     6.5886485865     4.3956212344
Si       13.9305475807     2.5816034137     2.5076863926
Si       18.8095782642     2.5051336254     2.5492277737
Si       15.7263843317     1.1289809108     6.4691280152
H       17.9168241964     6.8356235940     3.8911200269
H       15.5734182023     6.9654698596     3.2983608507
H       16.3151536182     7.4707475460     5.6092293715
H       12.8066649565     3.3393711402     3.1096754261
H       13.9182803997     2.8797886068     1.0417773055
H       18.4150341706     3.2940160872     1.3500203768
H       13.6675370692     1.1233238175     2.7095320033
H       18.4956614903     1.0670641773     2.2957479326
H       16.4230003627     0.8934594698     7.7869153876
H       14.2470517036     0.9960442776     6.7053771710
H       20.3075368686     2.6366766958     2.7358902893
H       16.1557282929     0.0620642160     5.5314496783
32
# Point -5 Energy = 0.0
C       20.7197007719     3.5770497010     7.4619715195
H       18.9919283755     3.6128096205     6.1704311041
C       19.4455442692     2.8901869223     6.8596926767
H       18.8355979214     2.9467787894     7.7706733532
H       20.5544196358     2.0645525626     5.6323192678
C       19.7360740115     1.6015954009     6.2032696924
H       19.1715151607     0.9062317620     5.5745349400
H       20.3349761946     1.0312242662     6.9216905983
H       21.5748074668     4.0325583433     6.9576568178
H       21.0488407956     3.0680548795     8.3726597277
H       20.0489521352     4.3430339427     7.8737726092
Si       16.4259534150     3.4021508194     4.3899420103
O       16.3252118219     4.9941915237     4.7343602242
O       17.9271425331     3.0545092736     3.8336784788
O       15.3594018059     3.0003200649     3.2125556868
O       16.0976957604     2.5707046289     5.7548947279
Si       16.5265519590     6.5898327587     4.3965317419
Si       13.9347245809     2.5787497616     2.5063519754
Si       18.8139130607     2.5093254137     2.5530994236
Si       15.7286918458     1.1293245879     6.4698957125
H       17.9135227909     6.8386272335     3.8935098030
H       15.5705612884     6.9650634032     3.2982613236
H       16.3091354794     7.4716717805     5.6098509581
H       12.8091783676     3.3349988741     3.1070920162
H       13.9236302145     2.8767581308     1.0404231420
H       18.4194588590     3.2974457786     1.3533602162
H       13.6736323247     1.1201345329     2.7081225058
H       18.5022727696     1.0707222558     2.2994366867
H       16.4240529489     0.8948023199     7.7884401361
H       14.2491046896     0.9941574495     6.7045904956
H       20.3114367967     2.6429756366     2.7413030905
H       16.1603505499     0.0627595817     5.5327926983
32
# Point -4 Energy = 0.0
C       20.7055280413     3.5918966253     7.4747883240
H       18.9883021837     3.6125132983     6.1697886635
C       19.4457709300     2.9009870048     6.8679607186
H       18.8021130346     2.9084877695     7.7572064908
H       20.5679439941     2.0157131390     5.5924136589
C       19.7537726542     1.6063438182     6.2074364015
H       19.1250028716     0.9484500805     5.5986741804
H       20.3178099804     1.0025785644     6.9267834281
H       21.5483728494     4.0084510218     6.9171998533
H       21.0670837561     3.0622695911     8.3610719075
H       20.1005930134     4.4020299140     7.9018134612
Si       16.4271687966     3.4031492285     4.3912002550
O       16.3234524084     4.9947621458     4.7353838335
O       17.9293968543     3.0578294296     3.8366134832
O       15.3626530656     2.9995901403     3.2127670475
O       16.0985226402     2.5711471811     5.7560621123
Si       16.5226739967     6.5910733327     4.3975646639
Si       13.9392497529     2.5756129141     2.5048846975
Si       18.8185854734     2.5139614206     2.5571903766
Si       15.7312702253     1.1295750519     6.4706306557
H       17.9098180287     6.8419049403     3.8961271347
H       15.5673333813     6.9645921222     3.2982230900
H       16.3025003378     7.4725926344     5.6105932463
H       12.8118871867     3.3301610877     3.1043069299
H       13.9293900944     2.8734726258     1.0389423825
H       18.4241928545     3.3012836171     1.3569057248
H       13.6802796932     1.1166223024     2.7065357335
H       18.5094553158     1.0747864844     2.3032975829
H       16.4253141487     0.8961286653     7.7899760748
H       14.2514373541     0.9919506624     6.7036614425
H       20.3156358128     2.6499374979     2.7470456460
H       16.1654698698     0.0634476885     5.5341161589
32
# Point -3 Energy = 0.0
C       20.6911769685     3.6071841459     7.4878037841
H       18.9848128736     3.6126100277     6.1694473399
C       19.4459690751     2.9122448881     6.8763944734
H       18.7708128447     2.8700067487     7.7409617967
H       20.5778101867     1.9640705462     5.5533453150
C       19.7713377431     1.6119124888     6.2113777786
H       19.0790379133     0.9949485366     5.6282425345
H       20.2997262555     0.9768367974     6.9308291536
H       21.5185610568     3.9801181590     6.8771090641
H       21.0832273997     3.0563216117     8.3477670374
H       20.1574038554     4.4582974372     7.9279214204
Si       16.4284494633     3.4042042966     4.3924873392
O       16.3215199778     4.9953652296     4.7364480274
O       17.9317856994     3.0614241103     3.8396472397
O       15.3660874195     2.9987864563     3.2129529106
O       16.0994663633     2.5715819255     5.7572311533
Si       16.5184140166     6.5923749771     4.3986657014
Si       13.9440581999     2.5722139127     2.5033187232
Si       18.8235267989     2.5190162680     2.5614195548
Si       15.7341332028     1.1297605920     6.4713334060
H       17.9057151988     6.8454449496     3.8988832645
H       15.5637288731     6.9640631206     3.2982122294
H       16.2953016708     7.4735234233     5.6114010037
H       12.8147489693     3.3248926698     3.1013758983
H       13.9354631825     2.8699444161     1.0373677553
H       18.4291468715     3.3055003865     1.3605801566
H       13.6874053458     1.1128128586     2.7048217065
H       18.5171209547     1.0792339199     2.3072665274
H       16.4268262278     0.8974679782     7.7915085484
H       14.2540690587     0.9894677829     6.7026264804
H       20.3200696942     2.6575235456     2.7530004317
H       16.1710672389     0.0641477935     5.5354176045
32
# Point -2 Energy = 0.0
C       20.6767132170     3.6228513950     7.5008816175
H       18.9815644157     3.6131569599     6.1693297815
C       19.4461737741     2.9239367034     6.8848878060
H       18.7419399096     2.8315795252     7.7219113307
H       20.5837687830     1.9101292651     5.5157502966
C       19.7887923132     1.6182614440     6.2150033757
H       19.0349334698     1.0455324145     5.6628686777
H       20.2807881186     0.9543500182     6.9342270227
H       21.4851555002     3.9480267825     6.8382669300
H       21.0969184485     3.0497471374     8.3325262461
H       20.2189892878     4.5108972009     7.9517409916
Si       16.4297784624     3.4053208803     4.3937718975
O       16.3194316925     4.9960086967     4.7375114576
O       17.9342711040     3.0652707067     3.8427120578
O       15.3696516820     2.9979222432     3.2131129667
O       16.1005327850     2.5720293585     5.7583854824
Si       16.5138051133     6.5937389567     4.3997756914
Si       13.9490728040     2.5685833610     2.5016942293
Si       18.8286565146     2.5244444205     2.5657005810
Si       15.7372828127     1.1299137710     6.4720085549
H       17.9012372289     6.8492229113     3.9016809714
H       15.5597588582     6.9634843624     3.2981916060
H       16.2876181902     7.4744771669     5.6122136711
H       12.8177149028     3.3192458305     3.0983624053
H       13.9417388520     2.8661933473     1.0357374927
H       18.4342218060     3.3100474175     1.3643012805
H       13.6949147304     1.1087433320     2.7030389075
H       18.5251602482     1.0840229530     2.3112766335
H       16.4286214461     0.8988516674     7.7930257672
H       14.2570069558     0.9867663275     6.7015297813
H       20.3246638631     2.6656660266     2.7590409878
H       16.1771033104     0.0648794172     5.5366988608
32
# Point -1 Energy = 0.0
C       20.6622035799     3.6388164948     7.5138845632
H       18.9786567690     3.6141944903     6.1693572940
C       19.4464175865     2.9360177824     6.8933358571
H       18.7156993814     2.7934493683     7.7000549415
H       20.5857787403     1.8545361806     5.4803421173
C       19.8061481037     1.6253247236     6.2182294971
H       18.9939392985     1.0998315050     5.7019416103
H       20.2610293655     0.9353673342     6.9373663045
H       21.4480751106     3.9128661124     6.8015192048
H       21.1079261170     3.0421920455     8.3151261843
H       20.2846989847     4.5588549220     7.9730482584
Si       16.4311370656     3.4064994254     4.3950247884
O       16.3172124006     4.9966970154     4.7385346374
O       17.9368114355     3.0693330458     3.8457419563
O       15.3732879075     2.9970118784     3.2132494937
O       16.1017214580     2.5725081926     5.7595115045
Si       16.5088974442     6.5951618732     4.4008367422
Si       13.9542086201     2.5647609483     2.5000545727
Si       18.8338870105     2.5301807898     2.5699484457
Si       15.7407064428     1.1300677556     6.4726640669
H       17.8964257269     6.8532014130     3.9044236575
H       15.5554531238     6.9628641860     3.2981254751
H       16.2795512186     7.4754642716     5.6129719361
H       12.8207327529     3.3132888861     3.0953333842
H       13.9480999276     2.8622476215     1.0340927431
H       18.4393156250     3.3148582176     1.3679880159
H       13.7026968723     1.1044614296     2.7012495365
H       18.5334480214     1.0890939624     2.3152628897
H       16.4307166127     0.9003083953     7.7945193064
H       14.2602424775     0.9839132390     6.7004195368
H       20.3293378432     2.6742689644     2.7650416526
H       16.1835175761     0.0656595301     5.5379651860
32
# Point 0 Energy = 0
C       20.6477110000     3.6549790000     7.5266840000
H       18.9761800000     3.6157410000     6.1694560000
C       19.4467280000     2.9484220000     6.9016430000
H       18.6922510000     2.7558520000     7.6754250000
H       20.5840390000     1.7980300000     5.4478400000
C       19.8234060000     1.6330100000     6.2209870000
H       18.9571360000     1.1573250000     5.7446630000
H       20.2404540000     0.9200090000     6.9405780000
H       21.4074060000     3.8754920000     6.7676150000
H       21.1161610000     3.0334640000     8.2953550000
H       20.3536290000     4.6012450000     7.9917750000
Si       16.4325060000     3.4077350000     4.3962220000
O       16.3148940000     4.9974300000     4.7394840000
O       17.9393640000     3.0735620000     3.8486780000
O       15.3769370000     2.9960700000     3.2133680000
O       16.1030250000     2.5730330000     5.7606000000
Si       16.5037570000     6.5966350000     4.4017980000
Si       13.9593780000     2.5607940000     2.4984440000
Si       18.8391290000     2.5361430000     2.5740860000
Si       15.7443760000     1.1302530000     6.4733110000
H       17.8913405600     6.8573308000     3.9070238400
H       15.5508605600     6.9622108000     3.2979838400
H       16.2712205600     7.4764908000     5.6136238400
H       12.8237502400     3.3071035200     3.0923555200
H       13.9544302400     2.8581435200     1.0324755200
H       18.4443303200     3.3198514400     1.3715668800
H       13.7106302400     1.1000235200     2.6995155200
H       18.5418503200     1.0943714400     2.3191668800
H       16.4331100800     0.9018602400     7.7959848800
H       14.2637500800     0.9809802400     6.6993448800
H       20.3340103200     2.6832114400     2.7708868800
H       16.1902300800     0.0665002400     5.5392248800
32
# Point 1 Energy = 0.0
C       20.6332833834     3.6712530148     7.5391836054
H       18.9741953373     3.6177934150     6.1695685860
C       19.4471249710     2.9610839601     6.9097423539
H       18.6717030325     2.7190209361     7.6480990091
H       20.5789511487     1.7412207788     5.4188460858
C       19.8405635350     1.6412246127     6.2232381633
H       18.9252861028     1.2175045673     5.7902035172
H       20.2190026461     0.9082287015     6.9440753572
H       21.3632900948     3.8367564975     6.7370395758
H       21.1216613340     3.0235192620     8.2729910234
H       20.4248012524     4.6373387881     8.0080435905
Si       16.4338715455     3.4090201997     4.3973501346
O       16.3125085505     4.9982046767     4.7403381966
O       17.9418962042     3.0779095753     3.8514807204