32
# Point -15 Energy = 0.0
C       20.6546710419     3.6605749213     7.5519514381
H       18.9286764353     3.5539565630     6.1364173527
C       19.4188384307     2.9213117616     6.8820781225
H       18.6556331877     2.6821248304     7.6352397031
H       20.5595594041     1.8263735823     5.4551339074
C       19.8062212872     1.6544513690     6.2334528925
H       18.9313971529     1.1978316759     5.7493779058
H       20.2182444879     0.9287692233     6.9422551141
H       21.4129438905     3.8852442996     6.7914767252
H       21.1334433009     3.0395833275     8.3159586641
H       20.3671015185     4.6103082031     8.0124513257
Si       16.3939557298     3.2381462590     4.3293363107
O       16.3573029859     5.4458173903     4.7213969903
O       17.8483065151     3.0985051005     3.8759963683
O       15.6255789776     3.0438861445     3.4382984196
O       16.1379951834     2.6535126717     5.6415787264
Si       16.5126208344     6.5154451365     4.4307161611
Si       13.8876289644     2.4804958030     2.4771224609
Si       18.8307751873     2.5137721275     2.5441248422
Si       15.7431167525     1.0915876150     6.4558679325
H       17.9063109503     6.8766668112     3.9083389932
H       15.5684408368     6.9833619376     3.3169129193
H       16.3022925226     7.4928500024     5.6256963180
H       12.8241994100     3.2481036829     3.1086156660
H       13.9542839841     2.7996534296     1.0519343143
H       18.4290770688     3.3061535024     1.3565063017
H       13.7218885862     1.0487414878     2.7235745942
H       18.5137139483     1.0851995242     2.3147516595
H       16.4471204500     0.8866222264     7.7611062503
H       14.2724908071     0.9752104430     6.6765764340
H       20.3137907392     2.6662822777     2.7607264219
H       16.1903600283     0.0627586698     5.5021941244
32
# Point -14 Energy = 0.0
C       20.6547662322     3.6602754965     7.5496195449
H       18.9321310914     3.5575462481     6.1382545419
C       19.4212196571     2.9228490348     6.8831577740
H       18.6586382529     2.6868922481     7.6378849461
H       20.5617583331     1.8239487364     5.4546150745
C       19.8080522840     1.6526114420     6.2327365440
H       18.9337938173     1.1944405604     5.7494203756
H       20.2205890349     0.9280372884     6.9424356445
H       21.4130088720     3.8845269621     6.7890715005
H       21.1330249295     3.0395303085     8.3140621646
H       20.3667098977     4.6098881645     8.0101698169
Si       16.3965170558     3.2480354096     4.3337844597
O       16.3519445880     5.4144905638     4.7237168817
O       17.8555200433     3.0962129318     3.8749987864
O       15.6094067820     3.0423610672     3.4216722084
O       16.1352521355     2.6479812317     5.6509490533
Si       16.5103810108     6.5189734739     4.4279488552
Si       13.8920532478     2.4884433332     2.4775938924
Si       18.8324928022     2.5153978809     2.5465941797
Si       15.7428218982     1.0940486901     6.4586294532
H       17.9040675085     6.8736364648     3.9080135249
H       15.5658476527     6.9799766060     3.3143081500
H       16.2979306995     7.4901064152     5.6239711000
H       12.8238857945     3.2548075173     3.1068078963
H       13.9540005228     2.8064966705     1.0496343551
H       18.4308347082     3.3073412609     1.3582093008
H       13.7203764492     1.0545459728     2.7206188938
H       18.5172919352     1.0858540118     2.3152019235
H       16.4453892853     0.8880770184     7.7653655380
H       14.2714548785     0.9752354358     6.6792112109
H       20.3162702752     2.6680713704     2.7617749710
H       16.1905489249     0.0626621840     5.5067327982
32
# Point -13 Energy = 0.0
C       20.6548024030     3.6599612272     7.5473580088
H       18.9355496854     3.5612117497     6.1401380377
C       19.4235386076     2.9244243577     6.8842606745
H       18.6615825607     2.6916842624     7.6405332806
H       20.5638710026     1.8215939962     5.4540833066
C       19.8097881884     1.6508264245     6.2319946993
H       18.9360902602     1.1911458518     5.7494139072
H       20.2228192880     0.9273236672     6.9425613509
H       21.4130247937     3.8838120420     6.7867518753
H       21.1325298442     3.0394225969     8.3122140789
H       20.3662739572     4.6094388816     8.0079970086
Si       16.3990626754     3.2581309852     4.3382534275
O       16.3469326195     5.3833606969     4.7258959509
O       17.8625665113     3.0940114587     3.8739043279
O       15.5931797773     3.0406145937     3.4052469150
O       16.1325476075     2.6424712170     5.6601470879
Si       16.5083601620     6.5227692460     4.4253070661
Si       13.8965432072     2.4960178555     2.4781661476
Si       18.8340473036     2.5170102902     2.5490212110
Si       15.7425602717     1.0965224039     6.4611932242
H       17.9019842333     6.8708561204     3.9077272830
H       15.5634418137     6.9768657044     3.3118980787
H       16.2938757920     7.4876006912     5.6223801871
H       12.8236255727     3.2611242178     3.1050559256
H       13.9537834455     2.8129122229     1.0474412934
H       18.4324926109     3.3085015755     1.3598397485
H       13.7189803402     1.0600142655     2.7178270844
H       18.5206359081     1.0865104167     2.3156447550
H       16.4437514590     0.8894645831     7.7693786070
H       14.2704635975     0.9753104380     6.6817192538
H       20.3185891312     2.6697770697     2.7628035847
H       16.1906859696     0.0626108905     5.5110079723
32
# Point -12 Energy = 0.0
C       20.6547745213     3.6596325010     7.5451722622
H       18.9389309652     3.5649531179     6.1420693126
C       19.4257921505     2.9260376641     6.8853889200
H       18.6644612389     2.6964999065     7.6431850723
H       20.5658979920     1.8193106272     5.4535425228
C       19.8114276546     1.6490969963     6.2312292917
H       18.9382863639     1.1879481961     5.7493577263
H       20.2249322854     0.9266285646     6.9426349364
H       21.4129885122     3.8831005636     6.7845253208
H       21.1319511875     3.0392602198     8.3104207158
H       20.3657872498     4.6089604177     8.0059381247
Si       16.4015964563     3.2684331710     4.3427387144
O       16.3422712132     5.3524306831     4.7279304800
O       17.8694467795     3.0919011356     3.8727079151
O       15.5768972308     3.0386423133     3.3890295336
O       16.1298869184     2.6369838870     5.6691653193
Si       16.5065621267     6.5268340525     4.4227897661
Si       13.9010953488     2.5032185243     2.4788471680
Si       18.8354379136     2.5186080733     2.5513999005
Si       15.7423376557     1.0990102636     6.4635521164
H       17.9000653096     6.8683266657     3.9074792095
H       15.5612268735     6.9740322667     3.3096824418
H       16.2901326652     7.4853336157     5.6209233466
H       12.8234154629     3.2670506299     3.1033700175
H       13.9536270468     2.8188994924     1.0453631358
H       18.4340494934     3.3096318121     1.3613909742
H       13.7176986945     1.0651439666     2.7152065899
H       18.5237432279     1.0871669978     2.3160766891
H       16.4422132087     0.8907863408     7.7731382229
H       14.2695225942     0.9754363407     6.6840934583
H       20.3207470240     2.6713965447     2.7638043893
H       16.1907772350     0.0626064482     5.5150117662
32
# Point -11 Energy = 0.0
C       20.6546775913     3.6592899070     7.5430676713
H       18.9422736973     3.5687703731     6.1440498167
C       19.4279772270     2.9276889490     6.8865446066
H       18.6672694802     2.7013382575     7.6458407056
H       20.5678400850     1.8170999737     5.4529967134
C       19.8129695480     1.6474239029     6.2304423235
H       18.9403822624     1.1848482052     5.7492511540
H       20.2269253180     0.9259523326     6.9426592238
H       21.4128969118     3.8823937668     6.7823992380
H       21.1312821768     3.0390434946     8.3086883502
H       20.3652432788     4.6084530356     8.0039982548
Si       16.4041223030     3.2789417953     4.3472358140
O       16.3379643198     5.3217030816     4.7298165598
O       17.8761617162     3.0898822028     3.8714045270
O       15.5605584343     3.0364400058     3.3730272222
O       16.1272752151     2.6315202616     5.6779961883
Si       16.5049907662     6.5311691155     4.4203958243
Si       13.9057062229     2.5100449599     2.4796449775
Si       18.8366638974     2.5201899188     2.5537242437
Si       15.7421595574     1.1015135838     6.4656989878
H       17.8983149189     6.8660486126     3.9072681745
H       15.5592064275     6.9714789392     3.3076608340
H       16.2867061583     7.4833055974     5.6196001975
H       12.8232522780     3.2725839672     3.1017607372
H       13.9535256043     2.8244586274     1.0434080632
H       18.4355040166     3.3107292999     1.3628563837
H       13.7165299083     1.0699331098     2.7127646528
H       18.5266114099     1.0878219632     2.3164942335
H       16.4407803263     0.8920435862     7.7766372136
H       14.2686372169     0.9756138300     6.6863265354
H       20.3227436857     2.6729270489     2.7647695238
H       16.1908286406     0.0626502951     5.5187364084
32
# Point -10 Energy = 0.0
C       20.6545066701     3.6589342392     7.5410495166
H       18.9455766715     3.5726635040     6.1460809713
C       19.4300908634     2.9293782707     6.8877298227
H       18.6700025587     2.7061984412     7.6485005810
H       20.5696982744     1.8149634547     5.4524499295
C       19.8144129566     1.6458079546     6.2296358609
H       18.9423783516     1.1818464541     5.7490936110
H       20.2287959463     0.9252954729     6.9426371494
H       21.4127469152     3.8816931069     6.7803809326
H       21.1305161255     3.0387730351     8.3070232019
H       20.3646355156     4.6079172018     8.0021823339
Si       16.4066441480     3.2896563198     4.3517402243
O       16.3340156947     5.2911801061     4.7315500974
O       17.8827121952     3.0879546851     3.8699892147
O       15.5441627023     3.0340036601     3.3572472926
O       16.1247174529     2.6260811169     5.6866321003
Si       16.5036499544     6.5357752672     4.4181240126
Si       13.9103724294     2.5164972513     2.4805676632
Si       18.8377245667     2.5217544887     2.5559882886
Si       15.7420311860     1.1040334839     6.4676266978
H       17.8967372291     6.8640220861     3.9070929847
H       15.5573841057     6.9692079657     3.3058327117
H       16.2836010698     7.4815166577     5.6184102135
H       12.8231329306     3.2777218221     3.1002389281
H       13.9534733933     2.8295905264     1.0415844128
H       18.4368547920     3.3117913353     1.3642294793
H       13.7154723405     1.0743801694     2.7105083131
H       18.5292381327     1.0884734742     2.3168938855
H       16.4394581298     0.8932374861     7.7798684852
H       14.2678125066     0.9758433909     6.6884110213
H       20.3245788649     2.6743659280     2.7656911682
H       16.1908459265     0.0627436436     5.5221742543
32
# Point -9 Energy = 0.0
C       20.6542568842     3.6585664984     7.5391229738
H       18.9488387062     3.5766324674     6.1481641613
C       19.4321301834     2.9311057514     6.8889466405
H       18.6726558466     2.7110796375     7.6511651116
H       20.5714737675     1.8129025600     5.4519062724
C       19.8157572010     1.6442500245     6.2288120286
H       18.9442752967     1.1789434774     5.7488846199
H       20.2305420163     0.9246586382     6.9425717564
H       21.4125354935     3.8810002545     6.7784775905
H       21.1296464666     3.0384497569     8.3054314147
H       20.3639574179     4.6073535905     8.0004951215
Si       16.4091659410     3.3005758313     4.3562474587
O       16.3304288853     5.2608636141     4.7331268248
O       17.8890990940     3.0861183916     3.8684571187
O       15.5277093701     3.0313294926     3.3416971975
O       16.1222183771     2.6206669833     5.6950654373
Si       16.5025435655     6.5406529388     4.4159730128
Si       13.9150906249     2.5225759574     2.4816233558
Si       18.8386192842     2.5233004212     2.5581861575
Si       15.7419574295     1.1065708873     6.4693281216
H       17.8953363831     6.8622468157     3.9069523923
H       15.5557635641     6.9672211730     3.3041973965
H       16.2808221426     7.4799664210     5.6173527268
H       12.8230544368     3.2824621743     3.0988156850
H       13.9534647031     2.8342968422     1.0399006570
H       18.4381003883     3.3128151856     1.3655038822
H       13.7145243137     1.0784840675     2.7084443870
H       18.5316212490     1.0891196509     2.3172721497
H       16.4382514365     0.8943690797     7.7828250379
H       14.2670531741     0.9761253136     6.6903392897
H       20.3262523292     2.6757106270     2.7665615744
H       16.1908346279     0.0628874751     5.5253178055
32
# Point -8 Energy = 0.0
C       20.6539234454     3.6581878923     7.5372930945
H       18.9520586527     3.5806771865     6.1503007285
C       19.4340924197     2.9328715784     6.8901971077
H       18.6752248308     2.7159810840     7.6538347197
H       20.5731679887     1.8109188442     5.4513698820
C       19.8170018441     1.6427510458     6.2279730038
H       18.9460740401     1.1761397656     5.7486238086
H       20.2321616748     0.9240426327     6.9424661877
H       21.4122596767     3.8803170924     6.7766962522
H       21.1286667740     3.0380748799     8.3039190351
H       20.3632024493     4.6067630848     7.9989411809
Si       16.4116916392     3.3116990355     4.3607530571
O       16.3272072174     5.2307550993     4.7345423090
O       17.8953232912     3.0843729167     3.8668034861
O       15.5111977928     3.0284139651     3.3263845175
O       16.1197825053     2.6152781447     5.7032885723
Si       16.5016754622     6.5458021519     4.4139414232
Si       13.9198575281     2.5282821066     2.4828202078
Si       18.8393474669     2.5248263336     2.5603120699
Si       15.7419428351     1.1091265220     6.4707961657
H       17.8941164865     6.8607221286     3.9068451044
H       15.5543484745     6.9655199591     3.3027540802
H       16.2783740464     7.4786541067     5.6164269324
H       12.8230139210     3.2868033988     3.0975023246
H       13.9534938526     2.8385799828     1.0383653810
H       18.4392393383     3.3137980929     1.3666733541
H       13.7136841169     1.0822441784     2.7065794459
H       18.5337587951     1.0897585768     2.3176255569
H       16.4371645384     0.8954392790     7.7854999830
H       14.2663635778     0.9764596994     6.6921035643
H       20.3277638669     2.6769586979     2.7673730964
H       16.1908000513     0.0630825375     5.5281597279
32
# Point -7 Energy = 0.0
C       20.6535016675     3.6577998349     7.5355647864
H       18.9552354007     3.5847975501     6.1524919639
C       19.4359749255     2.9346760038     6.8914832391
H       18.6777051300     2.7209020806     7.6565098330
H       20.5747825818     1.8090139208     5.4508449247
C       19.8181466991     1.6413120084     6.2271210099
H       18.9477758064     1.1734357614     5.7483109118
H       20.2336533820     0.9234484109     6.9423236772
H       21.4119165638     3.8796457116     6.7750437879
H       21.1275707858     3.0376499295     8.3024919904
H       20.3623640986     4.6061467777     7.9975248594
Si       16.4142251953     3.3230242525     4.3652525982
O       16.3243537815     5.2008556844     4.7357919620
O       17.9013856646     3.0827176425     3.8650236878
O       15.4946273438     3.0252538018     3.3113169446
O       16.1174141097     2.6099146394     5.7112938830
Si       16.5010494816     6.5512225110     4.4120277659
Si       13.9246699265     2.5336171948     2.4841663718
Si       18.8399085912     2.5263308261     2.5623603661
Si       15.7419915895     1.1117009215     6.4720237837
H       17.8930815944     6.8594469452     3.9067697927
H       15.5531425141     6.9641052823     3.3015018288
H       16.2762613607     7.4775785239     5.6156318925
H       12.8230086187     3.2907442716     3.0963103545
H       13.9535552061     2.8424431089     1.0369872587
H       18.4402701470     3.3147372782     1.3677318195
H       13.7129500075     1.0856603319     2.7049197962
H       18.5356490000     1.0903883048     2.3179506843
H       16.4362011820     0.8964488701     7.7878865593
H       14.2657477036     0.9768464685     6.6936959343
H       20.3291132897     2.6781078069     2.7681182225
H       16.1907472514     0.0633293439     5.5306928700
32
# Point -6 Energy = 0.0
C       20.6529869826     3.6574039437     7.5339427945
H       18.9583678829     3.5889934109     6.1547391011
C       19.4377751859     2.9365193439     6.8928070073
H       18.6800925104     2.7258419925     7.6591908808
H       20.5763194111     1.8071894553     5.4503355812
C       19.8191918361     1.6399339549     6.2262583093
H       18.9493821063     1.1708318564     5.7479457733
H       20.2350159243     0.9228770755     6.9421475407
H       21.4115033335     3.8789884059     6.7735268727
H       21.1263524258     3.0371767352     8.3011560674
H       20.3614359005     4.6055059713     7.9962502685
Si       16.4167705471     3.3345494147     4.3697417108
O       16.3218714191     5.1711661173     4.7368710524
O       17.9072870896     3.0811517425     3.8631132369
O       15.4779974145     3.0218460060     3.2965022663
O       16.1151172013     2.6045762627     5.7190737672
Si       16.5006694211     6.5569131985     4.4102304951
Si       13.9295246822     2.5385831806     2.4856699770
Si       18.8403021961     2.5278124852     2.5643255303
Si       15.7421075032     1.1142944281     6.4730039932
H       17.8922356972     6.8584197770     3.9067251035
H       15.5521493539     6.9629776528     3.3004395885
H       16.2744885551     7.4767380668     5.6149665423
H       12.8230358805     3.2942839750     3.0952514393
H       13.9536431899     2.8458901271     1.0357750275
H       18.4411912998     3.3156299461     1.3686733877
H       13.7123202143     1.0887328138     2.7034714594
H       18.5372902944     1.0910068626     2.3182441763
H       16.4353645496     0.8973985161     7.7899781498
H       14.2652091469     0.9772853686     6.6951083714
H       20.3303004351     2.6791557411     2.7687896067
H       16.1906810100     0.0636281719     5.5329102816
32
# Point -5 Energy = 0.0
C       20.6523749573     3.6570020353     7.5324316823
H       18.9614550795     3.5932645850     6.1570433095
C       19.4394908286     2.9384019783     6.8941703346
H       18.6823829020     2.7308002528     7.6618782900
H       20.5777805601     1.8054471572     5.4498460334
C       19.8201375880     1.6386179757     6.2253871964
H       18.9508947390     1.1683283867     5.7475283463
H       20.2362484235     0.9223298739     6.9419411664
H       21.4110172535     3.8783476642     6.7721519621
H       21.1250058249     3.0366574273     8.2999168906
H       20.3604114561     4.6048421738     7.9951212656
Si       16.4193316058     3.3462720665     4.3742160860
O       16.3197627086     5.1416867688     4.7377747171
O       17.9130284374     3.0796741858     3.8610678063
O       15.4613074136     3.0181878756     3.2819483462
O       16.1128955140     2.5992625712     5.7266206584
Si       16.5005390234     6.5628729724     4.4085480045
Si       13.9344187379     2.5431824791     2.4873391063
Si       18.8405278878     2.5292698876     2.5662022145
Si       15.7422939950     1.1169071967     6.4737298916
H       17.8915827057     6.8576387271     3.9067096685
H       15.5513726456     6.9621371265     3.2995661912
H       16.2730599706     7.4761307137     5.6144296950
H       12.8230931752     3.2974221002     3.0943373649
H       13.9537523082     2.8489256800     1.0347374613
H       18.4420012709     3.3164732882     1.3694923749
H       13.7117929407     1.0914623656     2.7022401529
H       18.5386813191     1.0916122584     2.3185027655
H       16.4346572450     0.8982887605     7.7917682988
H       14.2647510971     0.9777759848     6.6963327472
H       20.3313251694     2.6801004149     2.7693801008
H       16.1906058162     0.0639790661     5.5348052306
32
# Point -4 Energy = 0.0
C       20.6516613081     3.6565961206     7.5310358140
H       18.9644960228     3.5976108504     6.1594056875
C       19.4411196337     2.9403243475     6.8955750843
H       18.6845724134     2.7357763655     7.6645724807
H       20.5791683297     1.8037887719     5.4493804524
C       19.8209845541     1.6373652039     6.2245099903
H       18.9523157929     1.1659256296     5.7470586948
H       20.2373503455     0.9218081936     6.9417080044
H       21.4104556909     3.8777261621     6.7709252690
H       21.1235253423     3.0360944317     8.2987799020
H       20.3592844537     4.6041570964     7.9941414358
Si       16.4219122443     3.3581893669     4.3786714885
O       16.3180299526     5.1124176321     4.7384979737
O       17.9186105734     3.0782837438     3.8588832460
O       15.4445567675     3.0142770177     3.2676631047
O       16.1107524914     2.5939728885     5.7339270413
Si       16.5006619608     6.5691001651     4.4069786365
Si       13.9393491233     2.5474179535     2.4891817715
Si       18.8405853436     2.5307016042     2.5679852613
Si       15.7425540810     1.1195391997     6.4741946739
H       17.8911264360     6.8571014929     3.9067221153
H       15.5508160092     6.9615833006     3.2988803607
H       16.2719797993     7.4757540268     5.6140200487
H       12.8231780923     3.3001586488     3.0935800010
H       13.9538771589     2.8515551320     1.0338833431
H       18.4426985321     3.3172644886     1.3701833252
H       13.7113663691     1.0938501807     2.7012312728
H       18.5398209319     1.0922024875     2.3187232946
H       16.4340812828     0.8991200315     7.7932507275
H       14.2643763240     0.9783177493     6.6973608533
H       20.3321873903     2.6809398763     2.7698827851
H       16.1905258491     0.0643818404     5.5363712200
32
# Point -3 Energy = 0.0
C       20.6508419165     3.6561883970     7.5297593368
H       18.9674898014     3.6020319457     6.1618272565
C       19.4426595430     2.9422869509     6.8970230525
H       18.6866573464     2.7407699063     7.6672738627
H       20.5804852346     1.8022160717     5.4489429845
C       19.8217336022     1.6361768091     6.2236290269
H       18.9536476440     1.1636237998     5.7465369933
H       20.2383215064     0.9213135560     6.9414515566
H       21.4098161209     3.8771267515     6.7698527404
H       21.1219055847     3.0354904617     8.2977503399
H       20.3580486901     4.6034526468     7.9933140757
Si       16.4245162857     3.3702980933     4.3831037685
O       16.3166751642     5.0833583251     4.7390357340
O       17.9240343562     3.0769789969     3.8565556010
O       15.4277449209     3.0101113617     3.2536544978
O       16.1086912740     2.5887063129     5.7409854681
Si       16.5010418189     6.5755926853     4.4055206903
Si       13.9443129600     2.5512929049     2.4912058897
Si       18.8404743151     2.5321062048     2.5696697268
Si       15.7428903644     1.1221902340     6.4743916490
H       17.8908705931     6.8568053719     3.9067610778
H       15.5504830187     6.9613153120     3.2983807192
H       16.2712520635     7.4756051551     5.6137361923
H       12.8232883451     3.3024940320     3.0929912628
H       13.9540124496     2.8537845512     1.0332214360
H       18.4432815618     3.3180007278     1.3707410311
H       13.7110386641     1.0958978995     2.7004498770
H       18.5407082142     1.0927755377     2.3189027379
H       16.4336380809     0.8998926479     7.7944193503
H       14.2640871675     0.9789099536     6.6981844218
H       20.3328870299     2.6816723122     2.7702909991
H       16.1904449621     0.0648360836     5.5376020039
32
# Point -2 Energy = 0.0
C       20.6499128436     3.6557812399     7.5286061651
H       18.9704355640     3.6065275697     6.1643089549
C       19.4441086684     2.9442903438     6.8985159601
H       18.6886342092     2.7457805246     7.6699828307
H       20.5817339980     1.8007308464     5.4485377395
C       19.8223858695     1.6350539910     6.2227466513
H       18.9548929526     1.1614230455     5.7459635263
H       20.2391620761     0.9208476099     6.9411753648
H       21.4090961358     3.8765524485     6.7689400368
H       21.1201414251     3.0348485090     8.2968332206
H       20.3566980905     4.6027309235     7.9926421783
Si       16.4271474920     3.3825946488     4.3875088727
O       16.3157000551     5.0545080952     4.7393828172
O       17.9293006367     3.0757583432     3.8540811271
O       15.4108713378     3.0056891708     3.2399304952
O       16.1067146883     2.5834617267     5.7477885748
Si       16.5016820804     6.5823480226     4.4041724306
Si       13.9493074680     2.5548110591     2.4934192584
Si       18.8401946325     2.5334822619     2.5712509022
Si       15.7433050290     1.1248599283     6.4743142561
H       17.8908187556     6.8567472699     3.9068252074
H       15.5503771876     6.9613318378     3.2980657947
H       16.2708805957     7.4756808392     5.6135766133
H       12.8234217723     3.3044290682     3.0925830705
H       13.9541530134     2.8556206874     1.0327604550
H       18.4437488532     3.3186791873     1.3711605537
H       13.7108079782     1.0976076018     2.6999006707
H       18.5413424766     1.0933293961     2.3190382230
H       16.4333284578     0.9006068251     7.7952682897
H       14.2638855297     0.9795517598     6.6987951468
H       20.3334240572     2.6822960535     2.7705983702
H       16.1903666702     0.0653411655     5.5384916021
32
# Point -1 Energy = 0.0
C       20.6488703434     3.6553771933     7.5275799654
H       18.9733325231     3.6110973800     6.1668516328
C       19.4454652994     2.9463351332     6.9000554452
H       18.6904997286     2.7508079430     7.6726997608
H       20.5829175452     1.7993348932     5.4481687774
C       19.8229427613     1.6339979724     6.2218652103
H       18.9560546586     1.1593234458     5.7453386877
H       20.2398725803     0.9204121228     6.9408830005
H       21.4082934530     3.8760064207     6.7681925121
H       21.1182280198     3.0341718310     8.2960333195
H       20.3552267291     4.6019942064     7.9921284196
Si       16.4298095524     3.3950750715     4.3918828551
O       16.3151060243     5.0258658257     4.7395339640
O       17.9344102573     3.0746200082     3.8514563073
O       15.3939355030     3.0010090521     3.2264990574
O       16.1048252382     2.5782378067     5.7543290970
Si       16.5025861087     6.5893632531     4.4029320973
Si       13.9543299708     2.5579765529     2.4958295325
Si       18.8397462068     2.5348283556     2.5727243346
Si       15.7437998353     1.1275477521     6.4739560818
H       17.8909743585     6.8569237115     3.9069131836
H       15.5505019550     6.9616310985     3.2979340278
H       16.2708690174     7.4759774186     5.6135397044
H       12.8235763409     3.3059649785     3.0923673096
H       13.9542938230     2.8570709467     1.0325090378
H       18.4440989237     3.3192970540     1.3714372401
H       13.7106724561     1.0989817976     2.6995879933
H       18.5417232626     1.0938620548     2.3191270515
H       16.4331526334     0.9012626818     7.7957918906
H       14.2637728704     0.9802422140     6.6991847077
H       20.3337984815     2.6828095795     2.7707988413
H       16.1902941389     0.0658962451     5.5390343135
32
# Point 0 Energy = 0
C       20.6477110000     3.6549790000     7.5266840000
H       18.9761800000     3.6157410000     6.1694560000
C       19.4467280000     2.9484220000     6.9016430000
H       18.6922510000     2.7558520000     7.6754250000
H       20.5840390000     1.7980300000     5.4478400000
C       19.8234060000     1.6330100000     6.2209870000
H       18.9571360000     1.1573250000     5.7446630000
H       20.2404540000     0.9200090000     6.9405780000
H       21.4074060000     3.8754920000     6.7676150000
H       21.1161610000     3.0334640000     8.2953550000
H       20.3536290000     4.6012450000     7.9917750000
Si       16.4325060000     3.4077350000     4.3962220000
O       16.3148940000     4.9974300000     4.7394840000
O       17.9393640000     3.0735620000     3.8486780000
O       15.3769370000     2.9960700000     3.2133680000
O       16.1030250000     2.5730330000     5.7606000000
Si       16.5037570000     6.5966350000     4.4017980000
Si       13.9593780000     2.5607940000     2.4984440000
Si       18.8391290000     2.5361430000     2.5740860000
Si       15.7443760000     1.1302530000     6.4733110000
H       17.8913405600     6.8573308000     3.9070238400
H       15.5508605600     6.9622108000     3.2979838400
H       16.2712205600     7.4764908000     5.6136238400
H       12.8237502400     3.3071035200     3.0923555200
H       13.9544302400     2.8581435200     1.0324755200
H       18.4443303200     3.3198514400     1.3715668800
H       13.7106302400     1.1000235200     2.6995155200
H       18.5418503200     1.0943714400     2.3191668800
H       16.4331100800     0.9018602400     7.7959848800
H       14.2637500800     0.9809802400     6.6993448800
H       20.3340103200     2.6832114400     2.7708868800
H       16.1902300800     0.0665002400     5.5392248800
32
# Point 1 Energy = 0.0
C       20.6464316983     3.6545885477     7.5259214708
H       18.9789774768     3.6204580355     6.1721228685
C       19.4478953198     2.9505513160     6.9032800514
H       18.6938850671     2.7609123801     7.6781588482
H       20.5851010086     1.7968174756     5.4475549956
C       19.8237768271     1.6320909923     6.2201140075
H       18.9581395437     1.1554277722     5.7439366653
H       20.2409066164     0.9196395587     6.9402634439
H       21.4064320300     3.8750115105     6.7672122736
H       21.1139361200     3.0327274404     8.2948024147
H       20.3518999519     4.6004849773     7.9915842222
Si       16.4352403179     3.4205712707     4.4005228352
O       16.3150646670     4.9692003056     4.7392276540
O       17.9441624865     3.0725831509     3.8457433426