32
# Point -15 Energy = 0.0
C       20.6074392546     3.5987586228     7.5204439045
H       18.9007640228     3.6259891107     6.1257746081
C       19.3782138511     2.9039902284     6.9268051790
H       18.8061507717     2.7679478931     7.4999903571
H       21.2250881245     1.9164147556     4.8236084537
C       19.6254994488     1.5617013586     6.2367225932
H       19.6661147002     1.5844491908     6.2599852912
H       20.2454421215     0.7149613670     7.1166559459
H       21.2649654707     3.7869946518     6.8828226256
H       21.0918169137     2.9272628567     8.3645960966
H       20.2775186169     4.6722546749     8.0583773038
Si       16.3928935247     3.4026678432     4.3906108199
O       16.2917858188     4.9942186718     4.7322755940
O       17.8983039522     3.0517665778     3.8489054982
O       15.3374906643     3.0023991101     3.2034461344
O       16.0483852919     2.5730421142     5.7537010843
Si       16.4998494314     6.5907307742     4.3944713367
Si       13.9181053547     2.5825787113     2.4832188326
Si       18.7966591756     2.5032203479     2.5785617751
Si       15.6712092883     1.1344976300     6.4660363286
H       17.8922789585     6.8356191483     3.9051216420
H       15.5555840488     6.9663546059     3.2866195616
H       16.2723668308     7.4739469999     5.6048438283
H       12.7885128857     3.3419443426     3.0721019826
H       13.9223467655     2.8790854296     1.0170372098
H       18.4157455854     3.2906305674     1.3739188914
H       13.6521528215     1.1248197276     2.6840695543
H       18.4845220739     1.0647768877     2.3231637866
H       16.3517736490     0.8992583361     7.7915776206
H       14.1878550762     1.0020150605     6.6861805721
H       20.2925433943     2.6337191513     2.7811848210
H       16.1086027121     0.0652852523     5.5343361272
32
# Point -14 Energy = 0.0
C       20.6101037480     3.6028068673     7.5210741351
H       18.9057327598     3.6253981384     6.1289154534
C       19.3828280489     2.9070576298     6.9253395323
H       18.7984747013     2.7673876688     7.5118129018
H       21.1796628623     1.9078971554     4.8618026239
C       19.6389054915     1.5662326683     6.2358464412
H       19.6197564428     1.5554849524     6.2248279750
H       20.2442009513     0.7280282636     7.1058228878
H       21.2745443277     3.7932122789     6.8754576404
H       21.0935491738     2.9347261885     8.3602067234
H       20.2824197729     4.6678645138     8.0539754160
Si       16.3956387358     3.4030227832     4.3910732042
O       16.2933797887     4.9944573767     4.7328178493
O       17.9011796490     3.0532636972     3.8490387154
O       15.3402737451     3.0019532945     3.2041626169
O       16.0520994518     2.5730634423     5.7542493715
Si       16.5001392971     6.5911556234     4.3950058095
Si       13.9210410978     2.5810586292     2.4842427370
Si       18.7996925963     2.5054624489     2.5784521964
Si       15.6761647343     1.1342312013     6.4666167403
H       17.8922638218     6.8371255676     3.9053418281
H       15.5553268739     6.9660757284     3.2873825232
H       16.2722530288     7.4741600488     5.6054546259
H       12.7910017284     3.3395370654     3.0734086985
H       13.9247171486     2.8776047307     1.0180703374
H       18.4178781936     3.2926057778     1.3739247751
H       13.6562617205     1.1230897366     2.6851202743
H       18.4885874113     1.0667818571     2.3230954865
H       16.3572328611     0.8994787944     7.7919959515
H       14.1929812442     1.0005965120     6.6871012690
H       20.2955054869     2.6371032870     2.7807401197
H       16.1141837050     0.0653780723     5.5347885000
32
# Point -13 Energy = 0.0
C       20.6126468491     3.6068918145     7.5218406357
H       18.9106182888     3.6248412852     6.1321482509
C       19.3873235227     2.9101740857     6.9239979390
H       18.7906733767     2.7668884266     7.5237552454
H       21.1344032619     1.8995265396     4.9005547657
C       19.6521848563     1.5708176465     6.2351403338
H       19.5753258518     1.5258961500     6.1870843112
H       20.2428411332     0.7409864117     7.0949656592
H       21.2840128341     3.7994404826     6.8682331863
H       21.0951216465     2.9422364456     8.3559822512
H       20.2872105759     4.6635249881     8.0496879836
Si       16.3983290352     3.4033973865     4.3915814404
O       16.2949311087     4.9947254004     4.7333627448
O       17.9040076323     3.0547479190     3.8492599917
O       15.3430234555     3.0015096913     3.2049120076
O       16.0557184738     2.5731442362     5.7548572695
Si       16.5004136945     6.5915980294     4.3955064001
Si       13.9239545548     2.5795399006     2.4852790826
Si       18.8026992604     2.5076478393     2.5784646008
Si       15.6809915795     1.1340477334     6.4672855031
H       17.8922466453     6.8386195248     3.9055525052
H       15.5550836019     6.9657973546     3.2880811464
H       16.2721080905     7.4744245559     5.6060037724
H       12.7934650572     3.3371601978     3.0746834287
H       13.9271012751     2.8760873542     1.0191083939
H       18.4200204720     3.2944975973     1.3740240000
H       13.6603258704     1.1213700015     2.6862150634
H       18.4926139282     1.0687277560     2.3231793282
H       16.3625311219     0.8998081594     7.7925236648
H       14.1979727469     0.9992850836     6.6880810453
H       20.2984375375     2.6404173908     2.7804469980
H       16.1196432612     0.0655246120     5.5353664109
32
# Point -12 Energy = 0.0
C       20.6152400952     3.6109115949     7.5225164366
H       18.9155462891     3.6242578170     6.1353052232
C       19.3918564220     2.9132560218     6.9225710516
H       18.7829363488     2.7663248909     7.5356306121
H       21.0895604396     1.8911613353     4.9397243312
C       19.6654766319     1.5754271427     6.2343399290
H       19.5300110419     1.4966211281     6.1504190452
H       20.2416998340     0.7541107459     7.0839493077
H       21.2935091296     3.8056095915     6.8608981492
H       21.0967350301     2.9496618849     8.3516534510
H       20.2920772837     4.6591065392     8.0453519597
Si       16.4010203789     3.4037627739     4.3920579141
O       16.2964879735     4.9949793158     4.7338961991
O       17.9068275105     3.0562303487     3.8494218415
O       15.3457565376     3.0010701268     3.2056414665
O       16.0593607105     2.5732005473     5.7554289445
Si       16.5006872001     6.5920293995     4.3960111270
Si       13.9268412295     2.5780328866     2.4863127664
Si       18.8056776659     2.5098469569     2.5783971086
Si       15.6858538985     1.1338322054     6.4679069920
H       17.8922198743     6.8401087581     3.9057484373
H       15.5548224346     6.9655197929     3.2888031777
H       16.2719808591     7.4746635433     5.6065709581
H       12.7959111159     3.3347871821     3.0759821277
H       13.9294354669     2.8745983674     1.0201473174
H       18.4221153140     3.2964161787     1.3740586561
H       13.6643673967     1.1196603653     2.6872940655
H       18.4966093741     1.0706908911     2.3231712058
H       16.3678853634     0.9000909327     7.7929906026
H       14.2030042033     0.9979382563     6.6890351797
H       20.3013434804     2.6437438428     2.7800521099
H       16.1251240665     0.0656506368     5.5358776659
32
# Point -11 Energy = 0.0
C       20.6178520843     3.6148802785     7.5231398771
H       18.9204942365     3.6236571151     6.1384137043
C       19.3963969780     2.9163169484     6.9210942869
H       18.7752292806     2.7657166607     7.5474712803
H       21.0451336068     1.8828538299     4.9793953695
C       19.6787511120     1.5800689056     6.2334913928
H       19.4843247422     1.4674967214     6.1141721077
H       20.2407224453     0.7673455712     7.0727779118
H       21.3030064402     3.8117272714     6.8534937783
H       21.0983507338     2.9570211234     8.3472664525
H       20.2969878632     4.6546279667     8.0409959586
Si       16.4037007063     3.4041238933     4.3925155232
O       16.2980408526     4.9952267331     4.7344195307
O       17.9096296605     3.0577077442     3.8495492113
O       15.3484673390     3.0006345152     3.2063598865
O       16.0630029105     2.5732477073     5.7559807833
Si       16.5009571820     6.5924544193     4.3965116763
Si       13.9296988275     2.5765367562     2.4873464792
Si       18.8086247031     2.5120451587     2.5782841877
Si       15.6907196109     1.1336059512     6.4685050580
H       17.8921847452     6.8415904626     3.9059285440
H       15.5545489416     6.9652429172     3.2895316811
H       16.2718635694     7.4748906985     5.6071403438
H       12.7983360835     3.3324245914     3.0772950382
H       13.9317276974     2.8731268517     1.0211877934
H       18.4241696559     3.2983397355     1.3740553680
H       13.6683783947     1.1179621531     2.6883682806
H       18.5005680077     1.0726557773     2.3231134689
H       16.3732543244     0.9003555391     7.7934265850
H       14.2080417213     0.9965832741     6.6899789365
H       20.3042193046     2.6470649587     2.7795986028
H       16.1305968389     0.0657697698     5.5363562619
32
# Point -10 Energy = 0.0
C       20.6204820188     3.6187973449     7.5237119806
H       18.9254616238     3.6230386696     6.1414742556
C       19.4009443499     2.9193563821     6.9195684458
H       18.7675510821     2.7650632528     7.5592777309
H       21.0011234835     1.8746147847     5.0195658799
C       19.6920070471     1.5847421223     6.2325954140
H       19.4382736617     1.4385216248     6.0783383583
H       20.2399071107     0.7806896849     7.0614550845
H       21.3125039433     3.8177930216     6.8460211360
H       21.0999678286     2.9643138457     8.3428225424
H       20.3019409791     4.6500889491     8.0366204274
Si       16.4063700102     3.4044805239     4.3929541873
O       16.2995897725     4.9954674454     4.7349326684
O       17.9124142081     3.0591797646     3.8496424818
O       15.3511561754     3.0002027302     3.2070668563
O       16.0666445877     2.5732855055     5.7565125674
Si       16.5012239039     6.5928728767     4.3970080863
Si       13.9325278446     2.5750515037     2.4883793625
Si       18.8115408315     2.5142420392     2.5781264904
Si       15.6955878940     1.1333687767     6.4690793237
H       17.8921416893     6.8430643187     3.9060933050
H       15.5542637513     6.9649666050     3.2902664189
H       16.2717561974     7.4751058220     5.6077119132
H       12.8007403441     3.3300725109     3.0786209673
H       13.9339789280     2.8716728161     1.0222289813
H       18.4261843860     3.3002679085     1.3740146986
H       13.6723591756     1.1162753707     2.6894367269
H       18.5044902428     1.0746220291     2.3230066364
H       16.3786367640     0.9006017154     7.7938314307
H       14.2130844010     0.9952200615     6.6909114726
H       20.3070654198     2.6503802100     2.7790875956
H       16.1360609442     0.0658817837     5.5368019339
32
# Point -9 Energy = 0.0
C       20.6231300471     3.6226618817     7.5242325490
H       18.9304486269     3.6224017038     6.1444865409
C       19.4054986042     2.9223734530     6.9179931854
H       18.7599017159     2.7643635532     7.5710493848
H       20.9575311154     1.8664540361     5.0602315511
C       19.7052441131     1.5894457771     6.2316511797
H       19.3918487944     1.4096991462     6.0429351742
H       20.2392533967     0.7941427594     7.0499836352
H       21.3220016022     3.8238061961     6.8384799741
H       21.1015865567     2.9715392203     8.3383215509
H       20.3069362298     4.6454886268     8.0322248720
Si       16.4090286514     3.4048323019     4.3933733687
O       16.3011350198     4.9957010131     4.7354354650
O       17.9151815783     3.0606462152     3.8497012081
O       15.3538235452     2.9997746569     3.2077616178
O       16.0702859778     2.5733132418     5.7570234962
Si       16.5014876504     6.5932844257     4.3975006441
Si       13.9353288677     2.5735771427     2.4894103874
Si       18.8144266229     2.5164377272     2.5779235466
Si       15.7004589421     1.1331197963     6.4696285732
H       17.8920910358     6.8445301365     3.9062432387
H       15.5539672586     6.9646907472     3.2910076692
H       16.2716588776     7.4753082793     5.6082861434
H       12.8031244050     3.3277307869     3.0799589414
H       13.9361898950     2.8702366228     1.0232699384
H       18.4281601866     3.3022011046     1.3739363422
H       13.6763103397     1.1145999693     2.6904979706
H       18.5083767136     1.0765898202     2.3228498365
H       16.3840327397     0.9008282804     7.7942039354
H       14.2181324181     0.9938476376     6.6918313600
H       20.3098823710     2.6536897205     2.7785188284
H       16.1415167010     0.0659860201     5.5372132514
32
# Point -8 Energy = 0.0
C       20.6257960790     3.6264730826     7.5247016589
H       18.9354552476     3.6217455121     6.1474504201
C       19.4100595899     2.9253673889     6.9163684107
H       18.7522808940     2.7636165573     7.5827858815
H       20.9143576548     1.8583812344     5.1013887594
C       19.7184617876     1.5941789152     6.2306581980
H       19.3450448920     1.3810317124     6.0079751499
H       20.2387605217     0.8077042459     7.0383664713
H       21.3314991728     3.8297662292     6.8308703439
H       21.1032068751     2.9786965532     8.3337636342
H       20.3119729686     4.6408262707     8.0278090102
Si       16.4116768942     3.4051789006     4.3937726197
O       16.3026767902     4.9959270474     4.7359277964
O       17.9179321200     3.0621068978     3.8497251185
O       15.3564698995     2.9993501852     3.2084434709
O       16.0739271473     2.5733303101     5.7575128762
Si       16.5017486517     6.5936887552     4.3979896062
Si       13.9381024634     2.5721136818     2.4904385343
Si       18.8172826235     2.5186322875     2.5776751231
Si       15.7053327285     1.1328582508     6.4701517375
H       17.8920330848     6.8459877243     3.9063788872
H       15.5536598599     6.9644152389     3.2917556215
H       16.2715716469     7.4754975206     5.6088634351
H       12.8054887368     3.3253992976     3.0813079139
H       13.9383613853     2.8688185721     1.0243097199
H       18.4300977796     3.3041396244     1.3738201810
H       13.6802324385     1.1129359067     2.6915506329
H       18.5122280210     1.0785592543     2.3226424768
H       16.3894420245     0.9010342222     7.7945430816
H       14.2231857160     0.9924651761     6.6927372547
H       20.3126706700     2.6569935387     2.7778923415
H       16.1469642353     0.0660819059     5.5375889930
32
# Point -7 Energy = 0.0
C       20.6284793394     3.6302304991     7.5251203527
H       18.9404810074     3.6210696270     6.1503664715
C       19.4146265231     2.9283377475     6.9146949285
H       18.7446875536     2.7628217620     7.5944876663
H       20.8716029334     1.8504061031     5.1430340850
C       19.7316589405     1.5989407705     6.2296171553
H       19.2978679762     1.3525182584     5.9734545683
H       20.2384267613     0.8213731305     7.0266072061
H       21.3409958542     3.8356727485     6.8231933441
H       21.1048278995     2.9857856106     8.3291500905
H       20.3170498509     4.6361016056     8.0233733155
Si       16.4143147778     3.4055201024     4.3941518615
O       16.3042151027     4.9961453324     4.7364096290
O       17.9206660185     3.0635615401     3.8497145939
O       15.3590956174     2.9989291869     3.2091119919
O       16.0775676785     2.5733364565     5.7579804689
Si       16.5020071128     6.5940856596     4.3984750869
Si       13.9408492071     2.5706610838     2.4914629160
Si       18.8201093751     2.5208254464     2.5773818638
Si       15.7102085439     1.1325838719     6.4706483835
H       17.8919682028     6.8474368290     3.9065008186
H       15.5533421162     6.9641399604     3.2925101190
H       16.2714943892     7.4756733140     5.6094438675
H       12.8078337759     3.3230780432     3.0826666763
H       13.9404944352     2.8674186795     1.0253474642
H       18.4319981139     3.3060832587     1.3736667866
H       13.6841259101     1.1112831431     2.6925936681
H       18.5160447091     1.0805300742     2.3223850325
H       16.3948634942     0.9012191922     7.7948486296
H       14.2282435115     0.9910724709     6.6936282483
H       20.3154308039     2.6602913135     2.7772092551
H       16.1524030646     0.0661691784     5.5379288153
32
# Point -6 Energy = 0.0
C       20.6311795203     3.6339334840     7.5254890326
H       18.9455257638     3.6203734462     6.1532347952
C       19.4191990745     2.9312838892     6.9129729370
H       18.7371211661     2.7619783080     7.6061546166
H       20.8292672224     1.8425377091     5.1851632595
C       19.7448349180     1.6037304820     6.2285279360
H       19.2503160806     1.3241602080     5.9393816426
H       20.2382511043     0.8351487954     7.0147089441
H       21.3504912262     3.8415253315     6.8154493896
H       21.1064493300     2.9928058956     8.3244814544
H       20.3221659892     4.6313140776     8.0189177685
Si       16.4169425179     3.4058556190     4.3945107599
O       16.3057500862     4.9963555301     4.7368808859
O       17.9233836031     3.0650099639     3.8496695690
O       15.3617011634     2.9985115464     3.2097665532
O       16.0812075171     2.5733311624     5.7584257076
Si       16.5022632148     6.5944748666     4.3989573400
Si       13.9435697167     2.5692193250     2.4924825265
Si       18.8229074717     2.5230172436     2.5770438104
Si       15.7150862035     1.1322960134     6.4711176037
H       17.8918966670     6.8488772808     3.9066096367
H       15.5530144327     6.9638648048     3.2932712840
H       16.2714270279     7.4758351917     5.6100277927
H       12.8101600126     3.3207668902     3.0840341068
H       13.9425899602     2.8660371601     1.0263822290
H       18.4338620227     3.3080322395     1.3734762663
H       13.6879913469     1.1096416111     2.6936257524
H       18.5198274406     1.0825023490     2.3220772247
H       16.4002966939     0.9013823398     7.7951197690
H       14.2333055776     0.9896688153     6.6945030847
H       20.3181633220     2.6635830767     2.7764699587
H       16.1578332062     0.0662473440     5.5382317228
32
# Point -5 Energy = 0.0
C       20.6338962101     3.6375814630     7.5258082408
H       18.9505893012     3.6196564156     6.1560555956
C       19.4237768268     2.9342052361     6.9112027628
H       18.7295810897     2.7610853989     7.6177867137
H       20.7873505597     1.8347847865     5.2277719549
C       19.7579889975     1.6085472326     6.2273905921
H       19.2023888697     1.2959585404     5.9057624318
H       20.2382324204     0.8490305765     7.0026748598
H       21.3599847817     3.8473236217     6.8076390510
H       21.1080707457     2.9997570019     8.3197584244
H       20.3273203856     4.6264632140     8.0144424599
Si       16.4195602973     3.4061851827     4.3948490320
O       16.3072818309     4.9965573291     4.7373415101
O       17.9260851816     3.0664520012     3.8495900701
O       15.3642869949     2.9980971498     3.2104065625
O       16.0848465448     2.5733139533     5.7588480842
Si       16.5025171093     6.5948561240     4.3994366151
Si       13.9462646181     2.5677883722     2.4934963707
Si       18.8256775135     2.5252077061     2.5766611259
Si       15.7199654410     1.1319940861     6.4715585668
H       17.8918187369     6.8503089209     3.9067059676
H       15.5526772099     6.9635896676     3.2940392068
H       16.2713694318     7.4759827273     5.6106155379
H       12.8124679326     3.3184657064     3.0854090555
H       13.9446489164     2.8646741941     1.0274130774
H       18.4356903727     3.3099867656     1.3732488255
H       13.6918293429     1.1080112373     2.6946455933
H       18.5235768876     1.0844761317     2.3217189144
H       16.4057410578     0.9015228933     7.7953557847
H       14.2383716006     0.9882535647     6.6953605535
H       20.3208687760     2.6668688496     2.7756749942
H       16.1632546152     0.0663159498     5.5384968251
32
# Point -4 Energy = 0.0
C       20.6366289695     3.6411739007     7.5260785590
H       18.9556713873     3.6189180069     6.1588291059
C       19.4283593481     2.9371012401     6.9093847657
H       18.7220666553     2.7601422490     7.6293839555
H       20.7458527792     1.8271556832     5.2708556118
C       19.7711204618     1.6133902330     6.2262052187
H       19.1540863532     1.2679141623     5.8726027191
H       20.2383695770     0.8630178247     6.9905081240
H       21.3694759906     3.8530673161     6.7997629474
H       21.1096916985     3.0066385698     8.3149817435
H       20.3325120083     4.6215485787     8.0099475136
Si       16.4221682958     3.4065085348     4.3951664066
O       16.3088104104     4.9967504252     4.7377914567
O       17.9287710654     3.0678875054     3.8494761451
O       15.3668535773     2.9976858852     3.2110314317
O       16.0884846378     2.5732843596     5.7592470997
Si       16.5027689219     6.5952291888     4.3999131761
Si       13.9489345528     2.5663681846     2.4945034480
Si       18.8284201167     2.5273968918     2.5762340012
Si       15.7248459905     1.1316775017     6.4719704471
H       17.8917346466     6.8517316109     3.9067904617
H       15.5523308266     6.9633144470     3.2948139857
H       16.2713214287     7.4761154996     5.6112074433
H       12.8147580282     3.3161743422     3.0867903598
H       13.9466722832     2.8633299564     1.0284390673
H       18.4374840488     3.3119470651     1.3729846955
H       13.6956405174     1.1063919390     2.6956518901
H       18.5272937509     1.0864515040     2.3213099878
H       16.4111960136     0.9016400855     7.7955559718
H       14.2434412666     0.9868260639     6.6961994394
H       20.3235477310     2.6701486956     2.7748249415
H       16.1686672611     0.0663745489     5.5387232398
32
# Point -3 Energy = 0.0
C       20.6393773334     3.6447103019     7.5263006073
H       18.9607717732     3.6181577184     6.1615555883
C       19.4329461929     2.9399713838     6.9075193384
H       18.7145771671     2.7591480835     7.6409463568
H       20.7047735090     1.8196583466     5.3144094448
C       19.7842285991     1.6182587226     6.2249719544
H       19.1054088822     1.2400279090     5.8399080008
H       20.2386614415     0.8771099059     6.9782119029
H       21.3789643012     3.8587561655     6.7918217446
H       21.1113117145     3.0134502869     8.3101521983
H       20.3377397930     4.6165697733     8.0054330849
Si       16.4247666908     3.4068254262     4.3954626249
O       16.3103358818     4.9969345223     4.7382306928
O       17.9314415686     3.0693163516     3.8493278641
O       15.3694013831     2.9972776439     3.2116405782
O       16.0921216669     2.5732419172     5.7596222650
Si       16.5030187520     6.5955938272     4.4003873004
Si       13.9515801772     2.5649587143     2.4955027535
Si       18.8311359118     2.5295848878     2.5757626552
Si       15.7297275870     1.1313456747     6.4723524260
H       17.8916446061     6.8531452327     3.9068637918
H       15.5519756400     6.9630390446     3.2955957264
H       16.2712828071     7.4762330938     5.6118038613
H       12.8170307976     3.3138926317     3.0881768456
H       13.9486610616     2.8620046160     1.0294592527
H       18.4392439518     3.3139133937     1.3726841330
H       13.6994255138     1.1047836245     2.6966433360
H       18.5309787574     1.0884285755     2.3208503565
H       16.4166609835     0.9017331559     7.7957196373
H       14.2485142626     0.9853856486     6.6970185249
H       20.3262007643     2.6734227189     2.7739204183
H       16.1740711277     0.0664227016     5.5389100945
32
# Point -2 Energy = 0.0
C       20.6421408123     3.6481902117     7.5264750424
H       18.9658901949     3.6173750754     6.1642353329
C       19.4375369032     2.9428151812     6.9056069062
H       18.7071119042     2.7581021394     7.6524739477
H       20.6641121686     1.8123003092     5.3584284478
C       19.7973127037     1.6231519704     6.2236909810
H       19.0563571398     1.2123005473     5.8076834813
H       20.2391068853     0.8913062004     6.9657893571
H       21.3884491410     3.8643899745     6.7838161534
H       21.1129302962     3.0201918886     8.3052706166
H       20.3430026462     4.6115264377     8.0008993592
Si       16.4273556568     3.4071356176     4.3957374407
O       16.3118582868     4.9971093327     4.7386591968
O       17.9340970083     3.0707384360     3.8491453191
O       15.3719308918     2.9968723198     3.2122334258
O       16.0957574985     2.5731861690     5.7599731017
Si       16.5032666748     6.5959498152     4.4008592779
Si       13.9542021617     2.5635599063     2.4964932808
Si       18.8338255432     2.5317718103     2.5752473340
Si       15.7346099668     1.1309980235     6.4727036941
H       17.8915488013     6.8545496883     3.9069266516
H       15.5516119861     6.9627633655     3.2963845414
H       16.2712533175     7.4763351021     5.6124051550
H       12.8192867440     3.3116203930     3.0895673300
H       13.9506162727     2.8606983357     1.0304726855
H       18.4409709980     3.3158860336     1.3723474197
H       13.7031849983     1.1031861934     2.6976186214
H       18.5346326592     1.0904074829     2.3203399582
H       16.4221353848     0.9018013524     7.7958461009
H       14.2535902762     0.9839316478     6.6978165923
H       20.3288284651     2.6766910628     2.7729620788
H       16.1794662125     0.0664599762     5.5390565288
32
# Point -1 Energy = 0.0
C       20.6449188937     3.6516132160     7.5266025555
H       18.9710263743     3.6165696306     6.1668686561
C       19.4421310100     2.9456321778     6.9036479244
H       18.6996701222     2.7570036660     7.6639667729
H       20.6238679719     1.8050886763     5.4029074037
C       19.8103720763     1.6280692755     6.2223625225
H       19.0069321255     1.1847327794     5.7759340792
H       20.2397047869     0.9056061039     6.9532436389
H       21.3979299192     3.8699686023     6.7757469272
H       21.1145469243     3.0268631583     8.3003378656
H       20.3482994477     4.6064182511     7.9963465494
Si       16.4299353657     3.4074388798     4.3959906207
O       16.3133776518     4.9972745773     4.7390769585
O       17.9367377039     3.0721536758     3.8489286229
O       15.3744425890     2.9964698101     3.2128094053
O       16.0993919948     2.5731166656     5.7602991428
Si       16.5035127411     6.5962969388     4.4013294096
Si       13.9568011890     2.5621716996     2.4974740226
Si       18.8364896679     2.5339578031     2.5746883100
Si       15.7394928681     1.1306339721     6.4730234517
H       17.8914473954     6.8559448994     3.9069797534
H       15.5512401803     6.9624873180     3.2971805489
H       16.2712326749     7.4764211243     5.6130116973
H       12.8215263752     3.3093574299     3.0909606230
H       13.9525389553     2.8594112723     1.0314784169
H       18.4426661168     3.3178652921     1.3719748609
H       13.7069196582     1.1015995378     2.6985764353
H       18.5382562319     1.0923883889     2.3197787559
H       16.4276186319     0.9018439327     7.7959346965
H       14.2586689969     0.9824633857     6.6985924263
H       20.3314314329     2.6799539092     2.7719506110
H       16.1848525271     0.0664859503     5.5391616952
32
# Point 0 Energy = 0
C       20.6477110000     3.6549790000     7.5266840000
H       18.9761800000     3.6157410000     6.1694560000
C       19.4467280000     2.9484220000     6.9016430000
H       18.6922510000     2.7558520000     7.6754250000
H       20.5840390000     1.7980300000     5.4478400000
C       19.8234060000     1.6330100000     6.2209870000
H       18.9571360000     1.1573250000     5.7446630000
H       20.2404540000     0.9200090000     6.9405780000
H       21.4074060000     3.8754920000     6.7676150000
H       21.1161610000     3.0334640000     8.2953550000
H       20.3536290000     4.6012450000     7.9917750000
Si       16.4325060000     3.4077350000     4.3962220000
O       16.3148940000     4.9974300000     4.7394840000
O       17.9393640000     3.0735620000     3.8486780000
O       15.3769370000     2.9960700000     3.2133680000
O       16.1030250000     2.5730330000     5.7606000000
Si       16.5037570000     6.5966350000     4.4017980000
Si       13.9593780000     2.5607940000     2.4984440000
Si       18.8391290000     2.5361430000     2.5740860000
Si       15.7443760000     1.1302530000     6.4733110000
H       17.8913405600     6.8573308000     3.9070238400
H       15.5508605600     6.9622108000     3.2979838400
H       16.2712205600     7.4764908000     5.6136238400
H       12.8237502400     3.3071035200     3.0923555200
H       13.9544302400     2.8581435200     1.0324755200
H       18.4443303200     3.3198514400     1.3715668800
H       13.7106302400     1.1000235200     2.6995155200
H       18.5418503200     1.0943714400     2.3191668800
H       16.4331100800     0.9018602400     7.7959848800
H       14.2637500800     0.9809802400     6.6993448800
H       20.3340103200     2.6832114400     2.7708868800
H       16.1902300800     0.0665002400     5.5392248800
32
# Point 1 Energy = 0.0
C       20.6505166301     3.6582871851     7.5267200130
H       18.9813507990     3.6148887893     6.1719976322
C       19.4513274259     2.9511842367     6.8995925240
H       18.6848538087     2.7546463759     7.6868485892
H       20.5446249341     1.7911302467     5.4932213556
C       19.8364138714     1.6379735047     6.2195645812
H       18.9069693671     1.1300782466     5.7138761863
H       20.2413534338     0.9345142507     6.9277954062
H       21.4168768013     3.8809601061     6.7594210819
H       21.1177720251     3.0399942264     8.2903228202
H       20.3589902074     4.5960063882     7.9871848861
Si       16.4350677168     3.4080237700     4.3964313131
O       16.3164073113     4.9975753320     4.7398803085
O       17.9419762028     3.0749633921     3.8483935116