32
# Point -15 Energy = 0.0
C       20.4488566946     3.6369225802     7.5889131809
H       19.2261194344     3.6401964653     7.0440222042
C       19.3770776657     2.6001423054     6.7023541828
H       19.2862284940     3.3327114015     7.5158867469
H       19.9173759708     2.0726497306     5.0189425738
C       19.5844646018     1.5624489183     5.9020303623
H       18.5718892283     1.8590818349     6.1440228717
H       19.8467270894     0.9189543403     6.7228378386
H       21.4234866367     3.9343028933     7.1327397712
H       21.3126576408     3.2209529944     8.1537699423
H       20.5773514017     4.5269867181     8.2302231228
Si       16.4670336664     3.3420666185     4.3728513205
O       16.3609481158     4.9279641688     4.7309128963
O       17.9672083804     3.0040189338     3.8189029133
O       15.4043010063     2.9460892411     3.1945754101
O       16.1402358489     2.4972892622     5.7323804268
Si       16.5576334604     6.5304578928     4.4058980310
Si       13.9790696502     2.5243768748     2.4830770954
Si       18.8624172605     2.4694198822     2.5336572290
Si       15.7767422389     1.0492734983     6.4335752009
H       17.9443445861     6.7869569504     3.9069474527
H       15.6017749572     6.9104395545     3.3095402917
H       16.3356000408     7.4010856519     5.6260803996
H       12.8512785612     3.2723151776     3.0895521419
H       13.9678903143     2.8337624005     1.0197798138
H       18.4659916574     3.2661508692     1.3399475995
H       13.7233255542     1.0635175774     2.6738257433
H       18.5532743346     1.0323247467     2.2687163355
H       16.4706299626     0.8057399411     7.7511938192
H       14.2964588390     0.9068673854     6.6659501583
H       20.3575220075     2.6058874256     2.7257540804
H       16.2120652992     -0.0080522349     5.4883042034
32
# Point -14 Energy = 0.0
C       20.4657159262     3.6317089203     7.5812309314
H       19.1960562894     3.6745599392     6.9828735435
C       19.3762136615     2.6176898552     6.7172164750
H       19.2567749801     3.3180268122     7.5550089500
H       19.9922329019     2.0641898800     5.0518299755
C       19.6217091545     1.5632938790     5.9271941118
H       18.5809779921     1.8089839876     6.1017691316
H       19.8855232135     0.9284481270     6.7559529775
H       21.4299837600     3.9193613375     7.1007253813
H       21.3086761262     3.1938953057     8.1584513490
H       20.5767721566     4.5295453197     8.2137663382
Si       16.4609499013     3.3445532711     4.3736732687
O       16.3545284393     4.9305377776     4.7316462752
O       17.9619165528     3.0064468324     3.8212806411
O       15.3996436142     2.9487972722     3.1938036538
O       16.1323050253     2.4998036538     5.7327264051
Si       16.5517513346     6.5329263227     4.4069669942
Si       13.9754081352     2.5273246840     2.4804200152
Si       18.8583430037     2.4720716290     2.5372084186
Si       15.7677829927     1.0518955148     6.4334976238
H       17.9390970206     6.7893518883     3.9097161036
H       15.5972647442     6.9130917658     3.3094779682
H       16.3283269045     7.4035173267     5.6269381775
H       12.8468670573     3.2753203660     3.0854396622
H       13.9662122590     2.8368451807     1.0171278668
H       18.4634425458     3.2688657884     1.3430567143
H       13.7192385434     1.0664698778     2.6706761372
H       18.5495924520     1.0349634051     2.2717483687
H       16.4599908572     0.8082551410     7.7519564427
H       14.2871908242     0.9096173879     6.6639920450
H       20.3533231440     2.6084613278     2.7310452362
H       16.2041690869     -0.0055177765     5.4887481772
32
# Point -13 Energy = 0.0
C       20.4819745428     3.6272285142     7.5737838108
H       19.1708561553     3.7044882273     6.9196484366
C       19.3762573992     2.6362502437     6.7313669853
H       19.2249891807     3.2996325840     7.5936680207
H       20.0643838144     2.0530035789     5.0860542013
C       19.6560022316     1.5643698520     5.9534536875
H       18.5944271258     1.7587460700     6.0599437637
H       19.9202421144     0.9363750542     6.7890062326
H       21.4352750114     3.9057761466     7.0697161736
H       21.3031025484     3.1687331327     8.1638517318
H       20.5743152036     4.5325581809     8.1974329408
Si       16.4552732628     3.3474208423     4.3743643988
O       16.3483918668     4.9335008238     4.7321737195
O       17.9569516146     3.0094060562     3.8232220300
O       15.3951764012     2.9516747789     3.1931704472
O       16.1251934333     2.5027336159     5.7330606151
Si       16.5458754449     6.5357893335     4.4076880064
Si       13.9718299882     2.5302131904     2.4782553007
Si       18.8543798966     2.4752847230     2.5401620308
Si       15.7599863077     1.0549257780     6.4335704582
H       17.9337117141     6.7922881775     3.9118162654
H       15.5924717351     6.9159485246     3.3092556341
H       16.3212172810     7.4063904505     5.6274419072
H       12.8425825475     3.2781590106     3.0820295935
H       13.9642428227     2.8397748981     1.0149530434
H       18.4606461828     3.2720186250     1.3456061125
H       13.7154674474     1.0693419004     2.6681694367
H       18.5461414818     1.0381087768     2.2743408433
H       16.4508383073     0.8113428219     7.7527275005
H       14.2791570481     0.9125974275     6.6625215560
H       20.3492592550     2.6117929462     2.7354039160
H       16.1973612337     -0.0025722857     5.4893065602
32
# Point -12 Energy = 0.0
C       20.4977215147     3.6236475824     7.5666163385
H       19.1503847006     3.7300554718     6.8554310070
C       19.3772229366     2.6558666470     6.7449569076
H       19.1906517572     3.2775587347     7.6310160087
H       20.1326346607     2.0390464079     5.1207776140
C       19.6868539809     1.5658003445     5.9802637460
H       18.6114967994     1.7081011404     6.0193055621
H       19.9514799422     0.9423644070     6.8208185835
H       21.4395025230     3.8936407158     7.0397164605
H       21.2960325082     3.1456652139     8.1700135361
H       20.5700464239     4.5362169272     8.1811212671
Si       16.4500771553     3.3506640363     4.3749946419
O       16.3425958355     4.9368523223     4.7325406548
O       17.9524038912     3.0128899172     3.8248417494
O       15.3910052047     2.9546961498     3.1927218943
O       16.1189409577     2.5060907607     5.7334567244
Si       16.5400658914     6.5390423677     4.4080895456
Si       13.9684608935     2.5330013695     2.4765960253
Si       18.8506554755     2.4790387258     2.5426636576
Si       15.7533786631     1.0583838640     6.4338780284
H       17.9282619845     6.7957602877     3.9133099505
H       15.5874835537     6.9189866259     3.3088701335
H       16.3142948582     7.4097159064     5.6276027766
H       12.8385307627     3.2807935689     3.0792947133
H       13.9621458389     2.8424907944     1.0132628349
H       18.4577590839     3.2755712783     1.3477190140
H       13.7121382836     1.0720941226     2.6663322496
H       18.5430613988     1.0417356955     2.2766505989
H       16.4431646719     0.8150431305     7.7536141469
H       14.2723774075     0.9158240939     6.6615853014
H       20.3454529335     2.6158704726     2.7390142116
H       16.1916981073     0.0007929173     5.4900894762
32
# Point -11 Energy = 0.0
C       20.5130210335     3.6210630324     7.5598332263
H       19.1341097287     3.7513700210     6.7910150987
C       19.3791040828     2.6765633324     6.7581450186
H       19.1537310839     3.2519288574     7.6661430505
H       20.1961469707     2.0224064339     5.1552106532
C       19.7139580332     1.5677291691     6.0070585751
H       18.6315454852     1.6568670503     5.9803969297
H       19.9798562957     0.9461610668     6.8503082669
H       21.4427842131     3.8829853954     7.0108082769
H       21.2875249709     3.1247995154     8.1770297463
H       20.5640050931     4.5406112432     8.1648172667
Si       16.4454208912     3.3542707830     4.3756411139
O       16.3371929943     4.9405856870     4.7327968774
O       17.9483472683     3.0168751293     3.8262622340
O       15.3872197410     2.9578330371     3.1925123511
O       16.1135685941     2.5098844450     5.7339967427
Si       16.5343872777     6.5426733912     4.4082017626
Si       13.9654083320     2.5356525133     2.4754645652
Si       18.8472774356     2.4832889971     2.5448677410
Si       15.7479592994     1.0622906466     6.4345153572
H       17.9228267720     6.7997461283     3.9142603791
H       15.5823947599     6.9221789181     3.3083196730
H       16.3075930075     7.4135006212     5.6274318893
H       12.8348039344     3.2831985097     3.0772157720
H       13.9600687020     2.8449337241     1.0120738690
H       18.4549226390     3.2794614859     1.3495264261
H       13.7093504252     1.0746932991     2.6652029749
H       18.5404640256     1.0457962049     2.2788459219
H       16.4369335111     0.8193959247     7.7547342756
H       14.2668441363     0.9193243983     6.6612409269
H       20.3420073601     2.6206494741     2.7420686495
H       16.1872025022     0.0045835649     5.4912197487
32
# Point -10 Energy = 0.0
C       20.5279168082     3.6194933488     7.5535657517
H       19.1212226262     3.7684750165     6.7269143056
C       19.3818713037     2.6983369534     6.7710727643
H       19.1143296574     3.2229185942     7.6981230980
H       20.2544772590     2.0033338042     5.1887631473
C       19.7372299059     1.5702887175     6.0333332934
H       18.6541210226     1.6050245564     5.9436048949
H       20.0059904294     0.9476919445     6.8766307459
H       21.4452135760     3.8737773884     6.9831087548
H       21.2776116167     3.1061376272     8.1849940846
H       20.5562145040     4.5457174478     8.1485673942
Si       16.4413397323     3.3582229499     4.3763734706
O       16.3322230448     4.9446883463     4.7329873086
O       17.9448276504     3.0213234967     3.8275938266
O       15.3838801576     2.9610594332     3.1925913570
O       16.1090717252     2.5141182924     5.7347546290
Si       16.5289005182     6.5466634425     4.4080518241
Si       13.9627458767     2.5381423572     2.4748820359
Si       18.8443183866     2.4879720485     2.5469134990
Si       15.7436946240     1.0666627632     6.4355681550
H       17.9174813201     6.8042084581     3.9147243324
H       15.5772958094     6.9254988891     3.3076029443
H       16.3011503491     7.4177443057     5.6269390683
H       12.8314670488     3.2853670967     3.0757764445
H       13.9581228457     2.8470589867     1.0114022953
H       18.4522450111     3.2836122248     1.3511466527
H       13.7071606299     1.0771201208     2.6648172609
H       18.5384162913     1.0502259284     2.2810786856
H       16.4320774965     0.8244306315     7.7561938964
H       14.2625166660     0.9231302878     6.6615407026
H       20.3389917565     2.6260568246     2.7447404780
H       16.1838549507     0.0087997169     5.4928082586
32
# Point -9 Energy = 0.0
C       20.5424323257     3.6188921168     7.5479320416
H       19.1107445419     3.7812656656     6.6634013192
C       19.3854800209     2.7211394290     6.7838490693
H       19.0726273850     3.1906946467     7.7260355319
H       20.3075175736     1.9822585281     5.2211074776
C       19.7567943662     1.5735674413     6.0586882608
H       18.6789572784     1.5527824910     5.9092573671
H       20.0304784471     0.9471093587     6.8992542092
H       21.4468512084     3.8659460159     6.9567188912
H       21.2663103597     3.0896039496     8.1939573581
H       20.5466734094     4.5514205189     8.1324294923
Si       16.4378480883     3.3624934068     4.3772476111
O       16.3277188518     4.9491375113     4.7331524144
O       17.9418646223     3.0261791687     3.8289238641
O       15.3810170781     2.9643550248     3.1929979421
O       16.1054250669     2.5187821433     5.7357873193
Si       16.5236704338     6.5509834789     4.4076704291
Si       13.9605110269     2.5404673063     2.4748638931
Si       18.8418141113     2.4930068183     2.5489098699
Si       15.7405226790     1.0715021797     6.4370987586
H       17.9123041565     6.8090918591     3.9147567231
H       15.5722787412     6.9289233195     3.3067291849
H       16.2950221296     7.4224316286     5.6261434552
H       12.8285579034     3.2873187086     3.0749644263
H       13.9563788583     2.8488505510     1.0112605979
H       18.4497978816     3.2879384245     1.3526742805
H       13.7055792801     1.0793770014     2.6651982064
H       18.5369359467     1.0549468327     2.2834640746
H       16.4285054296     0.8301494644     7.7580706609
H       14.2593262810     0.9272693055     6.6625200621
H       20.3364403545     2.6319891311     2.7471659772
H       16.1815947628     0.0134285740     5.4949345911
32
# Point -8 Energy = 0.0
C       20.5565641400     3.6191788787     7.5430036021
H       19.1016012053     3.7894280493     6.6005698413
C       19.3898786961     2.7448629255     6.7965466937
H       19.0288597705     3.1553583869     7.7489752109
H       20.3554192132     1.9597743293     5.2521626416
C       19.7729637881     1.5775906811     6.0828533466
H       18.7059166303     1.5005818604     5.8776987709
H       20.0538947115     0.9447932556     6.9179861688
H       21.4477074883     3.8594251004     6.9316786278
H       21.2536381279     3.0751018459     8.2038978748
H       20.5353312184     4.5575553365     8.1164230016
Si       16.4349461794     3.3670440592     4.3783052176
O       16.3237157506     4.9538972899     4.7333329351
O       17.9394574003     3.0313660884     3.8303143574
O       15.3786369336     2.9677087099     3.1937593650
O       16.1025887217     2.5238461855     5.7371317687
Si       16.5187773802     6.5555922932     4.4071015909
Si       13.9587093929     2.5426524814     2.4754179833
Si       18.8397680860     2.4982948478     2.5509309883
Si       15.7383573033     1.0767885684     6.4391387194
H       17.9073889619     6.8143200875     3.9144204992
H       15.5674487372     6.9324352638     3.3057296141
H       16.2892938348     7.4275265756     5.6250862647
H       12.8260926828     3.2891067427     3.0747724831
H       13.9548703683     2.8503338541     1.0116565820
H       18.4476215363     3.2923516543     1.3541783672
H       13.7045723822     1.0814958590     2.6663498346
H       18.5359936866     1.0598686848     2.2860715578
H       16.4261067832     0.8365144414     7.7604053821
H       14.2571800669     0.9317585516     6.6641904740
H       20.3343573446     2.6383099338     2.7494396440
H       16.1803220778     0.0184391781     5.4976359513
32
# Point -7 Energy = 0.0
C       20.5702718724     3.6202867485     7.5387864092
H       19.0926682128     3.7924018123     6.5384150157
C       19.3950128878     2.7693393743     6.8092116571
H       18.9833321538     3.1169097401     7.7660615625
H       20.3985207946     1.9365624581     5.2820137668
C       19.7862050535     1.5823200068     6.1056959712
H       18.7349126425     1.4490068000     5.8493051033
H       20.0768055491     0.9412930207     6.9329435863
H       21.4477212030     3.8542093151     6.9079375871
H       21.2396246485     3.0625864467     8.2147100409
H       20.5220566427     4.5639597831     8.1004935525
Si       16.4326267828     3.3718287373     4.3795781694
O       16.3202579593     4.9589213982     4.7335754631
O       17.9375925043     3.0367910864     3.8318086006
O       15.3767304547     2.9711226472     3.1948933852
O       16.1005126080     2.5292626944     5.7388081725
Si       16.5143244295     6.5604395751     4.4064098596
Si       13.9573241656     2.5447565745     2.4765440640
Si       18.8381611884     2.5037242894     2.5530238070
Si       15.7370912059     1.0824804146     6.4416902444
H       17.9028526773     6.8197993469     3.9137963714
H       15.5629330483     6.9360282221     3.3046633395
H       16.2840865427     7.4329745702     5.6238384078
H       12.8240744966     3.2908231978     3.0751967394
H       13.9536058931     2.8515819170     1.0125930786
H       18.4457365701     3.2967652581     1.3557100211
H       13.7040704911     1.0835427606     2.6682549791
H       18.5355230406     1.0648932363     2.2889307831
H       16.4247526813     0.8434472469     7.7632044779
H       14.2559634916     0.9366058294     6.6665383069
H       20.3327263960     2.6448533151     2.7516244262
H       16.1799023122     0.0237841768     5.5009084105
32
# Point -6 Energy = 0.0
C       20.5834713808     3.6222114457     7.5352200517
H       19.0828108339     3.7893752281     6.4769428054
C       19.4008233536     2.7943580817     6.8218804448
H       18.9364759940     3.0752365405     7.7764604712
H       20.4372766643     1.9132862308     5.3108069412
C       19.7970857932     1.5876716133     6.1272085719
H       18.7658516765     1.3986379736     5.8244465576
H       20.0997759457     0.9372283782     6.9444661011
H       21.4467421540     3.8504083205     6.8853469378
H       21.2243286854     3.0521244815     8.2262076284
H       20.5066154530     4.5705173538     8.0845066151
Si       16.4308789537     3.3768003615     4.3810937090
O       16.3173979608     4.9641610134     4.7339337249
O       17.9362500297     3.0423528331     3.8334421140
O       15.3752810000     2.9746146796     3.1964107125
O       16.0991373994     2.5349754641     5.7408259556
Si       16.5104346226     6.5654735609     4.4056786771
Si       13.9563275583     2.5468698109     2.4782323928
Si       18.8369632860     2.5091778119     2.5552232050
Si       15.7365974847     1.0885251486     6.4447342182
H       17.8988339386     6.8254276559     3.9129852388
H       15.5588810415     6.9397094865     3.3036116265
H       16.2795484338     7.4387124119     5.6224961921
H       12.8225012962     3.2925957471     3.0762298271
H       13.9525844574     2.8527100999     1.0140657666
H       18.4441577775     3.3010988977     1.3573143673
H       13.7039824339     1.0856156847     2.6708762788
H       18.5354356841     1.0699208233     2.2920488473
H       16.4242936154     0.8508436324     7.7664509014
H       14.2555413854     0.9418172963     6.6695282056
H       20.3315214035     2.6514352465     2.7537715506
H       16.1801729033     0.0294086862     5.5047187227
32
# Point -5 Energy = 0.0
C       20.5960420708     3.6250367692     7.5321991328
H       19.0709623674     3.7793428725     6.4163313443
C       19.4072425937     2.8196992735     6.8345974684
H       18.8889536279     3.0301332343     7.7794330975
H       20.4721501473     1.8905156304     5.3386379962
C       19.8061747187     1.5935512134     6.1474551291
H       18.7985701911     1.3499589519     5.8034230306
H       20.1233250109     0.9331832702     6.9529647042
H       21.4445313669     3.8482760308     6.8636806230
H       21.2078592431     3.0438990675     8.2381372056
H       20.4886788026     4.5771586718     8.0682893604
Si       16.4296902330     3.3819172129     4.3828766514
O       16.3151896722     4.9695725251     4.7344616319
O       17.9354095937     3.0479524371     3.8352524506
O       15.3742731287     2.9782129598     3.1983153258
O       16.0983956971     2.5409318465     5.7431894029
Si       16.5072375980     6.5706480333     4.4049953324
Si       13.9556941003     2.5490976932     2.4804609226
Si       18.8361466161     2.5145405720     2.5575681386
Si       15.7367351668     1.0948731727     6.4482424390
H       17.8954803481     6.8311059421     3.9120970245
H       15.5554531155     6.9434964952     3.3026570921
H       16.2758325950     7.4446808614     5.6211606351
H       12.8213732512     3.2945692702     3.0778496455
H       13.9518129031     2.8538518424     1.0160586056
H       18.4429081722     3.3052781028     1.3590407766
H       13.7042149669     1.0878279967     2.6741604589
H       18.5356427861     1.0748553341     2.2954332025
H       16.4245611961     0.8585980140     7.7701203827
H       14.2557632884     0.9474054869     6.6731104555
H       20.3307184858     2.6578699434     2.7559416392
H       16.1809575453     0.0352612729     5.5090240544
32
# Point -4 Energy = 0.0
C       20.6078597164     3.6289116010     7.5296271072
H       19.0562962169     3.7612997876     6.3571657337
C       19.4141986908     2.8451826768     6.8474275678
H       18.8418046434     2.9813712720     7.7744249904
H       20.5034329512     1.8687158258     5.3654159493
C       19.8138676877     1.5999063900     6.1664516288
H       18.8326873865     1.3034255874     5.7863619798
H       20.1477691720     0.9296065011     6.9586860292
H       21.4407961947     3.8481947826     6.8427037707
H       21.1903994005     3.0381172686     8.2502042582
H       20.4678836699     4.5837959942     8.0517459628
Si       16.4290525588     3.3871420034     4.3849477993
O       16.3136790770     4.9751188301     4.7351966465
O       17.9350608288     3.0535010469     3.8372850768
O       15.3737055425     2.9819345635     3.2006035326
O       16.0982215832     2.5470913775     5.7459029387
Si       16.5048467830     6.5759223219     4.4044200320
Si       13.9554194912     2.5515201842     2.4831941984
Si       18.8357047450     2.5197041505     2.5601150523
Si       15.7373697283     1.1014897179     6.4521952716
H       17.8929247495     6.8367460243     3.9112213563
H       15.5527977078     6.9473980725     3.3018465241
H       16.2730628569     7.4508337832     5.6198977841
H       12.8207031824     3.2968603152     3.0800080602
H       13.9513262159     2.8551043039     1.0185398613
H       18.4420342863     3.3092236005     1.3609477750
H       13.7047042050     1.0902671353     2.6780500519
H       18.5360876620     1.0796030055     2.2991175399
H       16.4253869955     0.8666337320     7.7742033029
H       14.2564846421     0.9533898780     6.6772357006
H       20.3303130909     2.6639891212     2.7582211427
H       16.1820989380     0.0413011453     5.5138007351
32
# Point -3 Energy = 0.0
C       20.6188552594     3.6339654220     7.5275083692
H       19.0385193999     3.7346709007     6.3007103122
C       19.4216329031     2.8707253994     6.8604599467
H       18.7965753430     2.9288664703     7.7611907951
H       20.5310070746     1.8482806167     5.3906932271
C       19.8201521856     1.6067922760     6.1839847181
H       18.8673350048     1.2597060550     5.7730374154
H       20.1729318371     0.9267124983     6.9614039892
H       21.4352707842     3.8506029245     6.8223030661
H       21.1722168184     3.0348053590     8.2621206951
H       20.4439499002     4.5901902748     8.0350499063
Si       16.4289751096     3.3924297686     4.3873205903
O       16.3128961217     4.9807598318     4.7361370477
O       17.9352208118     3.0589208886     3.8395947633
O       15.3736098501     2.9857451820     3.2032650917
O       16.0985738000     2.5534258981     5.7489778177
Si       16.5033305059     6.5812501735     4.4039437877
Si       13.9555453934     2.5541241182     2.4863890986
Si       18.8356775617     2.5245639503     2.5629461682
Si       15.7384148466     1.1083589123     6.4566057472
H       17.8912531195     6.8422716986     3.9103829078
H       15.5510181191     6.9513773969     3.3011438446
H       16.2712928713     7.4571386539     5.6186858350
H       12.8205313498     3.2994817918     3.0826270609
H       13.9512090616     2.8564429347     1.0214641763
H       18.4416214377     3.3128289339     1.3631015803
H       13.7054594473     1.0929262060     2.6825068001
H       18.5367897504     1.0840628398     2.3031874752
H       16.4266467006     0.8749322059     7.7787319332
H       14.2576104219     0.9597842568     6.6818801826
H       20.3303429498     2.6696614050     2.7607295390
H       16.1835148601     0.0474967569     5.5190814723
32
# Point -2 Energy = 0.0
C       20.6290701983     3.6401830006     7.5260443048
H       19.0181929339     3.6999578338     6.2490263414
C       19.4295229801     2.8963756046     6.8737966106
H       18.7552781656     2.8729624108     7.7398953576
H       20.5542094747     1.8295533036     5.4135684696
C       19.8244480385     1.6144142962     6.1994672838
H       18.9009339228     1.2199050679     5.7626424385
H       20.1978618278     0.9244041506     6.9601970208
H       21.4278197836     3.8558721642     6.8026424989
H       21.1536292243     3.0335630855     8.2736709016
H       20.4168076033     4.5958093402     8.0188227081
Si       16.4294952932     3.3977071599     4.3899983198
O       16.3128498470     4.9864330360     4.7372266803
O       17.9359465806     3.0641364494     3.8422399100
O       15.3740617059     2.9895174510     3.2062877801
O       16.0994607409     2.5599064339     5.7524372770
Si       16.5026886705     6.5865594522     4.4034595200
Si       13.9561726969     2.5567404744     2.4900082766
Si       18.8361648465     2.5290098350     2.5661648372
Si       15.7398755489     1.1154727411     6.4615377120
H       17.8904765545     6.8476093994     3.9095052144
H       15.5501412496     6.9553124074     3.3004018740
H       16.2704777614     7.4635634603     5.6173799112
H       12.8209329118     3.3022726787     3.0856103768
H       13.9516004756     2.8576467844     1.0247836911
H       18.4417944785     3.3159369901     1.3655666475
H       13.7065929186     1.0956403711     2.6875378591
H       18.5378727916     1.0881121522     2.3077887205
H       16.4283105359     0.8835400851     7.7837977893
H       14.2591407927     0.9665715201     6.6870706356
H       20.3309007120     2.6748007103     2.7636078867
H       16.1852493346     0.0538121502     5.5249805051
32
# Point -1 Energy = 0.0
C       20.6386453954     3.6473214659     7.5256319797
H       18.9967847340     3.6592195918     6.2046041846
C       19.4378840070     2.9222585219     6.8875184407
H       18.7200010572     2.8147083583     7.7110760803
H       20.5720822154     1.8127828828     5.4328936355
C       19.8257877630     1.6230760902     6.2120375756
H       18.9314268026     1.1854226928     5.7537411940
H       20.2209200921     0.9223106280     6.9536456149
H       21.4184867294     3.8641828386     6.7842094547
H       21.1349059226     3.0334866186     8.2847559457
H       20.3866212192     4.5998101408     8.0040761930
Si       16.4306651507     3.4028579059     4.3929723904
O       16.3135267739     4.9920359197     4.7383698790
O       17.9373151257     3.0690567225     3.8452651747
O       15.3751553598     2.9930342689     3.2096604301
O       16.1009330070     2.5664772271     5.7563089971
Si       16.5028577165     6.5917363982     4.4027913695
Si       13.9574278530     2.5590630780     2.4940306570
Si       18.8372928116     2.5329158857     2.5698656019
Si       15.7418381341     1.1228004262     6.4670867987
H       17.8905336879     6.8526692822     3.9084312250
H       15.5501158452     6.9589964069     3.2994032872
H       16.2704939498     7.4700501144     5.6157518258
H       12.8219934291     3.3049172318     3.0888706364
H       13.9526501273     2.8583316715     1.0284617628
H       18.4426792365     3.3183437658     1.3683869621
H       13.7082792544     1.0981053201     2.6931938145
H       18.5395209697     1.0916009042     2.3130853327
H       16.4304424722     0.8925216092     7.7895244617
H       14.2611620643     0.9736793959     6.6928759343
H       20.3321028480     2.6793453965     2.7669780181
H       16.1874488455     0.0601832398     5.5316605024
32
# Point 0 Energy = 0
C       20.6477110000     3.6549790000     7.5266840000
H       18.9761800000     3.6157410000     6.1694560000
C       19.4467280000     2.9484220000     6.9016430000
H       18.6922510000     2.7558520000     7.6754250000
H       20.5840390000     1.7980300000     5.4478400000
C       19.8234060000     1.6330100000     6.2209870000
H       18.9571360000     1.1573250000     5.7446630000
H       20.2404540000     0.9200090000     6.9405780000
H       21.4074060000     3.8754920000     6.7676150000
H       21.1161610000     3.0334640000     8.2953550000
H       20.3536290000     4.6012450000     7.9917750000
Si       16.4325060000     3.4077350000     4.3962220000
O       16.3148940000     4.9974300000     4.7394840000
O       17.9393640000     3.0735620000     3.8486780000
O       15.3769370000     2.9960700000     3.2133680000
O       16.1030250000     2.5730330000     5.7606000000
Si       16.5037570000     6.5966350000     4.4017980000
Si       13.9593780000     2.5607940000     2.4984440000
Si       18.8391290000     2.5361430000     2.5740860000
Si       15.7443760000     1.1302530000     6.4733110000
H       17.8913405600     6.8573308000     3.9070238400
H       15.5508605600     6.9622108000     3.2979838400
H       16.2712205600     7.4764908000     5.6136238400
H       12.8237502400     3.3071035200     3.0923555200
H       13.9544302400     2.8581435200     1.0324755200
H       18.4443303200     3.3198514400     1.3715668800
H       13.7106302400     1.1000235200     2.6995155200
H       18.5418503200     1.0943714400     2.3191668800
H       16.4331100800     0.9018602400     7.7959848800
H       14.2637500800     0.9809802400     6.6993448800
H       20.3340103200     2.6832114400     2.7708868800
H       16.1902300800     0.0665002400     5.5392248800
32
# Point 1 Energy = 0.0
C       20.6562789974     3.6628711207     7.5293746573
H       18.9575680508     3.5724374636     6.1442151979
C       19.4560348411     2.9747309366     6.9161490412
H       18.6725167544     2.6982452281     7.6335060695
H       20.5902324719     1.7851562929     5.4582584867
C       19.8172045896     1.6442476263     6.2261578204
H       18.9774849225     1.1357552939     5.7342029204
H       20.2556239935     0.9172884105     6.9206787920
H       21.3945986592     3.8897360297     6.7532124837
H       21.0973945889     3.0327599181     8.3053939433
H       20.3178822672     4.5994137832     7.9823018829
Si       16.4349998147     3.4122095472     4.3997385974
O       16.3169350919     5.0024841574     4.7405654882