32
# Point -15 Energy = 0.0
C       20.5982313239     3.8678975226     7.3981145647
H       19.0945886861     3.5221233729     6.3124342401
C       19.4425548571     3.0539494044     6.8308309098
H       18.6012813954     2.8161343748     7.7364384214
H       20.5096219311     1.8697514430     5.4835975937
C       19.8303987791     1.7287486868     6.1682505767
H       19.0091961198     1.2501868453     5.7393653265
H       20.3448574112     0.8804844828     7.0510370391
H       21.1338718039     3.9643717394     6.9149645098
H       21.6279251224     2.4303560077     9.0831744678
H       20.4970599654     4.1981858361     7.5909347832
Si       16.4114645148     3.4336078323     4.3632297262
O       16.2769622073     5.0253765929     4.6898790581
O       17.9186955300     3.1110099177     3.8101797983
O       15.3537169061     2.9965977431     3.1912229734
O       16.0995902643     2.6098211453     5.7386483330
Si       16.4451184807     6.6229068610     4.3337724909
Si       13.9373285092     2.5370156234     2.4896042782
Si       18.8173966504     2.5704060865     2.5364077262
Si       15.7622257179     1.1710569623     6.4689190370
H       17.8265723977     6.8944308007     3.8279029986
H       15.4815016426     6.9652262723     3.2317424847
H       16.2092695427     7.5131868512     5.5373192410
H       12.7964576972     3.2763999722     3.0821505914
H       13.9202683501     2.8182337096     1.0205392664
H       18.4063705651     3.3361983410     1.3277593911
H       13.7069559759     1.0756990777     2.7079982049
H       18.5356466559     1.1225011738     2.2988668499
H       16.4613340147     0.9651317490     7.7899357252
H       14.2848229343     1.0068457978     6.7054720099
H       20.3115631862     2.7370806181     2.7226058037
H       16.2151314613     0.1023791561     5.5438669393
32
# Point -14 Energy = 0.0
C       20.6018467866     3.8539759044     7.4065407373
H       19.0863395563     3.5282726011     6.3028186404
C       19.4428284964     3.0469956423     6.8354084640
H       18.6071528705     2.8123068157     7.7321167834
H       20.5145257274     1.8650072120     5.4810025221
C       19.8298813622     1.7224465976     6.1715725542
H       19.0056338775     1.2439826215     5.7396092961
H       20.3377867926     0.8829969137     7.0433314764
H       21.1534774467     3.9570380262     6.9054405597
H       21.5946139777     2.4724768121     9.0316368595
H       20.4883678326     4.2240557507     7.6203456158
Si       16.4127562857     3.4318919302     4.3653084583
O       16.2793729946     5.0235354766     4.6930528264
O       17.9199604484     3.1085350124     3.8126035120
O       15.3551260299     2.9965480253     3.1925921374
O       16.0997447143     2.6073753750     5.7400104885
Si       16.4488887376     6.6211901592     4.3381541660
Si       13.9386404324     2.5385605887     2.4901077629
Si       18.8187124888     2.5681423013     2.5387628820
Si       15.7609884638     1.1683321706     6.4691340792
H       17.8307448695     6.8920090093     3.8329986604
H       15.4859532830     6.9650443850     3.2360108463
H       16.2132792360     7.5107862127     5.5422532241
H       12.7981197212     3.2784016178     3.0827564729
H       13.9223528358     2.8208476210     1.0212395056
H       18.4087321198     3.3351231063     1.3305156800
H       13.7070589923     1.0772671536     2.7073659814
H       18.5359319317     1.1206299466     2.3000812560
H       16.4594407264     0.9609240114     7.7902592606
H       14.2833695346     1.0050985115     6.7050104986
H       20.3129376608     2.7335302699     2.7256446342
H       16.2134143668     0.0999742183     5.5434795184
32
# Point -13 Energy = 0.0
C       20.6054175395     3.8400157169     7.4149880759
H       19.0781399325     3.5344354893     6.2932144454
C       19.4431025079     3.0400313451     6.8400065403
H       18.6130514818     2.8084537616     7.7278310233
H       20.5194373843     1.8602584942     5.4784380289
C       19.8293713756     1.7161339503     6.1749230757
H       19.0020846049     1.2377808675     5.7398699102
H       20.3307312301     0.8855290011     7.0356768163
H       21.1728907869     3.9498977368     6.8958593069
H       21.5611959250     2.5143346279     8.9799583824
H       20.4795469507     4.2500719218     7.6493946088
Si       16.4140636383     3.4301742889     4.3674038298
O       16.2818002021     5.0216909494     4.6962441602
O       17.9212413519     3.1060564430     3.8150473551
O       15.3565548337     2.9964992103     3.1939760775
O       16.0999094668     2.6049288050     5.7413869381
Si       16.4526783208     6.6194681071     4.3425554432
Si       13.9399748348     2.5401096120     2.4906230329
Si       18.8200473556     2.5658744754     2.5411405147
Si       15.7597576573     1.1656084801     6.4693607983
H       17.8349376510     6.8895793793     3.8381176037
H       15.4904290550     6.9648587307     3.2402976814
H       16.2173054081     7.5083792475     5.5472062842
H       12.7998039966     3.2804082246     3.0833719972
H       13.9244649047     2.8234657890     1.0219527253
H       18.4111179003     3.3340440414     1.3332950281
H       13.7071822776     1.0788412306     2.7067435681
H       18.5362356968     1.1187568243     2.3013163274
H       16.4575487173     0.9567159777     7.7905949826
H       14.2819227124     1.0033549017     6.7045570503
H       20.3143296066     2.7299732146     2.7287093457
H       16.2117052933     0.0975711549     5.5431044018
32
# Point -12 Energy = 0.0
C       20.6089434931     3.8260169073     7.4234565146
H       19.0699901406     3.5406119276     6.2836217833
C       19.4433770008     3.0330562990     6.8446251523
H       18.6189773856     2.8045748223     7.7235812639
H       20.5243570304     1.8555051097     5.4759040702
C       19.8288688435     1.7098105528     6.1783019920
H       18.9985483803     1.2315814656     5.7401469832
H       20.3236909408     0.8880802689     7.0280726245
H       21.1921108920     3.9429525558     6.8862238262
H       21.5276689423     2.5559267305     8.9281388593
H       20.4705974766     4.2762337949     7.6780763625
Si       16.4153866721     3.4284550205     4.3695160053
O       16.2842439634     5.0198430840     4.6994534084
O       17.9225383120     3.1035743475     3.8175114148
O       15.3580033884     2.9964515609     3.1953749444
O       16.1000846436     2.6024814125     5.7427777549
Si       16.4564873799     6.6177408035     4.3469768505
Si       13.9413317719     2.5416630651     2.4911502311
Si       18.8214012775     2.5636028641     2.5435406300
Si       15.7585334165     1.1628858056     6.4695991093
H       17.8391508750     6.8871420305     3.8432603497
H       15.4949290931     6.9646695456     3.2446035899
H       16.2213482535     7.5059659281     5.5521790522
H       12.8015106124     3.2824201236     3.0839974221
H       13.9266045810     2.8260887410     1.0226791077
H       18.4135279190     3.3329615356     1.3360975460
H       13.7073258706     1.0804216698     2.7061309466
H       18.5365579509     1.1168821008     2.3025719137
H       16.4556581296     0.9525074076     7.7909427561
H       14.2804825986     1.0016148926     6.7041116028
H       20.3157390478     2.7264096532     2.7317999190
H       16.2100043172     0.0951699735     5.5427413737
32
# Point -11 Energy = 0.0
C       20.6124245474     3.8119794093     7.4319459766
H       19.0618904949     3.5468018036     6.2740407819
C       19.4436520718     3.0260702788     6.8492643042
H       18.6249307240     2.8006695979     7.7193676187
H       20.5292847808     1.8507468726     5.4734005892
C       19.8283737763     1.7034762047     6.1817091410
H       18.9950252677     1.2253842928     5.7404403148
H       20.3166661267     0.8906502360     7.0205184552
H       21.2111368712     3.9362042098     6.8765372772
H       21.4940310192     2.5972504724     8.8761781901
H       20.4615198533     4.3025407471     7.7063855546
Si       16.4167254755     3.4267342366     4.3716451421
O       16.2867044022     5.0179919509     4.7026809171
O       17.9238513889     3.1010888636     3.8199957703
O       15.3594717539     2.9964053438     3.1967888811
O       16.1002703540     2.6000331706     5.7441830019
Si       16.4603160556     6.6160083453     4.3514189181
Si       13.9427112883     2.5432213271     2.4916894909
Si       18.8227742702     2.5613277259     2.5459632245
Si       15.7573158461     1.1601640560     6.4698489126
H       17.8433846656     6.8846970809     3.8484274231
H       15.4994535241     6.9644770677     3.2489291755
H       16.2254079579     7.5035462207     5.5571721633
H       12.8032396472     3.2844376518     3.0846329979
H       13.9287718792     2.8287170155     1.0234188271
H       18.4159621782     3.3318759847     1.3389233380
H       13.7074897981     1.0820088394     2.7055280848
H       18.5368986820     1.1150060743     2.3038478512
H       16.4537690914     0.9482980504     7.7913024307
H       14.2790493103     0.9998784029     6.7036740787
H       20.3171659978     2.7228397876     2.7349163264
H       16.2083115004     0.0927706791     5.5423902012
32
# Point -10 Energy = 0.0
C       20.6158605911     3.7979031424     7.4404563735
H       19.0538412969     3.5530050023     6.2644715678
C       19.4439278041     3.0190730477     6.8539239904
H       18.6309116234     2.7967376779     7.7151901916
H       20.5342207357     1.8459835905     5.4709275161
C       19.8278861703     1.6971306961     6.1851443471
H       18.9915153166     1.2191892209     5.7407496906
H       20.3096569741     0.8932384156     7.0130138515
H       21.2299678798     3.9296544658     6.8668029101
H       21.4602801670     2.6383032966     8.8240763550
H       20.4523148133     4.3289920851     7.7343169498
Si       16.4180801252     3.4250120473     4.3737913899
O       16.2891816312     5.0161376178     4.7059270293
O       17.9251806311     3.0986001286     3.8225004926
O       15.3609599787     2.9963608290     3.1982180215
O       16.1004666941     2.5975840475     5.7456027316
Si       16.4641644792     6.6142708270     4.3558821781
Si       13.9441134175     2.5447847839     2.4922409358
Si       18.8241663378     2.5590493218     2.5484082855
Si       15.7561050362     1.1574431343     6.4701100936
H       17.8476391380     6.8822446465     3.8536193515
H       15.5040024659     6.9642815366     3.2532750451
H       16.2294846974     7.5011200857     5.5621862569
H       12.8049911683     3.2864611517     3.0852789671
H       13.9309668035     2.8313511624     1.0241720490
H       18.4184206700     3.3307877911     1.3417725014
H       13.7076740748     1.0836031148     2.7049349361
H       18.5372578652     1.1131290477     2.3051439629
H       16.4518817150     0.9440876452     7.7916738396
H       14.2776229501     0.9981453462     6.7032443848
H       20.3186104582     2.7192638206     2.7380585314
H       16.2066268904     0.0903732736     5.5420506331
32
# Point -9 Energy = 0.0
C       20.6192515010     3.7837880114     7.4489876051
H       19.0458428353     3.5592214055     6.2549142665
C       19.4442042664     3.0120643567     6.8586041946
H       18.6369201942     2.7927786412     7.7110490759
H       20.5391649801     1.8412150642     5.4684847676
C       19.8274060068     1.6907738080     6.1886074209
H       18.9880185610     1.2129961156     5.7410748805
H       20.3026636529     0.8958443150     7.0055583447
H       21.2486031225     3.9233051303     6.8570240699
H       21.4264144282     2.6790827499     8.7718334182
H       20.4429833811     4.3555870432     7.7618654100
Si       16.4194506855     3.4232885613     4.3759548900
O       16.2916757520     5.0142801493     4.7091920844
O       17.9265260750     3.0961082782     3.8250256438
O       15.3624680995     2.9963182896     3.1996624902
O       16.1006737465     2.5951340066     5.7470369850
Si       16.4680327722     6.6125283403     4.3603671633
Si       13.9455381812     2.5463538280     2.4928046784
Si       18.8255774725     2.5567679150     2.5508757901
Si       15.7549010616     1.1547229374     6.4703825215
H       17.8519143980     6.8797848403     3.8588366646
H       15.5085760279     6.9640831930     3.2576418074
H       16.2335786384     7.4986874767     5.5672219753
H       12.8067652319     3.2884909719     3.0859355625
H       13.9331893477     2.8339917425     1.0249389291
H       18.4209033762     3.3296973625     1.3446451263
H       13.7078787021     1.0852048782     2.7043514384
H       18.5376354632     1.1112513270     2.3064600572
H       16.4499960967     0.9398759204     7.7920567992
H       14.2762036048     0.9964156306     6.7028224112
H       20.3200724187     2.7156819552     2.7412264884
H       16.2049505189     0.0879777552     5.5417223998
32
# Point -8 Energy = 0.0
C       20.6225971407     3.7696339061     7.4575395585
H       19.0378953852     3.5654508919     6.2453690019
C       19.4444815129     3.0050439444     6.8633048895
H       18.6429565298     2.7887920557     7.7069443543
H       20.5441175835     1.8364410869     5.4660722468
C       19.8269332509     1.6844053112     6.1920981588
H       18.9845350189     1.2068048366     5.7414156390
H       20.2956863160     0.8984674352     6.9981514545
H       21.2670418574     3.9171580479     6.8472042007
H       21.3924318869     2.7195864975     8.7194495302
H       20.4335268751     4.3823247821     7.7890259035
Si       16.4208372081     3.4215638855     4.3781357744
O       16.2941868545     5.0124196067     4.7124764169
O       17.9278877438     3.0936134471     3.8275712764
O       15.3639961411     2.9962780014     3.2011224015
O       16.1008915791     2.5926830059     5.7484857912
Si       16.4719210461     6.6107809735     4.3648744068
Si       13.9469855892     2.5479288584     2.4933808196
Si       18.8270076542     2.5544837700     2.5533657053
Si       15.7537039812     1.1520033556     6.4706660492
H       17.8562105419     6.8773177723     3.8640798936
H       15.5131743104     6.9638822783     3.2620300726
H       16.2376899369     7.4962483406     5.5722799633
H       12.8085618824     3.2905274659     3.0866030076
H       13.9354394947     2.8366393269     1.0257196133
H       18.4234102673     3.3286051119     1.3475412950
H       13.7081036686     1.0868145182     2.7037775140
H       18.5380314250     1.1093732217     2.3077959283
H       16.4481123154     0.9356625937     7.7924511088
H       14.2747913454     0.9946891584     6.7024080303
H       20.3215518564     2.7120943937     2.7444201419
H       16.2032824014     0.0855841187     5.5414052123
32
# Point -7 Energy = 0.0
C       20.6258973604     3.7554407003     7.4661121078
H       19.0299992072     3.5716933368     6.2358358959
C       19.4447595816     2.9980115366     6.8680260365
H       18.6490207060     2.7847774782     7.7028760980
H       20.5490785984     1.8316614443     5.4636898426
C       19.8264678514     1.6780249662     6.1956163424
H       18.9810646916     1.2006152371     5.7417717047
H       20.2887250981     0.9011072710     6.9907926886
H       21.2852833992     3.9112150989     6.8373468496
H       21.3583306792     2.7598123362     8.6669249313
H       20.4239469094     4.4092043876     7.8157935145
Si       16.4222397313     3.4198381244     4.3803341656
O       16.2967150163     5.0105560476     4.7157803559
O       17.9292656480     3.0911157675     3.8301374331
O       15.3655441151     2.9962402427     3.2025978588
O       16.1011202451     2.5902309982     5.7499491666
Si       16.4758294014     6.6090288114     4.3694044412
Si       13.9484556389     2.5495102798     2.4939694481
Si       18.8284568500     2.5521971526     2.5558779873
Si       15.7525138369     1.1492842728     6.4709605124
H       17.8605276556     6.8748435487     3.8693495702
H       15.5177974041     6.9636790342     3.2664404513
H       16.2418187384     7.4938026168     5.5773608670
H       12.8103811520     3.2925709923     3.0872815146
H       13.9377172166     2.8392944968     1.0265142360
H       18.4259413029     3.3275114569     1.3504610812
H       13.7083489486     1.0884324299     2.7032130683
H       18.5384456862     1.1074950438     2.3091513553
H       16.4462304322     0.9314473717     7.7928565494
H       14.2733862255     0.9929658263     6.7020010967
H       20.3230487358     2.7085013375     2.7476394268
H       16.2016225366     0.0831923550     5.5410987622
32
# Point -6 Energy = 0.0
C       20.6291519960     3.7412082521     7.4747051134
H       19.0221545475     3.5779486121     6.2263150681
C       19.4450384945     2.9909668457     6.8727675849
H       18.6551127800     2.7807344541     7.6988443666
H       20.5540480607     1.8268759137     5.4613374297
C       19.8260097399     1.6716325227     6.1991617384
H       18.9776075631     1.1944271635     5.7421427996
H       20.2817801158     0.9037633105     6.9834815427
H       21.3033271220     3.9054781975     6.8274556696
H       21.3241090041     2.7997582088     8.6142599532
H       20.4142453940     4.4362248701     7.8421634526
Si       16.4236582797     3.4181113798     4.3825501758
O       16.2992603024     5.0086895250     4.7191042247
O       17.9306597843     3.0886153694     3.8327241459
O       15.3671120206     2.9962052933     3.2040889544
O       16.1013597821     2.5877779302     5.7514271144
Si       16.4797579279     6.6072719344     4.3739577974
Si       13.9499483151     2.5510985025     2.4945706395
Si       18.8299250140     2.5499083287     2.5584125809
Si       15.7513306535     1.1465655661     6.4712657294
H       17.8648658147     6.8723622715     3.8746462266
H       15.5224453903     6.9634737021     3.2708735539
H       16.2459651767     7.4913502370     5.5824653330
H       12.8122230604     3.2946219145     3.0879712845
H       13.9400224741     2.8419578429     1.0273229203
H       18.4284964315     3.3264168187     1.3534045503
H       13.7086145027     1.0900590139     2.7026579897
H       18.5388781680     1.1056171073     2.3105261021
H       16.4443504894     0.9272299501     7.7932728838
H       14.2719882814     0.9912455252     6.7016014463
H       20.3245630080     2.7049029860     2.7508842675
H       16.1999709056     0.0808024506     5.5408027209
32
# Point -5 Energy = 0.0
C       20.6323608682     3.7269364033     7.4833184218
H       19.0143616369     3.5842165860     6.2168066354
C       19.4453182565     2.9839095707     6.8775294720
H       18.6612327903     2.7766625173     7.6948492075
H       20.5590259884     1.8220842640     5.4590148685
C       19.8255588301     1.6652277194     6.2027340983
H       18.9741635991     1.1882404548     5.7425286291
H       20.2748514663     0.9064350351     6.9762175004
H       21.3211724624     3.8999492892     6.8175344228
H       21.2897651339     2.8394222185     8.5614550216
H       20.4044245352     4.4633851640     7.8681310613
Si       16.4250928638     3.4163837506     4.3847839062
O       16.3018227649     5.0068200878     4.7224483398
O       17.9320701351     3.0861123795     3.8353314361
O       15.3686998430     2.9961734347     3.2055957681
O       16.1016102113     2.5853237427     5.7529196242
Si       16.4837067041     6.6055104186     4.3785350044
Si       13.9514635894     2.5526939417     2.4951844560
Si       18.8314120869     2.5476175641     2.5609694196
Si       15.7501544377     1.1438471054     6.4715815002
H       17.8692250841     6.8698740378     3.8799703938
H       15.5271183401     6.9632665226     3.2753299893
H       16.2501293742     7.4888911250     5.5875940075
H       12.8140876146     3.2966805999     3.0886725059
H       13.9423552166     2.8446299644     1.0281457769
H       18.4310755895     3.3253216217     1.3563717583
H       13.7089002769     1.0916946762     2.7021121488
H       18.5393287776     1.1037397276     2.3119199175
H       16.4424725097     0.9230100131     7.7936998559
H       14.2705975310     0.9895281398     6.7012088957
H       20.3260946108     2.7012995366     2.7541545780
H       16.1983274712     0.0784143878     5.5405167394
32
# Point -4 Energy = 0.0
C       20.6355237829     3.7126249810     7.4919518634
H       19.0066206910     3.5904971246     6.2073107112
C       19.4455988558     2.9768393987     6.8823116212
H       18.6673807568     2.7725611920     7.6908906550
H       20.5640123823     1.8172862566     5.4567220037
C       19.8251150185     1.6588102852     6.2063331576
H       18.9707327482     1.1820549441     5.7429288818
H       20.2679392287     0.9091219219     6.9690000335
H       21.3388189249     3.8946303509     6.8075869831
H       21.2552974158     2.8788026295     8.5085106493
H       20.3944868300     4.4906841212     7.8936918427
Si       16.4265434798     3.4146553324     4.3870354465
O       16.3044024421     5.0049477798     4.7258130093
O       17.9334966689     3.0836069217     3.8379593132
O       15.3703075542     2.9961449488     3.2071183676
O       16.1018715384     2.5828683709     5.7544266713
Si       16.4876757961     6.6037443352     4.3831365864
Si       13.9530014202     2.5542970161     2.4958109463
Si       18.8329179954     2.5453251240     2.5635484246
Si       15.7489851787     1.1411287547     6.4719076073
H       17.8736055170     6.8673789396     3.8853225996
H       15.5318163137     6.9630577347     3.2798103629
H       16.2543114410     7.4864251968     5.5927475337
H       12.8159748082     3.2987474188     3.0893853553
H       13.9447153813     2.8473114677     1.0289829043
H       18.4336787014     3.3242262920     1.3593627509
H       13.7092062026     1.0933398269     2.7015753994
H       18.5397974073     1.1018632207     2.3133325343
H       16.4405964975     0.9187872357     7.7941371913
H       14.2692139748     0.9878135494     6.7008232434
H       20.3276434677     2.6976911838     2.7574502605
H       16.1966921790     0.0760281447     5.5402404492
32
# Point -3 Energy = 0.0
C       20.6386401882     3.6982733614     7.5006060820
H       18.9989316070     3.5967890578     6.1978290824
C       19.4458795703     2.9697551063     6.8871159978
H       18.6735558771     2.7684300361     7.6869709166
H       20.5690042317     1.8124860226     5.4544546550
C       19.8246761697     1.6523815800     6.2099550112
H       18.9673121473     1.1758741878     5.7433389030
H       20.2610422455     0.9118219973     6.9618214754
H       21.3562639367     3.8895209806     6.7976157625
H       21.2207069141     2.9179015077     8.4554297992
H       20.3844360089     4.5181237965     7.9188359091
Si       16.4280104453     3.4129256990     4.3893057517
O       16.3069997729     5.0030721409     4.7291993516
O       17.9349398454     3.0810983951     3.8406092405
O       15.3719358522     2.9961197302     3.2086572772
O       16.1021434473     2.5804112787     5.7559489736
Si       16.4916660157     6.6019732243     4.3877639416
Si       13.9545627108     2.5559079422     2.4964500662
Si       18.8344435831     2.5430304229     2.5661513242
Si       15.7478220739     1.1384099574     6.4722444451
H       17.8780081406     6.8648763517     3.8907047840
H       15.5365405946     6.9628471675     3.2843157805
H       16.2585118780     7.4839518744     5.5979273331
H       12.8178854475     3.3008226927     3.0901094696
H       13.9471044612     2.8500027499     1.0298343040
H       18.4363071804     3.3231304523     1.3623792225
H       13.7095328828     1.0949947075     2.7010474146
H       18.5402847722     1.0999870908     2.3147653858
H       16.4387211201     0.9145607872     7.7945854969
H       14.2678367119     0.9861014111     6.7004443238
H       20.3292103633     2.6940770744     2.7607736057
H       16.1950644042     0.0736432156     5.5399742733
32
# Point -2 Energy = 0.0
C       20.6417105064     3.6838822135     7.5092793097
H       18.9912951832     3.6030943127     6.1883585628
C       19.4461617140     2.9626581404     6.8919384605
H       18.6797597067     2.7642684417     7.6830856885
H       20.5740075016     1.8076745988     5.4522207471
C       19.8242461748     1.6459380353     6.2136066822
H       18.9639073107     1.1696905636     5.7437670486
H       20.2541629782     0.9145376676     6.9546956427
H       21.3735112654     3.8846280098     6.7876279970
H       21.1859866462     2.9567096568     8.4022081761
H       20.3742733632     4.5456967823     7.9435691968
Si       16.4294930662     3.4111959738     4.3915931679
O       16.3096139427     5.0011941993     4.7326060641
O       17.9363986115     3.0785883635     3.8432783258
O       15.3735832307     2.9960988402     3.2102116182
O       16.1024265150     2.5779533101     5.7574849884
Si       16.4956758923     6.6001981958     4.3924158844
Si       13.9561455172     2.5575275625     2.4971019898
Si       18.8359869268     2.5407354365     2.5687744389
Si       15.7466666119     1.1356913774     6.4725905098
H       17.8824310218     6.8623677829     3.8961147142
H       15.5412887709     6.9626358735     3.2888458779
H       16.2627299463     7.4814720187     5.6031325380
H       12.8198178793     3.3029068994     3.0908460368
H       13.9495192962     2.8527048753     1.0307002155
H       18.4389579779     3.3220361630     1.3654179442
H       13.7098788898     1.0966600846     2.7005283227
H       18.5407891062     1.0981132959     2.3162147921
H       16.4368489470     0.9103312920     7.7950426771
H       14.2664674576     0.9843920079     6.7000717748
H       20.3307934784     2.6904595032     2.7641197778
H       16.1934451639     0.0712605220     5.5397161897
32
# Point -1 Energy = 0.0
C       20.6447341985     3.6694508505     7.5179720250
H       18.9837112644     3.6094116832     6.1789008346
C       19.4464445541     2.9555472366     6.8967808379
H       18.6859914371     2.7600759459     7.6792370562
H       20.5790191182     1.8028560240     5.4500159350
C       19.8238228477     1.6394809560     6.2172841230
H       18.9605153075     1.1635075734     5.7442085437
H       20.2473002338     0.9172668613     6.9476146792
H       21.3905586959     3.8799510075     6.7776263008
H       21.1511383786     2.9952307050     8.3488495506
H       20.3640031477     4.5734043204     7.9678835585
Si       16.4309916066     3.4094657167     4.3938985703
O       16.3122453570     4.9993134812     4.7360341866
O       17.9378733612     3.0760761992     3.8459679252
O       15.3752503091     2.9960821691     3.2117818551
O       16.1027203889     2.5754939183     5.7590353599
Si       16.4997062125     6.5984187741     4.3970937305
Si       13.9577506468     2.5591561014     2.4977666396
Si       18.8375487769     2.5384395450     2.5714193742
Si       15.7455179532     1.1329724513     6.4729461292
H       17.8868751569     6.8598525796     3.9015542223
H       15.5460620842     6.9624236744     3.2934016959
H       16.2669661513     7.4789850378     5.6083644907
H       12.8217728308     3.3050003783     3.0915946808
H       13.9519612597     2.8554182494     1.0315806073
H       18.4416323994     3.3209430153     1.3684804946
H       13.7102447211     1.0983362107     2.7000177684
H       18.5413110140     1.0962413085     2.3176820697
H       16.4349786306     0.9060979065     7.7955092592
H       14.2651052764     0.9826850028     6.6997053915
H       20.3323935096     2.6868375692     2.7674909169
H       16.1918337704     0.0688795477     5.5394665473
32
# Point 0 Energy = 0
C       20.6477110000     3.6549790000     7.5266840000
H       18.9761800000     3.6157410000     6.1694560000
C       19.4467280000     2.9484220000     6.9016430000
H       18.6922510000     2.7558520000     7.6754250000
H       20.5840390000     1.7980300000     5.4478400000
C       19.8234060000     1.6330100000     6.2209870000
H       18.9571360000     1.1573250000     5.7446630000
H       20.2404540000     0.9200090000     6.9405780000
H       21.4074060000     3.8754920000     6.7676150000
H       21.1161610000     3.0334640000     8.2953550000
H       20.3536290000     4.6012450000     7.9917750000
Si       16.4325060000     3.4077350000     4.3962220000
O       16.3148940000     4.9974300000     4.7394840000
O       17.9393640000     3.0735620000     3.8486780000
O       15.3769370000     2.9960700000     3.2133680000
O       16.1030250000     2.5730330000     5.7606000000
Si       16.5037570000     6.5966350000     4.4017980000
Si       13.9593780000     2.5607940000     2.4984440000
Si       18.8391290000     2.5361430000     2.5740860000
Si       15.7443760000     1.1302530000     6.4733110000
H       17.8913405600     6.8573308000     3.9070238400
H       15.5508605600     6.9622108000     3.2979838400
H       16.2712205600     7.4764908000     5.6136238400
H       12.8237502400     3.3071035200     3.0923555200
H       13.9544302400     2.8581435200     1.0324755200
H       18.4443303200     3.3198514400     1.3715668800
H       13.7106302400     1.1000235200     2.6995155200
H       18.5418503200     1.0943714400     2.3191668800
H       16.4331100800     0.9018602400     7.7959848800
H       14.2637500800     0.9809802400     6.6993448800
H       20.3340103200     2.6832114400     2.7708868800
H       16.1902300800     0.0665002400     5.5392248800
32
# Point 1 Energy = 0.0
C       20.6506406271     3.6404664182     7.5354150584
H       18.9687015420     3.6220821355     6.1600242107
C       19.4470119470     2.9412820655     6.9065248622
H       18.6985383080     2.7515960869     7.6716495418
H       20.5890670826     1.7931962702     5.4456927882
C       19.8229954516     1.6265248582     6.2247150342
H       18.9537692704     1.1511426531     5.7451300734
H       20.2336242741     0.9227635577     6.9335850912
H       21.4240527376     3.8712530725     6.7575983475
H       21.0810533608     3.0714083326     8.2417251638
H       20.3431544915     4.6292174797     8.0152392271
Si       16.4340361894     3.4060039043     4.3985635171
O       16.3175598532     4.9955437767     4.7429557990
O       17.9408704505     3.0710458792     3.8514085456