32
# Point -15 Energy = 0.0
C       20.4907543028     3.4987433566     7.4394711195
H       18.8795806117     3.2947852869     6.1260923206
C       19.5044301827     3.0316137081     6.9843647329
H       18.6534173449     2.4032574809     7.2774707173
H       20.4476900677     2.1506752309     5.6811762444
C       19.7104863614     1.4335926424     6.0129689104
H       18.6847643191     1.4923443475     5.7172540094
H       20.2127090801     1.3576822933     6.9643625294
H       21.4289847494     4.0440434627     7.2163812148
H       21.2597207790     3.5246206757     8.2408119861
H       20.9743435110     4.2594995819     8.0973275885
Si       16.4363073899     3.3796981601     4.3937088000
O       16.3321374225     4.9748986745     4.7407738932
O       17.9386903879     3.0353223719     3.8384179628
O       15.3713710600     2.9822170791     3.2097563789
O       16.1002050861     2.5466152563     5.7552711025
Si       16.5340911904     6.5689438268     4.4066334327
Si       13.9508092842     2.5616991766     2.4986715585
Si       18.8289731500     2.4939014362     2.5653696304
Si       15.7324042359     1.1050123746     6.4644742102
H       17.9232633214     6.8195881928     3.9099556870
H       15.5826291571     6.9467779123     3.3057802994
H       16.3119768768     7.4483927460     5.6213849145
H       12.8225643107     3.3163146225     3.0967032712
H       13.9446516361     2.8627864817     1.0331288751
H       18.4402761710     3.2835668458     1.3640475181
H       13.6890503387     1.1025318953     2.6961434812
H       18.5193477155     1.0547895043     2.3055934704
H       16.4204309066     0.8662479465     7.7853595983
H       14.2496208885     0.9675678357     6.6934264001
H       20.3266924834     2.6260967710     2.7581263725
H       16.1656062778     0.0394748233     5.5267571301
32
# Point -14 Energy = 0.0
C       20.5054368991     3.5004001196     7.4396866848
H       18.8848398793     3.3050006930     6.1171370707
C       19.5017032314     3.0213010301     6.9748983070
H       18.6509990848     2.4112273784     7.3051791955
H       20.4571445412     2.1495942980     5.6719013269
C       19.7220191817     1.4393667275     6.0258777275
H       18.6933337051     1.4924820405     5.7326552021
H       20.2127152591     1.3501529340     6.9833976659
H       21.4406221266     4.0348012465     7.1836851942
H       21.2577327424     3.4896462443     8.2554944920
H       20.9382527106     4.2872543782     8.0997985298
Si       16.4355470142     3.3801113270     4.3921263703
O       16.3315335795     4.9747990750     4.7399416516
O       17.9376946635     3.0359839632     3.8361653108
O       15.3702766801     2.9829371699     3.2086811383
O       16.1003262317     2.5463052540     5.7536093684
Si       16.5332297366     6.5692830730     4.4063706044
Si       13.9492422533     2.5625971994     2.4979867927
Si       18.8275029869     2.4951297323     2.5621110392
Si       15.7328387199     1.1044028803     6.4624474971
H       17.9221062524     6.8201665634     3.9090650284
H       15.5811492853     6.9474416997     3.3061593181
H       16.3116675898     7.4481652609     5.6215878536
H       12.8212732282     3.3168938089     3.0969036175
H       13.9423955841     2.8643074207     1.0325980737
H       18.4380097671     3.2853060523     1.3614305164
H       13.6877153103     1.1033379444     2.6949970613
H       18.5178038720     1.0561463044     2.3020102458
H       16.4216406241     0.8652051708     7.7828719995
H       14.2502713241     0.9668106820     6.6920778268
H       20.3252310922     2.6274475895     2.7542364014
H       16.1657254436     0.0392967386     5.5240762480
32
# Point -13 Energy = 0.0
C       20.5197718938     3.5026989178     7.4404292883
H       18.8902665089     3.3163052968     6.1092891039
C       19.4989478796     3.0111591634     6.9657851609
H       18.6491856831     2.4211420473     7.3328877548
H       20.4663157220     2.1480555599     5.6622898674
C       19.7330668027     1.4457825797     6.0386694066
H       18.7016716781     1.4914681298     5.7469021666
H       20.2124313789     1.3413644915     7.0016551211
H       21.4511804979     4.0250274933     7.1512234674
H       21.2551680911     3.4544684550     8.2686541699
H       20.9012712498     4.3141245172     8.1000508765
Si       16.4349244809     3.3805369132     4.3907347283
O       16.3310046895     4.9747131722     4.7392735241
O       17.9368758238     3.0366889810     3.8341906595
O       15.3693923504     2.9836232994     3.2077475540
O       16.1005363884     2.5460143080     5.7521295485
Si       16.5324170245     6.5696370956     4.4062627242
Si       13.9479336795     2.5634115890     2.4973767182
Si       18.8262927730     2.4964076258     2.5591869082
Si       15.7333650082     1.1038106243     6.4605999934
H       17.9210175263     6.8207922818     3.9084014939
H       15.5797674366     6.9480792359     3.3066372862
H       16.3113170162     7.4479618732     5.6219219431
H       12.8201891552     3.3173658391     3.0971098884
H       13.9404649964     2.8657240869     1.0321379668
H       18.4360492714     3.2870683074     1.3591166243
H       13.6866691512     1.1040559954     2.6939319518
H       18.5165710105     1.0575413458     2.2987640047
H       16.4228785431     0.8642148562     7.7806024710
H       14.2510055499     0.9660315137     6.6908311317
H       20.3240154362     2.6288891588     2.7507614349
H       16.1660159029     0.0391372459     5.5216104218
32
# Point -12 Energy = 0.0
C       20.5337074429     3.5057457540     7.4417240343
H       18.8958561112     3.3287834439     6.1026432930
C       19.4961355865     3.0012564232     6.9570528570
H       18.6480088416     2.4330386359     7.3605344302
H       20.4753593233     2.1457854861     5.6521953545
C       19.7436610296     1.4528779637     6.0514110400
H       18.7098913057     1.4888837927     5.7598315452
H       20.2119945006     1.3310062858     7.0190356764
H       21.4605390008     4.0147797508     7.1189942427
H       21.2519899799     3.4191872812     8.2802665478
H       20.8634629190     4.3400962010     8.0982418852
Si       16.4344225332     3.3810043619     4.3895392233
O       16.3305227122     4.9746729813     4.7387601363
O       17.9362219200     3.0374699993     3.8325114701
O       15.3687100606     2.9842886917     3.2069579475
O       16.1008145887     2.5457821877     5.7508425169
Si       16.5316183131     6.5700360436     4.4062874354
Si       13.9468820812     2.5641415921     2.4968386490
Si       18.8253413258     2.4977611151     2.5566247882
Si       15.7339656804     1.1032796837     6.4589531767
H       17.9199641444     6.8214985143     3.9079488828
H       15.5784533927     6.9487057672     3.3071825920
H       16.3108782681     7.4478223784     5.6223558000
H       12.8193027923     3.3177292446     3.0973059125
H       13.9388656029     2.8670226702     1.0317430175
H       18.4343963714     3.2888668374     1.3571238674
H       13.6859171372     1.1046856262     2.6929568403
H       18.5156573396     1.0589966303     2.2958931596
H       16.4241206055     0.8633365309     7.7785789433
H       14.2518054045     0.9652685042     6.6897000337
H       20.3230425354     2.6304572311     2.7477369275
H       16.1664717500     0.0390343901     5.5193931336
32
# Point -11 Energy = 0.0
C       20.5471830274     3.5096717473     7.4436140496
H       18.9016056060     3.3425461867     6.0973098847
C       19.4932322908     2.9916886657     6.9487406710
H       18.6474930171     2.4469772183     7.3880696026
H       20.4844643908     2.1423923625     5.6414054667
C       19.7538177484     1.4607234074     6.0641764318
H       18.7181427343     1.4841865394     5.7712050587
H       20.2115774256     1.3186371979     7.0353653057
H       21.4685607755     4.0041280114     7.0870162808
H       21.2481361994     3.3839242436     8.2903228965
H       20.8248777111     4.3651882301     8.0945498593
Si       16.4340219381     3.3815531832     4.3885492832
O       16.3300527426     4.9747216520     4.7383899568
O       17.9357209949     3.0383715079     3.8311534682
O       15.3682231517     2.9849493504     3.2063181742
O       16.1011374951     2.5456630188     5.7497657886
Si       16.5307883949     6.5705204813     4.4064145309
Si       13.9460898175     2.5647827820     2.4963722869
Si       18.8246513385     2.4992255995     2.5544642401
Si       15.7346234140     1.1028702019     6.4575399497
H       17.9189029247     6.8223306075     3.9076848487
H       15.5771675823     6.9493402748     3.3077524911
H       16.3102893312     7.4478010277     5.6228464492
H       12.8186055349     3.3179781999     3.0974728860
H       13.9376089827     2.8681801089     1.0314088903
H       18.4330568338     3.2907186944     1.3554785034
H       13.6854718800     1.1052227890     2.6920878519
H       18.5150792579     1.0605417474     2.2934529995
H       16.4253409493     0.8626526158     7.7768430279
H       14.2526527558     0.9645728660     6.6887073597
H       20.3223125534     2.6322016323     2.7452127116
H       16.1670918004     0.0390398489     5.5174741547
32
# Point -10 Energy = 0.0
C       20.5601233307     3.5146495642     7.4461688314
H       18.9075084022     3.3577431551     6.0934220008
C       19.4901936301     2.9825941273     6.9409071313
H       18.6476505180     2.4630549721     7.4154629349
H       20.4938722078     2.1372885265     5.6296102040
C       19.7635320669     1.4694355857     6.0770547365
H       18.7266478324     1.4766321852     5.7806727181
H       20.2114112427     1.3036116674     7.0503497960
H       21.4750841210     3.9931714025     7.0553365101
H       21.2435093665     3.3488396085     8.2988379499
H       20.7855438320     4.3894701159     8.0891805697
Si       16.4336995380     3.3822390211     4.3877808261
O       16.3295484186     4.9749200502     4.7381485795
O       17.9353603622     3.0394569772     3.8301557769
O       15.3679265515     2.9856264673     3.2058393101
O       16.1014767026     2.5457334570     5.7489270520
Si       16.5298652900     6.5711476177     4.4066025064
Si       13.9455648896     2.5653262015     2.4959802298
Si       18.8242311610     2.5008517516     2.5527642086
Si       15.7353192670     1.1026673918     6.4564103797
H       17.9177745382     6.8233532655     3.9075788960
H       15.5758557900     6.9500083482     3.3082876275
H       16.3094638837     7.4479747389     5.6233339265
H       12.8180894252     3.3181012630     3.0975869095
H       13.9367159840     2.8691604738     1.0311323731
H       18.4320428722     3.2926478483     1.3542203612
H       13.6853568400     1.1056589700     2.6913514424
H       18.5148654512     1.0622188403     2.2915253386
H       16.4265086839     0.8622808421     7.7754571658
H       14.2535276597     0.9640162779     6.6878889976
H       20.3218301217     2.6341945247     2.7432621895
H       16.1678806194     0.0392267620     5.5159278806
32
# Point -9 Energy = 0.0
C       20.5724272174     3.5209215940     7.4494979691
H       18.9135455144     3.3745820297     6.0911470119
C       19.4869563620     2.9741781934     6.9336427393
H       18.6484724147     2.4814300590     7.4427151312
H       20.5039054721     2.1295514662     5.6163538265
C       19.7727717103     1.4791998601     6.0901664889
H       18.7357698807     1.4651443616     5.7877144589
H       20.2118234791     1.2849585037     7.0634904368
H       21.4799082438     3.9820665139     7.0240434401
H       21.2379614244     3.3141634004     8.3058636452
H       20.7454527962     4.4130923624     8.0823774035
Si       16.4334245894     3.3831439299     4.3872602409
O       16.3289439110     4.9753578916     4.7380174647
O       17.9351250134     3.0408207251     3.8295795429
O       15.3678168247     2.9863506522     3.2055403570
O       16.1017936844     2.5461065038     5.7483699955
Si       16.5287594896     6.5720018344     4.4067927518
Si       13.9453236347     2.5657572169     2.4956686210
Si       18.8240974412     2.5027153498     2.5516154551
Si       15.7360291306     1.1027967666     6.4556411872
H       17.9164933690     6.8246625841     3.9075890756
H       15.5744401969     6.9507471578     3.3087027722
H       16.3082757004     7.4484569382     5.6237321928
H       12.8177467594     3.3180796115     3.0976145948
H       13.9362222417     2.8699092154     1.0309110530
H       18.4313769006     3.2946903922     1.3534118530
H       13.6856117850     1.1059800921     2.6907890174
H       18.5150633383     1.0640909496     2.2902347329
H       16.4275817164     0.8623951450     7.7745165112
H       14.2544045849     0.9637035620     6.6873003031
H       20.3216062094     2.6365441522     2.7419978973
H       16.1688495640     0.0397029853     5.5148671890
32
# Point -8 Energy = 0.0
C       20.5839490591     3.5288452080     7.4537727437
H       18.9196703354     3.3933590526     6.0907032797
C       19.4834239175     2.9667523893     6.9270903077
H       18.6499126229     2.5023597884     7.4698765906
H       20.5150035773     2.1176807450     5.6009739937
C       19.7814675761     1.4903061054     6.1036905191
H       18.7461535243     1.4481174344     5.7915596731
H       20.2132962081     1.2611987595     7.0739238585
H       21.4827710472     3.9710725125     6.9932892144
H       21.2312695536     3.2802464049     8.3115122473
H       20.7045338580     4.4363341302     8.0744366449
Si       16.4331523892     3.3843926938     4.3870305915
O       16.3281407511     4.9761713992     4.7379718389
O       17.9349945388     3.0426066634     3.8295216538
O       15.3678917858     2.9871687708     3.2054523369
O       16.1020309958     2.5469534463     5.7481633869
Si       16.5273365944     6.5732113513     4.4069002760
Si       13.9453945868     2.5660539554     2.4954478498
Si       18.8242788493     2.5049327655     2.5511604067
Si       15.7367171251     1.1034483528     6.4553505743
H       17.9149311961     6.8264050116     3.9076568187
H       15.5728050278     6.9516134001     3.3088719999
H       16.3065335646     7.4494194612     5.6239146347
H       12.8175690633     3.3178845627     3.0975056658
H       13.9361866996     2.8703443219     1.0307424907
H       18.4310972187     3.2969027369     1.3531523807
H       13.6863008912     1.1061650650     2.6904638860
H       18.5157487384     1.0662551861     2.2897742891
H       16.4284958149     0.8632587849     7.7741676069
H       14.2552454233     0.9637929556     6.6870258995
H       20.3216606006     2.6394164147     2.7415964603
H       16.1700174653     0.0406321708     5.5144652402
32
# Point -7 Energy = 0.0
C       20.5944763430     3.5389415720     7.4592490850
H       18.9257896004     3.4144890944     6.0923757401
C       19.4794492949     2.9607749122     6.9214673916
H       18.6518681210     2.5262418366     7.4970660105
H       20.5277092893     2.0992518918     5.5826003573
C       19.7895028701     1.5031863390     6.1178945375
H       18.7589819657     1.4232622249     5.7911569044
H       20.2165121278     1.2301951554     7.0801430216
H       21.4833224229     3.9605979323     6.9633128523
H       21.2231069470     3.2476160035     8.3159820590
H       20.6626221960     4.4596492801     8.0657173429
Si       16.4328164357     3.3861699193     4.3871580814
O       16.3269928016     4.9775617178     4.7379784161
O       17.9349388928     3.0450279736     3.8301296286
O       15.3681494275     2.9881511735     3.2056222229
O       16.1021013336     2.5485268347     5.7484103920
Si       16.5253980769     6.5749655436     4.4068039790
Si       13.9458221781     2.5661857717     2.4953324518
Si       18.8248194340     2.5076772852     2.5516148381
Si       15.7373266336     1.1049020894     6.4557134140
H       17.9128992060     6.8287970720     3.9077020221
H       15.5707809541     6.9526914990     3.3086128514
H       16.3039534912     7.4511152736     5.6236987380
H       12.8175455033     3.3174750271     3.0971839489
H       13.9367007903     2.8703471992     1.0306225747
H       18.4312639427     3.2993702987     1.3535942169
H       13.6875207620     1.1061844303     2.6904676206
H       18.5170355096     1.0688567049     2.2904334922
H       16.4291505416     0.8652590435     7.7746277986
H       14.2559900774     0.9645173815     6.6871890674
H       20.3220238154     2.6430575551     2.7423261411
H       16.1714096146     0.0422559639     5.5149781619
32
# Point -6 Energy = 0.0
C       20.6037610254     3.5517995902     7.4662267245
H       18.9317786420     3.4384319483     6.0964878462
C       19.4748600628     2.9567677994     6.9170271700
H       18.6542002315     2.5535280443     7.5244342423
H       20.5423437018     2.0709986999     5.5605542155
C       19.7967188927     1.5183382114     6.1330761314
H       18.7761712907     1.3883041300     5.7856010501
H       20.2221507566     1.1897256796     7.0797930930
H       21.4811527413     3.9511035974     6.9344009517
H       21.2130796978     3.2168669086     8.3195074065
H       20.6194983631     4.4835698883     8.0566170397
Si       16.4323386707     3.3886845645     4.3877181354
O       16.3253301592     4.9797563935     4.7379980525
O       17.9349222366     3.0483269312     3.8315739407
O       15.3685874565     2.9893756111     3.2061026581
O       16.1019011535     2.5511137123     5.7492284460
Si       16.5227141797     6.5774781407     4.4063638582
Si       13.9466586607     2.5661142293     2.4953366166
Si       18.8257698906     2.5111457390     2.5532288441
Si       15.7377885670     1.1074766684     6.4569291729
H       17.9101791204     6.8320839477     3.9076332014
H       15.5681733289     6.9540744374     3.3077141054
H       16.3002061163     7.4538307833     5.6228733936
H       12.8176643508     3.3168001163     3.0965581322
H       13.9378725554     2.8697784522     1.0305443310
H       18.4319477706     3.3021888235     1.3549142601
H       13.6893833887     1.1060013979     2.6909027946
H       18.5190549038     1.0720603339     2.2925470184
H       16.4294246929     0.8688380038     7.7761457720
H       14.2565654953     0.9661412389     6.6879285484
H       20.3227304265     2.6477484759     2.7444987036
H       16.1730520701     0.0448495017     5.5166995041
32
# Point -5 Energy = 0.0
C       20.6117673140     3.5674705749     7.4747666570
H       18.9376512101     3.4652376541     6.1031919062
C       19.4696522742     2.9547948564     6.9137963927
H       18.6569434932     2.5841968182     7.5519144009
H       20.5579335842     2.0311720302     5.5357621415
C       19.8030113713     1.5358373181     6.1491938290
H       18.7994770497     1.3442518447     5.7757875059
H       20.2298788356     1.1403366682     7.0706521941
H       21.4760185092     3.9424950346     6.9065848314
H       21.2009919308     3.1879799131     8.3220206973
H       20.5751958215     4.5080510503     8.0473338721
Si       16.4317174981     3.3919488045     4.3887140326
O       16.3231347483     4.9827694706     4.7380148335
O       17.9349481625     3.0525246464     3.8338694365
O       15.3692151829     2.9908311653     3.2068973512
O       16.1014293597     2.5547389508     5.7506287102
Si       16.5192535030     6.5807603486     4.4055459737
Si       13.9479222191     2.5658066609     2.4954625193
Si       18.8271455306     2.5153538758     2.5560286174
Si       15.7381115473     1.1112022308     6.4590239206
H       17.9067390904     6.8362846392     3.9074203020
H       15.5649539717     6.9557515274     3.3061333617
H       16.2952453436     7.4575880120     5.6213926626
H       12.8179341825     3.3158223556     3.0956158310
H       13.9397254536     2.8685888036     1.0305070313
H       18.4331634200     3.3053563051     1.3571279413
H       13.6919195964     1.1055839998     2.6917875478
H       18.5218371619     1.0758769288     2.2961566806
H       16.4293213495     0.8740475171     7.7787531144
H       14.2569812647     0.9686828983     6.6892649123
H       20.3237923694     2.6535216533     2.7481456658
H       16.1749682510     0.0484374432     5.5196704863
32
# Point -4 Energy = 0.0
C       20.6189562456     3.5848702918     7.4844021539
H       18.9437606202     3.4940991848     6.1122670863
C       19.4642110453     2.9539548255     6.9113078654
H       18.6605589139     2.6172235779     7.5789853583
H       20.5717584813     1.9831838560     5.5113809750
C       19.8084626465     1.5548532366     6.1654968187
H       18.8281988295     1.2976827514     5.7652173672
H       20.2375153778     1.0876362833     7.0530870837
H       21.4680862696     3.9335435704     6.8793271230
H       21.1871422458     3.1596590062     8.3227945921
H       20.5303408845     4.5318564822     8.0376551410
Si       16.4311342116     3.3955643333     4.3900024836
O       16.3207348644     4.9861704500     4.7380704549
O       17.9351218201     3.0571770726     3.8366981261
O       15.3700783997     2.9923271257     3.2079172956
O       16.1009306275     2.5588778820     5.7524053459
Si       16.5154294085     6.5844031086     4.4045498467
Si       13.9495644972     2.5652531861     2.4957051147
Si       18.8288961647     2.5199356100     2.5595562494
Si       15.7385004307     1.1155028373     6.4616657801
H       17.9029647129     6.8409456237     3.9071641031
H       15.5614643167     6.9575035229     3.3041996573
H       16.2896585283     7.4618585124     5.6195722493
H       12.8184162048     3.3145457258     3.0945377059
H       13.9421000320     2.8669310260     1.0305407018
H       18.4348091858     3.3086670427     1.3599011061
H       13.6949934334     1.1049202272     2.6929795564
H       18.5252045610     1.0799923211     2.3006743310
H       16.4291474797     0.8801161707     7.7820276169
H       14.2574539565     0.9716471831     6.6909862612
H       20.3251856619     2.6598824211     2.7526868638
H       16.1772005427     0.0525175517     5.5234029455
32
# Point -3 Energy = 0.0
C       20.6259227819     3.6027124947     7.4945655885
H       18.9505419257     3.5240194106     6.1234315457
C       19.4590199021     2.9531874234     6.9090051662
H       18.6656360421     2.6513841318     7.6050652193
H       20.5815030874     1.9329934984     5.4901048707
C       19.8132199855     1.5743854522     6.1811126749
H       18.8597181984     1.2548428115     5.7567655956
H       20.2427886221     1.0375993577     7.0296413696
H       21.4575549080     3.9228421143     6.8519744943
H       21.1718976352     3.1304168272     8.3209409056
H       20.4856594531     4.5535649218     8.0272910003
Si       16.4308248145     3.3990700693     4.3914261979
O       16.3185484340     4.9894623260     4.7382249428
O       17.9355858152     3.0617607201     3.8396891446
O       15.3712442791     2.9936501767     3.2090739461
O       16.1007196457     2.5629233303     5.7543302381
Si       16.5117653131     6.5879343135     4.4036193108
Si       13.9515348487     2.5644594220     2.4960819114
Si       18.8309720317     2.5244529791     2.5632710770
Si       15.7392206142     1.1197127175     6.4644814702
H       17.8993457330     6.8455351160     3.9069846112
H       15.5581377083     6.9590854251     3.3023133215
H       16.2841847501     7.4660328436     5.6177940567
H       12.8191949059     3.3129990094     3.0935655690
H       13.9448076143     2.8650006088     1.0307031434
H       18.4367709578     3.3118728648     1.3628397245
H       13.6984457016     1.1040137070     2.6943370091
H       18.5289492213     1.0840298640     2.3054083254
H       16.4292958128     0.8861460835     7.7854869862
H       14.2582625913     0.9744709362     6.6928683606
H       20.3268941135     2.6662343007     2.7574301402
H       16.1798131522     0.0565067429     5.5273374428
32
# Point -2 Energy = 0.0
C       20.6329830840     3.6203952860     7.5050090238
H       18.9582064266     3.5544423686     6.1366305008
C       19.4543331673     2.9520259558     6.9066382161
H       18.6725254531     2.6860264777     7.6298730392
H       20.5865310973     1.8845146860     5.4726703883
C       19.8173223485     1.5939668481     6.1956144996
H       18.8921034255     1.2176019922     5.7509387983
H       20.2448623053     0.9928219491     7.0024489607
H       21.4442596206     3.9096909647     6.8242261595
H       21.1552337250     3.0996009499     8.3159244740
H       20.4414317649     4.5724879247     8.0161727249
Si       16.4309223042     3.4022670352     4.3929279339
O       16.3168011382     4.9924335179     4.7385082956
O       17.9364265612     3.0660355130     3.8426834370
O       15.3727608092     2.9947103388     3.2103490096
O       16.1009675475     2.5666221977     5.7563221686
Si       16.5085416107     6.5911504009     4.4028548220
Si       13.9538215331     2.5634370366     2.4966326217
Si       18.8333630554     2.5286897484     2.5669363319
Si       15.7404167568     1.1235593550     6.4673366702
H       17.8961464191     6.8498109685     3.9069173389
H       15.5552097931     6.9603935796     3.3006473356
H       16.2792130383     7.4698560392     5.6162160232
H       12.8203266033     3.3112155039     3.0928409150
H       13.9477679679     2.8628841103     1.0310497341
H       18.4390074399     3.3148367249     1.3657692784
H       13.7022086205     1.1028777796     2.6958395234
H       18.5329803341     1.0878004448     2.3100655812
H       16.4299744411     0.8917657598     7.7889462084
H       14.2595580547     0.9769381732     6.6948527914
H       20.3289250048     2.6722823473     2.7620617901
H       16.1828491486     0.0601600225     5.5312607646
32
# Point -1 Energy = 0.0
C       20.6402367743     3.6378005657     7.5157049619
H       18.9667754008     3.5850929545     6.1519443933
C       19.4502289088     2.9504130814     6.9041728257
H       18.6813760550     2.7208945400     7.6533317043
H       20.5871741037     1.8393747574     5.4587698310
C       19.8207302254     1.6135014962     6.2088989265
H       18.9246119483     1.1854298202     5.7471368503
H       20.2439063317     0.9537232035     6.9726021885
H       21.4277410466     3.8938999593     6.7960615575
H       21.1368125881     3.0671888696     8.3074636920
H       20.3975425590     4.5884168290     8.0043387471
Si       16.4314758017     3.4051396288     4.3945164273
O       16.3155723666     4.9950712538     4.7389274051
O       17.9376800189     3.0699603648     3.8456684522
O       15.3746531553     2.9955060749     3.2117672813
O       16.1017301773     2.5699673226     5.7583967033
Si       16.5058581622     6.5940348979     4.4022569126
Si       13.9564321745     2.5622054990     2.4974035436
Si       18.8360780198     2.5325873782     2.5705273601
Si       15.7421322112     1.1270429060     6.4702555111
H       17.8934636448     6.8537333151     3.9069419632
H       15.5527699629     6.9614241927     3.2992151196
H       16.2748749728     7.4733183100     5.6148402666
H       12.8218393656     3.3092343507     3.0924249838
H       13.9509719625     2.8605976213     1.0316259597
H       18.4415221884     3.3175036174     1.3686689564
H       13.7062695407     1.1015362579     2.6975402961
H       18.5372800443     1.0912495436     2.3146289653
H       16.4312425440     0.8969674372     7.7924200954
H       14.2613845011     0.9790733071     6.6969855862
H       20.3312925027     2.6779445513     2.7665351082
H       16.1863213411     0.0634680928     5.5351927847
32
# Point 0 Energy = 0
C       20.6477110000     3.6549790000     7.5266840000
H       18.9761800000     3.6157410000     6.1694560000
C       19.4467280000     2.9484220000     6.9016430000
H       18.6922510000     2.7558520000     7.6754250000
H       20.5840390000     1.7980300000     5.4478400000
C       19.8234060000     1.6330100000     6.2209870000
H       18.9571360000     1.1573250000     5.7446630000
H       20.2404540000     0.9200090000     6.9405780000
H       21.4074060000     3.8754920000     6.7676150000
H       21.1161610000     3.0334640000     8.2953550000
H       20.3536290000     4.6012450000     7.9917750000
Si       16.4325060000     3.4077350000     4.3962220000
O       16.3148940000     4.9974300000     4.7394840000
O       17.9393640000     3.0735620000     3.8486780000
O       15.3769370000     2.9960700000     3.2133680000
O       16.1030250000     2.5730330000     5.7606000000
Si       16.5037570000     6.5966350000     4.4017980000
Si       13.9593780000     2.5607940000     2.4984440000
Si       18.8391290000     2.5361430000     2.5740860000
Si       15.7443760000     1.1302530000     6.4733110000
H       17.8913405600     6.8573308000     3.9070238400
H       15.5508605600     6.9622108000     3.2979838400
H       16.2712205600     7.4764908000     5.6136238400
H       12.8237502400     3.3071035200     3.0923555200
H       13.9544302400     2.8581435200     1.0324755200
H       18.4443303200     3.3198514400     1.3715668800
H       13.7106302400     1.1000235200     2.6995155200
H       18.5418503200     1.0943714400     2.3191668800
H       16.4331100800     0.9018602400     7.7959848800
H       14.2637500800     0.9809802400     6.6993448800
H       20.3340103200     2.6832114400     2.7708868800
H       16.1902300800     0.0665002400     5.5392248800
32
# Point 1 Energy = 0.0
C       20.6554253199     3.6720449159     7.5379822462
H       18.9863530383     3.6461880475     6.1892186020
C       19.4438514392     2.9461672651     6.8990978082
H       18.7051871158     2.7908231566     7.6961582850
H       20.5777351095     1.7603273770     5.4393144230
C       19.8253688891     1.6525508532     6.2319580099
H       18.9898086402     1.1324911346     5.7430251652
H       20.2350907249     0.8911784058     6.9065213945
H       21.3825357401     3.8545015555     6.7390573246
H       21.0926856711     2.9987967918     8.2793583539
H       20.3091740486     4.6108123298     7.9783474746
Si       16.4340356237     3.4101180636     4.3980832243
O       16.3147904195     4.9995822128     4.7401834983
O       17.9415011811     3.0768919621     3.8517575934