32
# Point -15 Energy = 0.0
C       20.6452932631     3.6343940823     7.5175045341
H       18.5080875767     4.3142624688     5.3639287404
C       19.4477535174     2.8624262679     7.0282748182
H       19.2164229986     2.8194494340     7.2410169256
H       20.3686527541     1.7540979566     5.6681000294
C       19.8311653058     1.6506459163     6.2122462485
H       18.8654772396     1.1072152588     5.7101523322
H       20.3523949390     0.7048577951     7.1653232105
H       21.3060066073     3.8243525057     6.8742146086
H       21.2392375101     2.8268937016     8.5143162433
H       20.3388961373     4.6490756189     8.0480058059
Si       16.4373553026     3.3988423138     4.4132290291
O       16.3177228999     4.9870668395     4.7625855585
O       17.9460843941     3.0690727416     3.8679336439
O       15.3844022411     2.9908021858     3.2272888492
O       16.1070565409     2.5587879177     5.7735726151
Si       16.5051707765     6.5879405794     4.4313064859
Si       13.9682329756     2.5566962508     2.5084249058
Si       18.8486982076     2.5375103967     2.5918398046
Si       15.7485921792     1.1123409724     6.4803348598
H       17.8933598337     6.8520316383     3.9399822110
H       15.5538187909     6.9566359865     3.3272981120
H       16.2695919582     7.4627471145     5.6461580314
H       12.8309181452     3.2994098734     3.1035794271
H       13.9652032480     2.8598443772     1.0436552931
H       18.4548202771     3.3255450706     1.3918443790
H       13.7208659008     1.0948888432     2.7033775466
H       18.5535781274     1.0964831086     2.3308580904
H       16.4352688659     0.8796455439     7.8031245220
H       14.2677132477     0.9605639854     6.7030532298
H       20.3428742180     2.6858535705     2.7919673987
H       16.1972646207     0.0529216843     5.5426678704
32
# Point -14 Energy = 0.0
C       20.6457145786     3.6361932025     7.5184571493
H       18.5362674607     4.2676904912     5.4194286587
C       19.4479622464     2.8679664748     7.0196950525
H       19.1795548519     2.8169862198     7.2680873975
H       20.3839118007     1.7559847442     5.6532289683
C       19.8312558980     1.6488126687     6.2124402652
H       18.8722439499     1.1099660742     5.7118451258
H       20.3459653827     0.7189240935     7.1501169921
H       21.3133845518     3.8282238637     6.8678180825
H       21.2312934952     2.8411743880     8.5001297187
H       20.3395281003     4.6462543138     8.0444096917
Si       16.4370875772     3.3993885240     4.4120997337
O       16.3177065458     4.9877143110     4.7610790646
O       17.9456489152     3.0692161243     3.8666000129
O       15.3839131014     2.9911888735     3.2263780107
O       16.1068274666     2.5596978652     5.7727137323
Si       16.5053450420     6.5884703990     4.4293921186
Si       13.9676102746     2.5571055870     2.5077957427
Si       18.8479899174     2.5372090527     2.5905692352
Si       15.7482726616     1.1135114375     6.4798679143
H       17.8934961332     6.8522511027     3.9377980395
H       15.5538800295     6.9570383558     3.3254319031
H       16.2700652360     7.4636104719     5.6440639291
H       12.8304668055     3.3001271539     3.1028956654
H       13.9644478986     2.8598839788     1.0429488735
H       18.4540721238     3.3250006990     1.3904276197
H       13.7200581009     1.0953805673     2.7031440649
H       18.5526060148     1.0961572966     2.3299835040
H       16.4351115959     0.8810406028     7.8026264268
H       14.2674068259     0.9620006084     6.7028521241
H       20.3422311938     2.6853501040     2.7904275566
H       16.1966548241     0.0537823503     5.5424129861
32
# Point -13 Energy = 0.0
C       20.6460953872     3.6379355680     7.5193583822
H       18.5648962133     4.2211200030     5.4746817361
C       19.4481342599     2.8735321287     7.0111339817
H       19.1429212791     2.8142744071     7.2954043376
H       20.3990543670     1.7580230442     5.6383924607
C       19.8312602692     1.6470735560     6.2126864586
H       18.8789178072     1.1128041260     5.7136189633
H       20.3393892840     0.7330173180     7.1349252606
H       21.3206746587     3.8320321229     6.8613200351
H       21.2233178834     2.8553940406     8.4858825490
H       20.3402091198     4.6433870130     8.0407833340
Si       16.4368124610     3.3999400424     4.4109719413
O       16.3176659682     4.9883663265     4.7595711838
O       17.9452117432     3.0693813265     3.8652740575
O       15.3834222132     2.9915697446     3.2254675962
O       16.1065948355     2.5606110343     5.7718558445
Si       16.5054805078     6.5890059727     4.4274746042
Si       13.9669910883     2.5574948678     2.5071653656
Si       18.8472907379     2.5369385293     2.5893104376
Si       15.7479618927     1.1146822061     6.4794019159
H       17.8935927120     6.8524891097     3.9356153189
H       15.5539027604     6.9574355142     3.3235586642
H       16.2704868594     7.4644790375     5.6419643943
H       12.8300109728     3.3008138413     3.1022083388
H       13.9636951601     2.8599022402     1.0422410862
H       18.4533286229     3.3244814229     1.3890204074
H       13.7192677467     1.0958501305     2.7029102675
H       18.5516603865     1.0958588262     2.3291210889
H       16.4349608099     0.8824440875     7.8021318225
H       14.2671099834     0.9634227450     6.7026468205
H       20.3415947728     2.6848945211     2.7889050215
H       16.1960678368     0.0546471464     5.5421616837
32
# Point -12 Energy = 0.0
C       20.6464365348     3.6396201726     7.5202089159
H       18.5939704649     4.1745511639     5.5296855748
C       19.4482688146     2.8791236953     7.0025917790
H       19.1065313425     2.8113124321     7.3229736864
H       20.4140781187     1.7602127598     5.6235888023
C       19.8311786301     1.6454285231     6.2129855249
H       18.8854991773     1.1157285197     5.7154749480
H       20.3326667112     0.7471406838     7.1197523127
H       21.3278769259     3.8357764105     6.8547204593
H       21.2153090965     2.8695495570     8.4715751313
H       20.3409395701     4.6404722065     8.0371287992
Si       16.4365297441     3.4004971834     4.4098451287
O       16.3176010204     4.9890232750     4.7580610997
O       17.9447727620     3.0695684323     3.8639556065
O       15.3829295950     2.9919449841     3.2245569254
O       16.1063580807     2.5615279983     5.7709985032
Si       16.5055772345     6.5895476204     4.4255528935
Si       13.9663755542     2.5578642631     2.5065328627
Si       18.8466007715     2.5366986068     2.5880635063
Si       15.7476590304     1.1158539998     6.4789365864
H       17.8936497627     6.8527457775     3.9334332343
H       15.5538872995     6.9578276690     3.3216770918
H       16.2708567100     7.4653533653     5.6398581827
H       12.8295507069     3.3014703061     3.1015161585
H       13.9629455229     2.8598990704     1.0415309659
H       18.4525901922     3.3239868521     1.3876226262
H       13.7184948118     1.0962977529     2.7026754445
H       18.5507412663     1.0955874526     2.3282711228
H       16.4348153743     0.8838568898     7.8016406086
H       14.2668218103     0.9648312797     6.7024367689
H       20.3409650407     2.6844865060     2.7874001582
H       16.1955029227     0.0555165909     5.5419139512
32
# Point -11 Energy = 0.0
C       20.6467388451     3.6412460097     7.5210094268
H       18.6234866886     4.1279840187     5.5844378020
C       19.4483651957     2.8847416521     6.9940686273
H       19.0703941668     2.8080988576     7.3508012013
H       20.4289805889     1.7625536324     5.6088162733
C       19.8310110810     1.6438775160     6.2133381911
H       18.8919882428     1.1187384254     5.7174142743
H       20.3257976364     0.7612973152     7.1046023609
H       21.3349913279     3.8394559073     6.8480193760
H       21.2072656435     2.8836379398     8.4572078811
H       20.3417197826     4.6375083741     8.0334481363
Si       16.4362392430     3.4010602628     4.4087187777
O       16.3175115734     4.9896855455     4.7565480001
O       17.9443318845     3.0697775341     3.8626444982
O       15.3824352966     2.9923147738     3.2236453204
O       16.1061166621     2.5624493318     5.7701412643
Si       16.5056352935     6.5900956621     4.4236259409
Si       13.9657638457     2.5582139325     2.5058973211
Si       18.8459201550     2.5364890786     2.5868285488
Si       15.7473632646     1.1170275405     6.4784716518
H       17.8936674887     6.8530212313     3.9312509786
H       15.5538339755     6.9582150224     3.3197858834
H       16.2711746735     7.4662340085     5.6377440527
H       12.8290860990     3.3020969024     3.1008178312
H       13.9621995158     2.8598743674     1.0408175464
H       18.4518572834     3.3235166067     1.3862341718
H       13.7177393120     1.0967236441     2.7024388846
H       18.5498487201     1.0953429434     2.3274338956
H       16.4346741849     0.8852799056     7.8011526912
H       14.2665414291     0.9662270901     6.7022214192
H       20.3403421153     2.6841257636     2.7859133486
H       16.1949593851     0.0563912046     5.5416697832
32
# Point -10 Energy = 0.0
C       20.6470031184     3.6428120770     7.5217605794
H       18.6534412038     4.0814184931     5.6389360714
C       19.4484227168     2.8903864859     6.9855647225
H       19.0345189392     2.8046323735     7.3788924599
H       20.4437591676     1.7650452366     5.5940731295
C       19.8307576073     1.6424204828     6.2137452129
H       18.8983849980     1.1218330803     5.7194382218
H       20.3187819310     0.7754902411     7.0894795272
H       21.3420178111     3.8430698532     6.8412168246
H       21.1991861223     2.8976563084     8.4427812321
H       20.3425500430     4.6344939910     8.0297433680
Si       16.4359408015     3.4016295969     4.4075923775
O       16.3173975172     4.9903535262     4.7550310797
O       17.9438890535     3.0700087325     3.8613405835
O       15.3819394009     2.9926792909     3.2227321070
O       16.1058700661     2.5633756084     5.7692836900
Si       16.5056547688     6.5906504170     4.4216927085
Si       13.9651561739     2.5585440248     2.5052578269
Si       18.8452490615     2.5363097510     2.5856056877
Si       15.7470738163     1.1182035480     6.4780068431
H       17.8936461058     6.8533156018     3.9290677562
H       15.5537431312     6.9585977713     3.3178837410
H       16.2714406397     7.4671215175     5.6356207689
H       12.8286172727     3.3026939681     3.1001120588
H       13.9614577084     2.8598280186     1.0400998605
H       18.4511303849     3.3230703175     1.3848549538
H       13.7170013068     1.0971280025     2.7021998748
H       18.5489828576     1.0951250783     2.3266097122
H       16.4345361653     0.8867140325     7.8006679833
H       14.2662679938     0.9676110452     6.7020002216
H       20.3397261492     2.6838120185     2.7844449947
H       16.1944365663     0.0572715093     5.5414291808
32
# Point -9 Energy = 0.0
C       20.6472301302     3.6443173814     7.5224630206
H       18.6838301813     4.0348543892     5.6931780642
C       19.4484407191     2.8960586906     6.9770802765
H       18.9989149147     2.8009117942     7.4072528668
H       20.4584110935     1.7676869758     5.5793575935
C       19.8304180757     1.6410573748     6.2142073725
H       18.9046892461     1.1250117916     5.7215481507
H       20.3116193623     0.7897223922     7.0743878396
H       21.3489562893     3.8466175538     6.8343128547
H       21.1910692197     2.9116019118     8.4282956352
H       20.3434305882     4.6314275342     8.0260164798
Si       16.4356342913     3.4022055016     4.4064654263
O       16.3172587610     4.9910276030     4.7535095420
O       17.9434442430     3.0702621353     3.8600437280
O       15.3814420254     2.9930387083     3.2218166163
O       16.1056178063     2.5643073995     5.7684253500
Si       16.5056357577     6.5912122026     4.4197521684
Si       13.9645527893     2.5588546788     2.5046134658
Si       18.8445877021     2.5361604425     2.5843950641
Si       15.7467899375     1.1193827389     6.4775418973
H       17.8935858435     6.8536290248     3.9268827877
H       15.5536151260     6.9589761068     3.3159693733
H       16.2716545035     7.4680164393     5.6334871056
H       12.8281443857     3.3032618249     3.0993975390
H       13.9607207142     2.8597599015     1.0393769412
H       18.4504100241     3.3226476259     1.3834848992
H       13.7162809007     1.0975110158     2.7019576998
H       18.5481438340     1.0949336493     2.3257988942
H       16.4344002661     0.8881601672     7.8001864062
H       14.2660006896     0.9689840033     6.7017726265
H       20.3391173310     2.6835450148     2.7829955227
H       16.1939338477     0.0581580261     5.5411921524
32
# Point -8 Energy = 0.0
C       20.6474206306     3.6457609446     7.5231173736
H       18.7146496471     3.9882913800     5.7471614897
C       19.4484185704     2.9017587648     6.9686155206
H       18.9635914218     2.7969360529     7.4358876625
H       20.4729334452     1.7704780776     5.5646678464
C       19.8299922316     1.6397881471     6.2147254757
H       18.9109005967     1.1282739386     5.7237454955
H       20.3043095901     0.8039965981     7.0593312275
H       21.3558066388     3.8500983865     6.8273075167
H       21.1829137115     2.9254721410     8.4137515582
H       20.3443616033     4.6283074893     8.0222694098
Si       16.4353196127     3.4027882912     4.4053374334
O       16.3170952342     4.9917081592     4.7519826021
O       17.9429974589     3.0705378564     3.8587538146
O       15.3809433233     2.9933931941     3.2208981852
O       16.1053594225     2.5652452731     5.7675658225
Si       16.5055783721     6.5917813338     4.4178033063
Si       13.9639539833     2.5591460226     2.5039633230
Si       18.8439363274     2.5360409839     2.5831968404
Si       15.7465109099     1.1205658245     6.4770765570
H       17.8934869464     6.8539616401     3.9246953132
H       15.5534503369     6.9593502136     3.3140414990
H       16.2718161648     7.4689193153     5.6313418502
H       12.8276676312     3.3038007780     3.0986729641
H       13.9599891925     2.8596698848     1.0386478208
H       18.4496967700     3.3222481841     1.3821239550
H       13.7155782451     1.0978728606     2.7017116413
H       18.5473318522     1.0947684598     2.3250017821
H       16.4342654624     0.8896192035     7.7997078897
H       14.2657387316     0.9703468109     6.7015380833
H       20.3385158865     2.6833245150     2.7815653866
H       16.1934506490     0.0590512747     5.5409587140
32
# Point -7 Energy = 0.0
C       20.6475753429     3.6471418083     7.5237242330
H       18.7458954861     3.9417290052     5.8008840864
C       19.4483556636     2.9074872099     6.9601707091
H       18.9285578691     2.7927041974     7.4648019317
H       20.4873231339     1.7734175896     5.5500020192
C       19.8294796959     1.6386127588     6.2153003502
H       18.9170184644     1.1316189744     5.7260317590
H       20.2968521640     0.8183155851     7.0443135186
H       21.3625686942     3.8535118071     6.8202008530
H       21.1747184609     2.9392645417     8.3991494853
H       20.3453432180     4.6251323576     8.0185040382
Si       16.4349966950     3.4033782780     4.4042079205
O       16.3169068871     4.9923955737     4.7504494890
O       17.9425487398     3.0708360150     3.8574707463
O       15.3804434847     2.9937429115     3.2199761575
O       16.1050944804     2.5661897918     5.7667046957
Si       16.5054827390     6.5923581220     4.4158451248
Si       13.9633600900     2.5594181748     2.5033064829
Si       18.8432952291     2.5359512172     2.5820112026
Si       15.7462360441     1.1217535091     6.4766105715
H       17.8933496757     6.8543135908     3.9225045970
H       15.5532491605     6.9597202703     3.3120988490
H       16.2719255296     7.4698306804     5.6291838059
H       12.8271872393     3.3043111170     3.0979370212
H       13.9592638515     2.8595578291     1.0379115320
H       18.4489912351     3.3218716552     1.3807720914
H       13.7148935386     1.0982137031     2.7014609772
H       18.5465471631     1.0946293248     2.3242187372
H       16.4341307526     0.8910920296     7.7992323734
H       14.2654813635     0.9717003004     6.7012960404
H       20.3379220807     2.6831502996     2.7801550720
H       16.1929864277     0.0599517714     5.5407288889
32
# Point -6 Energy = 0.0
C       20.6476949627     3.6484590406     7.5242841595
H       18.7775634464     3.8951666656     5.8543436217
C       19.4482514165     2.9132445266     6.9517461219
H       18.8938237519     2.7882153844     7.4940006125
H       20.5015768965     1.7765043753     5.5353581853
C       19.8288799633     1.6375311738     6.2159328427
H       18.9230420679     1.1350464272     5.7284085066
H       20.2892465209     0.8326819745     7.0293384366
H       21.3692422430     3.8568573563     6.8129928894
H       21.1664824175     2.9529768264     8.3844899164
H       20.3463755032     4.6219006633     8.0147221772
Si       16.4346654972     3.4039757709     4.4030764236
O       16.3166936909     4.9930902206     4.7489094475
O       17.9420981580     3.0711567348     3.8561944479
O       15.3799427375     2.9940880183     3.2190498848
O       16.1048225712     2.5671415118     5.7658415688
Si       16.5053490026     6.5929428740     4.4138766456
Si       13.9627714872     2.5596712442     2.5026420292
Si       18.8426647411     2.5358909954     2.5808383635
Si       15.7459646778     1.1229464886     6.4761436967
H       17.8931743105     6.8546850220     3.9203099311
H       15.5530120154     6.9600864486     3.3101401694
H       16.2719825102     7.4707510614     5.6270117960
H       12.8267034776     3.3047931155     3.0971883917
H       13.9585454499     2.8594235882     1.0371671070
H       18.4482940782     3.3215177134     1.3794293042
H       13.7142270286     1.0985336993     2.7012049807
H       18.5457900678     1.0945160698     2.3234501436
H       16.4339951557     0.8925795260     7.7987598064
H       14.2652278559     0.9730452894     6.7010459446
H       20.3373362187     2.6830221656     2.7787650994
H       16.1925406780     0.0608600279     5.5405027085
32
# Point -5 Energy = 0.0
C       20.6477801567     3.6497117427     7.5247976748
H       18.8096491424     3.8486036180     5.9075378923
C       19.4481052695     2.9190312130     6.9433420679
H       18.8593986590     2.7834688747     7.5234885044
H       20.5156912896     1.7797371103     5.5207343525
C       19.8281924008     1.6365433607     6.2166238172
H       18.9289704307     1.1385559009     5.7308773596
H       20.2814919827     0.8470982809     7.0144095984
H       21.3758270213     3.8601346661     6.8056836264
H       21.1582046151     2.9666068862     8.3697733676
H       20.3474584675     4.6186109621     8.0109255603
Si       16.4343260083     3.4045810747     4.4019424948
O       16.3164556390     4.9937924675     4.7473617408
O       17.9416458197     3.0715001428     3.8549248692
O       15.3794413488     2.9944286672     3.2181187275
O       16.1045433109     2.5681009814     5.7649760529
Si       16.5051773248     6.5935358915     4.4118969137
Si       13.9621885980     2.5599053310     2.5019690447
Si       18.8420452412     2.5358601815     2.5796785650
Si       15.7456961749     1.1241454485     6.4756756955
H       17.8929611499     6.8550760802     3.9181106394
H       15.5527393435     6.9604489133     3.3081642242
H       16.2719870263     7.4716809758     5.6248246663
H       12.8262166533     3.3052470324     3.0964257504
H       13.9578347997     2.8592670098     1.0364135782
H       18.4476060062     3.3211860433     1.3780956180
H       13.7135790117     1.0988329955     2.7009429195
H       18.5450609179     1.0944285308     2.3226964101
H       16.4338577090     0.8940825625     7.7982901487
H       14.2649775052     0.9743825789     6.7007872400
H       20.3367586470     2.6829399257     2.7773960282
H       16.1921129296     0.0617765501     5.5402802116
32
# Point -4 Energy = 0.0
C       20.6478315615     3.6508990549     7.5252652571
H       18.8421480587     3.8020389695     5.9604647243
C       19.4479166852     2.9248477612     6.9349588884
H       18.8252922786     2.7784640285     7.5532702764
H       20.5296626840     1.7831142782     5.5061284564
C       19.8274162463     1.6356492920     6.2173741521
H       18.9348023818     1.1421470755     5.7334399887
H       20.2735877550     0.8615669117     6.9995305131
H       21.3823227092     3.8633434667     6.7982730312
H       21.1498841687     2.9801528029     8.3550003699
H       20.3485920532     4.6152618482     8.0071158326
Si       16.4339782474     3.4051944889     4.4008057034
O       16.3161927473     4.9945026751     4.7458056525
O       17.9411918657     3.0718663677     3.8536619867
O       15.3789396253     2.9947650053     3.2171820553
O       16.1042563394     2.5690687392     5.7641077722
Si       16.5049678870     6.5941374695     4.4099049994
Si       13.9616118919     2.5601205270     2.5012866113
Si       18.8414371517     2.5358586477     2.5785320812
Si       15.7454299231     1.1253510622     6.4752063378
H       17.8927105142     6.8554869115     3.9159060815
H       15.5524316128     6.9608078224     3.3061697976
H       16.2719390058     7.4726209300     5.6226212886
H       12.8257271133     3.3056731123     3.0956477653
H       13.9571327683     2.8590879377     1.0356499778
H       18.4469277764     3.3208763404     1.3767710886
H       13.7129498343     1.0991117291     2.7006740545
H       18.5443601167     1.0943665533     2.3219579723
H       16.4337174658     0.8956019965     7.7978233710
H       14.2647296311     0.9757129520     6.7005193674
H       20.3361897542     2.6829034065     2.7760484603
H       16.1917027460     0.0627018364     5.5400614450
32
# Point -3 Energy = 0.0
C       20.6478497828     3.6520201642     7.5256873366
H       18.8750555528     3.7554716718     6.0131219727
C       19.4476851462     2.9306946542     6.9265969599
H       18.7915144048     2.7732003004     7.5833504745
H       20.5434872607     1.7866341675     5.4915383537
C       19.8265506092     1.6348489447     6.2181847383
H       18.9405365583     1.1458197068     5.7360981074
H       20.2655329263     0.8760901661     6.9847045808
H       21.3887289258     3.8664835930     6.7907610299
H       21.1415202713     2.9936128605     8.3401714701
H       20.3497761330     4.6118519637     8.0032945406
Si       16.4336222642     3.4058163073     4.3996656379
O       16.3159050549     4.9952211958     4.7442404891
O       17.9407364722     3.0722555396     3.8524058062
O       15.3784379145     2.9950971746     3.2162392483
O       16.1039613196     2.5700453130     5.7632363650
Si       16.5047208912     6.5947478958     4.4079000019
Si       13.9610418858     2.5603169163     2.5005938093
Si       18.8408409409     2.5358862744     2.5773992205
Si       15.7451653327     1.1265639895     6.4747354006
H       17.8924227473     6.8559176609     3.9136956568
H       15.5520893194     6.9611633265     3.3041556969
H       16.2718383856     7.4735714183     5.6204005643
H       12.8252352458     3.3060715864     3.0948530970
H       13.9564402804     2.8588862124     1.0348753375
H       18.4462601984     3.3205883102     1.3754558060
H       13.7123398931     1.0993700291     2.7003976392
H       18.5436881195     1.0943299918     2.3212352936
H       16.4335734923     0.8971386696     7.7973594557
H       14.2644835749     0.9770371724     6.7002417637
H       20.3356299727     2.6829124471     2.7747230430
H       16.1913097232     0.0636363763     5.5398464631
32
# Point -2 Energy = 0.0
C       20.6478353942     3.6530743117     7.5260642919
H       18.9083668582     3.7089005153     6.0655075205
C       19.4474101547     2.9365723630     6.9182566970
H       18.7580749429     2.7676772345     7.6137335287
H       20.5571610073     1.7902948684     5.4769618163
C       19.8255944701     1.6341422986     6.2190564772
H       18.9461714081     1.1495736253     5.7388534649
H       20.2573264677     0.8906702352     6.9699350925
H       21.3950452249     3.8695549912     6.7831474996
H       21.1331121902     3.0069855558     8.3252872303
H       20.3510105056     4.6083800068     7.9994631228
Si       16.4332581390     3.4064468164     4.3985219073
O       16.3155926246     4.9959483723     4.7426655813
O       17.9402798505     3.0726677876     3.8511563648
O       15.3779366050     2.9954253111     3.2152896972
O       16.1036579366     2.5710312181     5.7623614844
Si       16.5044365619     6.5953674500     4.4058810520
Si       13.9604791449     2.5604945769     2.4998897173
Si       18.8402571235     2.5359429491     2.5762803282
Si       15.7449018342     1.1277848750     6.4742626685
H       17.8920982180     6.8563684705     3.9114788081
H       15.5517129896     6.9615155689     3.3021207548
H       16.2716851132     7.4745329209     5.6181614269
H       12.8247414809     3.3064426738     3.0940403979
H       13.9557583198     2.8586616732     1.0340886886
H       18.4456041362     3.3203216681     1.3741498967
H       13.7117496354     1.0996080173     2.7001129183
H       18.5430454344     1.0943187084     2.3205288677
H       16.4334248652     0.8986934058     7.7968983965
H       14.2642386971     0.9783559837     6.6999538607
H       20.3350797786     2.6829668976     2.7734204732
H       16.1909334874     0.0645806494     5.5396353277
32
# Point -1 Energy = 0.0
C       20.6477889355     3.6540608000     7.5263964464
H       18.9420770947     3.6623241228     6.1176192738
C       19.4470912298     2.9424813434     6.9099385559
H       18.7249839161     2.7618944595     7.6444237600
H       20.5706797160     1.7940942703     5.4623965265
C       19.8245466819     1.6335293363     6.2199902785
H       18.9517051949     1.1534087350     5.7417078398
H       20.2489672333     0.9053092032     6.9552252304
H       21.4012710899     3.8725577257     6.7754322624
H       21.1246592618     3.0202696091     8.3103482285
H       20.3522948917     4.6048447407     7.9956229007
Si       16.4328859825     3.4070862948     4.3973741425
O       16.3152555434     4.9966845374     4.7410802872
O       17.9398222472     3.0731032393     3.8499137332
O       15.3774361271     2.9957495458     3.2143328046
O       16.1033458960     2.5720269560     5.7614827992
Si       16.5041151467     6.5959964022     4.4038473147
Si       13.9599242833     2.5606535807     2.4991734120
Si       18.8396862613     2.5360285654     2.5751757892
Si       15.7446388759     1.1290143463     6.4737879330
H       17.8917373219     6.8568394788     3.9092550254
H       15.5513031822     6.9618646856     3.3000638320
H       16.2714791471     7.4755059030     5.6159028456
H       12.8242462914     3.3067865824     3.0932083114
H       13.9550879311     2.8584141594     1.0332890619
H       18.4449605093     3.3200761391     1.3728535267
H       13.7111795585     1.0998258090     2.6998191264
H       18.5424326218     1.0943325725     2.3198392200
H       16.4332706674     0.9002670086     7.7964401993
H       14.2639943749     0.9796701079     6.6996550846
H       20.3345396925     2.6830666166     2.7721415001
H       16.1905736928     0.0655351233     5.5394281082
32
# Point 0 Energy = 0
C       20.6477110000     3.6549790000     7.5266840000
H       18.9761800000     3.6157410000     6.1694560000
C       19.4467280000     2.9484220000     6.9016430000
H       18.6922510000     2.7558520000     7.6754250000
H       20.5840390000     1.7980300000     5.4478400000
C       19.8234060000     1.6330100000     6.2209870000
H       18.9571360000     1.1573250000     5.7446630000
H       20.2404540000     0.9200090000     6.9405780000
H       21.4074060000     3.8754920000     6.7676150000
H       21.1161610000     3.0334640000     8.2953550000
H       20.3536290000     4.6012450000     7.9917750000
Si       16.4325060000     3.4077350000     4.3962220000
O       16.3148940000     4.9974300000     4.7394840000
O       17.9393640000     3.0735620000     3.8486780000
O       15.3769370000     2.9960700000     3.2133680000
O       16.1030250000     2.5730330000     5.7606000000
Si       16.5037570000     6.5966350000     4.4017980000
Si       13.9593780000     2.5607940000     2.4984440000
Si       18.8391290000     2.5361430000     2.5740860000
Si       15.7443760000     1.1302530000     6.4733110000
H       17.8913405600     6.8573308000     3.9070238400
H       15.5508605600     6.9622108000     3.2979838400
H       16.2712205600     7.4764908000     5.6136238400
H       12.8237502400     3.3071035200     3.0923555200
H       13.9544302400     2.8581435200     1.0324755200
H       18.4443303200     3.3198514400     1.3715668800
H       13.7106302400     1.1000235200     2.6995155200
H       18.5418503200     1.0943714400     2.3191668800
H       16.4331100800     0.9018602400     7.7959848800
H       14.2637500800     0.9809802400     6.6993448800
H       20.3340103200     2.6832114400     2.7708868800
H       16.1902300800     0.0665002400     5.5392248800
32
# Point 1 Energy = 0.0
C       20.6476020810     3.6558280208     7.5269274263
H       19.0106717220     3.5691496078     6.2210147842
C       19.4463199087     2.9543949409     6.8933704944
H       18.6598868865     2.7495494716     7.7067416023
H       20.5972346062     1.8020997999     5.4332901140
C       19.8221712309     1.6325844067     6.2220477771
H       18.9624620880     1.1613225017     5.7477207991
H       20.2317855151     0.9347716758     6.9259966748
H       21.4134494311     3.8783576571     6.7596957570
H       21.1076166233     3.0465673285     8.2803083799
H       20.3550125899     4.5975793759     7.9879208433
Si       16.4321182305     3.4083932471     4.3950650836
O       16.3145079610     4.9981851287     4.7378760271
O       17.9389052996     3.0740442704     3.8474492337