32
# Point -15 Energy = 0.0
C       20.8215692602     3.8976521108     7.7188051729
H       18.6308306856     3.8031376830     6.1982752310
C       19.0558065834     3.0970538944     6.9180430800
H       18.2952773312     2.9305162944     7.6922517082
H       20.6921129381     1.8015808001     5.6119208201
C       19.7971135154     1.3171962633     6.0338982405
H       19.6274846693     0.3995211294     5.4489052621
H       20.3671138912     0.9927384026     6.9194581350
H       21.4629370377     3.7749662378     6.8316688293
H       21.1826997218     3.0015625865     8.2416772065
H       21.2090803827     4.7683440309     8.2656934828
Si       16.3815800158     3.4208914566     4.3874779898
O       16.2638378513     5.0118142721     4.7249971848
O       17.9027553888     3.0828826689     3.8596742816
O       15.3410294121     3.0019893100     3.1929088805
O       16.0461992314     2.5883895101     5.7547824162
Si       16.4527507968     6.6055166616     4.3847932432
Si       13.9353736959     2.5662492610     2.4656283447
Si       18.8102419485     2.5394844146     2.5892134298
Si       15.6775397828     1.1473614073     6.4680005169
H       17.8451441023     6.8680150962     3.9021188099
H       15.5104352263     6.9684335956     3.2705966902
H       16.2082384280     7.4905519118     5.5913824646
H       12.7915763794     3.3134501779     3.0440718022
H       13.9453541224     2.8594363867     0.9981564608
H       18.4258154164     3.3211796227     1.3828565989
H       13.6832475003     1.1055695249     2.6668963058
H       18.5154792015     1.0989845746     2.3388853231
H       16.3555262052     0.9269833363     7.7982973442
H       14.1966378984     0.9997900195     6.6807554129
H       20.3024936504     2.6902909082     2.8021287742
H       16.1346983296     0.0817684505     5.5429459170
32
# Point -14 Energy = 0.0
C       20.8089384582     3.8844969809     7.7075373440
H       18.6538724225     3.7912653644     6.1973814671
C       19.0815556850     3.0876007554     6.9181733078
H       18.3215967315     2.9193695690     7.6925550550
H       20.6883669605     1.7998343933     5.5978931797
C       19.7948867443     1.3373126120     6.0460060053
H       19.5725987973     0.4335130744     5.4576051254
H       20.3602726282     0.9837288522     6.9227913666
H       21.4623544428     3.7834965559     6.8269150366
H       21.1812127564     3.0041581136     8.2483890020
H       21.1545701790     4.7719358230     8.2550191350
Si       16.3850955483     3.4201406299     4.3878956233
O       16.2673305100     5.0109806785     4.7257941502
O       17.9053279796     3.0824916571     3.8587101466
O       15.3434017026     3.0016088108     3.1942599521
O       16.0502012563     2.5873844746     5.7549632323
Si       16.4561850073     6.6050534659     4.3857429074
Si       13.9368784717     2.5657739279     2.4680101786
Si       18.8122928437     2.5395693331     2.5879333756
Si       15.6823081125     1.1461724125     6.4680673220
H       17.8482374293     6.8674647947     3.9022104441
H       15.5131121869     6.9681179417     3.2722664109
H       16.2124886249     7.4897439045     5.5926895148
H       12.7936467170     3.3128501319     3.0476267290
H       13.9456337342     2.8591938884     1.0006230705
H       18.4270848081     3.3213934017     1.3818544229
H       13.6851138269     1.1050757616     2.6693474831
H       18.5174473583     1.0989690302     2.3372865148
H       16.3610740997     0.9252024532     7.7978197580
H       14.2014361665     0.9984000914     6.6817525857
H       20.3047231554     2.6902161070     2.7997287414
H       16.1387352553     0.0807870095     5.5423167724
32
# Point -13 Energy = 0.0
C       20.7964970002     3.8709123459     7.6960298375
H       18.6769457501     3.7792767302     6.1963372926
C       19.1074016857     3.0780663025     6.9181285093
H       18.3479991690     2.9081328605     7.6926637215
H       20.6840914210     1.7981302913     5.5841692740
C       19.7932675067     1.3575646356     6.0581886287
H       19.5183974106     0.4700016531     5.4678305381
H       20.3532226570     0.9751387326     6.9257610222
H       21.4614251803     3.7918583071     6.8222425362
H       21.1794297254     3.0067959520     8.2546792302
H       21.0993380749     4.7736457303     8.2432906974
Si       16.3886286671     3.4193644126     4.3883462331
O       16.2708456179     5.0101207082     4.7266299750
O       17.9079140481     3.0820632367     3.8577799065
O       15.3458067446     3.0012201156     3.1956266514
O       16.0542148770     2.5863642751     5.7551815507
Si       16.4596465180     6.6045645699     4.3867374763
Si       13.9384239220     2.5653076820     2.4703842573
Si       18.8143523331     2.5396105322     2.5866868666
Si       15.6870785483     1.1449750527     6.4681796036
H       17.8513582925     6.8668866774     3.9023482843
H       15.5158181089     6.9677833661     3.2739828404
H       16.2167688497     7.4889063236     5.5940441019
H       12.7957566306     3.3122650416     3.0511612481
H       13.9459789044     2.8589706029     1.0030851429
H       18.4283690981     3.3215676627     1.3808870812
H       13.6870050166     1.1045919084     2.6717764671
H       18.5194118957     1.0989125606     2.3357199255
H       16.3666217474     0.9234173216     7.7973885949
H       14.2062361311     0.9970122112     6.6827954333
H       20.3069616540     2.6900853944     2.7973619077
H       16.1427674138     0.0797888032     5.5417405246
32
# Point -12 Energy = 0.0
C       20.7842362801     3.8568972961     7.6842864493
H       18.7000437495     3.7671752930     6.1951418460
C       19.1333348311     3.0684522710     6.9179067985
H       18.3744732226     2.8968082271     7.6925742448
H       20.6792881302     1.7965009857     5.5707804122
C       19.7922499358     1.3779498729     6.0704396679
H       19.4650517445     0.5089970408     5.4796180594
H       20.3459566041     0.9670030191     6.9283785561
H       21.4601263491     3.8000342053     6.8176511070
H       21.1773237136     3.0094562900     8.2605403195
H       21.0434522048     4.7734064762     8.2304937657
Si       16.3921724964     3.4185637767     4.3888275098
O       16.2743767833     5.0092355362     4.7275015451
O       17.9105069348     3.0815974658     3.8568824399
O       15.3482382034     3.0008244648     3.1970060351
O       16.0582319377     2.5853308298     5.7554353404
Si       16.4631298845     6.6040509078     4.3877732410
Si       13.9400038909     2.5648524376     2.4727467526
Si       18.8164143800     2.5396070494     2.5854736592
Si       15.6918418170     1.1437718160     6.4683359475
H       17.8545016915     6.8662808462     3.9025294388
H       15.5185484618     6.9674307188     3.2757414685
H       16.2210732368     7.4880407507     5.5954419472
H       12.7978999911     3.3116977566     3.0546704654
H       13.9463847218     2.8587679315     1.0055386968
H       18.4296634100     3.3217010358     1.3799536839
H       13.6889137934     1.1041201107     2.6741798020
H       18.5213663005     1.0988142135     2.3341858287
H       16.3721588859     0.9216308901     7.7970030352
H       14.2110283058     0.9956296706     6.6838816522
H       20.3092030306     2.6898972455     2.7950289562
H       16.1467856773     0.0787755685     5.5412166881
32
# Point -11 Energy = 0.0
C       20.7721472170     3.8424509490     7.6723112843
H       18.7231590472     3.7549655157     6.1937947663
C       19.1593444771     3.0587610680     6.9175068346
H       18.4010063737     2.8853984941     7.6922835310
H       20.6739605123     1.7949811896     5.5577582824
C       19.7918269969     1.3984665406     6.0827529548
H       19.4127396076     0.5504966923     5.4929973404
H       20.3384673266     0.9593586736     6.9306579339
H       21.4584345061     3.8080056031     6.8131398957
H       21.1748666907     3.0121175861     8.2659652099
H       20.9869866948     4.7711545739     8.2166162522
Si       16.3957196726     3.4177399639     4.3893371418
O       16.2779169610     5.0083266305     4.7284055796
O       17.9130996022     3.0810947316     3.8560168825
O       15.3506894641     3.0004231900     3.1983950357
O       16.0622436479     2.5842864266     5.7557225954
Si       16.4666289482     6.6035136894     4.3888462067
Si       13.9416120798     2.5644100399     2.4750935397
Si       18.8184728044     2.5395582002     2.5842939530
Si       15.6965880065     1.1425655980     6.4685350439
H       17.8576619697     6.8656477314     3.9027509183
H       15.5212981432     6.9670609585     3.2775373199
H       16.2253949579     7.4871491363     5.5968783713
H       12.8000703844     3.3111510335     3.0581489512
H       13.9468463331     2.8585870730     1.0079794259
H       18.4309628523     3.3217922926     1.3790536508
H       13.6908328094     1.1036624460     2.6765538335
H       18.5233040596     1.0986732701     2.3326850277
H       16.3776744288     0.9198466838     7.7966624903
H       14.2158025401     0.9942560841     6.6850088325
H       20.3114409864     2.6896505374     2.7927312286
H       16.1507804981     0.0777493973     5.5407450461
32
# Point -10 Energy = 0.0
C       20.7602203366     3.8275724968     7.6601087397
H       18.7462838634     3.7426528341     6.1922962321
C       19.1854191271     3.0489957873     6.9169278769
H       18.4275850384     2.8739072716     7.6917889068
H       20.6681137845     1.7936080573     5.5451349006
C       19.7919905223     1.4191135575     6.0951226554
H       19.3616437900     0.5944843952     5.5079901867
H       20.3307481562     0.9522447105     6.9326159241
H       21.4563258581     3.8157524436     6.8087072928
H       21.1720296451     3.0147564952     8.2709473564
H       20.9300214250     4.7668310924     8.2016485394
Si       16.3992623818     3.4168944802     4.3898728394
O       16.2814584771     5.0073957455     4.7293386597
O       17.9156846775     3.0805557575     3.8551826549
O       15.3531536757     3.0000177045     3.1997904817
O       16.0662406219     2.5832337122     5.7560413561
Si       16.4701368499     6.6029543955     4.3899521268
Si       13.9432420963     2.5639822469     2.4774202099
Si       18.8205213343     2.5394635957     2.5831484189
Si       15.7013066140     1.1413596866     6.4687757031
H       17.8608328281     6.8649880979     3.9030096736
H       15.5240614929     6.9666751449     3.2793649840
H       16.2297262247     7.4862337905     5.5983483296
H       12.8022611530     3.3106275078     3.0615907520
H       13.9473589944     2.8584290096     1.0104027111
H       18.4322625664     3.3218403634     1.3781867400
H       13.6927547044     1.1032209037     2.6788947162
H       18.5252187229     1.0984892609     2.3312188791
H       16.3831565120     0.9180687892     7.7963666219
H       14.2205480681     0.9928953623     6.6861744683
H       20.3136690893     2.6893445771     2.7904707588
H       16.1547419686     0.0767127267     5.5403256643
32
# Point -9 Energy = 0.0
C       20.7484458648     3.8122612502     7.6476834795
H       18.7694100680     3.7302436669     6.1906469960
C       19.2115464813     3.0391602147     6.9161698350
H       18.4541946141     2.8623389622     7.6910881690
H       20.6617551754     1.7924213896     5.5329425404
C       19.7927312599     1.4398905574     6.1075433274
H       19.3119502064     0.6409295370     5.5246097042
H       20.3227931923     0.9457022020     6.9342723785
H       21.4537764964     3.8232532293     6.8043508099
H       21.1687827630     3.0173478040     8.2754807294
H       20.8726416950     4.7603823959     8.1855836023
Si       16.4027924040     3.4160290865     4.3904323589
O       16.2849930611     5.0064449102     4.7302972593
O       17.9182545009     3.0799816047     3.8543794865
O       15.3556237989     2.9996094910     3.2011891166
O       16.0702129274     2.5821756734     5.7563897293
Si       16.4736460516     6.6023747693     4.3910865409
Si       13.9448875063     2.5635707107     2.4797220859
Si       18.8225536598     2.5393231554     2.5820382218
Si       15.7059866033     1.1401577378     6.4690568699
H       17.8640073462     6.8643030481     3.9033026378
H       15.5268323131     6.9662744277     3.2812186534
H       16.2340583030     7.4852973675     5.5998464557
H       12.8044654410     3.3101296656     3.0649894077
H       13.9479181229     2.8582944939     1.0128036364
H       18.4335577772     3.3218443532     1.3773530727
H       13.6946721677     1.1027973639     2.6811984229
H       18.5271039680     1.0982619778     2.3297893081
H       16.3885925508     0.9163018300     7.7961153558
H       14.2252535655     0.9915516777     6.6873759696
H       20.3158808273     2.6889791237     2.7882502987
H       16.1586598874     0.0756683223     5.5399589002
32
# Point -8 Energy = 0.0
C       20.7368138286     3.7965166781     7.6350404027
H       18.7925292431     3.7177454134     6.1888484130
C       19.2377134964     3.0292588220     6.9152333144
H       18.4808195384     2.8506987561     7.6901796289
H       20.6548941862     1.7914637968     5.5212136329
C       19.7940389337     1.4607978904     6.1200099750
H       19.2638458027     0.6897866391     5.5428595717
H       20.3145976414     0.9397741973     6.9356504794
H       21.4507626732     3.8304850161     6.8000669657
H       21.1650956533     3.0198643901     8.2795598158
H       20.8149377909     4.7517608403     8.1684170906
Si       16.4063011640     3.4151457832     4.3910135273
O       16.2885118869     5.0054764101     4.7312777795
O       17.9208011787     3.0793736695     3.8536074371
O       15.3580926589     2.9992000871     3.2025876203
O       16.0741501413     2.5811156123     5.7567659077
Si       16.4771483665     6.6017768012     4.3922448184
Si       13.9465418886     2.5631769581     2.4819942399
Si       18.8245634891     2.5391371173     2.5809650379
Si       15.7106164694     1.1389637449     6.4693776344
H       17.8671780119     6.8635940179     3.9036267707
H       15.5296038959     6.9658600333     3.2830921691
H       16.2383815370     7.4843428430     5.6013671105
H       12.8066762433     3.3096598143     3.0683379747
H       13.9485193498     2.8581840380     1.0151770084
H       18.4348438439     3.3218035561     1.3765531553
H       13.6965780022     1.1023935755     2.6834607535
H       18.5289536655     1.0979914834     2.3283988171
H       16.3939693080     0.9145509318     7.7959088927
H       14.2299072152     0.9902294230     6.6886106720
H       20.3180696651     2.6885544058     2.7860733369
H       16.1625238310     0.0746192544     5.5396454066
32
# Point -7 Energy = 0.0
C       20.7253141653     3.7803384454     7.6221846034
H       18.8156327512     3.7051664381     6.1869024629
C       19.2639064551     3.0192967518     6.9141196545
H       18.5074433591     2.8389926167     7.6890621528
H       20.6475428855     1.7907807828     5.5099806218
C       19.7959023166     1.4818366130     6.1325181028
H       19.2175162697     0.7409952027     5.5627334844
H       20.3061581932     0.9345055299     6.9367769257
H       21.4472611164     3.8374234422     6.7958511876
H       21.1609376192     3.0222772117     8.2831796229
H       20.7570044573     4.7409254085     8.1501473685
Si       16.4097797861     3.4142467907     4.3916142651
O       16.2920056189     5.0044927647     4.7322765839
O       17.9233166407     3.0787336744     3.8528669140
O       15.3605530000     2.9987910684     3.2039826304
O       16.0780414117     2.5800571141     5.7571681878
Si       16.4806349967     6.6011627104     4.3934222062
Si       13.9481988906     2.5628023714     2.4842315132
Si       18.8265446064     2.5389060438     2.5799310656
Si       15.7151843104     1.1377819991     6.4697372393
H       17.8703367565     6.8628627686     3.9039791058
H       15.5323690557     6.9654332485     3.2849790713
H       16.2426853841     7.4833734851     5.6029044379
H       12.8088864586     3.3092200529     3.0716290537
H       13.9491585710     2.8580979049     1.0175173772
H       18.4361163117     3.3217174678     1.3757878959
H       13.6984651885     1.1020111337     2.6856773434
H       18.5307619448     1.0976781172     2.3270504856
H       16.3992729683     0.9128216766     7.7957477132
H       14.2344967788     0.9889331627     6.6898758452
H       20.3202291020     2.6880711334     2.7839441084
H       16.1663232297     0.0735688687     5.5393861297
32
# Point -6 Energy = 0.0
C       20.7139368351     3.7637264497     7.6091213260
H       18.8387118064     3.6925160437     6.1848117655
C       19.2901110431     3.0092797935     6.9128309620
H       18.5340488147     2.8272272561     7.6877351976
H       20.6397162238     1.7904207154     5.4992757620
C       19.7983093148     1.5030084669     6.1450637667
H       19.1731436271     0.7944799086     5.5842148102
H       20.2974734144     0.9299424909     6.9376820291
H       21.4432493784     3.8440428011     6.7916977382
H       21.1562779725     3.0245553443     8.2863356881
H       20.6989402815     4.7278422683     8.1307755065
Si       16.4132191534     3.4133345254     4.3922326092
O       16.2954644651     5.0034967004     4.7332900359
O       17.9257926993     3.0780636559     3.8521586862
O       15.3629975428     2.9983840297     3.2053707629
O       16.0818755260     2.5790040098     5.7575949852
Si       16.4840965763     6.6005349212     4.3946138790
Si       13.9498522850     2.5624481689     2.4864285371
Si       18.8284909306     2.5386308244     2.5789390321
Si       15.7196779036     1.1366170446     6.4701350843
H       17.8734749965     6.8621113741     3.9043567987
H       15.5351201672     6.9649954029     3.2868726562
H       16.2469584578     7.4823928195     5.6044524246
H       12.8110889431     3.3088122427     3.0748548210
H       13.9498319980     2.8580361012     1.0198190595
H       18.4373709620     3.3215857974     1.3750586189
H       13.7003269495     1.1016514582     2.6878436732
H       18.5325232586     1.0973224992     2.3257479648
H       16.4044892212     0.9111200495     7.7956325784
H       14.2390096746     0.9876675792     6.6911687013
H       20.3223527312     2.6875305066     2.7818675980
H       16.1700474463     0.0725207507     5.5391823017
32
# Point -5 Energy = 0.0
C       20.7026719359     3.7466808586     7.5958559155
H       18.8617575469     3.6798044311     6.1825795891
C       19.3163124334     2.9992143515     6.9113701368
H       18.5606179236     2.8154101015     7.6861988414
H       20.6314323422     1.7904346480     5.4891308518
C       19.8012470619     1.5243158494     6.1576436252
H       19.1309037565     0.8501511933     5.6072764979
H       20.2885441353     0.9261323526     6.9383996884
H       21.4387062069     3.8503161643     6.7875996729
H       21.1510863838     3.0266660733     8.2890240937
H       20.6408470011     4.7124852384     8.1103052244
Si       16.4166099702     3.4124115729     4.3928667333
O       16.2988782340     5.0024911192     4.7343145361
O       17.9282211123     3.0773659478     3.8514838944
O       15.3654190424     2.9979805655     3.2067486334
O       16.0856409821     2.5779603341     5.7580448490
Si       16.4875232205     6.5998960368     4.3958149923
Si       13.9514960268     2.5621153860     2.4885797551
Si       18.8303965731     2.5383126758     2.5779921934
Si       15.7240847860     1.1354736284     6.4705707270
H       17.8765836796     6.8613422047     3.9047571768
H       15.5378492077     6.9645478490     3.2887660358
H       16.2511885781     7.4814045904     5.6060049633
H       12.8132765669     3.3084379777     3.0780070635
H       13.9505362067     2.8579983728     1.0220761641
H       18.4386038622     3.3214084772     1.3743670744
H       13.7021568141     1.1013157711     2.6899550762
H       18.5342324460     1.0969255307     2.3244954639
H       16.4096033486     0.9094523781     7.7955645262
H       14.2434330587     0.9864374150     6.6924863997
H       20.3244342994     2.6869342184     2.7798495361
H       16.1736858571     0.0714786866     5.5390354289
32
# Point -4 Energy = 0.0
C       20.6915098174     3.7292021493     7.5823937634
H       18.8847611083     3.6670426505     6.1802098526
C       19.3424953756     2.9891074080     6.9097408922
H       18.5871320801     2.8035492564     7.6844538086
H       20.6227128433     1.7908759666     5.4795768966
C       19.8047020225     1.5457617751     6.1702549878
H       19.0909639784     0.9079062074     5.6318812623
H       20.2793737981     0.9231227381     6.9389672157
H       21.4336119293     3.8562155612     6.7835488338
H       21.1453332610     3.0285750519     8.2912414896
H       20.5828287530     4.6948361498     8.0887427847
Si       16.4199428262     3.4114806580     4.3935149679
O       16.3022363950     5.0014790656     4.7353465599
O       17.9305936451     3.0766431627     3.8508440584
O       15.3678103469     2.9975822483     3.2081128770
O       16.0893260634     2.5769302803     5.7585164734
Si       16.4909045783     6.5992488095     4.3970207362
Si       13.9531243091     2.5618048563     2.4906794459
Si       18.8322558961     2.5379531396     2.5770943306
Si       15.7283923381     1.1343566460     6.4710438814
H       17.8796533344     6.8605579073     3.9051777879
H       15.5405478017     6.9640919416     3.2906522008
H       16.2553628286     7.4804127179     5.6075559184
H       12.8154422704     3.3080985565     3.0810772166
H       13.9512681839     2.8579842014     1.0242826170
H       18.4398114144     3.3211856722     1.3737154447
H       13.7039486801     1.1010050748     2.6920067467
H       18.5358847948     1.0964883939     2.3232977316
H       16.4146003172     0.9078252665     7.7955448632
H       14.2477539098     0.9852474104     6.6938260524
H       20.3264677657     2.6862844562     2.7778963881
H       16.1772279339     0.0704466209     5.5389472747
32
# Point -3 Energy = 0.0
C       20.6804411931     3.7112911517     7.5687402530
H       18.9077136949     3.6542425421     6.1777071208
C       19.3686442888     2.9789664810     6.9079477683
H       18.6135721576     2.7916534545     7.6825014903
H       20.6135829854     1.7917998528     5.4706437098
C       19.8086601040     1.5673498306     6.1828958635
H       19.0534807765     0.9676301373     5.6579820602
H       20.2699687316     0.9209608530     6.9394249969
H       21.4279488338     3.8617122142     6.7795358832
H       21.1389901423     3.0302465299     8.2929851191
H       20.5249912840     4.6748850911     8.0660968376
Si       16.4232082616     3.4105446142     4.3941758174
O       16.3055281417     5.0004636909     4.7363826938
O       17.9329021347     3.0758981703     3.8502410799
O       15.3701644561     2.9971906082     3.2094601682
O       16.0929189153     2.5759181520     5.7590087075
Si       16.4942298893     6.5985961102     4.3982263892
Si       13.9547316187     2.5615171947     2.4927217464
Si       18.8340635684     2.5375540775     2.5762497404
Si       15.7325878687     1.1332710855     6.4715544129
H       17.8826741234     6.8597613842     3.9056164478
H       15.5432072688     6.9636290170     3.2925240845
H       16.2594676178     7.4794212527     5.6090991914
H       12.8175791214     3.3077949547     3.0840564030
H       13.9520253723     2.8579928036     1.0264321888
H       18.4409904008     3.3209177874     1.3731063467
H       13.7056968749     1.1007201324     2.6939937483
H       18.5374760993     1.0960125492     2.3221600326
H       16.4194648727     0.9062455260     7.7955751537
H       14.2519591164     0.9841022412     6.6951847271
H       20.3284473595     2.6855838986     2.7760153376
H       16.1806633260     0.0694286112     5.5389198401
32
# Point -2 Energy = 0.0
C       20.6694572480     3.6929490939     7.5549007009
H       18.9306066483     3.6414166684     6.1750765927
C       19.3947433583     2.9687995789     6.9059961381
H       18.6399186158     2.7797320105     7.6803439588
H       20.6040717648     1.7932625704     5.4623594677
C       19.8131067741     1.5890841232     6.1955650065
H       19.0185977758     1.0291978435     5.6855228526
H       20.2603383181     0.9196926057     6.9398159800
H       21.4217015344     3.8667768286     6.7755503760
H       21.1320300916     3.0316436526     8.2942528468
H       20.4674411469     4.6526305322     8.0423782229
Si       16.4263968333     3.4096063512     4.3948479762
O       16.3087424569     4.9994482171     4.7374196713
O       17.9351385515     3.0751340743     3.8496772424
O       15.3724745789     2.9968071117     3.2107872387
O       16.0964076231     2.5749283151     5.7595205634
Si       16.4974880420     6.5979408965     4.3994273713
Si       13.9563127886     2.5612527811     2.4947006758
Si       18.8358146192     2.5371176657     2.5754632219
Si       15.7366587006     1.1322219696     6.4721023318
H       17.8856358979     6.8589557695     3.9060712862
H       15.5458186736     6.9631603714     3.2943746270
H       16.2634887460     7.4784343302     5.6106287866
H       12.8196803707     3.3075277998     3.0869354747
H       13.9528057105     2.8580231318     1.0285185220
H       18.4421380270     3.3206054756     1.3725428306
H       13.7073962128     1.1004614479     2.6959110216
H       18.5390027153     1.0954997313     2.3210881184
H       16.4241816368     0.9047201037     7.7956572042
H       14.2560355632     0.9830064555     6.6965594494
H       20.3303676357     2.6848357102     2.7742142634
H       16.1839819404     0.0684287828     5.5389553403
32
# Point -1 Energy = 0.0
C       20.6585497395     3.6741776491     7.5408802997
H       18.9534315124     3.6285782371     6.1723240830
C       19.4207766325     2.9586151515     6.9038922061
H       18.6661516118     2.7677947656     7.6779839752
H       20.5942118531     1.7953206069     5.4547502436
C       19.8180271834     1.6109692227     6.2082619587
H       18.9864440776     1.0924757475     5.7144396306
H       20.2504950253     0.9193616684     6.9401850057
H       21.4148573021     3.8713799248     6.7715808676
H       21.1244280781     3.0327288225     8.2950431806
H       20.4102849088     4.6280793206     8.0175997323
Si       16.4294991784     3.4086688228     4.3955303408
O       16.3118681786     4.9984359003     4.7384544050
O       17.9372950596     3.0743541878     3.8491552065
O       15.3747341869     2.9964331423     3.2120908952
O       16.0997802881     2.5739651486     5.7600512204
Si       16.5006676364     6.5972861802     4.4006192944
Si       13.9578630465     2.5610117473     2.4966101594
Si       18.8375044866     2.5366463852     2.5747400577
Si       15.7405922536     1.1312142990     6.4726877838
H       17.8885282554     6.8581444037     3.9065407880
H       15.5483728768     6.9626872411     3.2961968385
H       16.2674114771     7.4774561235     5.6121388743
H       12.8217395055     3.3072973504     3.0897050556
H       13.9536076686     2.8580738784     1.0305351592
H       18.4432519595     3.3202496411     1.3720283741
H       13.7090420469     1.1002292513     2.6977533923
H       18.5404616079     1.0949519432     2.3200881939
H       16.4287352020     0.9032560099     7.7957930453
H       14.2599702170     0.9819644122     6.6979472047
H       20.3322235258     2.6840435317     2.7725017098
H       16.1871740178     0.0674512832     5.5390561780
32
# Point 0 Energy = 0
C       20.6477110000     3.6549790000     7.5266840000
H       18.9761800000     3.6157410000     6.1694560000
C       19.4467280000     2.9484220000     6.9016430000
H       18.6922510000     2.7558520000     7.6754250000
H       20.5840390000     1.7980300000     5.4478400000
C       19.8234060000     1.6330100000     6.2209870000
H       18.9571360000     1.1573250000     5.7446630000
H       20.2404540000     0.9200090000     6.9405780000
H       21.4074060000     3.8754920000     6.7676150000
H       21.1161610000     3.0334640000     8.2953550000
H       20.3536290000     4.6012450000     7.9917750000
Si       16.4325060000     3.4077350000     4.3962220000
O       16.3148940000     4.9974300000     4.7394840000
O       17.9393640000     3.0735620000     3.8486780000
O       15.3769370000     2.9960700000     3.2133680000
O       16.1030250000     2.5730330000     5.7606000000
Si       16.5037570000     6.5966350000     4.4017980000
Si       13.9593780000     2.5607940000     2.4984440000
Si       18.8391290000     2.5361430000     2.5740860000
Si       15.7443760000     1.1302530000     6.4733110000
H       17.8913405600     6.8573308000     3.9070238400
H       15.5508605600     6.9622108000     3.2979838400
H       16.2712205600     7.4764908000     5.6136238400
H       12.8237502400     3.3071035200     3.0923555200
H       13.9544302400     2.8581435200     1.0324755200
H       18.4443303200     3.3198514400     1.3715668800
H       13.7106302400     1.1000235200     2.6995155200
H       18.5418503200     1.0943714400     2.3191668800
H       16.4331100800     0.9018602400     7.7959848800
H       14.2637500800     0.9809802400     6.6993448800
H       20.3340103200     2.6832114400     2.7708868800
H       16.1902300800     0.0665002400     5.5392248800
32
# Point 1 Energy = 0.0
C       20.6369336208     3.6353576331     7.5123159870
H       18.9988429753     3.6029175686     6.1664790872
C       19.4725816886     2.9382291645     6.8992565714
H       18.7181971321     2.7439140253     7.6726716109
H       20.5735909448     1.8014330992     5.4416452979
C       19.8292293703     1.6552114434     6.2337426217
H       18.9307656990     1.2236026410     5.7761188848
H       20.2302338686     0.9216619156     6.9410342167
H       21.3993430999     3.8790908015     6.7636430727
H       21.1072122848     3.0338195186     8.2951901786
H       20.2975729098     4.5721534181     7.9649187435
Si       16.4354084881     3.4068079733     4.3969224760
O       16.3178088761     4.9964338605     4.7405060836
O       17.9413383150     3.0727613076     3.8482492408