32
# Point -15 Energy = 0.0
C       20.3669627809     3.7707300263     7.2152200367
H       18.6407259885     3.8156147378     5.9091077551
C       19.2172692371     3.0774960144     6.4848172927
H       18.5210400192     2.6568286643     7.2259082979
H       20.3366156582     2.3672388287     4.7584561021
C       19.7049835630     1.9596325345     5.5601293788
H       18.8713201465     1.4322798866     5.0852707825
H       20.3083650044     1.2307969928     6.1150265073
H       21.0836650862     4.1952320355     6.5003449591
H       20.9075298585     3.0584074279     7.8466658283
H       20.0068292116     4.5844360347     7.8551987062
Si       16.0457488857     3.2349280062     4.2544928723
O       16.4261780669     4.7851782057     4.5452745881
O       17.3330400868     2.3547147804     3.8133894292
O       14.8479805808     3.1649710433     3.1492921523
O       15.4960394340     2.5464163341     5.6179477999
Si       16.8092722007     6.3343069614     4.8687819380
Si       13.7453794623     2.5165717559     2.1243821714
Si       18.9011497615     2.2066658820     3.3670914035
Si       16.1445628228     1.4110454248     6.6277190179
H       18.0794385462     6.1190137042     4.2630974131
H       16.0760105109     7.5128747279     4.1559709397
H       16.9993688585     6.8443725304     6.3336249242
H       12.4747503558     2.9482595853     2.6833987269
H       13.9093246269     3.1208817632     0.7747825890
H       19.6407850226     2.6454931354     2.0301299986
H       13.7159069179     1.0017978447     1.9682264926
H       18.4599875921     0.9190007264     3.3599453613
H       17.1646198628     1.8753889590     7.6399827438
H       14.8892556540     1.1132632486     7.2337858470
H       20.0032311309     2.4732074638     4.4095171635
H       16.7406436661     0.1962567338     5.9501861412
32
# Point -14 Energy = 0.0
C       20.3876347074     3.7610848548     7.2451706236
H       18.6691498386     3.7994572583     5.9299565827
C       19.2314379569     3.0671353610     6.5260457431
H       18.5257297973     2.6748250928     7.2729654410
H       20.3525398614     2.2995475706     4.8265833423
C       19.7063403132     1.9213049264     5.6303489189
H       18.8672890246     1.3988320586     5.1593043422
H       20.2906787178     1.1935194373     6.2058954159
H       21.1126649226     4.1590724964     6.5240330895
H       20.9161450678     3.0570555584     7.8954177800
H       20.0359743492     4.5940172634     7.8641021855
Si       16.0739571003     3.2462597282     4.2701666002
O       16.4395020657     4.8016686615     4.5551101129
O       17.3729005928     2.3819402157     3.8279650859
O       14.8866673299     3.1650095954     3.1539408570
O       15.5260690624     2.5634973053     5.6380041916
Si       16.8022293040     6.3676446032     4.8139514861
Si       13.7511417635     2.5121920032     2.1688459167
Si       18.9114826106     2.2650123070     3.2865027417
Si       16.0989142769     1.3636895005     6.6136313288
H       18.0897379933     6.1749734856     4.2266494682
H       16.0422674509     7.4869641726     4.0480785507
H       16.9624122234     6.9294004516     6.2588938634
H       12.4929680658     2.9782236205     2.7325940551
H       13.8980694360     3.0711712150     0.7981279107
H       19.5299890372     2.7670805057     1.9243790560
H       13.7006522407     0.9962124390     2.0634165894
H       18.5276721094     0.9515826819     3.2580994373
H       17.1099150924     1.7468785021     7.6647101592
H       14.8230764285     1.0695299867     7.1895531396
H       20.0635953445     2.5413713254     4.2653428239
H       16.6691765150     0.1671478162     5.8893785210
32
# Point -13 Energy = 0.0
C       20.4051583389     3.7763010619     7.2523661211
H       18.6955624450     3.7953635081     5.9266222627
C       19.2425713087     3.0757353641     6.5505667443
H       18.5268971279     2.7201666396     7.3052380736
H       20.3653251031     2.2342079218     4.8895239316
C       19.7041196692     1.8941986331     5.6970865472
H       18.8599349755     1.3725395224     5.2341081004
H       20.2682588975     1.1743415951     6.3009433707
H       21.1390346687     4.1396224138     6.5228602699
H       20.9206206459     3.0878758509     7.9284712749
H       20.0623741674     4.6337913104     7.8406893077
Si       16.1024350093     3.2540596898     4.2632833621
O       16.4525501917     4.8172853874     4.5257582379
O       17.4134906290     2.4011446799     3.8309525161
O       14.9272775474     3.1480452176     3.1360439652
O       15.5546653545     2.5917286248     5.6417623688
Si       16.8128792125     6.3786803365     4.8195699819
Si       13.7602407668     2.4872166109     2.1945159901
Si       18.9162212589     2.2955476685     3.1985268327
Si       16.0456745125     1.3459627104     6.6002546727
H       18.1225897126     6.2253486235     4.2606287159
H       16.0539881975     7.4954832350     4.0559922590
H       16.9291830619     6.9023984952     6.2785810849
H       12.5149281949     2.9948756611     2.7544927655
H       13.8929886101     2.9879937801     0.8007410269
H       19.4161920398     2.8357400844     1.8148399857
H       13.6866231005     0.9722292302     2.1529929119
H       18.5788509214     0.9612665969     3.1608127184
H       17.0405284931     1.6631502486     7.6859137674
H       14.7475687644     1.0664757433     7.1449440789
H       20.1157093711     2.5867329075     4.1080750715
H       16.5935383025     0.1577926473     5.8500070426
32
# Point -12 Energy = 0.0
C       20.4315090152     3.7639285695     7.2812986073
H       18.7283686086     3.7773118180     5.9484566384
C       19.2625175116     3.0639339415     6.5898862420
H       18.5391908227     2.7343111778     7.3484273168
H       20.3846921365     2.1723146751     4.9556156268
C       19.7109333090     1.8591860282     5.7631135577
H       18.8619016528     1.3427676996     5.3028163649
H       20.2571248112     1.1412825785     6.3849779562
H       21.1719899535     4.1030793208     6.5472852395
H       20.9364258586     3.0838344475     7.9733070416
H       20.0973693418     4.6373153242     7.8503121383
Si       16.1363918772     3.2642073474     4.2780998890
O       16.4673970655     4.8327343923     4.5364334641
O       17.4607908284     2.4313560402     3.8436410301
O       14.9720879701     3.1430564614     3.1406741215
O       15.5924747342     2.6040041276     5.6598880026
Si       16.7891517949     6.4122658741     4.7705346472
Si       13.7743278034     2.4883528895     2.2341594234
Si       18.9205784157     2.3360880832     3.1198550136
Si       16.0023315492     1.3102152878     6.5879685998
H       18.1152384449     6.3018961179     4.2296365697
H       15.9957886216     7.4601029682     3.9582528482
H       16.8661084554     6.9819553094     6.2103438219
H       12.5423691098     3.0288411059     2.7971832382
H       13.8910136241     2.9506054626     0.8256244564
H       19.3022749850     2.9227903727     1.7296332363
H       13.6792408752     0.9763684142     2.2352996504
H       18.6211572594     0.9853068144     3.0561602538
H       16.9770311447     1.5544646460     7.7075707120
H       14.6829668477     1.0408751437     7.0983802734
H       20.1655984369     2.6297262215     3.9587313828
H       16.5316377352     0.1388233393     5.8035979962
32
# Point -11 Energy = 0.0
C       20.4647668265     3.7487986109     7.3057917494
H       18.7681272868     3.7578575562     5.9658575219
C       19.2876749304     3.0511089534     6.6260673440
H       18.5561513744     2.7508267025     7.3886673401
H       20.4065007883     2.1038564721     5.0211711805
C       19.7197230387     1.8209923979     5.8287136058
H       18.8647086726     1.3110375596     5.3719468034
H       20.2461270679     1.1054707309     6.4699582237
H       21.2124487920     4.0603882434     6.5670125993
H       20.9575101535     3.0775159663     8.0149050274
H       20.1416032236     4.6396231532     7.8535479445
Si       16.1767847100     3.2758203981     4.2886820894
O       16.4916413152     4.8495586966     4.5391235091
O       17.5129784514     2.4593890625     3.8545954799
O       15.0236073929     3.1382482994     3.1411499137
O       15.6350440754     2.6219932175     5.6751126299
Si       16.7469183899     6.4481782958     4.7301031450
Si       13.7943857622     2.4929393672     2.2696526143
Si       18.9264089594     2.3630300643     3.0411893895
Si       15.9586825599     1.2859512357     6.5774505597
H       18.0910277545     6.4097237471     4.2126301123
H       15.9088510943     7.4195786980     3.8756057708
H       16.7665921791     7.0487863608     6.1559743322
H       12.5773151196     3.0705702721     2.8332684961
H       13.8969153873     2.9142103220     0.8466005755
H       19.1930912886     2.9882315310     1.6474361887
H       13.6737655525     0.9852862278     2.3156205884
H       18.6560502326     0.9981553137     2.9544132603
H       16.9105631059     1.4601553560     7.7296635436
H       14.6172549769     1.0331962617     7.0529180367
H       20.2163654847     2.6556063499     3.8070336085
H       16.4683946529     0.1272165763     5.7653021760
32
# Point -10 Energy = 0.0
C       20.4947952454     3.7341910225     7.3334696734
H       18.8036396757     3.7391052326     5.9878024630
C       19.3112697629     3.0383034455     6.6632756497
H       18.5733397054     2.7620013650     7.4286564841
H       20.4278041363     2.0461804557     5.0839365423
C       19.7298478556     1.7881933562     5.8902103727
H       18.8702761215     1.2839859193     5.4352378291
H       20.2390381390     1.0746567552     6.5473585108
H       21.2479093811     4.0235149592     6.5911589593
H       20.9780151383     3.0706466215     8.0563076748
H       20.1804737308     4.6386774374     7.8637167790
Si       16.2142946950     3.2868193487     4.3025486972
O       16.5070651930     4.8658126447     4.5503678000
O       17.5647476501     2.4934771064     3.8654368463
O       15.0719935623     3.1314643408     3.1457625847
O       15.6780941821     2.6322171227     5.6915386930
Si       16.7104324280     6.4789245810     4.6854839468
Si       13.8142166208     2.4990339284     2.3049027178
Si       18.9269853173     2.3914007465     2.9668250678
Si       15.9186790226     1.2602463258     6.5662224017
H       18.0662468933     6.4990789061     4.1837394061
H       15.8367274301     7.3719399967     3.7884708618
H       16.6829517569     7.1169572985     6.0916983930
H       12.6109289052     3.1080126877     2.8704582134
H       13.9019708242     2.8872631955     0.8707295431
H       19.0834002746     3.0527092046     1.5792724392
H       13.6718849055     0.9964688058     2.3875343057
H       18.6786505484     1.0150260490     2.8535242501
H       16.8439386626     1.3688340521     7.7482580422
H       14.5567562775     1.0221102519     7.0061853813
H       20.2575364524     2.6800268293     3.6586966502
H       16.4140701060     0.1160220075     5.7283781807
32
# Point -9 Energy = 0.0
C       20.5231500995     3.7201136650     7.3620587551
H       18.8367662958     3.7211331284     6.0116122465
C       19.3342739487     3.0257578291     6.6999362345
H       18.5911381934     2.7698035980     7.4672461904
H       20.4491703299     1.9960314254     5.1435119693
C       19.7412853516     1.7592772848     5.9476272056
H       18.8781137303     1.2603540718     5.4932612351
H       20.2349634455     1.0474297680     6.6182937935
H       21.2805145080     3.9907541103     6.6170281217
H       20.9986234141     3.0635134465     8.0963053517
H       20.2162646945     4.6357208371     7.8773802316
Si       16.2504668111     3.2978151002     4.3173436941
O       16.5168540868     4.8819522383     4.5658146355
O       17.6166388963     2.5323055579     3.8751551771
O       15.1188001094     3.1231906795     3.1522061265
O       15.7223198701     2.6377326696     5.7075979707
Si       16.6752367787     6.5053855901     4.6409554348
Si       13.8348097022     2.5067726916     2.3382565419
Si       18.9236129108     2.4172087087     2.8968383474
Si       15.8821704075     1.2365020525     6.5546810197
H       18.0385177642     6.5791332803     4.1500776582
H       15.7719392587     7.3187794192     3.7043322960
H       16.6047568109     7.1808261071     6.0248495346
H       12.6445617323     3.1433441244     2.9063521118
H       13.9080537114     2.8678882546     0.8954383974
H       18.9766329880     3.1103824457     1.5233712846
H       13.6729399272     1.0098135445     2.4514498942
H       18.6889715446     1.0316717869     2.7564176922
H       16.7779704867     1.2845375413     7.7635757324
H       14.5011835068     1.0127998802     6.9593148806
H       20.2903915284     2.6986618717     3.5143431805
H       16.3668877567     0.1067092913     5.6945324149
32
# Point -8 Energy = 0.0
C       20.5493330406     3.7069762378     7.3907462448
H       18.8670528004     3.7042517249     6.0363999858
C       19.3561678126     3.0137173367     6.7353667375
H       18.6088757073     2.7746175846     7.5039695706
H       20.4703176086     1.9530942486     5.1991201996
C       19.7535931789     1.7340756177     6.0004124257
H       18.8877281726     1.2398999361     5.5455985436
H       20.2334216251     1.0235168168     6.6823913693
H       21.3099061239     3.9623788273     6.6436055093
H       21.0187601084     3.0564973586     8.1342929054
H       20.2484268745     4.6314517273     7.8936256614
Si       16.2846666269     3.3089863873     4.3324627520
O       16.5205075815     4.8979611798     4.5845946782
O       17.6676795844     2.5759803673     3.8833291635
O       15.1633258383     3.1136441015     3.1599812615
O       15.7671957405     2.6390873864     5.7228086021
Si       16.6421524624     6.5276331079     4.5975981407
Si       13.8555470005     2.5155716147     2.3692592021
Si       18.9167437573     2.4404626468     2.8321743409
Si       15.8495715929     1.2148124180     6.5428681978
H       18.0097221089     6.6489181541     4.1132646990
H       15.7154858479     7.2623487401     3.6251378892
H       16.5330361908     7.2395935190     5.9572469533
H       12.6773262387     3.1760516249     2.9404450702
H       13.9148973151     2.8551273461     0.9198138279
H       18.8750949737     3.1612167679     1.4789667262
H       13.6763321765     1.0243189110     2.5073433251
H       18.6880712962     1.0475639331     2.6655407267
H       16.7143655208     1.2077154959     7.7754913580
H       14.4511630736     1.0050681046     6.9132764555
H       20.3149631837     2.7118611725     3.3764106710
H       16.3265494362     0.0989016050     5.6636221660
32
# Point -7 Energy = 0.0
C       20.5729211553     3.6951092499     7.4186948296
H       18.8941105456     3.6886767614     6.0612716780
C       19.3764796492     3.0023851826     6.7688908233
H       18.6259512298     2.7768565253     7.5383354153
H       20.4909113104     1.9169552779     5.2501066506
C       19.7662993815     1.7123917288     6.0481046891
H       18.8985804132     1.2223799095     5.5919368007
H       20.2338802946     1.0026698269     6.7393883553
H       21.3357808988     3.9385129370     6.6698796198
H       21.0379120912     3.0499526876     8.1696488995
H       20.2765417000     4.6264783083     7.9114562443
Si       16.3163134027     3.3204463246     4.3472939271
O       16.5176524973     4.9137202694     4.6057814915
O       17.7169021093     2.6244913130     3.8895533492
O       15.2049362722     3.1029691188     3.1685702123
O       15.8122498979     2.6368550963     5.7366728276
Si       16.6118562934     6.5459038837     4.5564747790
Si       13.8758089798     2.5248564643     2.3975152417
Si       18.9070293840     2.4611187243     2.7736303670
Si       15.8211725614     1.1952562696     6.5309331048
H       17.9816054884     6.7079502101     4.0751081632
H       15.6678594123     7.2050732008     3.5525018096
H       16.4687077626     7.2926654682     5.8907906506
H       12.7083758553     3.2056917885     2.9722396594
H       13.9221745319     2.8479313633     0.9430718785
H       18.7808783245     3.2051371733     1.4448499577
H       13.6814197630     1.0391053214     2.5553120949
H       18.6775732531     1.0621422203     2.5829952103
H       16.6546588090     1.1387269966     7.7841174894
H       14.4070823835     0.9986860067     6.8690967424
H       20.3317229269     2.7199350849     3.2473277691
H       16.2926320218     0.0922713070     5.6356146292
32
# Point -6 Energy = 0.0
C       20.5935702376     3.6847557631     7.4450608383
H       18.9176182485     3.6745312136     6.0853456436
C       19.3947892864     2.9919165007     6.7998532385
H       18.6418376355     2.7769490332     7.5698470333
H       20.5105696299     1.8871052480     5.2959370468
C       19.7789083861     1.6939957000     6.0903345269
H       18.9100918369     1.2075430448     5.6320681741
H       20.2357638633     0.9846539319     6.7891287022
H       21.3578935080     3.9191297671     6.6948563905
H       21.0556329079     3.0441901349     8.2017501691
H       20.3003227827     4.6213102198     7.9298188786
Si       16.3448839952     3.3322464705     4.3612337007
O       16.5080469529     4.9290285143     4.6284105275
O       17.7633580065     2.6777098491     3.8934416633
O       15.2430642190     3.0912371177     3.1774593669
O       15.8570605969     2.6316303343     5.7487009068
Si       16.5848833453     6.5605622481     4.5186017808
Si       13.8949892392     2.5340666361     2.4226899383
Si       18.8952892614     2.4791168039     2.7218617697
Si       15.7971507325     1.1779144754     6.5191234982
H       17.9557002685     6.7561960458     4.0374836558
H       15.6291159401     7.1494287983     3.4876975567
H       16.4125871097     7.3396174673     5.8274375284
H       12.7369223805     3.2318904161     3.0012487761
H       13.9295141853     2.8451859423     0.9645518231
H       18.6958096852     3.2420575353     1.4195288528
H       13.6875396245     1.0534075289     2.5955645933
H       18.6595739070     1.0748590591     2.5104546847
H       16.6001947572     1.0778755962     7.7897792223
H       14.3691216290     0.9934202160     6.8278361508
H       20.3415446031     2.7232204228     3.1294741746
H       16.2646318381     0.0865499656     5.6105845474
32
# Point -5 Energy = 0.0
C       20.6110243523     3.6760575537     7.4690145325
H       18.9373318704     3.6618458103     6.1077716362
C       19.4107359132     2.9824092658     6.8276368873
H       18.6560868824     2.7753267720     7.5980237506
H       20.5288729642     1.8629297789     5.3361985246
C       19.7909077959     1.6786112401     6.1268300359
H       18.9216498483     1.1951195361     5.6658936284
H       20.2384580121     0.9692264744     6.8315667304
H       21.3760691212     3.9040412274     6.7175750591
H       21.0715501350     3.0394527630     8.2299907017
H       20.3196262597     4.6163481071     7.9476326131
Si       16.3699266364     3.3443868646     4.3737007513
O       16.4915993525     4.9436330564     4.6514953688
O       17.8061424047     2.7353861025     3.8946301686
O       15.2772184126     3.0784563528     3.1861599585
O       15.9012567725     2.6240302232     5.7584334846
Si       16.5616105872     6.5720529163     4.4849108964
Si       13.9125146713     2.5426694966     2.4445120815
Si       18.8824763723     2.4944200893     2.6773867483
Si       15.7775849332     1.1628946038     6.5077745791
H       17.9332362262     6.7940287494     4.0022025681
H       15.5989369605     7.0977922918     3.4316668732
H       16.3653398396     7.3801456671     5.7691481933
H       12.7622606135     3.2543577449     3.0270010301
H       13.9365261511     2.8457429051     0.9837087704
H       18.6214256585     3.2719151624     1.4013906228
H       13.6940279287     1.0665768239     2.6284155514
H       18.6365313057     1.0852263863     2.4491085723
H       16.5521144101     1.0254486334     7.7929803524
H       14.3372910758     0.9890747628     6.7905664346
H       20.3456477029     2.7221522714     3.0251252402
H       16.2419994298     0.0815423673     5.5887130144
32
# Point -4 Energy = 0.0
C       20.6251187698     3.6690501011     7.4897577839
H       18.9530887608     3.6505642098     6.1277464510
C       19.4240207997     2.9739003890     6.8516772024
H       18.6683288394     2.7724159223     7.6224200335
H       20.5453733989     1.8437050188     5.3705982429
C       19.8017740299     1.6659066329     6.1574203852
H       18.9326134372     1.1848109227     5.6934243103
H       20.2413136820     0.9561203441     6.8667692784
H       21.3902104442     3.8928972134     6.7371211384
H       21.0853666084     3.0359014016     8.2537986501
H       20.3344516719     4.6118827840     7.9638140781
Si       16.3910704713     3.3568254088     4.3841458944
O       16.4683784455     4.9572599835     4.6740418864
O       17.8444171809     2.7971484386     3.8927762690
O       15.3069877326     3.0645819109     3.1942250149
O       15.9445141895     2.6146925005     5.7654593665
Si       16.5422592429     6.5808483820     4.4562149671
Si       13.9278610890     2.5501686710     2.4627754813
Si       18.8696339546     2.5070588121     2.6405949363
Si       15.7624702425     1.1503497744     6.4972919968
H       17.9150956968     6.8221450790     3.9708951637
H       15.5767203722     7.0523182184     3.3850533389
H       16.3274502459     7.4140080214     5.7178242219
H       12.7837854285     3.2728954320     3.0490468259
H       13.9428238653     2.8484434148     1.0001039060
H       18.5589725878     3.2947091791     1.3888590609
H       13.7002367874     1.0780754326     2.6542815263
H       18.6111424679     1.0928628301     2.3996469372
H       16.5113505931     0.9817487576     7.7943583469
H       14.3114720335     0.9855260056     6.7583465852
H       20.3455082656     2.7173450280     2.9363950850
H       16.2241692650     0.0771357801     5.5702809952
32
# Point -3 Energy = 0.0
C       20.6357801180     3.6636616935     7.5065407146
H       18.9648097633     3.6405501757     6.1445277018
C       19.4344080679     2.9663641342     6.8714751123
H       18.6782670957     2.7686302977     7.6426428060
H       20.5596056403     1.8285956675     5.3989617080
C       19.8109783557     1.6554875912     6.1820386037
H       18.9423198429     1.1762812026     5.7147818768
H       20.2436515149     0.9450293859     6.8949175521
H       21.4003030027     3.8851899209     6.7526387960
H       21.0968589088     3.0336045352     8.2726526687
H       20.3449383760     4.6080987860     7.9773013913
Si       16.4080343218     3.3694872893     4.3920595429
O       16.4386192799     4.9696454788     4.6950620199
O       17.8774356104     2.8625054084     3.8875561180
O       15.3320444675     3.0495277151     3.2012634086
O       15.9865505107     2.6042705454     5.7694291458
Si       16.5269037769     6.5873953356     4.4331756412
Si       13.9405669033     2.5561111236     2.4773400331
Si       18.8578463575     2.5171726700     2.6117572866
Si       15.7517335696     1.1404936336     6.4881305279
H       17.9017993730     6.8414692708     3.9449131318
H       15.5616770547     7.0148348415     3.3482496098
H       16.2991888929     7.4409586735     5.6752313832
H       12.8010048970     3.2874011944     3.0669655022
H       13.9480462861     2.8521379766     1.0133944782
H       18.5094238877     3.3105425311     1.3805343319
H       13.7055485360     1.0874692830     2.6736764662
H       18.5862202281     1.0975359600     2.3622834441
H       16.4786298555     0.9471178912     7.7946316229
H       14.2914590968     0.9827545308     6.7321985738
H       20.3427431033     2.7096699259     2.8651766539
H       16.2105839053     0.0733073307     5.5556575066
32
# Point -2 Energy = 0.0
C       20.6430230992     3.6597167409     7.5186775526
H       18.9724983522     3.6315962947     6.1574462945
C       19.4417233211     2.9597128193     6.8866086541
H       18.6856722240     2.7643653104     7.6583664917
H       20.5710991112     1.8166575493     5.4212312352
C       19.8179936888     1.6468933697     6.2007235438
H       18.9500930134     1.1691501171     5.7301975348
H       20.2447678980     0.9355976004     6.9163080663
H       21.4064173262     3.8802639012     6.7633434017
H       21.1058731812     3.0325331497     8.2860973520
H       20.3513564196     4.6050813846     7.9870768974
Si       16.4206334642     3.3822732494     4.3969773997
O       16.4027225750     4.9805644366     4.7135881720
O       17.9045669814     2.9308507425     3.8786613374
O       15.3521459186     3.0331790746     3.2069512650
O       16.0271196984     2.5934237933     5.7700645000
Si       16.5154888466     6.5920646466     4.4162751778
Si       13.9502441527     2.5600917121     2.4881324379
Si       18.8481852856     2.5250489253     2.5910358043
Si       15.7452496437     1.1336096884     6.4807689781
H       17.8935247959     6.8530539252     3.9252597206
H       15.5529274793     6.9867641643     3.3214513796
H       16.2805872871     7.4606816512     5.6429131152
H       12.8135484896     3.2978687189     3.0803733031
H       13.9518777162     2.8557025612     1.0233247152
H       18.4735047337     3.3196681388     1.3753056731
H       13.7093880956     1.0944184230     2.6872064703
H       18.5645795573     1.0991975390     2.3368129071
H       16.4544807199     0.9219511536     7.7945414209
H       14.2770014717     0.9808715557     6.7130832308
H       20.3389724448     2.7003205735     2.8130798022
H       16.2007136080     0.0701290895     5.5452815255
32
# Point -1 Energy = 0.0
C       20.6469439354     3.6569425799     7.5255620885
H       18.9762368035     3.6234335220     6.1659181188
C       19.4458505498     2.9537994386     6.8967434497
H       18.6903735981     2.7599921500     7.6693455528
H       20.5793908523     1.8068458785     5.4374652424
C       19.8223024794     1.6395969434     6.2136212674
H       18.9552543251     1.1629896685     5.7400099515
H       20.2439433918     0.9274132569     6.9313525762
H       21.4087075034     3.8773313807     6.7685350800
H       21.1123188815     3.0325601619     8.2937578718
H       20.3540921093     4.6028254931     7.9921891143
Si       16.4287840880     3.3950660697     4.3984850306
O       16.3612468316     4.9898540003     4.7286886273
O       17.9253199347     3.0014718469     3.8657963656
O       15.3671344380     3.0154050081     3.2110409724
O       16.0660068494     2.5828032792     5.7671631698
Si       16.5078530136     6.5951093959     4.4057942691
Si       13.9565868846     2.5617549202     2.4951466635
Si       18.8416536742     2.5311523829     2.5784913825
Si       15.7428572906     1.1300542757     6.4756821549
H       17.8901536411     6.8579893674     3.9125527977
H       15.5495908804     6.9690668530     3.3047109078
H       16.2714235691     7.4727316690     5.6221001332
H       12.8211705125     3.3043819321     3.0889317534
H       13.9540646587     2.8580509221     1.0297186673
H       18.4517138092     3.3225379177     1.3724295479
H       13.7112340969     1.0986655305     2.6955632081
H       18.5489406839     1.0980109487     2.3226969053
H       16.4392476846     0.9066994547     7.7947909438
H       14.2678416427     0.9801386673     6.7018763852
H       20.3356697956     2.6908562765     2.7813676882
H       16.1940721912     0.0677708085     5.5396374727
32
# Point 0 Energy = 0
C       20.6477110000     3.6549790000     7.5266840000
H       18.9761800000     3.6157410000     6.1694560000
C       19.4467280000     2.9484220000     6.9016430000
H       18.6922510000     2.7558520000     7.6754250000
H       20.5840390000     1.7980300000     5.4478400000
C       19.8234060000     1.6330100000     6.2209870000
H       18.9571360000     1.1573250000     5.7446630000
H       20.2404540000     0.9200090000     6.9405780000
H       21.4074060000     3.8754920000     6.7676150000
H       21.1161610000     3.0334640000     8.2953550000
H       20.3536290000     4.6012450000     7.9917750000
Si       16.4325060000     3.4077350000     4.3962220000
O       16.3148940000     4.9974300000     4.7394840000
O       17.9393640000     3.0735620000     3.8486780000
O       15.3769370000     2.9960700000     3.2133680000
O       16.1030250000     2.5730330000     5.7606000000
Si       16.5037570000     6.5966350000     4.4017980000
Si       13.9593780000     2.5607940000     2.4984440000
Si       18.8391290000     2.5361430000     2.5740860000
Si       15.7443760000     1.1302530000     6.4733110000
H       17.8913405600     6.8573308000     3.9070238400
H       15.5508605600     6.9622108000     3.2979838400
H       16.2712205600     7.4764908000     5.6136238400
H       12.8237502400     3.3071035200     3.0923555200
H       13.9544302400     2.8581435200     1.0324755200
H       18.4443303200     3.3198514400     1.3715668800
H       13.7106302400     1.1000235200     2.6995155200
H       18.5418503200     1.0943714400     2.3191668800
H       16.4331100800     0.9018602400     7.7959848800
H       14.2637500800     0.9809802400     6.6993448800
H       20.3340103200     2.6832114400     2.7708868800
H       16.1902300800     0.0665002400     5.5392248800
32
# Point 1 Energy = 0.0
C       20.6455592035     3.6533541087     7.5216400984
H       18.9725493823     3.6081469932     6.1676800153
C       19.4443396113     2.9433112330     6.9011720830
H       18.6912229988     2.7522369258     7.6765429311
H       20.5846147985     1.7889910035     5.4526382956
C       19.8208136533     1.6264742235     6.2231730518
H       18.9550689385     1.1516343087     5.7446884742
H       20.2335574701     0.9128409606     6.9446067277
H       21.4028213126     3.8737154478     6.7600978637
H       21.1174120644     3.0348905902     8.2907100277
H       20.3505437960     4.6001466706     7.9850823305
Si       16.4319187802     3.4201691045     4.3898896794
O       16.2644799456     5.0033259056     4.7451619101
O       17.9465413437     3.1462652342     3.8270408182