32
# Point -15 Energy = 0.0
C       20.5059532649     3.7240496844     7.6997909460
H       18.9199354242     3.6449289215     6.2105525973
C       19.3764316675     2.9752827852     6.9638203425
H       18.7490539636     2.8143320121     7.5923446510
H       20.4625162554     1.8231068974     5.5827589094
C       19.7621986786     1.6876513986     6.2335468352
H       19.1059872709     1.2966920872     5.8711715829
H       20.3775044297     0.6456398285     7.3299287950
H       21.9844553152     4.0708337335     6.1795194286
H       20.8709318509     3.2665912005     8.1946233501
H       20.4870037839     3.7932671745     7.7293748185
Si       16.4080986086     3.4200414709     4.4036208520
O       16.2732900339     5.0080993706     4.7482838631
O       17.9255511919     3.0985478358     3.8779594157
O       15.3735359201     3.0030193176     3.2040942990
O       16.0644672267     2.5799193942     5.7610478670
Si       16.4550297370     6.6093807680     4.4168415084
Si       13.9702413811     2.5586156018     2.4671017786
Si       18.8482943113     2.5706685140     2.6160308614
Si       15.7062346480     1.1329544295     6.4653633927
H       17.8478717962     6.8816576870     3.9434815549
H       15.5160645503     6.9701663422     3.2995736502
H       16.1976721875     7.4848148185     5.6268336451
H       12.8201863892     3.2950124877     3.0454215239
H       13.9850268197     2.8591249208     1.0018323251
H       18.4656918521     3.3540200080     1.4092899092
H       13.7295917864     1.0955656891     2.6613679627
H       18.5658865087     1.1272743513     2.3536319808
H       16.3767224398     0.9068471718     7.7977526854
H       14.2235232676     0.9719550694     6.6688167271
H       20.3389450234     2.7286346785     2.8355133136
H       16.1740830155     0.0746063498     5.5358739876
32
# Point -14 Energy = 0.0
C       20.5154690465     3.7194317100     7.6886139648
H       18.9234545680     3.6427681272     6.2080073972
C       19.3808846775     2.9732801453     6.9598970954
H       18.7449023596     2.8101665951     7.5979672161
H       20.4707318360     1.8210157655     5.5742614875
C       19.7660158319     1.6837078775     6.2329313317
H       19.0959858546     1.2866422667     5.8630336142
H       20.3681730266     0.6632127235     7.3037776948
H       21.9463358988     4.0605682004     6.2199163541
H       20.8882980298     3.2502668430     8.2006315688
H       20.4797196611     3.8488650682     7.7444442145
Si       16.4096251940     3.4191681832     4.4031581579
O       16.2759976336     5.0073340266     4.7477738108
O       17.9264047408     3.0967908464     3.8761127327
O       15.3737096134     3.0025670107     3.2046604161
O       16.0668231375     2.5793827879     5.7610109072
Si       16.4582905509     6.6084823897     4.4159754357
Si       13.9694799708     2.5588362552     2.4690372429
Si       18.8476807770     2.5682754997     2.6133680347
Si       15.7084662609     1.1326880696     6.4658229868
H       17.8508322916     6.8799530824     3.9412750717
H       15.5184678665     6.9696477684     3.2995529697
H       16.2025442593     7.4841908446     5.6261118065
H       12.8203681834     3.2959191949     3.0483569597
H       13.9830479500     2.8591718376     1.0037211683
H       18.4643618556     3.3516956908     1.4069026929
H       13.7282250391     1.0959386475     2.6636972988
H       18.5642432251     1.1250028632     2.3514025084
H       16.3800887771     0.9063716406     7.7976062403
H       14.2258629144     0.9725146631     6.6706909173
H       20.3386191899     2.7254596998     2.8314325752
H       16.1748703787     0.0739856757     5.5360134870
32
# Point -13 Energy = 0.0
C       20.5249757748     3.7148139112     7.6773862380
H       18.9270063872     3.6406373691     6.2054356954
C       19.3853710625     2.9713065669     6.9559428828
H       18.7408018469     2.8060362223     7.6035772849
H       20.4789344450     1.8189855962     5.5656932540
C       19.7698714794     1.6798071759     6.2322838998
H       19.0859958330     1.2767007332     5.8548519145
H       20.3588732807     0.6808867913     7.2776502465
H       21.9081700302     4.0499071239     6.2601589333
H       20.9055180222     3.2340423626     8.2067455635
H       20.4721960158     3.9042351898     7.7598384016
Si       16.4111659802     3.4183021613     4.4026915606
O       16.2787135468     5.0065756189     4.7472550219
O       17.9272681069     3.0950481403     3.8742512379
O       15.3738910496     3.0021135175     3.2052337222
O       16.0692097799     2.5788552978     5.7609746260
Si       16.4615476588     6.6075906113     4.4150937450
Si       13.9687242903     2.5590464504     2.4709937065
Si       18.8470683554     2.5658987401     2.6106857856
Si       15.7107430720     1.1324311224     6.4662907451
H       17.8537819249     6.8782613370     3.9390409313
H       15.5208571916     6.9691277768     3.2995241748
H       16.2074181498     7.4835748814     5.6253722640
H       12.8205577834     3.2968104737     3.0513197535
H       13.9810608474     2.8592046189     1.0056311739
H       18.4630188821     3.3493822677     1.4044975509
H       13.7268741429     1.0963007735     2.6660545847
H       18.5626073562     1.1227458681     2.3491613103
H       16.3835119620     0.9059126122     7.7974620020
H       14.2282521366     0.9730762120     6.6725858995
H       20.3382936505     2.7223095875     2.8273193441
H       16.1757005552     0.0733748890     5.5361619060
32
# Point -12 Energy = 0.0
C       20.5344729580     3.7101962985     7.6661081847
H       18.9305906632     3.6385365091     6.2028376939
C       19.3898904576     2.9693619730     6.9519580251
H       18.7367522119     2.8019411155     7.6091753525
H       20.4871231441     1.8170159730     5.5570546630
C       19.7737651506     1.6759490299     6.2316049981
H       19.0760169444     1.2668672714     5.8466270487
H       20.3496039175     0.6986620500     7.2515478300
H       21.8699563903     4.0388495814     6.3002440108
H       20.9225917463     3.2179203734     8.2129650575
H       20.4644386711     3.9593780008     7.7755545427
Si       16.4127209477     3.4174433803     4.4022211305
O       16.2814379394     5.0058242050     4.7467273175
O       17.9281412517     3.0933193926     3.8723751956
O       15.3740802716     3.0016587846     3.2058142845
O       16.0716269101     2.5783371420     5.7609391522
Si       16.4648014671     6.6067054273     4.4141960504
Si       13.9679744057     2.5592462264     2.4729711934
Si       18.8464570329     2.5635375870     2.6079845664
Si       15.7130645880     1.1321839507     6.4667669569
H       17.8567211601     6.8765821754     3.9367788436
H       15.5232330901     6.9686063368     3.2994867705
H       16.2122942823     7.4829671448     5.6246144536
H       12.8207553207     3.2976866206     3.0543097066
H       13.9790657445     2.8592230884     1.0075623585
H       18.4616631321     3.3470789749     1.4020748173
H       13.7255389543     1.0966521586     2.6684400293
H       18.5609787214     1.1205027092     2.3469090284
H       16.3869913466     0.9054705460     7.7973203204
H       14.2306904224     0.9736403230     6.6745018496
H       20.3379683729     2.7191835104     2.8231741776
H       16.1765729832     0.0727741400     5.5363197503
32
# Point -11 Energy = 0.0
C       20.5439611665     3.7055799261     7.6547786207
H       18.9342078472     3.6364661159     6.2002124590
C       19.3944433898     2.9674471652     6.9479417239
H       18.7327543365     2.7978825322     7.6147610335
H       20.4952975115     1.8151070586     5.5483449926
C       19.7776970991     1.6721339117     6.2308941474
H       19.0660495384     1.2571422851     5.8383589685
H       20.3403646658     0.7165394422     7.2254709187
H       21.8316946055     4.0273959536     6.3401667386
H       20.9395198321     3.2019037541     8.2192877298
H       20.4564438393     4.0142826879     7.7916080279
Si       16.4142902485     3.4165920587     4.4017465584
O       16.2841712045     5.0050801580     4.7461898213
O       17.9290241654     3.0916044404     3.8704841402
O       15.3742771706     3.0012027116     3.2064021752
O       16.0740748598     2.5778290761     5.7609045148
Si       16.4680524741     6.6058270774     4.4132808609
Si       13.9672300406     2.5594353793     2.4749702257
Si       18.8458464811     2.5611912957     2.6052639630
Si       15.7154311274     1.1319476032     6.4672522327
H       17.8596504096     6.8749154946     3.9344869651
H       15.5255958974     6.9680833936     3.2994393414
H       16.2171734893     7.4823683587     5.6238365796
H       12.8209607303     3.2985477909     3.0573272741
H       13.9770621123     2.8592265023     1.0095151696
H       18.4602941337     3.3447846747     1.3996338949
H       13.7242190807     1.0969926901     2.6708547334
H       18.5593567904     1.1182725696     2.3446458399
H       16.3905274731     0.9050468986     7.7971817263
H       14.2331781375     0.9742083001     6.6764397138
H       20.3376430639     2.7160806237     2.8189963139
H       16.1774876782     0.0721840702     5.5364879550
32
# Point -10 Energy = 0.0
C       20.5534406086     3.7009655070     7.6433968593
H       18.9378581777     3.6344265439     6.1975593986
C       19.3990300942     2.9655626746     6.9438935223
H       18.7288087701     2.7938614218     7.6203342303
H       20.5034569385     1.8132587988     5.5395638953
C       19.7816673376     1.6683620667     6.2301511708
H       19.0560937408     1.2475259882     5.8300478588
H       20.3311548951     0.7345196003     7.1994202817
H       21.7933838906     4.0155466363     6.3799227797
H       20.9563025698     3.1859953225     8.2257119678
H       20.4482112681     4.0689416775     7.8080086286
Si       16.4158739750     3.4157483362     4.4012676422
O       16.2869136644     5.0043437532     4.7456418448
O       17.9299168191     3.0899030524     3.8685778283
O       15.3744816788     3.0007452043     3.2069974593
O       16.0765537716     2.5773317022     5.7608707694
Si       16.4713011557     6.6049557198     4.4123469835
Si       13.9664910196     2.5596137741     2.4769911688
Si       18.8452364567     2.5588591150     2.6025238351
Si       15.7178427405     1.1317229397     6.4677470932
H       17.8625701069     6.8732611186     3.9321638893
H       15.5279460301     6.9675588886     3.2993807093
H       16.2220564859     7.4817790969     5.6230371719
H       12.8211740070     3.2993941896     3.0603726954
H       13.9750496547     2.8592142710     1.0114899180
H       18.4589116154     3.3424982988     1.3971744732
H       13.7229141956     1.0973223162     2.6732995337
H       18.5577411235     1.1160546456     2.3423720864
H       16.3941204954     0.9046428505     7.7970467054
H       14.2357153606     0.9747812663     6.6784002082
H       20.3373174965     2.7130000428     2.8147854060
H       16.1784444559     0.0716051808     5.5366673452
32
# Point -9 Energy = 0.0
C       20.5629108048     3.6963529752     7.6319633311
H       18.9415414349     3.6324176415     6.1948787307
C       19.4036501928     2.9637083991     6.9398137552
H       18.7249152568     2.7898780963     7.6258954481
H       20.5116004377     1.8114707056     5.5307118353
C       19.7856753535     1.6646332120     6.2293765340
H       19.0461492388     1.2380181253     5.8216943197
H       20.3219733171     0.7526024415     7.1733972346
H       21.7550233683     4.0033011934     6.4195094901
H       20.9729399821     3.1701977037     8.2322375301
H       20.4397465029     4.1233554327     7.8247526753
Si       16.4174721043     3.4149121765     4.4007844631
O       16.2896654867     5.0036150353     4.7450832127
O       17.9308191672     3.0882148820     3.8666565402
O       15.3746938376     3.0002862011     3.2076002156
O       16.0790633955     2.5768452340     5.7608380568
Si       16.4745479248     6.6040913315     4.4113940303
Si       13.9657574097     2.5597814486     2.4790340583
Si       18.8446269359     2.5565403667     2.5997646565
Si       15.7202989240     1.1315103248     6.4682518438
H       17.8654807208     6.8716187444     3.9298093266
H       15.5302840627     6.9670327759     3.2993103752
H       16.2269437042     7.4811995613     5.6222156590
H       12.8213952875     3.3002261196     3.0634457775
H       13.9730286071     2.8591862130     1.0134866322
H       18.4575157722     3.3402190512     1.3946969052
H       13.7216241523     1.0976411320     2.6757746562
H       18.5561315265     1.1138482541     2.3400884367
H       16.3977697524     0.9042588630     7.7969156244
H       14.2383015726     0.9753598402     6.6803835222
H       20.3369916256     2.7099408979     2.8105420344
H       16.1794427408     0.0710376205     5.5368584490
32
# Point -8 Energy = 0.0
C       20.5723717656     3.6917427839     7.6204776213
H       18.9452577349     3.6304396119     6.1921700450
C       19.4083037461     2.9618846778     6.9357021463
H       18.7210741313     2.7859333335     7.6314447314
H       20.5197272673     1.8097425360     5.5217886640
C       19.7897209910     1.6609474255     6.2285702131
H       19.0362160007     1.2286187486     5.8132986554
H       20.3128190981     0.7707883338     7.1474026417
H       21.7166121643     3.9906606830     6.4589230739
H       20.9894322443     3.1545136257     8.2388631705
H       20.4310514607     4.1775182920     7.8418468942
Si       16.4190846841     3.4140836594     4.4002968707
O       16.2924269553     5.0028942092     4.7445133332
O       17.9317311561     3.0865396315     3.8647201473
O       15.3749135867     2.9998256038     3.2082104972
O       16.0816037534     2.5763701757     5.7608064403
Si       16.4777932574     6.6032340065     4.4104209653
Si       13.9650290727     2.5599383108     2.4810991656
Si       18.8440177025     2.5542342604     2.5969864292
Si       15.7227995532     1.1313105047     6.4687669485
H       17.8683827107     6.8699881250     3.9274221036
H       15.5326104706     6.9665049838     3.2992272842
H       16.2318358140     7.4806302257     5.6213707436
H       12.8216245875     3.3010438276     3.0665466343
H       13.9709987849     2.8591418289     1.0155055398
H       18.4561064283     3.3379458687     1.3922010300
H       13.7203486318     1.0979491277     2.6782807849
H       18.5545275791     1.1116525666     2.3377953147
H       16.4014751560     0.9038959489     7.7967889374
H       14.2409366662     0.9759450483     6.6823902384
H       20.3366652423     2.7069022341     2.8062660716
H       16.1804822027     0.0704818008     5.5370620234
32
# Point -7 Energy = 0.0
C       20.5818234059     3.6871352781     7.6089394572
H       18.9490071259     3.6284925981     6.1894330344
C       19.4129907251     2.9600917721     6.9315585202
H       18.7172856061     2.7820278693     7.6369822016
H       20.5278366180     1.8080739827     5.5127943367
C       19.7938040113     1.6573047232     6.2277322659
H       19.0262939186     1.2193278548     5.8048612304
H       20.3036913118     0.7890775462     7.1214374248
H       21.6781494907     3.9776260703     6.4981600775
H       21.0057795199     3.1389458527     8.2455878461
H       20.4221289290     4.2314255875     7.8592962103
Si       16.4207117399     3.4132628396     4.3998047474
O       16.2951983237     5.0021814469     4.7439316724
O       17.9326527223     3.0848769865     3.8627685877
O       15.3751408749     2.9993633132     3.2088283557
O       16.0841748099     2.5759069818     5.7607759913
Si       16.4810376074     6.6023838109     4.4094268452
Si       13.9643058993     2.5600842828     2.4831867164
Si       18.8434085622     2.5519400116     2.5941892367
Si       15.7253444288     1.1311241633     6.4692928435
H       17.8712765253     6.8683689927     3.9250011813
H       15.5349257368     6.9659754349     3.2991304567
H       16.2367334326     7.4800715126     5.6205012298
H       12.8218619379     3.3018475645     3.0696753169
H       13.9689600701     2.8590806612     1.0175468287
H       18.4546834620     3.3356777172     1.3896867726
H       13.7190873389     1.0982463056     2.6808185246
H       18.5529288895     1.1094667671     2.3354931918
H       16.4052365084     0.9035550334     7.7966670834
H       14.2436204549     0.9765378530     6.6844208696
H       20.3363381530     2.7038830971     2.8019575129
H       16.1815624600     0.0699380889     5.5372787905
32
# Point -6 Energy = 0.0
C       20.5912656131     3.6825307675     7.5973485805
H       18.9527896392     3.6265767309     6.1866673953
C       19.4177110758     2.9583299257     6.9273827062
H       18.7135498671     2.7781624435     7.6425079852
H       20.5359276521     1.8064647036     5.5037288187
C       19.7979241470     1.6537051062     6.2268627555
H       19.0163828521     1.2101454236     5.7963824218
H       20.2945890055     0.8074703087     7.0955024936
H       21.6396345745     3.9641985986     6.5372171793
H       21.0219819521     3.1234971677     8.2524105577
H       20.4129821620     4.2850727204     7.8771054606
Si       16.4223532842     3.4124497619     4.3993079694
O       16.2979798333     5.0014769102     4.7433376886
O       17.9335837894     3.0832266183     3.8608017998
O       15.3753756422     2.9988992225     3.2094538337
O       16.0867765109     2.5754560987     5.7607467739
Si       16.4842814207     6.6015407994     4.4084107177
Si       13.9635877742     2.5602192834     2.4852969225
Si       18.8427993108     2.5496568191     2.5913731677
Si       15.7279333281     1.1309519792     6.4698299568
H       17.8741626059     6.8667610639     3.9225455169
H       15.5372303406     6.9654440417     3.2990189004
H       16.2416371661     7.4795238337     5.6196059106
H       12.8221073632     3.3026375811     3.0728318570
H       13.9669123441     2.8590022480     1.0196106734
H       18.4532467467     3.3334135455     1.3871540615
H       13.7178399697     1.0985326662     2.6833884669
H       18.5513350551     1.1072900239     2.3331825450
H       16.4090535831     0.9032370351     7.7965504960
H       14.2463527291     0.9771392156     6.6864759153
H       20.3360101529     2.7008825110     2.7976163645
H       16.1826831089     0.0694068452     5.5375094679
32
# Point -5 Energy = 0.0
C       20.6006982475     3.6779295244     7.5857047481
H       18.9566052901     3.6246921271     6.1838728282
C       19.4224647210     2.9565993621     6.9231745385
H       18.7098670742     2.7743377968     7.6480222139
H       20.5439995055     1.8049143205     5.4945920848
C       19.8020811040     1.6501485590     6.2259617500
H       19.0064826293     1.2010714166     5.7878626192
H       20.2855112023     0.8259668103     7.0695987444
H       21.6010666531     3.9503798082     6.5760911980
H       21.0380396678     3.1081703715     8.2593303491
H       20.4036148474     4.3384551639     7.8952793728
Si       16.4240093175     3.4116444607     4.3988064079
O       16.3007717152     5.0007807502     4.7427308332
O       17.9345242697     3.0815881837     3.8588197232
O       15.3756178210     2.9984332179     3.2100869654
O       16.0894087849     2.5750179642     5.7607188452
Si       16.4875251357     6.6007050139     4.4073716246
Si       13.9628745771     2.5603432285     2.4874299823
Si       18.8421897354     2.5473838646     2.5885383161
Si       15.7305660065     1.1307946238     6.4703787086
H       17.8770413882     6.8651640385     3.9200540675
H       15.5395247595     6.9649107070     3.2988916143
H       16.2465476109     7.4789875886     5.6186835710
H       12.8223608829     3.3034141278     3.0760162683
H       13.9648554887     2.8589061246     1.0216972357
H       18.4517961530     3.3311522865     1.3846028299
H       13.7166062125     1.0988082086     2.6859911892
H       18.5497456631     1.1051214906     2.3308638563
H       16.4129261266     0.9029428634     7.7964396022
H       14.2491332573     0.9777500943     6.6885558608
H       20.3356810267     2.6978994793     2.7932426436
H       16.1838437253     0.0688884226     5.5377547676
32
# Point -4 Energy = 0.0
C       20.6101211425     3.6733317827     7.5740077331
H       18.9604540779     3.6228388888     6.1810490388
C       19.4272515604     2.9549002840     6.9189338565
H       18.7062373609     2.7705546701     7.6535250244
H       20.5520512878     1.8034224191     5.4853841197
C       19.8062745608     1.6466350488     6.2250293224
H       18.9965930475     1.1921057764     5.7793022226
H       20.2764569024     0.8445671990     7.0437270591
H       21.5624449737     3.9361715413     6.6147791013
H       21.0539527794     3.0929682838     8.2663463064
H       20.3940311015     4.3915684700     7.9138225578
Si       16.4256798284     3.4108469597     4.3982999289
O       16.3035741893     5.0000931061     4.7421105526
O       17.9354740638     3.0799613256     3.8568222986
O       15.3758673358     2.9979651786     3.2107277760
O       16.0920715427     2.5745930054     5.7606922551
Si       16.4907691830     6.5998764838     4.4063086033
Si       13.9621661828     2.5604560313     2.4895860802
Si       18.8415796148     2.5451203149     2.5856847813
Si       15.7332421978     1.1306527595     6.4709395096
H       17.8799133005     6.8635776002     3.9175257914
H       15.5418094678     6.9643753235     3.2987475894
H       16.2514653524     7.4784631633     5.6177329901
H       12.8226225114     3.3041774547     3.0792285455
H       13.9627893865     2.8587918239     1.0238066645
H       18.4503315485     3.3288928590     1.3820330151
H       13.7153857484     1.0990729302     2.6886272537
H       18.5481602922     1.1029603067     2.3285376115
H       16.4168538582     0.9026734166     7.7963348219
H       14.2519617865     0.9783714423     6.6906611763
H       20.3353505496     2.6949329860     2.7888363787
H       16.1850438649     0.0683831646     5.5380153943
32
# Point -3 Energy = 0.0
C       20.6195341037     3.6687377368     7.5622573263
H       18.9643359857     3.6210171026     6.1781957375
C       19.4320714698     2.9532328721     6.9146605049
H       18.7026608343     2.7668138028     7.6590165582
H       20.5600820831     1.8019885488     5.4761049175
C       19.8105041694     1.6431645248     6.2240655496
H       18.9867138737     1.1832484272     5.7707016415
H       20.2674250846     0.8632715812     7.0178883037
H       21.5237687938     3.9215759465     6.6532780168
H       21.0697213858     3.0778937440     8.2734575572
H       20.3842354637     4.4444082766     7.9327395050
Si       16.4273647934     3.4100572710     4.3977883932
O       16.3063874638     4.9994141047     4.7414762883
O       17.9364330609     3.0783456727     3.8548094677
O       15.3761241039     2.9974949761     3.2113762820
O       16.0947646776     2.5741816380     5.7606670455
Si       16.4940139840     6.5990552248     4.4052206886
Si       13.9614624623     2.5605576016     2.4917653858
Si       18.8409687200     2.5428653221     2.5828126679
Si       15.7359616149     1.1305270378     6.4715127597
H       17.8827787633     6.8620014164     3.9149596507
H       15.5440849355     6.9638377737     3.2985858117
H       16.2563909636     7.4779509289     5.6167529436
H       12.8228922584     3.3049278097     3.0824686641
H       13.9607139216     2.8586588774     1.0259390947
H       18.4488527983     3.3266341690     1.3794445594
H       13.7141782527     1.0993268269     2.6912972057
H       18.5465785127     1.1008055997     2.3262042998
H       16.4208364709     0.9024295790     7.7962365659
H       14.2548380427     0.9790042049     6.6927923146
H       20.3350184872     2.6919819970     2.7843976092
H       16.1862830645     0.0678914050     5.5382920437
32
# Point -2 Energy = 0.0
C       20.6289369092     3.6641475410     7.5504533365
H       18.9682509803     3.6192268388     6.1753126406
C       19.4369243018     2.9515972841     6.9103543336
H       18.6991375744     2.7631159312     7.6644969607
H       20.5680909511     1.8006122230     5.4667544815
C       19.8147695557     1.6397369181     6.2230705118
H       18.9768448454     1.1744992738     5.7620612932
H       20.2584147089     0.8820800216     6.9920833275
H       21.4850373800     3.9065954825     6.6915852409
H       21.0853455740     3.0629496120     8.2806632697
H       20.3742328899     4.4969703124     7.9520345777
Si       16.4290641774     3.4092753952     4.3972716567
O       16.3092117349     4.9987438599     4.7408274779
O       17.9374011395     3.0767408401     3.8527811734
O       15.3763880356     2.9970224747     3.2120324905
O       16.0974880660     2.5737842646     5.7606432503
Si       16.4972599501     6.5982412390     4.4041069146
Si       13.9607632824     2.5606478462     2.4939680538
Si       18.8403568148     2.5406180255     2.5799220852
Si       15.7387239501     1.1304180977     6.4720988470
H       17.8856381882     6.8604351388     3.9123546128
H       15.5463516277     6.9632979298     3.2984052631
H       16.2613250035     7.4774512409     5.6157422059
H       12.8231701283     3.3056654387     3.0857365805
H       13.9586289797     2.8585068155     1.0280946474
H       18.4473597655     3.3243751124     1.3768374101
H       13.7129833952     1.0995698920     2.6940015724
H       18.5449998881     1.0986564858     2.3238644121
H       16.4248736317     0.9022122191     7.7961452354
H       14.2577617313     0.9796493179     6.6949497106
H       20.3346845962     2.6890454618     2.7799263861
H       16.1875608431     0.0674134660     5.5385854005
32
# Point -1 Energy = 0.0
C       20.6383293089     3.6595613091     7.5385955910
H       18.9721990119     3.6174681513     6.1723994699
C       19.4418098859     2.9499936543     6.9060151981
H       18.6956676347     2.7594617880     7.6699663813
H       20.5760769274     1.7992929200     5.4573328238
C       19.8190703200     1.6363521411     6.2220442923
H       18.9669856717     1.1658582023     5.7533816011
H       20.2494247173     0.9009925441     6.9663129615
H       21.4462500083     3.8912329184     6.7296982470
H       21.1008254204     3.0481387689     8.2879626508
H       20.3640287444     4.5492504008     7.9717120139
Si       16.4307779332     3.4085013205     4.3967495702
O       16.3120471859     4.9980824719     4.7401635563
O       17.9383781670     3.0751464298     3.8507373597
O       15.3766590342     2.9965475308     3.2126963990
O       16.1002415671     2.5734012741     5.7606208946
Si       16.5005074815     6.5974345140     4.4029663160
Si       13.9600685065     2.5607266682     2.4961942228
Si       18.8397436560     2.5383775528     2.5770131472
Si       15.7415288760     1.1303265643     6.4726981467
H       17.8884919765     6.8588784033     3.9097096526
H       15.5486100030     6.9627556536     3.2982049237
H       16.2662680157     7.4769644374     5.6146995515
H       12.8234561213     3.3063905840     3.0890322314
H       13.9565344486     2.8583351681     1.0302734289
H       18.4458523112     3.3221145758     1.3742115193
H       13.7118008415     1.0998021163     2.6967408614
H       18.5434239758     1.0965120713     2.3215184404
H       16.4289649824     0.9020221873     7.7960612199
H       14.2607325383     0.9803077045     6.6971337793
H       20.3343486250     2.6861223157     2.7754227710
H       16.1888767026     0.0669496579     5.5388961374
32
# Point 0 Energy = 0
C       20.6477110000     3.6549790000     7.5266840000
H       18.9761800000     3.6157410000     6.1694560000
C       19.4467280000     2.9484220000     6.9016430000
H       18.6922510000     2.7558520000     7.6754250000
H       20.5840390000     1.7980300000     5.4478400000
C       19.8234060000     1.6330100000     6.2209870000
H       18.9571360000     1.1573250000     5.7446630000
H       20.2404540000     0.9200090000     6.9405780000
H       21.4074060000     3.8754920000     6.7676150000
H       21.1161610000     3.0334640000     8.2953550000
H       20.3536290000     4.6012450000     7.9917750000
Si       16.4325060000     3.4077350000     4.3962220000
O       16.3148940000     4.9974300000     4.7394840000
O       17.9393640000     3.0735620000     3.8486780000
O       15.3769370000     2.9960700000     3.2133680000
O       16.1030250000     2.5730330000     5.7606000000
Si       16.5037570000     6.5966350000     4.4017980000
Si       13.9593780000     2.5607940000     2.4984440000
Si       18.8391290000     2.5361430000     2.5740860000
Si       15.7443760000     1.1302530000     6.4733110000
H       17.8913405600     6.8573308000     3.9070238400
H       15.5508605600     6.9622108000     3.2979838400
H       16.2712205600     7.4764908000     5.6136238400
H       12.8237502400     3.3071035200     3.0923555200
H       13.9544302400     2.8581435200     1.0324755200
H       18.4443303200     3.3198514400     1.3715668800
H       13.7106302400     1.1000235200     2.6995155200
H       18.5418503200     1.0943714400     2.3191668800
H       16.4331100800     0.9018602400     7.7959848800
H       14.2637500800     0.9809802400     6.6993448800
H       20.3340103200     2.6832114400     2.7708868800
H       16.1902300800     0.0665002400     5.5392248800
32
# Point 1 Energy = 0.0
C       20.6570817348     3.6504007447     7.5147183331
H       18.9801938913     3.6140454717     6.1664818988
C       19.4516784765     2.9468824935     6.8972375443
H       18.6888877316     2.7522873783     7.6808729239
H       20.5919762105     1.7968229837     5.4382759992
C       19.8277762173     1.6297104471     6.2198986920
H       18.9472955352     1.1488996096     5.7359059155
H       20.2315015475     0.9391294507     6.9148792390
H       21.3685047578     3.8593756068     6.8053331787
H       21.1313522827     3.0189283142     8.3028395645
H       20.3430392730     4.6529494860     8.0122283873
Si       16.4342483152     3.4069764205     4.3956887656
O       16.3177523357     4.9967865441     4.7387881932
O       17.9403584865     3.0719871526     3.8466030013