32
# Point -15 Energy = 0.0
C       20.6816446889     3.5594836329     7.3925444634
H       18.9257225855     3.5827709158     6.1495922827
C       19.4212512629     2.8927932425     6.8429614216
H       18.7149811048     2.7185704435     7.6658458264
H       20.4153710778     1.7121201703     5.3051865244
C       19.7026919480     1.5709046905     6.1261466207
H       18.7896039611     1.1305291566     5.6997502139
H       20.1329794066     0.8269607937     6.8060408101
H       21.3950275511     3.7667037223     6.5864679355
H       21.1836878885     2.9254563413     8.1294935220
H       20.4378585631     4.5110795922     7.8752929297
Si       16.1298118831     3.2519722548     4.6645168416
O       16.4446563735     4.7904855559     4.5285329259
O       17.4355089297     3.5386944848     3.7366044176
O       15.2155467359     3.3855624179     3.2741028505
O       16.2419831698     2.7374978694     6.2654252305
Si       16.7550718131     6.3242430808     4.3934718411
Si       14.2745903330     2.2434239773     2.4695547932
Si       18.5219710872     3.0384015582     2.6577634121
Si       15.5357832747     1.2092924964     6.7163012922
H       18.0861863521     6.4486750489     3.8076308815
H       15.7613971341     7.0394471064     3.4588338715
H       16.8174076749     7.4264874008     5.6440404067
H       12.8089637593     2.5824841234     2.5236292925
H       14.7654234854     2.3378738381     1.1497838725
H       18.1605715632     3.7710133957     1.4712218236
H       14.3171757760     0.7487983968     2.9506265600
H       18.6150557229     1.5024125104     2.1981543507
H       16.2171603436     1.0078123364     7.8626197898
H       14.0910028305     1.4167657204     6.8145592130
H       20.0586106101     3.2971507140     2.9262897505
H       15.8132817095     0.1774350115     5.6341793927
32
# Point -14 Energy = 0.0
C       20.6674101491     3.5725849195     7.4155695417
H       18.9241964502     3.5908960115     6.1547404967
C       19.4160263011     2.9015145942     6.8513463002
H       18.7022275593     2.7215879527     7.6663454554
H       20.4319884897     1.7304641988     5.3210284500
C       19.7117037160     1.5830948053     6.1342261836
H       18.8053918866     1.1392432073     5.6977213282
H       20.1393327014     0.8401674825     6.8168685193
H       21.3880508055     3.7852328103     6.6174596930
H       21.1647059437     2.9384243540     8.1555830307
H       20.4147398644     4.5216003667     7.8987716310
Si       16.1538907190     3.2654595367     4.6325058524
O       16.4373546222     4.8159137949     4.5343355441
O       17.4854262771     3.5179072292     3.7315575426
O       15.2328192297     3.3586610344     3.2463009228
O       16.2256323827     2.7312865784     6.2250816137
Si       16.7571891042     6.3530028642     4.3993707024
Si       14.2252433680     2.2557219041     2.4773887506
Si       18.5548476027     2.9967473576     2.6419840555
Si       15.5614668681     1.1949516110     6.6861148511
H       18.0984887355     6.4751776526     3.8303657932
H       15.7782859968     7.0629609927     3.4494954856
H       16.8001767049     7.4328767065     5.6567663464
H       12.7775906271     2.6288072900     2.6168058399
H       14.6370124825     2.3521722894     1.1273062605
H       18.1941712107     3.7244988710     1.4483695730
H       14.2664102647     0.7609040640     2.9411201148
H       18.6077047197     1.4597212413     2.2080179810
H       16.2433153081     0.9946394141     7.8448748936
H       14.1092718654     1.3595880006     6.7896557183
H       20.0912487913     3.2391941839     2.9004372492
H       15.8646598526     0.1682986804     5.6096496396
32
# Point -13 Energy = 0.0
C       20.6672433455     3.5820193246     7.4236088250
H       18.9382103715     3.5954481816     6.1433408692
C       19.4201722578     2.9103395066     6.8508409641
H       18.6967938607     2.7389919023     7.6590522653
H       20.4498468654     1.7247075324     5.3416585798
C       19.7201639082     1.5855081344     6.1478509813
H       18.8175843658     1.1406082553     5.7052096228
H       20.1385559020     0.8476267149     6.8414107374
H       21.3974288673     3.7859212969     6.6320175259
H       21.1540327534     2.9518073889     8.1737461203
H       20.4128627629     4.5355281621     7.8968702221
Si       16.1929608213     3.2805001839     4.5851356638
O       16.4576321803     4.8390180224     4.5089326956
O       17.5515133715     3.4781884860     3.7121607300
O       15.2675287429     3.3285569050     3.2026852761
O       16.2192283998     2.7412624891     6.1731954747
Si       16.7196977728     6.3939754575     4.4348515790
Si       14.1901769974     2.2724731213     2.4738237851
Si       18.6010140938     2.9202446310     2.6182595335
Si       15.5810837111     1.2093077574     6.6601272893
H       18.0656922606     6.5924331728     3.8987745494
H       15.7316602297     7.0926160226     3.4900813836
H       16.6921294240     7.4001555719     5.7352595569
H       12.7688437623     2.6955275512     2.6839054301
H       14.5318101488     2.3588627869     1.0994291136
H       18.2479034167     3.6360436843     1.4114848297
H       14.2099361776     0.7810292120     2.9324714723
H       18.6036890453     1.3808740891     2.2223669173
H       16.2603106774     1.0158578106     7.8339874952
H       14.1235934028     1.3468124178     6.7663279398
H       20.1379944047     3.1372496282     2.8676053200
H       15.9006862987     0.1738065992     5.6006926117
32
# Point -12 Energy = 0.0
C       20.6621451170     3.5860617282     7.4452536714
H       18.9441801563     3.5972078935     6.1500462937
C       19.4219154270     2.9122456922     6.8605638635
H       18.6920011336     2.7374682569     7.6620421041
H       20.4682806211     1.7326200291     5.3586181617
C       19.7320560964     1.5895761169     6.1581905182
H       18.8347364758     1.1427891891     5.7073626149
H       20.1471162195     0.8523871875     6.8544466171
H       21.3986795960     3.7930896697     6.6604117622
H       21.1438742626     2.9552753565     8.1981360210
H       20.4017768652     4.5379955925     7.9184205550
Si       16.2222996599     3.2923107754     4.5599514231
O       16.4590774694     4.8597513198     4.5207226612
O       17.6035349222     3.4510118746     3.7150069297
O       15.2899486577     3.3055043403     3.1842690743
O       16.2106066744     2.7310641187     6.1363274832
Si       16.6958790073     6.4225986537     4.4272579923
Si       14.1525832470     2.3024595093     2.4818144387
Si       18.6347658437     2.8770634026     2.6084431202
Si       15.6053294708     1.1971320634     6.6356691984
H       18.0445106930     6.6421162555     3.8994548790
H       15.7044649653     7.0839363848     3.4641873404
H       16.6340678170     7.4193950516     5.7207607899
H       12.7594297687     2.7654467599     2.7611632153
H       14.4283777479     2.3993486335     1.0889316728
H       18.2824228311     3.5932882778     1.3978437262
H       14.1539151053     0.8096104823     2.9179133124
H       18.5975834690     1.3413732013     2.2321376222
H       16.2852156830     1.0018153280     7.8212688809
H       14.1430562084     1.3007666706     6.7488745789
H       20.1709763872     3.0760244230     2.8490207756
H       15.9431730015     0.1645677617     5.5826540625
32
# Point -11 Energy = 0.0
C       20.6563597508     3.5920343266     7.4653303462
H       18.9488767392     3.5995822206     6.1560707375
C       19.4230873477     2.9152515594     6.8695873843
H       18.6871580888     2.7369103421     7.6647215814
H       20.4859891352     1.7417157152     5.3748307563
C       19.7437273348     1.5946947057     6.1681658875
H       18.8517182375     1.1454075334     5.7097630821
H       20.1561756773     0.8586464296     6.8671534343
H       21.3987102764     3.8023238773     6.6868278898
H       21.1337300003     2.9611691027     8.2209081919
H       20.3897373649     4.5424014262     7.9381917131
Si       16.2498997403     3.3028349421     4.5356956811
O       16.4578809215     4.8786050934     4.5331994313
O       17.6529260437     3.4226706612     3.7189655787
O       15.3104094695     3.2811122266     3.1674164558
O       16.2015578155     2.7191899645     6.0996321221
Si       16.6748199481     6.4483420887     4.4205001678
Si       14.1161128150     2.3324984039     2.4891482446
Si       18.6664532048     2.8348606723     2.5994470990
Si       15.6287250142     1.1840320603     6.6119628249
H       18.0266592779     6.6844743757     3.9008127295
H       15.6825378848     7.0758475249     3.4395846291
H       16.5825626653     7.4355049027     5.7071491946
H       12.7524099104     2.8344407825     2.8338962419
H       14.3295614569     2.4420511671     1.0801549057
H       18.3142886032     3.5521917314     1.3855975491
H       14.0971358539     0.8383155399     2.9019190057
H       18.5913027445     1.3036426412     2.2415814778
H       16.3095285093     0.9869726707     7.8091645903
H       14.1621401915     1.2542541631     6.7324817587
H       20.2015440449     3.0171786056     2.8316852797
H       15.9842545319     0.1541445435     5.5656193881
32
# Point -10 Energy = 0.0
C       20.6515974430     3.5988862449     7.4824568318
H       18.9532996921     3.6017304210     6.1610430557
C       19.4248030784     2.9185968638     6.8775290187
H       18.6837849887     2.7371576431     7.6671841679
H       20.5027100513     1.7502375819     5.3898071337
C       19.7553338119     1.5997140775     6.1777572681
H       18.8682591820     1.1475102009     5.7130953906
H       20.1659735109     0.8653558584     6.8795586491
H       21.3988458755     3.8119698418     6.7093852932
H       21.1254792514     2.9685274185     8.2406373490
H       20.3791281681     4.5479811702     7.9545715623
Si       16.2758169710     3.3117542161     4.5137901700
O       16.4545631453     4.8945259276     4.5469696310
O       17.6986873891     3.3919830958     3.7252380432
O       15.3291338756     3.2555506474     3.1538980613
O       16.1927359184     2.7056081170     6.0640645306
Si       16.6530725053     6.4703240643     4.4139566427
Si       14.0839220726     2.3643385176     2.4947494480
Si       18.6952149141     2.7937746024     2.5921468354
Si       15.6501022439     1.1713020301     6.5909139392
H       18.0077198613     6.7217672613     3.9014570685
H       15.6609019712     7.0642074285     3.4159062425
H       16.5324661535     7.4479201390     5.6930902585
H       12.7515647523     2.9037729654     2.8965937650
H       14.2430852102     2.4902468239     1.0738446238
H       18.3423222978     3.5135410364     1.3760966911
H       14.0402695596     0.8693079992     2.8831490567
H       18.5849432806     1.2684218139     2.2507358108
H       16.3319728073     0.9725885786     7.7996269859
H       14.1800914068     1.2103792846     6.7191600274
H       20.2286659184     2.9614293795     2.8166284593
H       16.0215132924     0.1428907495     5.5521233490
32
# Point -9 Energy = 0.0
C       20.6476798406     3.6066438502     7.4965588549
H       18.9571609179     3.6038248098     6.1649611683
C       19.4268218430     2.9223695830     6.8842839756
H       18.6816684607     2.7381881134     7.6693663162
H       20.5181388660     1.7584781975     5.4031810174
C       19.7665987843     1.6048171594     6.1866447253
H       18.8840377200     1.1493289787     5.7170224901
H       20.1762786523     0.8726161113     6.8912325572
H       21.3988820146     3.8221616690     6.7279730237
H       21.1189929928     2.9772860203     8.2571568406
H       20.3697963026     4.5546984864     7.9676386507
Si       16.2995760125     3.3194073373     4.4942628678
O       16.4485223130     4.9079168275     4.5620970421
O       17.7402770235     3.3595765788     3.7336711970
O       15.3455187344     3.2288263229     3.1438464306
O       16.1837238668     2.6906613542     6.0297549616
Si       16.6318699797     6.4888580917     4.4081519361
Si       14.0558501699     2.3965752179     2.4985265287
Si       18.7208074730     2.7544790369     2.5865075905
Si       15.6692657797     1.1590582925     6.5724383691
H       17.9893233998     6.7528696247     3.9019640071
H       15.6412417719     7.0507548565     3.3938713329
H       16.4860813203     7.4569244937     5.6794372614
H       12.7552935208     2.9711077697     2.9493837333
H       14.1690551244     2.5417997636     1.0689615617
H       18.3662631329     3.4778180615     1.3692011701
H       13.9846719202     0.9014946631     2.8620471889
H       18.5785685186     1.2360651758     2.2597131429
H       16.3523030013     0.9588117559     7.7926083452
H       14.1965795581     1.1690487464     6.7088108437
H       20.2521220844     2.9097949707     2.8038941971
H       16.0550094999     0.1310400797     5.5419960324
32
# Point -8 Energy = 0.0
C       20.6447527799     3.6148573766     7.5077124194
H       18.9605695945     3.6058136314     6.1678871349
C       19.4291527803     2.9263708697     6.8898456632
H       18.6807747518     2.7398330554     7.6712623460
H       20.5321138626     1.7662305566     5.4147689590
C       19.7773228094     1.6098284518     6.1946497525
H       18.8987633576     1.1508732746     5.7213103552
H       20.1867831647     0.8801158617     6.9019188495
H       21.3990126691     3.8324165055     6.7426704365
H       21.1143246465     2.9868426236     8.2704831186
H       20.3620391050     4.5620966117     7.9775888333
Si       16.3211530848     3.3263135675     4.4770772783
O       16.4398851825     4.9193335064     4.5785581503
O       17.7776322210     3.3260019630     3.7440532335
O       15.3593931277     3.2012547148     3.1373679431
O       16.1744554018     2.6749022855     5.9967674085
Si       16.6113357047     6.5046015310     4.4032655412
Si       14.0318935892     2.4282297484     2.5005416981
Si       18.7433418586     2.7173630486     2.5824609759
Si       15.6861030453     1.1477391162     6.5564145905
H       17.9716555135     6.7784787571     3.9024637972
H       15.6234065463     7.0362634758     3.3737923908
H       16.4435327906     7.4631872688     5.6665453135
H       12.7623626517     3.0349751362     2.9926026910
H       14.1074895388     2.5947775781     1.0647189018
H       18.3863260451     3.4452484319     1.3647252465
H       13.9316477976     0.9341161742     2.8392278420
H       18.5723044019     1.2066848611     2.2686199234
H       16.3703309114     0.9459986385     7.7880174370
H       14.2113711089     1.1307552019     6.7013007317
H       20.2720692978     2.8627246027     2.7935006873
H       16.0846812590     0.1190735737     5.5350457100
32
# Point -7 Energy = 0.0
C       20.6428808469     3.6230887870     7.5160908894
H       18.9636139198     3.6076551310     6.1699117300
C       19.4317612102     2.9304087294     6.8942466575
H       18.6809965681     2.7419194111     7.6728670377
H       20.5445056297     1.7733110302     5.4244704359
C       19.7873085110     1.6145845411     6.2016378912
H       18.9121750458     1.1521610194     5.7257272775
H       20.1971601613     0.8875518215     6.9114130075
H       21.3993788927     3.8422744203     6.7536934002
H       21.1114206271     2.9966036444     8.2807404787
H       20.3560411048     4.5697258081     7.9847105258
Si       16.3405942996     3.3329936355     4.4621192956
O       16.4288609434     4.9293350840     4.5962780369
O       17.8107682530     3.2918140657     3.7560928983
O       15.3706412333     3.1731859884     3.1345305311
O       16.1649410179     2.6588643611     5.9650726855
Si       16.5916482797     6.5182042328     4.3994227642
Si       14.0119541722     2.4583346937     2.5009837511
Si       18.7629694655     2.6828061115     2.5798551153
Si       15.7005766952     1.1377652299     6.5426194246
H       17.9549378338     6.7992939338     3.9030381395
H       15.6073076211     7.0214861850     3.3559088723
H       16.4049877339     7.4673506848     5.6547081984
H       12.7716087942     3.0941119113     3.0267883351
H       14.0580189990     2.6471798378     1.0605646180
H       18.4027614595     3.4160554375     1.3624086828
H       13.8824080630     0.9662917187     2.8154064011
H       18.5662713383     1.1804193453     2.2774641673
H       16.3859596221     0.9344592774     7.7856465654
H       14.2243148437     1.0959825154     6.6964038270
H       20.2886997249     2.8206164151     2.7853794465
H       16.1105076894     0.1074669917     5.5309642728
32
# Point -6 Energy = 0.0
C       20.6420409492     3.6309329002     7.5219538693
H       18.9663529075     3.6093208320     6.1711469824
C       19.4345664690     2.9343072499     6.8975540748
H       18.6821550458     2.7442752361     7.6741735167
H       20.5552176210     1.7795730143     5.4322677671
C       19.7963650920     1.6189439333     6.2075210154
H       18.9240483984     1.1532198207     5.7300506386
H       20.2070745843     0.8946440303     6.9195679766
H       21.4000581218     3.8513234170     6.7613804478
H       21.1101198598     3.0060114119     8.2881523867
H       20.3518625796     4.5771637226     7.9893689024
Si       16.3580076746     3.3399469900     4.4491997153
O       16.4157271929     4.9384608127     4.6151303599
O       17.8397707544     3.2575514291     3.7694233685
O       15.3791992345     3.1449956286     3.1353611828
O       16.1552557588     2.6430483437     5.9345542293
Si       16.5730521708     6.5302856767     4.3967000962
Si       13.9958415604     2.4859599914     2.5001597577
Si       18.7798780872     2.6511652353     2.5784566150
Si       15.7127191720     1.1295240914     6.5307388083
H       17.9394439065     6.8159761417     3.9037274181
H       15.5929380022     7.0071525264     3.3403936278
H       16.3706780434     7.4700060601     5.6441659990
H       12.7819644162     3.1474451622     3.0526524813
H       14.0199114132     2.6970362715     1.0561777329
H       18.4158511332     3.3904500856     1.3619182275
H       13.8380314519     0.9970461010     2.7913991479
H       18.5605899431     1.1574203308     2.2861560589
H       16.3991746305     0.9244513235     7.7851862094
H       14.2353362947     1.0651827986     6.6938069453
H       20.3022344367     2.7838107680     2.7793770886
H       16.1325136947     0.0966706633     5.5293427124
32
# Point -5 Energy = 0.0
C       20.6421261295     3.6380298999     7.5256385389
H       18.9688174913     3.6107946642     6.1717214023
C       19.4374472722     2.9379107168     6.8998675112
H       18.6840083847     2.7467323035     7.6751745079
H       20.5641911684     1.7849126076     5.4382267084
C       19.8043165254     1.6227911678     6.2122611205
H       18.9342047587     1.1540849257     5.7340752844
H       20.2161956967     0.9011446589     6.9263012068
H       21.4010646961     3.8592135574     6.7661805987
H       21.1101619283     3.0145617741     8.2930352062
H       20.3494411096     4.5840276859     7.9919933062
Si       16.3735618626     3.3476321644     4.4380594330
O       16.4008270591     4.9472099355     4.6349404708
O       17.8647941150     3.2237159204     3.7836089088
O       15.3850576515     3.1170809357     3.1398445981
O       16.1455308026     2.6279090762     5.9050147431
Si       16.5558439737     6.5414151044     4.3951198611
Si       13.9832797452     2.5102506810     2.4984895153
Si       18.7942936337     2.6227595183     2.5779558979
Si       15.7226248086     1.1233560935     6.5203775591
H       17.9254835714     6.8291373825     3.9045240193
H       15.5803588595     6.9939377512     3.3273462341
H       16.3408783543     7.4716776115     5.6350941044
H       12.7924814806     3.1940856585     3.0710701971
H       13.9921075325     2.7425090325     1.0514603835
H       18.4259130492     3.3686200959     1.3628530333
H       13.7994285755     1.0253634959     2.7681217433
H       18.5553875305     1.1378371164     2.2945109362
H       16.4100307142     0.9161714409     7.7862386288
H       14.2444296897     1.0387608013     6.6931135507
H       20.3129237276     2.7525763136     2.7752615566
H       16.1507687022     0.0870919085     5.5296845941
32
# Point -4 Energy = 0.0
C       20.6429488802     3.6440838678     7.5275456794
H       18.9710083950     3.6120748679     6.1717729631
C       19.4402456358     2.9410921918     6.9013145908
H       18.6862601449     2.7491338892     7.6758632209
H       20.5714079380     1.7892777435     5.4424927726
C       19.8110082774     1.6260450983     6.2158718624
H       18.9425180786     1.1548001966     5.7376217334
H       20.2242098689     0.9068526626     6.9315994154
H       21.4023488074     3.8656764006     6.7686338273
H       21.1111965769     3.0218294316     8.2957864766
H       20.3485925960     4.5899932630     7.9930592877
Si       16.3874773341     3.3564458178     4.4283767526
O       16.3845570517     4.9560200926     4.6554884733
O       17.8860525820     3.1907526214     3.7981532891
O       15.3882566256     3.0898529221     3.1479226163
O       16.1359397053     2.6138391499     5.8761845431
Si       16.5403720826     6.5520903567     4.3946551767
Si       13.9739167928     2.5304547037     2.4964940907
Si       18.8064745303     2.5978575881     2.5779730403
Si       15.7304370266     1.1195386119     6.5110709889
H       17.9134047380     6.8393124685     3.9053772390
H       15.5697037649     6.9824507801     3.3167995262
H       16.3159105897     7.4728008433     5.6276083921
H       12.8023427824     3.2333066147     3.0830650580
H       13.9732745788     2.7819713195     1.0465196615
H       18.4332958861     3.3507217765     1.3647521158
H       13.7673187283     1.0502447508     2.7465779758
H       18.5507996832     1.1218028606     2.3022521950
H       16.4186343669     0.9097446493     7.7883327523
H       14.2516456038     1.0170556330     6.6938512720
H       20.3210408196     2.7271020633     2.7727271965
H       16.1653801280     0.0790767633     5.5314211752
32
# Point -3 Energy = 0.0
C       20.6442512539     3.6488771411     7.5281257096
H       18.9728994968     3.6131739646     6.1714431472
C       19.4427761935     2.9437595594     6.9020466372
H       18.6885728327     2.7513408254     7.6762348709
H       20.5768965074     1.7926738282     5.4452853805
C       19.8163180660     1.6286644881     6.2184184784
H       18.9489248619     1.1554175950     5.7405428929
H       20.2308372421     0.9116252345     6.9355207500
H       21.4038023966     3.8705394487     6.7693510647
H       21.1127999698     3.0274884764     8.2968723458
H       20.3490200532     4.5948088110     7.9930718999
Si       16.4000207634     3.3667032459     4.4197765630
O       16.3673584809     4.9652475698     4.6765153628
O       17.9038147094     3.1590310040     3.8125117752
O       15.3888866940     3.0637302002     3.1594908281
O       16.1266852579     2.6011518783     5.8477298096
Si       16.5270199910     6.5627173462     4.3952278494
Si       13.9673330749     2.5459600824     2.4947859023
Si       18.8167135809     2.5766627263     2.5780718001
Si       15.7363332289     1.1182691238     6.5022943261
H       17.9035760199     6.8469462030     3.9061918487
H       15.5611646280     6.9732029503     3.3087159728
H       16.2961185880     7.4737058424     5.6217572749
H       12.8108700029     3.2645437782     3.0898125961
H       13.9618523521     2.8140839503     1.0416474991
H       18.4383865616     3.3368681026     1.3671079125
H       13.7422061548     1.0707814224     2.7278417751
H       18.5469766421     1.1094176954     2.3090232913
H       16.4251216359     0.9052101445     7.7909373684
H       14.2570757182     1.0003230902     6.6954752612
H       20.3268833120     2.7074846064     2.7714133804
H       16.1764843294     0.0728916652     5.5339237857
32
# Point -2 Energy = 0.0
C       20.6457178046     3.6522858989     7.5278575989
H       18.9744401942     3.6141199244     6.1708686301
C       19.4448361705     2.9458632327     6.9022308672
H       18.6905839100     2.7532408030     7.6762868322
H       20.5807355209     1.7951684393     5.4468859094
C       19.8201649855     1.6306542691     6.2200137336
H       18.9534308835     1.1559976391     5.7427294375
H       20.2358483323     0.9153904621     6.9381919886
H       21.4052661862     3.8737402317     6.7689849523
H       21.1144955758     3.0313346406     8.2968067822
H       20.3503268197     4.5983120543     7.9925422704
Si       16.4114925341     3.3786205942     4.4118436369
O       16.3497001341     4.9751490451     4.6977310206
O       17.9183914192     3.1288282651     3.8261077072
O       15.3870844844     3.0391286717     3.1743968574
O       16.1179816044     2.5900655477     5.8192650152
Si       16.5161950799     6.5735915269     4.3967162234
Si       13.9630558248     2.5563218544     2.4940497073
Si       18.8253334051     2.5593010742     2.5777780171
Si       15.7405049078     1.1196505582     6.4934769466
H       17.8963774993     6.8523728994     3.9068383091
H       15.5549856674     6.9665920413     3.3029954861
H       16.2818556367     7.4745992165     5.6175280181
H       12.8175245453     3.2873905100     3.0926303001
H       13.9561182179     2.8378451474     1.0372909419
H       18.4416088754     3.3271188600     1.3693846947
H       13.7243740414     1.0862256825     2.7130247091
H       18.5440850166     1.1007342084     2.3144046444
H       16.4296314906     0.9025100211     7.7934786850
H       14.2608329931     0.9887199981     6.6973776462
H       20.3307685774     2.6937207164     2.7709265057
H       16.1842322617     0.0687079661     5.5365212854
32
# Point -1 Energy = 0.0
C       20.6469944085     3.6542904620     7.5272241329
H       18.9755608636     3.6149562039     6.1701726577
C       19.4462187790     2.9474013411     6.9020405543
H       18.6919262774     2.7547564890     7.6760177520
H       20.5830558137     1.7968914128     5.4476208116
C       19.8225186958     1.6320685499     6.2208099709
H       18.9561162360     1.1566086371     5.7441125052
H       20.2390809318     0.9181554756     6.9398001265
H       21.4065416293     3.8753337473     6.7681959873
H       21.1157814038     3.0333008469     8.2961254963
H       20.3520380498     4.6004420169     7.9919618715
Si       16.4222128904     3.3923021067     4.4041395430
O       16.3320583936     4.9858682655     4.7188257181
O       17.9301229702     3.1003173506     3.8383539852
O       15.3830290100     3.0164502171     3.1924392738
O       16.1100352166     2.5806920545     5.7903684040
Si       16.5083092801     6.5848839803     4.3989647340
Si       13.9605774352     2.5612848181     2.4950184253
Si       18.8326823589     2.5458119122     2.5766053754
Si       15.7431353255     1.1236813004     6.4840191097
H       17.8921830277     6.8558052080     3.9071661940
H       15.5514493822     6.9628853067     3.2994836127
H       16.2734589770     7.4755514300     5.6148533964
H       12.8219062248     3.3016025004     3.0929626966
H       13.9542563266     2.8526205469     1.0340173326
H       18.4434241465     3.3214708766     1.3710428409
H       13.7138904579     1.0960557238     2.7032325600
H       18.5423090607     1.0957444268     2.3179395848
H       16.4322760747     0.9014820542     7.7953602929
H       14.2630290372     0.9822938051     6.6988993135
H       20.3330297583     2.6857014437     2.7708712196
H       16.1887721572     0.0665914901     5.5385198810
32
# Point 0 Energy = 0
C       20.6477110000     3.6549790000     7.5266840000
H       18.9761800000     3.6157410000     6.1694560000
C       19.4467280000     2.9484220000     6.9016430000
H       18.6922510000     2.7558520000     7.6754250000
H       20.5840390000     1.7980300000     5.4478400000
C       19.8234060000     1.6330100000     6.2209870000
H       18.9571360000     1.1573250000     5.7446630000
H       20.2404540000     0.9200090000     6.9405780000
H       21.4074060000     3.8754920000     6.7676150000
H       21.1161610000     3.0334640000     8.2953550000
H       20.3536290000     4.6012450000     7.9917750000
Si       16.4325060000     3.4077350000     4.3962220000
O       16.3148940000     4.9974300000     4.7394840000
O       17.9393640000     3.0735620000     3.8486780000
O       15.3769370000     2.9960700000     3.2133680000
O       16.1030250000     2.5730330000     5.7606000000
Si       16.5037570000     6.5966350000     4.4017980000
Si       13.9593780000     2.5607940000     2.4984440000
Si       18.8391290000     2.5361430000     2.5740860000
Si       15.7443760000     1.1302530000     6.4733110000
H       17.8913405600     6.8573308000     3.9070238400
H       15.5508605600     6.9622108000     3.2979838400
H       16.2712205600     7.4764908000     5.6136238400
H       12.8237502400     3.3071035200     3.0923555200
H       13.9544302400     2.8581435200     1.0324755200
H       18.4443303200     3.3198514400     1.3715668800
H       13.7106302400     1.1000235200     2.6995155200
H       18.5418503200     1.0943714400     2.3191668800
H       16.4331100800     0.9018602400     7.7959848800
H       14.2637500800     0.9809802400     6.6993448800
H       20.3340103200     2.6832114400     2.7708868800
H       16.1902300800     0.0665002400     5.5392248800
32
# Point 1 Energy = 0.0
C       20.6475199113     3.6544922254     7.5266157530
H       18.9762162440     3.6165440321     6.1687716206
C       19.4461882354     2.9490025077     6.9011590845
H       18.6912463284     2.7565240035     7.6744762820
H       20.5838734452     1.7987925843     5.4478446032
C       19.8228768498     1.6336056561     6.2206923234
H       18.9566659934     1.1582282337     5.7443434374
H       20.2399298538     0.9210811039     6.9407298722
H       21.4076424004     3.8744365115     6.7677752430
H       21.1151813030     3.0319717595     8.2949420152
H       20.3545942940     4.6008227503     7.9923370707
Si       16.4426714646     3.4248639360     4.3876631905
O       16.2986103226     5.0098098112     4.7594100443
O       17.9464612634     3.0485676884     3.8565775547