32
# Point -15 Energy = 0.0
C       20.6229885202     3.7045272762     7.4959790515
H       18.9652470472     3.6544015137     6.1326455329
C       19.4381444200     2.9853642514     6.8589136598
H       18.6818304846     2.7640268689     7.6231018539
H       20.6046328804     1.9060331129     5.3852897306
C       19.8484902619     1.6970198247     6.1506075726
H       18.9872985627     1.2260137862     5.6612605608
H       20.2730798261     0.9721314756     6.8545608453
H       21.3719445907     3.9548907145     6.7354498748
H       21.1110004658     3.0798605495     8.2502500192
H       20.3115742790     4.6360814014     7.9797958174
Si       16.4561610772     3.4462239568     4.3769318096
O       16.1823212494     5.0447029340     4.8506895914
O       18.0736709945     3.2054071193     3.8883192668
O       15.3461446093     3.0126678120     3.1049001825
O       16.1372499722     2.5330231967     5.7549225646
Si       16.7391928878     6.5338583081     4.2292392333
Si       13.8000593870     2.5719939910     2.4325531433
Si       18.5426564363     2.1714411628     2.5960858002
Si       15.6051199919     1.1558802524     6.5497645178
H       17.8881502970     6.7607178940     4.0120443805
H       15.6578808783     7.0668087911     3.4598042384
H       16.2704160202     7.2913545028     5.7873482488
H       12.8096077228     3.2829276668     3.0598767093
H       13.9525730995     2.9081322259     1.0052123114
H       18.6461412938     3.1149365779     1.4579825973
H       13.7416311188     1.1158223621     2.6225433491
H       18.4056610623     1.1059408156     2.5309823453
H       16.5099557157     0.8777176559     7.6994771703
H       14.3442165057     0.9306853050     6.6778319296
H       20.2588736890     2.6654623868     3.0436276320
H       16.2840652526     0.0972463081     5.4591738196
32
# Point -14 Energy = 0.0
C       20.6256507216     3.6988917325     7.5014070741
H       18.9672521941     3.6498907068     6.1381341869
C       19.4393979489     2.9810171173     6.8652305423
H       18.6828730600     2.7624550193     7.6300116607
H       20.6036248949     1.8954438300     5.3936512070
C       19.8468367321     1.6902167247     6.1594600060
H       18.9851181745     1.2192106406     5.6709986829
H       20.2702794574     0.9661739400     6.8649168213
H       21.3756754665     3.9464165802     6.7410051291
H       21.1117817448     3.0744548494     8.2570504495
H       20.3158822281     4.6318826170     7.9834647275
Si       16.4561373690     3.4425144082     4.3807755973
O       16.1939109379     5.0415944329     4.8449759274
O       18.0664565730     3.1940695291     3.8883069751
O       15.3497108470     3.0104883464     3.1146912635
O       16.1356057294     2.5354631798     5.7583378940
Si       16.7219508565     6.5414983785     4.2356046952
Si       13.8121054630     2.5705586253     2.4390390353
Si       18.5638134961     2.1974732467     2.5835849185
Si       15.6118013605     1.1538840359     6.5470460317
H       17.8873701769     6.7753253973     4.0017110222
H       15.6427036852     7.0552274392     3.4415052362
H       16.2694914764     7.3145887012     5.7693517828
H       12.8121054025     3.2847816511     3.0638235553
H       13.9543750772     2.9029866789     1.0082920757
H       18.6214724321     3.1449776482     1.4449851632
H       13.7401778175     1.1134612728     2.6305573414
H       18.4233561642     1.1053811229     2.5021688831
H       16.5016253140     0.8787011009     7.7107793581
H       14.3355443597     0.9339871640     6.6790492205
H       20.2689687803     2.6677482393     3.0095391563
H       16.2749246589     0.0925376435     5.4677097398
32
# Point -13 Energy = 0.0
C       20.6282097995     3.6935156697     7.5063246655
H       18.9691137868     3.6455979163     6.1431650334
C       19.4405719644     2.9768880872     6.8710464876
H       18.6838804058     2.7610272563     7.6364328593
H       20.6025367186     1.8852091546     5.4014429991
C       19.8451508611     1.6836953661     6.1677513320
H       18.9829153250     1.2126599296     5.6801887150
H       20.2675164777     0.9604997588     6.8746656143
H       21.3792567571     3.9382746346     6.7460395792
H       21.1125226703     3.0693152320     8.2632985043
H       20.3200508196     4.6278997433     7.9866683420
Si       16.4559217196     3.4389421847     4.3842388830
O       16.2051983866     5.0384522897     4.8389580828
O       18.0590063172     3.1830043330     3.8879114060
O       15.3530735134     3.0084365000     3.1241165329
O       16.1338798533     2.5379620244     5.7613259362
Si       16.7049108228     6.5486121503     4.2426437330
Si       13.8239478066     2.5692151296     2.4452446349
Si       18.5848929543     2.2235110823     2.5727328658
Si       15.6188349417     1.1519467900     6.5440287678
H       17.8867255692     6.7886574022     3.9917578056
H       15.6287361055     7.0439899343     3.4242512423
H       16.2685432357     7.3362604816     5.7520036419
H       12.8144137376     3.2866553370     3.0675118448
H       13.9559334846     2.8980519664     1.0112045813
H       18.5981323584     3.1726814545     1.4335550527
H       13.7385753778     1.1113047276     2.6382208129
H       18.4400837815     1.1050945543     2.4754034210
H       16.4937001816     0.8798113066     7.7213945773
H       14.3273027388     0.9374095466     6.6803071609
H       20.2783623626     2.6705007122     2.9775233234
H       16.2660797651     0.0882193439     5.4758069220
32
# Point -12 Energy = 0.0
C       20.6306541892     3.6884197903     7.5107324611
H       18.9708197117     3.6415396961     6.1477394959
C       19.4416607103     2.9729919707     6.8763575316
H       18.6848486685     2.7597456415     7.6423605999
H       20.6013727216     1.8753649660     5.4086514104
C       19.8434385986     1.6774787709     6.1754672510
H       18.9806999326     1.2063806852     5.6888132303
H       20.2648036118     0.9551297659     6.8837872595
H       21.3826748268     3.9304983124     6.7505548808
H       21.1132177221     3.0644602611     8.2689898784
H       20.3240600920     4.6241475372     7.9894147716
Si       16.4555025142     3.4355152224     4.3873232467
O       16.2161561674     5.0352824940     4.8326500470
O       18.0513118934     3.1722373522     3.8871310935
O       15.3562244445     3.0065201156     3.1331746526
O       16.1320683038     2.5405138497     5.7638824204
Si       16.6880714387     6.5552131450     4.2503772801
Si       13.8355810480     2.5679647921     2.4511652594
Si       18.6058717296     2.2494958520     2.5635206458
Si       15.6262258349     1.1500615319     6.5407007409
H       17.8862178594     6.8007351734     3.9822164324
H       15.6159562096     7.0331911935     3.4080575837
H       16.2676196007     7.3563698650     5.7353826706
H       12.8165199217     3.2885351470     3.0709440041
H       13.9572419618     2.8933418763     1.0139470781
H       18.5762285867     3.1980264950     1.4235363428
H       13.7368346962     1.1093495769     2.6455183634
H       18.4557780397     1.1049973738     2.4507335786
H       16.4861961869     0.8810365533     7.7313168080
H       14.3195025727     0.9409237830     6.6816031947
H       20.2870632634     2.6735436262     2.9476580121
H       16.2575575419     0.0842895846     5.4834571345
32
# Point -11 Energy = 0.0
C       20.6329729506     3.6836235861     7.5146331383
H       18.9723588632     3.6377315411     6.1518605718
C       19.4426589658     2.9693425370     6.8811616218
H       18.6857741441     2.7586116717     7.6477918359
H       20.6001380469     1.8659451357     5.4152651743
C       19.8417062493     1.6715884211     6.1825958127
H       18.9784822647     1.2003905209     5.6968570140
H       20.2621534306     0.9500832539     6.8922645016
H       21.3859170639     3.9231193718     6.7545548255
H       21.1138615355     3.0599072558     8.2741226440
H       20.3278908585     4.6206398839     7.9917138389
Si       16.4548696171     3.4322407363     4.3900311398
O       16.2267588093     5.0320911867     4.8260661023
O       18.0433667373     3.1617928154     3.8859658250
O       15.3591571505     3.0047462841     3.1418649792
O       16.1301675776     2.5431125685     5.7660042677
Si       16.6714331165     6.5613128125     4.2588243128
Si       13.8470015339     2.5668088685     2.4567965799
Si       18.6267246362     2.2753687912     2.5559368417
Si       15.6339789295     1.1482220893     6.5370510073
H       17.8858478383     6.8115822347     3.9731157609
H       15.6043438256     7.0229197594     3.3929358877
H       16.2667652704     7.3749179651     5.7195623825
H       12.8184127228     3.2904076703     3.0741222625
H       13.9582964609     2.8888691893     1.0165169533
H       18.5558555974     3.2210016594     1.4147807360
H       13.7349677458     1.1075921459     2.6524352478
H       18.4703756144     1.1050092332     2.4281941308
H       16.4791279631     0.8823658554     7.7405417068
H       14.3121543559     0.9445017667     6.6829352236
H       20.2950757251     2.6767090881     2.9200092557
H       16.2493849993     0.0807461009     5.4906537778
32
# Point -10 Energy = 0.0
C       20.6351557780     3.6791453238     7.5180313741
H       18.9737211710     3.6341878924     6.1555327667
C       19.4435620520     2.9659525259     6.8854585585
H       18.6866532844     2.7576263130     7.6527252483
H       20.5988385829     1.8569815258     5.4212754303
C       19.8399604478     1.6660442801     6.1891273719
H       18.9762729108     1.1947056697     5.7043070094
H       20.2595783042     0.9453780048     6.9000827544
H       21.3889718893     3.9161678566     6.7580453182
H       21.1144488886     3.0556722849     8.2786972126
H       20.3315247389     4.6173897768     7.9935770263
Si       16.4540144258     3.4291252585     4.3923657846
O       16.2369829072     5.0288846498     4.8192207192
O       18.0351660856     3.1516933683     3.8844165692
O       15.3618668687     3.0031213981     3.1501874574
O       16.1281747508     2.5457519517     5.7676894722
Si       16.6549981279     6.5669205500     4.2680016762
Si       13.8582073883     2.5657486357     2.4621345098
Si       18.6474245939     2.3010712865     2.5499675508
Si       15.6420989116     1.1464231736     6.5330695707
H       17.8856159977     6.8212238785     3.9644816315
H       15.5938810818     7.0132572520     3.3788943501
H       16.2660213596     7.3919066496     5.7046107835
H       12.8200825820     3.2922597548     3.0770485081
H       13.9590953225     2.8846457352     1.0189116269
H       18.5370937300     3.2416043887     1.4071490795
H       13.7329876020     1.1060283343     2.6589572666
H       18.4838154709     1.1050539475     2.4078072541
H       16.4725089068     0.8837891149     7.7490664561
H       14.3052681569     0.9481160953     6.6843014415
H       20.3023991282     2.6798388244     2.8946318273
H       16.2415891538     0.0775862991     5.4973917540
32
# Point -9 Energy = 0.0
C       20.6371930063     3.6750020401     7.5209337889
H       18.9748976240     3.6309221501     6.1587620181
C       19.4443658395     2.9628336678     6.8892499215
H       18.6874827067     2.7567900371     7.6571611546
H       20.5974809375     1.8485040035     5.4266756800
C       19.8382081374     1.6608648249     6.1950545252
H       18.9740827585     1.1893410334     5.7111522444
H       20.2570903630     0.9410303323     6.9072300393
H       21.3918287599     3.9096720740     6.7610343386
H       21.1149746919     3.0517701709     8.2827162812
H       20.3349441859     4.6144093033     7.9950174114
Si       16.4529299180     3.4261746788     4.3943310647
O       16.2468072170     5.0256692962     4.8121284497
O       18.0267070019     3.1419600965     3.8824853914
O       15.3643506083     3.0016512098     3.1581425036
O       16.1260875215     2.5484256932     5.7689369718
Si       16.6387706768     6.5720437377     4.2779239192
Si       13.8691985659     2.5647854463     2.4671750864
Si       18.6679428477     2.3265449921     2.5455963094
Si       15.6505902769     1.1446604462     6.5287472773
H       17.8855228269     6.8296866831     3.9563367018
H       15.5845528655     7.0042778467     3.3659380733
H       16.2654254349     7.4073382421     5.6905902189
H       12.8215217038     3.2940785926     3.0797241398
H       13.9596393406     2.8806824546     1.0211284395
H       18.5200082519     3.2598389497     1.4005129470
H       13.7309084680     1.1046537190     2.6650706430
H       18.4960384274     1.1050601258     2.3895829305
H       16.4663511885     0.8852972611     7.7568896031
H       14.2988536349     0.9517401971     6.6857001574
H       20.3090278077     2.6827853236     2.8715698111
H       16.2341970052     0.0748073705     5.5036673179
32
# Point -8 Energy = 0.0
C       20.6390756195     3.6712095409     7.5233488744
H       18.9758802919     3.6279466891     6.1615556060
C       19.4450667553     2.9599967059     6.8925389841
H       18.6882592061     2.7561028590     7.6611014068
H       20.5960724093     1.8405404633     5.4314617283
C       19.8364565489     1.6560670852     6.2003720343
H       18.9719229716     1.1843102360     5.7173837468
H       20.2547014633     0.9370551303     6.9136969099
H       21.3944781703     3.9036585776     6.7635318871
H       21.1154339821     3.0482144988     8.2861847604
H       20.3381325133     4.6117096348     7.9960495878
Si       16.4516106916     3.4233942872     4.3959314082
O       16.2562127418     5.0224516577     4.8048038148
O       18.0179883936     3.1326125524     3.8801753592
O       15.3666071868     3.0003408876     3.1657308870
O       16.1239042527     2.5511274726     5.7697465128
Si       16.6227569526     6.5766877864     4.2886031313
Si       13.8799768950     2.5639207804     2.4719143537
Si       18.6882491935     2.3517319501     2.5428040104
Si       15.6594573441     1.1429305796     6.5240757105
H       17.8855691013     6.8369980570     3.9487002896
H       15.5763471950     6.9960477834     3.3540694534
H       16.2650115603     7.4212152618     5.6775572367
H       12.8227241361     3.2958518011     3.0821499201
H       13.9599318101     2.8769894610     1.0231645384
H       18.5046486130     3.2757148786     1.3947562459
H       13.7287456920     1.1034636544     2.6707619002
H       18.5069866118     1.1049616541     2.3735194593
H       16.4606657697     0.8868823827     7.7640108962
H       14.2929200588     0.9553484527     6.6871296207
H       20.3149509540     2.6854128361     2.8508571617
H       16.2272355147     0.0724064022     5.5094779241
32
# Point -7 Energy = 0.0
C       20.6407952594     3.6677823994     7.5252869063
H       18.9766623423     3.6252728715     6.1639220543
C       19.4456617894     2.9574514171     6.8953306171
H       18.6889797697     2.7555643757     7.6645492831
H       20.5946209540     1.8331168438     5.4356316143
C       19.8347131774     1.6516666778     6.2050767415
H       18.9698049620     1.1796256741     5.7229944552
H       20.2524231523     0.9334659194     6.9194763685
H       21.3969116538     3.8981521467     6.7655499110
H       21.1158219195     3.0450176253     8.2891096893
H       20.3410739253     4.6093010141     7.9966895700
Si       16.4500529966     3.4207888100     4.3971716705
O       16.2651828086     5.0192383673     4.7972611893
O       18.0090110183     3.1236687764     3.8774904409
O       15.3686372524     2.9991950667     3.1729536127
O       16.1216240095     2.5538510161     5.7701185168
Si       16.6069651680     6.5808561920     4.3000487781
Si       13.8905461046     2.5631562887     2.4763482535
Si       18.7083121992     2.3765747012     2.5415688219
Si       15.6687042653     1.1412313163     6.5190470956
H       17.8857561572     6.8431858262     3.9415882236
H       15.5692555087     6.9886249168     3.3432885904
H       16.2648103438     7.4335402000     5.6655624585
H       12.8236858354     3.2975674978     3.0843258374
H       13.9599785543     2.8735760933     1.0250167707
H       18.4910478865     3.2892456336     1.3897767895
H       13.7265157701     1.1024533677     2.6760177477
H       18.5166029038     1.1046980373     2.3596040243
H       16.4554624218     0.8885378510     7.7704311327
H       14.2874763227     0.9589163128     6.6885878595
H       20.3201525916     2.6875982789     2.8325182549
H       16.2207315764     0.0703804851     5.5148220808
32
# Point -6 Energy = 0.0
C       20.6423442374     3.6647339479     7.5267598442
H       18.9772380558     3.6229110514     6.1658710247
C       19.4461484999     2.9552066266     6.8976311875
H       18.6896415921     2.7551738023     7.6675093771
H       20.5931351413     1.8262571316     5.4391855368
C       19.8329857523     1.6476778334     6.2091674842
H       18.9677403539     1.1752985589     5.7279791353
H       20.2502666281     0.9302748860     6.9245637838
H       21.3991217821     3.8931757556     6.7671022153
H       21.1161337896     3.0421906834     8.2915001364
H       20.3437535524     4.6071927407     7.9969546811
Si       16.4482547545     3.4183624386     4.3980570194
O       16.2737031360     5.0160361352     4.7895146829
O       17.9997774762     3.1151453057     3.8744354028
O       15.3704432903     2.9982178883     3.1798118145
O       16.1192465902     2.5565901552     5.7700539555
Si       16.5914055846     6.5845505926     4.3122675359
Si       13.9009118304     2.5624938262     2.4804725336
Si       18.7280994156     2.4010163737     2.5418661112
Si       15.6783350257     1.1395615252     6.5136542237
H       17.8860861467     6.8482778761     3.9350127029
H       15.5632728714     6.9820583145     3.3335937008
H       16.2648489817     7.4443153301     5.6546504579
H       12.8244047158     3.2992143703     3.0862509856
H       13.9597879246     2.8704509542     1.0266815904
H       18.4792223858     3.3004474807     1.3854877537
H       13.7242363263     1.1016180468     2.6808249922
H       18.5248304545     1.1042146083     2.3478132646
H       16.4507497402     0.8902584394     7.7761520269
H       14.2825309524     0.9624204188     6.6900725451
H       20.3246116378     2.6892320867     2.8165684289
H       16.2147119741     0.0687268156     5.5196992252
32
# Point -5 Energy = 0.0
C       20.6437155463     3.6620762594     7.5277812210
H       18.9776028350     3.6208705692     6.1674132083
C       19.4465250145     2.9532702143     6.8994484562
H       18.6902420894     2.7549300071     7.6699874913
H       20.5916240992     1.8199833458     5.4421257808
C       19.8312821971     1.6441134095     6.2126450139
H       18.9657409330     1.1713389446     5.7323343059
H       20.2482426917     0.9274929110     6.9289568159
H       21.4011021641     3.8887505264     6.7682043569
H       21.1163650084     3.0397435790     8.2933670928
H       20.3461574928     4.6053931485     7.9968634268
Si       16.4462155648     3.4161188477     4.3985928294
O       16.2817618929     5.0128517153     4.7815780237
O       17.9902921850     3.1070571665     3.8710157102
O       15.3720296077     2.9974130266     3.1863066632
O       16.1167725471     2.5593388809     5.7695542409
Si       16.5760905283     6.5877708257     4.3252631265
Si       13.9110815956     2.5619354734     2.4842826813
Si       18.7475775696     2.4250007445     2.5436683784
Si       15.6883534315     1.1379212563     6.5078904052
H       17.8865622674     6.8523018595     3.9289821687
H       15.5583980990     6.9763879179     3.3249815120
H       16.2651513003     7.4535425559     5.6448596438
H       12.8248806754     3.3007817394     3.0879234674
H       13.9593707689     2.8676219302     1.0281549869
H       18.4691714463     3.3093386281     1.3818189246
H       13.7219260646     1.1009529177     2.6851704797
H       18.5316123673     1.1034626131     2.3381138052
H       16.4465351504     0.8920404367     7.7811761077
H       14.2780920970     0.9658387283     6.6915808919
H       20.3283020526     2.6902190309     2.8030145140
H       16.2092033166     0.0674427908     5.5241096295
32
# Point -4 Energy = 0.0
C       20.6449028731     3.6598201186     7.5283660252
H       18.9777532069     3.6191597340     6.1685602178
C       19.4467900259     2.9516491107     6.9007914787
H       18.6907789109     2.7548315410     7.6719905379
H       20.5900974434     1.8143154999     5.4444566477
C       19.8296105780     1.6409848882     6.2155119243
H       18.9638185807     1.1677557433     5.7360581822
H       20.2463616883     0.9251295839     6.9326553516
H       21.4028474419     3.8848956650     6.7688735283
H       21.1165111291     3.0376849797     8.2947233600
H       20.3482728577     4.6039095766     7.9964353575
Si       16.4439366932     3.4140612011     4.3987845911
O       16.2893497436     5.0096918612     4.7734644484
O       17.9805613350     3.0994178469     3.8672374386
O       15.3734022961     2.9967837000     3.1924392975
O       16.1142031940     2.5620913943     5.7686211379
Si       16.5610343912     6.5905149857     4.3390361589
Si       13.9210647623     2.5614835428     2.4877738881
Si       18.7667127360     2.4484722684     2.5469452052
Si       15.6987630808     1.1363117920     6.5017494576
H       17.8871889595     6.8552849752     3.9235011925
H       15.5546338006     6.9716442738     3.3174476255
H       16.2657377959     7.4612232979     5.6362221560
H       12.8251155991     3.3022596172     3.0893403312
H       13.9587403647     2.8650961927     1.0294324433
H       18.4608773671     3.3159386137     1.3787176441
H       13.7196046889     1.1004533114     2.6890410791
H       18.5368916026     1.1023991875     2.3304627163
H       16.4428249030     0.8938817551     7.7855066527
H       14.2741675046     0.9691506441     6.6931096005
H       20.3311930977     2.6904790039     2.7918553393
H       16.2042319483     0.0665260941     5.5280543450
32
# Point -3 Energy = 0.0
C       20.6459006089     3.6579749832     7.5285305814
H       18.9776868152     3.6177857947     6.1693244865
C       19.4469427811     2.9503492828     6.9016705137
H       18.6912499464     2.7548766640     7.6735264528
H       20.5885651901     1.8092715469     5.4461843940
C       19.8279790387     1.6383023601     6.2177725923
H       18.9619851920     1.1645567259     5.7391506380
H       20.2446334388     0.9231932051     6.9356614555
H       21.4043532814     3.8816283815     6.7691284329
H       21.1165678489     3.0360222942     8.2955834363
H       20.3500878184     4.6027483329     7.9956909266
Si       16.4414210414     3.4121921466     4.3986378409
O       16.2964598760     5.0065632722     4.7651866061
O       17.9705928204     3.0922392529     3.8631071982
O       15.3745691663     2.9963326704     3.1982107822
O       16.1115405997     2.5648421506     5.7672567024
Si       16.5462536177     6.5927794832     4.3535839848
Si       13.9308724507     2.5611405717     2.4909410514
Si       18.7854704835     2.4713760816     2.5516632209
Si       15.7095673181     1.1347356915     6.4952257315
H       17.8879720664     6.8572538190     3.9185703873
H       15.5519863359     6.9678483533     3.3109868391
H       16.2666256771     7.4673584241     5.6287637787
H       12.8251133323     3.3036387568     3.0904975462
H       13.9579123126     2.8628801792     1.0305089290
H       18.4543055171     3.3202679446     1.3761493597
H       13.7172927906     1.1001147197     2.6924237096
H       18.5406111357     1.1009872343     2.3248078820
H       16.4396240554     0.8957820279     7.7891476625
H       14.2707644806     0.9723371450     6.6946548485
H       20.3332497294     2.6899477324     2.7830822019
H       16.1998238334     0.0659747714     5.5315351872
32
# Point -2 Energy = 0.0
C       20.6467038531     3.6565489382     7.5282924342
H       18.9774024006     3.6167549036     6.1697191791
C       19.4469830606     2.9493757137     6.9020969424
H       18.6916533283     2.7550633661     7.6746041255
H       20.5870376551     1.8048673100     5.4473171782
C       19.8263957250     1.6360744987     6.2194331322
H       18.9602525783     1.1617485123     5.7416131879
H       20.2430671627     0.9216907799     6.9379793335
H       21.4056163545     3.8789638024     6.7689891588
H       21.1165310155     3.0347616470     8.2959634060
H       20.3515916496     4.6019146532     7.9946513480
Si       16.4386730933     3.4105138008     4.3981581165
O       16.3030880066     5.0034725301     4.7567564825
O       17.9603961464     3.0855316540     3.8586320786
O       15.3755396565     2.9960622288     3.2036220981
O       16.1087875646     2.5675858966     5.7654632501
Si       16.5317666649     6.5945591068     4.3689005812
Si       13.9405174270     2.5609093015     2.4937788160
Si       18.8038159929     2.4936579864     2.5577860891
Si       15.7207691728     1.1331968243     6.4883141753
H       17.8889189476     6.8582343067     3.9141863486
H       15.5504656813     6.9650114673     3.3055934258
H       16.2678289151     7.4719482285     5.6225038834
H       12.8248796256     3.3049106917     3.0913900201
H       13.9569043915     2.8609795610     1.0313789305
H       18.4494046267     3.3223479845     1.3740977029
H       13.7150117039     1.0999328378     2.6953054147
H       18.5427143617     1.0991952181     2.3210882774
H       16.4369364433     0.8977426931     7.7921038735
H       14.2678898291     0.9753809113     6.6962123290
H       20.3344331479     2.6885773502     2.7766792797
H       16.1960044182     0.0657872957     5.5345547612
32
# Point -1 Energy = 0.0
C       20.6473084091     3.6555486507     7.5276702383
H       18.9768997648     3.6160720770     6.1697581175
C       19.4469111483     2.9487323788     6.9020832036
H       18.6919874258     2.7553893840     7.6752333479
H       20.5855253384     1.8011164144     5.4478650184
C       19.8248686983     1.6343085319     6.2205013641
H       18.9586323603     1.1593365574     5.7434489879
H       20.2416713977     0.9206280086     6.9396153100
H       21.4066343090     3.8769148846     6.7684770564
H       21.1163966287     3.0339078537     8.2958808348
H       20.3527747633     4.6014126616     7.9933384639
Si       16.4356988369     3.4090277274     4.3973509397
O       16.3092323553     5.0004260276     4.7481853526
O       17.9499823104     3.0793036248     3.8538196158
O       15.3763247119     2.9959741733     3.2086741647
O       16.1059475816     2.5703176977     5.7632433557
Si       16.5175939317     6.5958470929     4.3849764717
Si       13.9500139587     2.5607926420     2.4962816550
Si       18.8217141488     2.5152644353     2.5652745156
Si       15.7323712864     1.1317003877     6.4810104346
H       17.8900385389     6.8582516617     3.9103416351
H       15.5500852011     6.9631352949     3.3012613738
H       16.2693583086     7.4749924627     5.6174554140
H       12.8244220468     3.3060677618     3.0920116636
H       13.9557363738     2.8593991986     1.0320365224
H       18.4461073018     3.3222010783     1.3725640351
H       13.7127833366     1.0999035933     2.6976734779
H       18.5431457040     1.0969968963     2.3192341643
H       16.4347646442     0.8997670538     7.7943808081
H       14.2655497830     0.9782664364     6.6977773331
H       20.3347015202     2.6863367322     2.7726239625
H       16.1927984754     0.0659626186     5.5371165219
32
# Point 0 Energy = 0
C       20.6477110000     3.6549790000     7.5266840000
H       18.9761800000     3.6157410000     6.1694560000
C       19.4467280000     2.9484220000     6.9016430000
H       18.6922510000     2.7558520000     7.6754250000
H       20.5840390000     1.7980300000     5.4478400000
C       19.8234060000     1.6330100000     6.2209870000
H       18.9571360000     1.1573250000     5.7446630000
H       20.2404540000     0.9200090000     6.9405780000
H       21.4074060000     3.8754920000     6.7676150000
H       21.1161610000     3.0334640000     8.2953550000
H       20.3536290000     4.6012450000     7.9917750000
Si       16.4325060000     3.4077350000     4.3962220000
O       16.3148940000     4.9974300000     4.7394840000
O       17.9393640000     3.0735620000     3.8486780000
O       15.3769370000     2.9960700000     3.2133680000
O       16.1030250000     2.5730330000     5.7606000000
Si       16.5037570000     6.5966350000     4.4017980000
Si       13.9593780000     2.5607940000     2.4984440000
Si       18.8391290000     2.5361430000     2.5740860000
Si       15.7443760000     1.1302530000     6.4733110000
H       17.8913405600     6.8573308000     3.9070238400
H       15.5508605600     6.9622108000     3.2979838400
H       16.2712205600     7.4764908000     5.6136238400
H       12.8237502400     3.3071035200     3.0923555200
H       13.9544302400     2.8581435200     1.0324755200
H       18.4443303200     3.3198514400     1.3715668800
H       13.7106302400     1.1000235200     2.6995155200
H       18.5418503200     1.0943714400     2.3191668800
H       16.4331100800     0.9018602400     7.7959848800
H       14.2637500800     0.9809802400     6.6993448800
H       20.3340103200     2.6832114400     2.7708868800
H       16.1902300800     0.0665002400     5.5392248800
32
# Point 1 Energy = 0.0
C       20.6479076361     3.6548454061     7.5253559758
H       18.9752440295     3.6157656751     6.1688290954
C       19.4464344514     2.9484475953     6.9007914818
H       18.6924425591     2.7564481105     7.6751909924
H       20.5825902362     1.7956207691     5.4472556171
C       19.8220163549     1.6321853192     6.2209007608
H       18.9557760658     1.1557186828     5.7452606263
H       20.2394235697     0.9198386932     6.9408768663
H       21.4079296734     3.8747067340     6.7664285578
H       21.1158197312     3.0334336509     8.2944073080
H       20.3541449194     4.6014144270     7.9899862281
Si       16.4291029901     3.4066365698     4.3947774112
O       16.3200741032     4.9944903490     4.7306643434
O       17.9285549172     3.0683144080     3.8432161518