32
# Point -15 Energy = 0.0
C       20.8487785685     3.4216212082     7.4620303302
H       18.7113917148     3.7096776591     6.1041495124
C       19.1724100364     3.0422254637     6.8454044022
H       18.4268390217     2.8106639056     7.6247376282
H       20.5967521085     1.5457657094     5.2965753350
C       20.1956479027     1.6634568937     6.3010333336
H       19.1024260839     1.8339875076     6.1246907763
H       20.2330419642     0.6902616035     6.7860829943
H       21.5450690084     4.1127209530     6.9946472646
H       21.1623761318     3.2735072977     8.4929258317
H       19.9147001318     4.0115170070     7.6134100890
Si       16.4553770856     3.4009695432     4.3999028893
O       16.3492924510     4.9988709557     4.7437931881
O       17.9609672074     3.0529169756     3.8214150472
O       15.3726893198     2.9937319834     3.2168828232
O       16.1357549525     2.5565070589     5.7700721854
Si       16.5423089668     6.5841065025     4.4088701859
Si       13.9581539213     2.5737948944     2.5268187044
Si       18.8299362164     2.5195611931     2.5451325593
Si       15.7813876070     1.1281998930     6.4793285594
H       17.9249814327     6.8423940153     3.8958145775
H       15.5774257184     6.9609169045     3.3173035936
H       16.3303672710     7.4665812819     5.6244536700
H       12.8305509805     3.3242742918     3.1335413614
H       13.9352205802     2.8738473594     1.0599215371
H       18.4262559944     3.3053966368     1.3463569267
H       13.6994506849     1.1128865908     2.7251081426
H       18.5229619558     1.0776721990     2.2887301031
H       16.4849604511     0.8896863832     7.7935961902
H       14.3020881361     0.9820557979     6.7251879818
H       20.3300948645     2.6551826203     2.7199971030
H       16.2083221301     0.0583437108     5.5392505335
32
# Point -14 Energy = 0.0
C       20.8397556758     3.4407809393     7.4665275705
H       18.7297957049     3.7049838900     6.1107997814
C       19.1904824925     3.0366333942     6.8512411343
H       18.4460680115     2.8074675229     7.6318811272
H       20.5881095400     1.5504433775     5.2910537580
C       20.1677268159     1.6550343246     6.2897180448
H       19.0739720317     1.7878569361     6.0950749187
H       20.2268693711     0.6890698506     6.7879955232
H       21.5452964837     4.1105767279     6.9808632155
H       21.1705100647     3.2657186069     8.4882332533
H       19.9331702103     4.0624658345     7.6453218712
Si       16.4547062868     3.4013433233     4.4000935444
O       16.3475203215     4.9987113895     4.7437877300
O       17.9606041976     3.0544645231     3.8240484337
O       15.3740633893     2.9934517571     3.2169791728
O       16.1342529384     2.5575240409     5.7698351691
Si       16.5400920931     6.5848811428     4.4085947081
Si       13.9594819788     2.5721356983     2.5251312173
Si       18.8320173467     2.5209117140     2.5480978894
Si       15.7796773961     1.1282156708     6.4792877665
H       17.9231775835     6.8435014839     3.8970542727
H       15.5761946530     6.9606982619     3.3159509234
H       16.3263552117     7.4672538282     5.6238121954
H       12.8311116416     3.3221817354     3.1307718790
H       13.9378752956     2.8718323354     1.0582512050
H       18.4290566728     3.3064454720     1.3489225828
H       13.7017120056     1.1112042800     2.7237350151
H       18.5260271286     1.0789525760     2.2918186117
H       16.4820025767     0.8905401839     7.7942926685
H       14.3002493187     0.9816205649     6.7234881641
H       20.3317698835     2.6575955829     2.7247670832
H       16.2082762784     0.0588050313     5.5397349300
32
# Point -13 Energy = 0.0
C       20.8302464342     3.4594577408     7.4709467881
H       18.7481154555     3.7000184225     6.1171613552
C       19.2086351759     3.0309074712     6.8568093952
H       18.4651802532     2.8041576097     7.6385637002
H       20.5799795486     1.5562082238     5.2871959964
C       20.1399974999     1.6475497358     6.2793573737
H       19.0473130700     1.7419549107     6.0661045079
H       20.2211263148     0.6894636401     6.7906698505
H       21.5444999629     4.1072187836     6.9670316757
H       21.1774551421     3.2574742299     8.4826177155
H       19.9532715040     4.1121835328     7.6763387954
Si       16.4539654389     3.4017026551     4.4002376090
O       16.3457183344     4.9985307523     4.7437753609
O       17.9601403480     3.0559755882     3.8265794547
O       15.3753377436     2.9932162684     3.2170384049
O       16.1327072755     2.5585097549     5.7695466609
Si       16.5378627514     6.5856388141     4.4083426235
Si       13.9606922093     2.5705719637     2.5234180597
Si       18.8339461855     2.5222343090     2.5509258682
Si       15.7779180099     1.1281953182     6.4791828159
H       17.9213480857     6.8445795461     3.8982803349
H       15.5749252402     6.9605058593     3.3146620829
H       16.3223853190     7.4678838079     5.6232196318
H       12.8315832227     3.3201941175     3.1280154536
H       13.9403948780     2.8699540203     1.0565651381
H       18.4316855701     3.3075012635     1.3513808973
H       13.7038240882     1.1096189328     2.7223018560
H       18.5288984605     1.0802180338     2.2947497892
H       16.4790308718     0.8913218192     7.7948975423
H       14.2983680639     0.9811741802     6.7217682177
H       20.3332984620     2.6599424740     2.7293545468
H       16.2081296806     0.0592382204     5.5401258579
32
# Point -12 Energy = 0.0
C       20.8202226605     3.4776513339     7.4752989421
H       18.7663419648     3.6947771042     6.1232227748
C       19.2268601430     3.0250475988     6.8621013461
H       18.4841575430     2.8007337448     7.6447690373
H       20.5725101074     1.5631971608     5.2850581329
C       20.1125308059     1.6409960128     6.2699435509
H       19.0226135119     1.6962850169     6.0377842287
H       20.2159180021     0.6915445893     6.7942436268
H       21.5426152044     4.1025631352     6.9530759456
H       21.1831269978     3.2486421181     8.4760918337
H       19.9749416409     4.1605708342     7.7064088673
Si       16.4531451525     3.4020514774     4.4003323698
O       16.3438810059     4.9983336834     4.7437517507
O       17.9595653120     3.0574498411     3.8290045707
O       15.3765009656     2.9930308222     3.2170589362
O       16.1311077401     2.5594706252     5.7692053465
Si       16.5356188521     6.5863833821     4.4081077857
Si       13.9617714029     2.5691119525     2.5216791201
Si       18.8357101116     2.5235250414     2.5536125858
Si       15.7760964380     1.1281469541     6.4790144005
H       17.9194911783     6.8456282018     3.8994851634
H       15.5736151884     6.9603445778     3.3134311546
H       16.3184584998     7.4684770508     5.6226691908
H       12.8319547712     3.3183232019     3.1252721779
H       13.9427656265     2.8682192065     1.0548628592
H       18.4341308207     3.3085596444     1.3537273406
H       13.7057703031     1.1081395476     2.7208101329
H       18.5315598093     1.0814649796     2.2975214805
H       16.4760329777     0.8920394191     7.7954113680
H       14.2964310398     0.9807285866     6.7200302269
H       20.3346686846     2.6622160266     2.7337542879
H       16.2078661383     0.0596491287     5.5404248250
32
# Point -11 Energy = 0.0
C       20.8096518465     3.4953602933     7.4795969998
H       18.7844655183     3.6892606588     6.1289731707
C       19.2451467210     3.0190571358     6.8671095400
H       18.5029780492     2.7971995678     7.6504803129
H       20.5658647746     1.5715591593     5.2847195443
C       20.0853935354     1.6353660608     6.2614646535
H       19.0000432980     1.6508293250     6.0101053077
H       20.2113685857     0.6954380830     6.7988563834
H       21.5395805767     4.0964899164     6.9389211400
H       21.1874427770     3.2390669532     8.4686476566
H       19.9981280886     4.2075445118     7.7355002562
Si       16.4522340033     3.4023948538     4.4003745077
O       16.3420001007     4.9981261020     4.7437110305
O       17.9588670220     3.0588883492     3.8313202791
O       15.3775401126     2.9929007521     3.2170384897
O       16.1294419901     2.5604148529     5.7688096800
Si       16.5333550574     6.5871198767     4.4078816664
Si       13.9627051805     2.5677630159     2.5199134210
Si       18.8372953684     2.5247809759     2.5561547330
Si       15.7741978789     1.1280807417     6.4787836891
H       17.9176019083     6.8466488651     3.9006590437
H       15.5722591397     6.9602194614     3.3122493456
H       16.3145717079     7.4690411606     5.6221511376
H       12.8322136950     3.3165797486     3.1225405215
H       13.9449729959     2.8666329282     1.0531428520
H       18.4363794850     3.3096164092     1.3559574232
H       13.7075333485     1.1067742247     2.7192611955
H       18.5339945284     1.0826905570     2.3001328565
H       16.4729944445     0.8927041831     7.7958355151
H       14.2944231053     0.9802973288     6.7182763943
H       20.3358673994     2.6644106670     2.7379620675
H       16.2074683573     0.0600452809     5.5406345458
32
# Point -10 Energy = 0.0
C       20.7984980041     3.5125816747     7.4838553788
H       18.8024762483     3.6834750506     6.1344024095
C       19.2634818651     3.0129430088     6.8718269565
H       18.5216167290     2.7935629812     7.6556802461
H       20.5602170730     1.5814555349     5.2862854761
C       20.0586480423     1.6306531896     6.2539041281
H       18.9797834627     1.6055509823     5.9830476873
H       20.2076168206     0.7012975722     6.8046470899
H       21.5353335339     4.0888420814     6.9244968996
H       21.1903163022     3.2285709587     8.4602530519
H       20.0227938596     4.2530321306     7.7635989661
Si       16.4512187891     3.4027388803     4.4003601723
O       16.3400648115     4.9979151063     4.7436458696
O       17.9580319411     3.0602935752     3.8335231393
O       15.3784409611     2.9928312691     3.2169742085
O       16.1276959118     2.5613523028     5.7683579674
Si       16.5310628593     6.5878543988     4.4076534204
Si       13.9634782468     2.5665313585     2.5181192812
Si       18.8386873046     2.5260002290     2.5585496041
Si       15.7722061920     1.1280087569     6.4784924262
H       17.9156721746     6.8476443531     3.9017901673
H       15.5708486958     6.9601355693     3.3111050858
H       16.3107180114     7.4695854074     5.6216528597
H       12.8323459956     3.3149732113     3.1198175276
H       13.9470017874     2.8651982260     1.0514027259
H       18.4384177094     3.3106675414     1.3580667111
H       13.7090955907     1.1055299198     2.7176564501
H       18.5361857801     1.0838926819     2.3025844295
H       16.4698992351     0.8933302875     7.7961722409
H       14.2923277821     0.9798953343     6.7165091887
H       20.3368804514     2.6665226538     2.7419745652
H       16.2069184280     0.0604357725     5.5407590294
32
# Point -9 Energy = 0.0
C       20.7867227459     3.5293106061     7.4880892239
H       18.8203648235     3.6774317583     6.1395011959
C       19.2818506599     3.0067157286     6.8762469866
H       18.5400459174     2.7898362536     7.6603511262
H       20.5557436668     1.5930595857     5.2898895203
C       20.0323519330     1.6268514705     6.2472403098
H       18.9620314420     1.5603981931     5.9565831379
H       20.2048111630     0.7093086333     6.8117506777
H       21.5298069522     4.0794252693     6.9097411325
H       21.1916536663     3.2169555436     8.4508479006
H       20.0489221702     4.2969655565     7.7907059939
Si       16.4500848865     3.4030905427     4.4002850645
O       16.3380620613     4.9977088216     4.7435475753
O       17.9570454012     3.0616693136     3.8356097761
O       15.3791883252     2.9928272856     3.2168627905
O       16.1258540818     2.5622943333     5.7678484565
Si       16.5287307916     6.5885939791     4.4074099846
Si       13.9640746986     2.5654217995     2.5162945201
Si       18.8398706735     2.5271819617     2.5607950551
Si       15.7701044616     1.1279447967     6.4781430300
H       17.9136909007     6.8486188153     3.9028646650
H       15.5693725632     6.9600977999     3.3099841811
H       16.3068868262     7.4701205616     5.6211589829
H       12.8323365756     3.3135114383     3.1170990790
H       13.9488363726     2.8639159211     1.0496394246
H       18.4402309318     3.3117091993     1.3600508109
H       13.7104394495     1.1044121937     2.7159975662
H       18.5381168873     1.0850700266     2.3048780164
H       16.4667303623     0.8939347132     7.7964247488
H       14.2901278412     0.9795386493     6.7147315158
H       20.3376929784     2.6685501397     2.7457892622
H       16.2061983897     0.0608311097     5.5408036491
32
# Point -8 Energy = 0.0
C       20.7742866487     3.5455397909     7.4923135459
H       18.8381233129     3.6711478967     6.1442611412
C       19.3002370112     3.0003892496     6.8803633811
H       18.5582361334     2.7860359644     7.6644748124
H       20.5526158547     1.6065548673     5.2956956882
C       20.0065579219     1.6239560034     6.2414459627
H       18.9470058889     1.5153100078     5.9306795536
H       20.2031039191     0.7196920519     6.8202925940
H       21.5229253752     4.0680095614     6.8946052181
H       21.1913497569     3.2040048849     8.4403401673
H       20.0765195132     4.3392730794     7.8168339743
Si       16.4488167543     3.4034575066     4.4001445461
O       16.3359769926     4.9975161770     4.7434062459
O       17.9558920710     3.0630205357     3.8375768758
O       15.3797664910     2.9928932088     3.2167006644
O       16.1239003846     2.5632535439     5.7672794473
Si       16.5263448533     6.5893463656     4.4071362500
Si       13.9644784282     2.5644375402     2.5144367229
Si       18.8408300265     2.5283262803     2.5628894316
Si       15.7678757023     1.1279041017     6.4777386997
H       17.9116444140     6.8495775704     3.9038666897
H       15.5678168948     6.9601106793     3.3088700603
H       16.3030644004     7.4706586449     5.6206515765
H       12.8321696653     3.3122003947     3.1143802574
H       13.9504609875     2.8627844189     1.0478494999
H       18.4418041740     3.3127376342     1.3619053425
H       13.7115478504     1.1034249719     2.7142867278
H       18.5397717472     1.0862219200     2.3070166565
H       16.4634706880     0.8945369558     7.7965972404
H       14.2878060303     0.9792441162     6.7129469227
H       20.3382898111     2.6704931076     2.7494042678
H       16.2052908968     0.0612429688     5.5407751960
32
# Point -7 Energy = 0.0
C       20.7611509773     3.5612588510     7.4965422465
H       18.8557462910     3.6646461086     6.1486748095
C       19.3186246046     2.9939805942     6.8841701708
H       18.5761571803     2.7821827093     7.6680327187
H       20.5509887733     1.6221308068     5.3038993891
C       19.9813139257     1.6219630156     6.2364878536
H       18.9349503873     1.4702246618     5.9053067300
H       20.2026438011     0.7327045927     6.8303801366
H       21.5146014714     4.0543343079     6.8790613291
H       21.1892864618     3.1894931795     8.4286023072
H       20.1056162446     4.3798699830     7.8420031539
Si       16.4473986515     3.4038478094     4.3999338065
O       16.3337937241     4.9973465819     4.7432110192
O       17.9545566165     3.0643531055     3.8394211982
O       15.3801598247     2.9930326948     3.2164842379
O       16.1218188531     2.5642434069     5.7666494507
Si       16.5238892393     6.5901197135     4.4068153600
Si       13.9646736680     2.5635799516     2.5125436022
Si       18.8415502544     2.5294340101     2.5648314766
Si       15.7655037609     1.1279029577     6.4772835448
H       17.9095171297     6.8505268160     3.9047785978
H       15.5661659234     6.9601781042     3.3077441803
H       16.2992346620     7.4712125634     5.6201105110
H       12.8318294287     3.3110439260     3.1116558418
H       13.9518601453     2.8617995642     1.0460294883
H       18.4431224754     3.3137490197     1.3636259182
H       13.7124047833     1.1025703261     2.7125269547
H       18.5411353418     1.0873481359     2.3090044835
H       16.4601039439     0.8951585629     7.7966949693
H       14.2853459994     0.9790289678     6.7111598586
H       20.3386560274     2.6723531317     2.7528180939
H       16.2041800287     0.0616838406     5.5406819214
32
# Point -6 Energy = 0.0
C       20.7472798631     3.5764534335     7.5007870451
H       18.8732322665     3.6579541448     6.1527357482
C       19.3369982225     2.9875091617     6.8876615586
H       18.5937796390     2.7783004779     7.6710057872
H       20.5509876971     1.6399735122     5.3147260354
C       19.9566634996     1.6208697115     6.2323263581
H       18.9261349449     1.4250915759     5.8804439417
H       20.2035660921     0.7486352338     6.8420890440
H       21.5047335895     4.0381178258     6.8631128655
H       21.1853336920     3.1731979356     8.4154691059
H       20.1362632223     4.4186475092     7.8662363682
Si       16.4458156458     3.4042694309     4.3996481215
O       16.3314964708     4.9972094730     4.7429504686
O       17.9530246218     3.0656733326     3.8411396189
O       15.3803536162     2.9932483594     3.2162102572
O       16.1195948104     2.5652777427     5.7659574214
Si       16.5213474819     6.5909221490     4.4064292023
Si       13.9646457316     2.5628483941     2.5106135017
Si       18.8420173270     2.5305063124     2.5666202231
Si       15.7629744907     1.1279581321     6.4767827556
H       17.9072926402     6.8514731748     3.9055812893
H       15.5644029832     6.9603030325     3.3065866668
H       16.2953805496     7.4717955846     5.6195140470
H       12.8313008114     3.3100435762     3.1089210118
H       13.9530192056     2.8609545774     1.0441764388
H       18.4441715158     3.3147391808     1.3652081449
H       13.7129960061     1.1018482911     2.7107225262
H       18.5421943854     1.0884485453     2.3108465449
H       16.4566160597     0.8958224388     7.7967243051
H       14.2827334982     0.9789103069     6.7093760166
H       20.3387777195     2.6741329190     2.7560293712
H       16.2028523005     0.0621665244     5.5405335689
32
# Point -5 Energy = 0.0
C       20.7326430243     3.5911040337     7.5050563167
H       18.8905855007     3.6511040668     6.1564384979
C       19.3553455039     2.9809956607     6.8908317715
H       18.6110768452     2.7744156375     7.6733744453
H       20.5526911087     1.6602487180     5.3284251411
C       19.9326467172     1.6206738146     6.2289150863
H       18.9208533225     1.3798884092     5.8560895654
H       20.2059797404     0.7677935408     6.8554437742
H       21.4932062690     4.0190744875     6.8468092689
H       21.1793549218     3.1549220505     8.4007389441
H       20.1685222914     4.4554605434     7.8895526210
Si       16.4440549726     3.4047297210     4.3992832326
O       16.3290710968     4.9971137109     4.7426131918
O       17.9512838260     3.0669873409     3.8427292153
O       15.3803352055     2.9935414408     3.2158763145
O       16.1172163875     2.5663700128     5.7652030914
Si       16.5187040803     6.5917611891     4.4059591531
Si       13.9643819860     2.5622400805     2.5086460915
Si       18.8422192701     2.5315441336     2.5682548669
Si       15.7602772689     1.1280861123     6.4762428274
H       17.9049552817     6.8524230580     3.9062547497
H       15.5625119862     6.9604871146     3.3053772626
H       16.2914859205     7.4724206296     5.6188397223
H       12.8305706764     3.3091984746     3.1061723211
H       13.9539251256     2.8602400951     1.0422886441
H       18.4449384563     3.3157032189     1.3666476559
H       13.7133099278     1.1012567263     2.7088795444
H       18.5429381373     1.0895226208     2.3125485536
H       16.4529968820     0.8965518658     7.7966928141
H       14.2799579205     0.9789044404     6.7076027892
H       20.3386430148     2.6758356083     2.7590364877
H       16.2012979322     0.0627034428     5.5403413985
32
# Point -4 Energy = 0.0
C       20.7172190146     3.6051845575     7.5093538655
H       18.9078181984     3.6441310583     6.1597785737
C       19.3736591450     2.9744606640     6.8936748643
H       18.6280273522     2.7705555167     7.6751185417
H       20.5561111677     1.6830734358     5.3452568909
C       19.9093015213     1.6213728013     6.2262005359
H       18.9194131685     1.3346444055     5.8322726751
H       20.2099514169     0.7904858831     6.8703905750
H       21.4798968069     3.9969421164     6.8302662173
H       21.1712195641     3.1345269165     8.3841814775
H       20.2024477143     4.4901151630     7.9119590826
Si       16.4421077401     3.4052346944     4.3988358551
O       16.3265070937     4.9970668321     4.7421886046
O       17.9493256669     3.0683002650     3.8441873989
O       15.3800953824     2.9939114233     3.2154815133
O       16.1146764126     2.5675324319     5.7643874115
Si       16.5159466046     6.5926430245     4.4053870883
Si       13.9638730456     2.5617499907     2.5066432651
Si       18.8421473713     2.5325474982     2.5697346203
Si       15.7574068599     1.1283021481     6.4756718458
H       17.9024921668     6.8533818556     3.9067788084
H       15.5604793376     6.9607302777     3.3040966017
H       16.2875380250     7.4730993859     5.6180655565
H       12.8296292191     3.3085052949     3.1034089579
H       13.9545673784     2.8596443258     1.0403665868
H       18.4454129866     3.3166350516     1.3679401759
H       13.7133386622     1.1007912299     2.7070066470
H       18.5433593712     1.0905688110     2.3141165701
H       16.4492422903     0.8973692430     7.7966093595
H       14.2770141958     0.9790260709     6.7058498439
H       20.3382433414     2.6774638445     2.7618371477
H       16.1995123785     0.0633057828     5.5401182023
32
# Point -3 Energy = 0.0
C       20.7009987542     3.6186607856     7.5136777246
H       18.9249528549     3.6370719359     6.1627524266
C       19.3919393270     2.9679229066     6.8961845056
H       18.6446176520     2.7667467081     7.6762172833
H       20.5611743022     1.7084744013     5.3654679178
C       19.8866653973     1.6229629334     6.2241218508
H       18.9221149932     1.2894700342     5.8090656790
H       20.2154882549     0.8169755018     6.8867647249
H       21.4646919123     3.9715215830     6.8136904628
H       21.1608246475     3.1119762298     8.3655552139
H       20.2380556905     4.5223586680     7.9334421000
Si       16.4399708204     3.4057882519     4.3983042826
O       16.3237998009     4.9970742222     4.7416678804
O       17.9471469941     3.0696153435     3.8455121000
O       15.3796299355     2.9943556551     3.2150272373
O       16.1119744931     2.5687749765     5.7635130701
Si       16.5130680832     6.5935717275     4.4046965875
Si       13.9631140835     2.5613708451     2.5046101579
Si       18.8417975097     2.5335147106     2.5710585803
Si       15.7543654432     1.1286191784     6.4750798118
H       17.8998954966     6.8543530241     3.9071340676
H       15.5582961191     6.9610302958     3.3027277082
H       16.2835303155     7.4738413155     5.6171714824
H       12.8284715331     3.3079582896     3.1006341747
H       13.9549389655     2.8591533106     1.0384140142
H       18.4455884925     3.3175269096     1.3690816322
H       13.7130791599     1.1004451136     2.7051158005
H       18.5434554222     1.0915838387     2.3155566605
H       16.4453565012     0.8982946495     7.7964842207
H       14.2739048454     0.9792874100     6.7041297667
H       20.3375748280     2.6790187091     2.7644279173
H       16.1974979715     0.0639825353     5.5398783179
32
# Point -2 Energy = 0.0
C       20.6839887129     3.6314891046     7.5180191866
H       18.9420242222     3.6299636011     6.1653574380
C       19.4101958170     2.9613976222     6.8983538538
H       18.6608445543     2.7630133942     7.6766492412
H       20.5677079891     1.7363368353     5.3892548981
C       19.8647769249     1.6254383608     6.2226108751
H       18.9292164203     1.2445896908     5.7865953749
H       20.2225237700     0.8474261763     6.9042582690
H       21.4475176070     3.9427262938     6.7974042962
H       21.1481266398     3.0873840802     8.3446372051
H       20.2752813332     4.5518767659     7.9539593323
Si       16.4376485341     3.4063914678     4.3976889818
O       16.3209524086     4.9971383558     4.7410448734
O       17.9447516018     3.0709330680     3.8467020156
O       15.3789410470     2.9948690301     3.2145178619
O       16.1091188252     2.5701044644     5.7625849922
Si       16.5100691940     6.5945485255     4.4038741268
Si       13.9621060168     2.5610931500     2.5025560450
Si       18.8411713613     2.5344416048     2.5722256989
Si       15.7511643313     1.1290468333     6.4744789339
H       17.8971647032     6.8553372316     3.9073028810
H       15.5559601273     6.9613824271     3.3012574371
H       16.2794650075     7.4746527339     5.6161407526
H       12.8270990247     3.3075494034     3.0978565440
H       13.9550373699     2.8587512489     1.0364388912
H       18.4454631564     3.3183688786     1.3700683496
H       13.7125341999     1.1002094487     2.7032229656
H       18.5432291140     1.0925620473     2.3168746476
H       16.4413540027     0.8993444828     7.7963292127
H       14.2706417170     0.9796973752     6.7024586059
H       20.3366395736     2.6804986921     2.7668039415
H       16.1952652930     0.0647396056     5.5396376312
32
# Point -1 Energy = 0.0
C       20.6662123264     3.6436159607     7.5223621582
H       18.9590800267     3.6228419500     6.1675920084
C       19.4284487293     2.9548954505     6.9001756818
H       18.6767160020     2.7593762901     7.6763923813
H       20.5754430487     1.7663590673     5.4167236965
C       19.8436766759     1.6287909220     6.2215925765
H       18.9408871751     1.2003707457     5.7650497823
H       20.2309147060     0.8818419116     6.9224015596
H       21.4283788372     3.9106282634     6.7818585885
H       21.1331777267     3.0610501682     8.3212592271
H       20.3139294907     4.5782996620     7.9734357441
Si       16.4351533827     3.4070422014     4.3969929562
O       16.3179769095     4.9972583842     4.7403166700
O       17.9421509045     3.0722506578     3.8477568848
O       15.3780379282     2.9954438753     3.2139611013
O       16.1061268633     2.5715240540     5.7616106174
Si       16.5069594141     6.5955714026     4.4029098099
Si       13.9608560537     2.5609053532     2.5004946883
Si       18.8402769603     2.5353210452     2.5732349609
Si       15.7478244764     1.1295908993     6.4738837510
H       17.8943076192     6.8563318318     3.9072700673
H       15.5534770301     6.9617792700     3.2996772776
H       16.2753543861     7.4755363034     5.6149607824
H       12.8255200759     3.3072685106     3.0950904310
H       13.9548650907     2.8584208226     1.0344537775
H       18.4450405793     3.3191485911     1.3708973299
H       13.7117127545     1.1000732317     2.7013482833
H       18.5426891239     1.0934949710     2.3180761304
H       16.4372600777     0.9005306795     7.7961577609
H       14.2672464746     0.9802612258     6.7008560275
H       20.3354462396     2.6818989709     2.7689590896
H       16.1928335108     0.0655793270     5.5394135584
32
# Point 0 Energy = 0
C       20.6477110000     3.6549790000     7.5266840000
H       18.9761800000     3.6157410000     6.1694560000
C       19.4467280000     2.9484220000     6.9016430000
H       18.6922510000     2.7558520000     7.6754250000
H       20.5840390000     1.7980300000     5.4478400000
C       19.8234060000     1.6330100000     6.2209870000
H       18.9571360000     1.1573250000     5.7446630000
H       20.2404540000     0.9200090000     6.9405780000
H       21.4074060000     3.8754920000     6.7676150000
H       21.1161610000     3.0334640000     8.2953550000
H       20.3536290000     4.6012450000     7.9917750000
Si       16.4325060000     3.4077350000     4.3962220000
O       16.3148940000     4.9974300000     4.7394840000
O       17.9393640000     3.0735620000     3.8486780000
O       15.3769370000     2.9960700000     3.2133680000
O       16.1030250000     2.5730330000     5.7606000000
Si       16.5037570000     6.5966350000     4.4017980000
Si       13.9593780000     2.5607940000     2.4984440000
Si       18.8391290000     2.5361430000     2.5740860000
Si       15.7443760000     1.1302530000     6.4733110000
H       17.8913405600     6.8573308000     3.9070238400
H       15.5508605600     6.9622108000     3.2979838400
H       16.2712205600     7.4764908000     5.6136238400
H       12.8237502400     3.3071035200     3.0923555200
H       13.9544302400     2.8581435200     1.0324755200
H       18.4443303200     3.3198514400     1.3715668800
H       13.7106302400     1.1000235200     2.6995155200
H       18.5418503200     1.0943714400     2.3191668800
H       16.4331100800     0.9018602400     7.7959848800
H       14.2637500800     0.9809802400     6.6993448800
H       20.3340103200     2.6832114400     2.7708868800
H       16.1902300800     0.0665002400     5.5392248800
32
# Point 1 Energy = 0.0
C       20.6285350371     3.6655176548     7.5309494779
H       18.9933856162     3.6086819565     6.1709484799
C       19.4650700078     2.9419742530     6.9027490751
H       18.7074772468     2.7524488723     7.6737264145
H       20.5931710407     1.8308667347     5.4825158428
C       19.8040114840     1.6380779550     6.2207166135
H       18.9778582408     1.1159925173     5.7256737303
H       20.2509358335     0.9616718262     6.9582366886
H       21.3847516120     3.8376182565     6.7551426373
H       21.0972784600     3.0050933131     8.2668885597
H       20.3939165872     4.6203747179     8.0088910687
Si       16.4297328884     3.4084619320     4.3953842581
O       16.3117317953     4.9976460540     4.7385521393
O       17.9364153553     3.0748579088     3.8494679701