32
# Point -15 Energy = 0.0
C       20.7098266661     3.6667102619     7.5664074840
H       18.7724692183     3.1822809848     6.1530376801
C       19.5054640136     3.0793779141     6.9500767947
H       19.0649349331     3.3379739084     7.9222911879
H       20.0305823691     2.5544412415     5.5722112142
C       19.7053009070     1.6860876487     6.1744846365
H       18.9522712843     2.2665379883     5.6143495570
H       19.8570845229     0.7243436739     5.6980874704
H       21.7607736400     3.5810932208     7.3084164639
H       20.1519001303     2.7143002014     7.6416483796
H       20.7161753758     4.0646271396     8.5795318743
Si       16.4842684007     3.3788026922     4.4145033162
O       16.3388015058     4.9730697208     4.7076057912
O       17.9889483542     3.0479820712     3.8708624774
O       15.4322380725     2.9209235098     3.2481803776
O       16.1597658066     2.5919392121     5.8009825504
Si       16.5083561202     6.5720165571     4.3163579816
Si       14.0143945473     2.4414993202     2.5425969667
Si       18.8933050094     2.4849089089     2.6260312417
Si       15.8174174141     1.1611720282     6.5621539068
H       17.8929849796     6.8317042650     3.8145734484
H       15.5515755323     6.8871113066     3.2026171887
H       16.2644597159     7.4841852053     5.5006307713
H       12.8716082415     3.1927008189     3.1138463931
H       14.0087037764     2.6927258520     1.0693106529
H       18.4921592320     3.2224219510     1.3933557451
H       13.7867685188     0.9857318857     2.7916189893
H       18.6178068433     1.0297721210     2.4115052930
H       16.5098415589     0.9852137095     7.8916873870
H       14.3400270188     1.0014334089     6.7932147896
H       20.3892848535     2.6550310866     2.8122224008
H       16.2784820377     0.0751821857     5.6627649484
32
# Point -14 Energy = 0.0
C       20.7017320141     3.6816649177     7.5555820031
H       18.7725174646     3.1874663444     6.1475252001
C       19.5002572225     3.0707203946     6.9482829938
H       19.0364908669     3.3016642374     7.9166086648
H       20.0662378072     2.5129062604     5.5481446506
C       19.7233196384     1.6790084019     6.1871994148
H       18.9300402906     2.1861585471     5.6124968457
H       19.9142170037     0.6928566077     5.7777237557
H       21.7496001936     3.6302460815     7.2740226823
H       20.2095458125     2.7016197666     7.6952779677
H       20.6995535270     4.1321504803     8.5469228121
Si       16.4803455923     3.3818140516     4.4135427913
O       16.3371717091     4.9758955461     4.7099054424
O       17.9852368814     3.0502660432     3.8701310319
O       15.4282839032     2.9273178252     3.2457514488
O       16.1548268348     2.5918872412     5.7985218924
Si       16.5086722947     6.5748557236     4.3222503937
Si       14.0105072194     2.4512868527     2.5390594396
Si       18.8894905254     2.4885285925     2.6235960821
Si       15.8106734874     1.1603961469     6.5563928781
H       17.8937430362     6.8341440305     3.8213648189
H       15.5525908022     6.8936150392     3.2088046105
H       16.2654687621     7.4850127794     5.5082881194
H       12.8682666078     3.2025778193     3.1114430217
H       14.0054008239     2.7055578978     1.0662077178
H       18.4893857170     3.2292609993     1.3927362929
H       13.7809154536     0.9952094017     2.7848543619
H       18.6121195400     1.0343244263     2.4063093195
H       16.5023876799     0.9807345947     7.8857482805
H       14.3329369327     1.0018473420     6.7866404851
H       20.3854026835     2.6566359614     2.8109863039
H       16.2706422725     0.0756716457     5.6548436368
32
# Point -13 Energy = 0.0
C       20.6934229172     3.6951326514     7.5450816015
H       18.7740690250     3.1940308948     6.1408293128
C       19.4951078858     3.0617924109     6.9460446823
H       19.0082389444     3.2646108633     7.9092787811
H       20.1034783243     2.4692974685     5.5265717855
C       19.7408306198     1.6720243310     6.1995749180
H       18.9123932673     2.1032468615     5.6134240147
H       19.9702643307     0.6663998750     5.8614056402
H       21.7362486590     3.6760035673     7.2390414392
H       20.2695545840     2.6955374455     7.7489300256
H       20.6799762481     4.1969203873     8.5118384363
Si       16.4762961504     3.3847973087     4.4124423326
O       16.3354548494     4.9786584724     4.7122158671
O       17.9813500320     3.0525510379     3.8691077742
O       15.4241078307     2.9337994959     3.2432353741
O       16.1498618003     2.5916935890     5.7958708513
Si       16.5088846718     6.5776534762     4.3282779159
Si       14.0063402844     2.4612390002     2.5355162346
Si       18.8853956950     2.4922537601     2.6207495135
Si       15.8039512601     1.1594258623     6.5503441831
H       17.8943588450     6.8365695285     3.8282011060
H       15.5534196917     6.9001826545     3.2152410787
H       16.2664769819     7.4856936934     5.5161755874
H       12.8646993644     3.2125788238     3.1091918670
H       14.0017050920     2.7186813355     1.0631282978
H       18.4862432769     3.2363106623     1.3918098236
H       13.7747878598     1.0048424016     2.7779748406
H       18.6061213105     1.0390117513     2.4006000589
H       16.4950572722     0.9759402065     7.8794411948
H       14.3258871739     1.0020639674     6.7798871349
H       20.3812543313     2.6583116677     2.8092281721
H       16.2627420206     0.0760465483     5.6465055148
32
# Point -12 Energy = 0.0
C       20.6850663961     3.7068098063     7.5351270625
H       18.7773460666     3.2025209151     6.1330170496
C       19.4900124842     3.0526252179     6.9433890143
H       18.9801544149     3.2268816129     7.9002609212
H       20.1421986118     2.4239132152     5.5077056085
C       19.7575949034     1.6651996350     6.2114451153
H       18.8993577256     2.0184372456     5.6168515955
H       20.0250095418     0.6456921786     5.9486840868
H       21.7209258370     3.7177865963     7.2035361085
H       20.3312605050     2.6958762089     7.8023399607
H       20.6578984120     4.2583392744     8.4745734788
Si       16.4721256010     3.3877257391     4.4112143915
O       16.3336453649     4.9813343551     4.7145247832
O       17.9772977669     3.0548123274     3.8678160450
O       15.4197230287     2.9403178365     3.2406477856
O       16.1448753196     2.5913502061     5.7930517137
Si       16.5089794690     6.5803802082     4.3344049077
Si       14.0019128944     2.4712853883     2.5319849326
Si       18.8810390006     2.4960477180     2.6175272744
Si       15.7972609716     1.1582628269     6.5440500781
H       17.8948191284     6.8389528062     3.8350483689
H       15.5540511115     6.9067615913     3.2218829942
H       16.2674599813     7.4862137969     5.5242424371
H       12.8609185920     3.2226339812     3.1070945818
H       13.9976403276     2.7320038751     1.0600867872
H       18.4827510817     3.2435129261     1.3905999908
H       13.7684128187     1.0145634198     2.7710189595
H       18.5998406146     1.0437930377     2.3944342412
H       16.4878560991     0.9708565402     7.8728131924
H       14.3188879731     1.0020786368     6.7729935878
H       20.3768565575     2.6600340307     2.8069869772
H       16.2548019994     0.0762988464     5.6378113284
32
# Point -11 Energy = 0.0
C       20.6768802574     3.7164240337     7.5259528569
H       18.7825738240     3.2135674406     6.1242713469
C       19.4849978847     3.0432871230     6.9403473708
H       18.9522621389     3.1885684358     7.8895249787
H       20.1823147786     2.3768825889     5.4915310457
C       19.7733737336     1.6586420022     6.2225840529
H       18.8908479061     1.9326450696     5.6225717089
H       20.0773413669     0.6312373846     6.0391060929
H       21.7038713862     3.7551117408     7.1675716245
H       20.3941133851     2.7023434575     7.8552116413
H       20.6338717796     4.3158374491     8.4354736591
Si       16.4678654390     3.3905688186     4.4098742014
O       16.3317414596     4.9838935034     4.7168232483
O       17.9731208353     3.0570424854     3.8662824351
O       15.4151750777     2.9468041114     3.2380064259
O       16.1399087301     2.5908400855     5.7900892439
Si       16.5089246095     6.5830036121     4.3405997425
Si       13.9972831837     2.4813181306     2.5284844034
Si       18.8764778165     2.4999039740     2.6139684400
Si       15.7906692563     1.1568943884     6.5375546480
H       17.8950889002     6.8412826805     3.8418773068
H       15.5544513390     6.9132837900     3.2286904094
H       16.2683622132     7.4865525829     5.5324422622
H       12.8569647447     3.2326199758     3.1051539615
H       13.9932659773     2.7453962346     1.0570988592
H       18.4789570619     3.2508350338     1.3891338007
H       13.7618765470     1.0242638926     2.7640259159
H       18.5933649774     1.0486533732     2.3878712438
H       16.4808486625     0.9655043432     7.8659134795
H       14.3120080003     1.0018517481     6.7659998690
H       20.3722627607     2.6618298125     2.8043057127
H       16.2469145666     0.0764126976     5.6288233719
32
# Point -10 Energy = 0.0
C       20.6691056101     3.7237172413     7.5178100304
H       18.7899452762     3.2278514668     6.1149280871
C       19.4800963905     3.0338641712     6.9369651636
H       18.9246164104     3.1497788102     7.8770639204
H       20.2236272595     2.3283441996     5.4779976033
C       19.7878956321     1.6524753778     6.2327190292
H       18.8866059320     1.8468439478     5.6303084211
H       20.1260451512     0.6234913439     6.1320098001
H       21.6853173895     3.7875836133     7.1312258142
H       20.4576747854     2.7144909880     7.9072310735
H       20.6085029825     4.3688722040     8.3949474462
Si       16.4635570365     3.3932938493     4.4084410611
O       16.3297458632     4.9863054653     4.7190989066
O       17.9688722242     3.0592337706     3.8645429972
O       15.4105234127     2.9531789990     3.2353322130
O       16.1350123262     2.5901491857     5.7870152080
Si       16.5086888721     6.5854898184     4.3468206613
Si       13.9925260097     2.4912114289     2.5250349661
Si       18.8717864121     2.5038124982     2.6101262869
Si       15.7842540246     1.1553128855     6.5309145603
H       17.8951345546     6.8435481929     3.8486508931
H       15.5545890726     6.9196719455     3.2356091084
H       16.2691235446     7.4866928755     5.5407139679
H       12.8528913905     3.2423950653     3.1033679550
H       13.9886609102     2.7587046144     1.0541802634
H       18.4749266987     3.2582342108     1.3874478844
H       13.7552856237     1.0338173632     2.7570423072
H       18.5868034941     1.0535721350     2.3809903737
H       16.4741082369     0.9599172728     7.8588066807
H       14.3053269987     1.0013454285     6.7589554314
H       20.3675424215     2.6637274357     2.8012447821
H       16.2391886533     0.0763741957     5.6196224631
32
# Point -9 Energy = 0.0
C       20.6619896705     3.7284666377     7.5109506545
H       18.7996037257     3.2460479053     6.1054965140
C       19.4753456291     3.0244534196     6.9333030576
H       18.8973049131     3.1106313279     7.8628996997
H       20.2658104139     2.2784359538     5.4670114187
C       19.8008752224     1.6468307979     6.2415439533
H       18.8862136919     1.7620186956     5.6397271009
H       20.1698708209     0.6228248977     6.2265121971
H       21.6654539731     3.8149398045     7.0945812469
H       20.5216412957     2.7317477461     7.9580595505
H       20.5824012346     4.4169612916     8.3534481963
Si       16.4592523157     3.3958671910     4.4069393753
O       16.3276697193     4.9885404128     4.7213381299
O       17.9646171839     3.0613765945     3.8626441673
O       15.4058411531     2.9593567532     3.2326498362
O       16.1302443426     2.5892673989     5.7838689171
Si       16.5082490430     6.5878047368     4.3530190171
Si       13.9877318611     2.5008291266     2.5216585116
Si       18.8670549218     2.5077571103     2.6060688531
Si       15.7781004996     1.1535167785     6.5241986247
H       17.8949315717     6.8457374197     3.8553278894
H       15.5544433037     6.9258435727     3.2425739408
H       16.2696881826     7.4866219221     5.5489856709
H       12.8487656121     3.2518086458     3.1017302334
H       13.9839229355     2.7717592412     1.0513470561
H       18.4707435701     3.2656567225     1.3855894743
H       13.7487629332     1.0430872980     2.7501212424
H       18.5802828627     1.0585210518     2.3738903899
H       16.4677124572     0.9541407101     7.8515723903
H       14.2989314903     1.0005275679     6.7519184928
H       20.3627803938     2.6657511609     2.7978828024
H       16.2317436560     0.0761721071     5.6103067555
32
# Point -8 Energy = 0.0
C       20.6557680746     3.7305006799     7.5056139719
H       18.8116284768     3.2687796377     6.0966766940
C       19.4707888233     3.0151561871     6.9294363594
H       18.8704508284     3.0712499963     7.8470872370
H       20.3084059672     2.2272843615     5.4584230911
C       19.8120292048     1.6418401929     6.2487279146
H       18.8891095493     1.6791194714     5.6504436107
H       20.2076100811     0.6294829285     6.3215134268
H       21.6443961649     3.8370887704     7.0577241925
H       20.5858664995     2.7534606233     8.0073347304
H       20.5561211260     4.4597087377     8.3114560396
Si       16.4550140256     3.3982556379     4.4053988261
O       16.3255362511     4.9905706812     4.7235273437
O       17.9604326523     3.0634580676     3.8606423028
O       15.4012141393     2.9652495668     3.2299878203
O       16.1256699552     2.5881896676     5.7806970321
Si       16.5075967932     6.5899155516     4.3591416497
Si       13.9830047330     2.5100325340     2.5183785577
Si       18.8623872739     2.5117129037     2.6018777909
Si       15.7722974541     1.1515119336     6.5174867334
H       17.8944717881     6.8478363763     3.8618650138
H       15.5540105722     6.9317152805     3.2495115884
H       16.2700137565     7.4863326458     5.5571778281
H       12.8446676038     3.2607111416     3.1002310852
H       13.9791668168     2.7843831934     1.0486157460
H       18.4665084924     3.2730370033     1.3836157945
H       13.7424425853     1.0519351794     2.7433214639
H       18.5739422354     1.0634623153     2.3666874065
H       16.4617395255     0.9482306869     7.8443038913
H       14.2929107590     0.9993760747     6.7449552554
H       20.3580752123     2.6679152310     2.7943152004
H       16.2247031792     0.0757987413     5.6009897618
32
# Point -7 Energy = 0.0
C       20.6506401796     3.7297188563     7.5020037688
H       18.8260198812     3.2965396178     6.0893543881
C       19.4664735190     3.0060644218     6.9254529628
H       18.8442098336     3.0317528111     7.8297157080
H       20.3508292318     2.1750050124     5.4520324111
C       19.8211039557     1.6376236749     6.2539399165
H       18.8946340579     1.5990017470     5.6620498875
H       20.2382162044     0.6435558488     6.4157246360
H       21.6221461221     3.8541425240     7.0207368606
H       20.6503538611     2.7789594834     8.0546698385
H       20.5300934931     4.4968340741     8.2694361381
Si       16.4509146533     3.4004278569     4.4038544583
O       16.3233853507     4.9923720897     4.7256560474
O       17.9564047015     3.0654591347     3.8586023687
O       15.3967377939     2.9707747865     3.2273783480
O       16.1213580581     2.5869161286     5.7775524297
Si       16.5067486158     6.5917920569     4.3651366708
Si       13.9784570945     2.5186938764     2.5152199725
Si       18.8578960962     2.5156424460     2.5976455536
Si       15.7669293859     1.1493116907     6.5108663588
H       17.8937739557     6.8498263778     3.8682224452
H       15.5533155715     6.9372094202     3.2563474189
H       16.2700849541     7.4858236818     5.5652107934
H       12.8406885510     3.2689704078     3.0988590980
H       13.9745194737     2.7964084782     1.0460034561
H       18.4623364750     3.2802974188     1.3815927690
H       13.7364599490     1.0602343964     2.7367045902
H       18.5679229976     1.0683462173     2.3595096211
H       16.4562603146     0.9422491784     7.8371039770
H       14.2873486445     0.9978837214     6.7381369111
H       20.3535345965     2.6702144989     2.7906509013
H       16.2181830274     0.0752500645     5.5917946548
32
# Point -6 Energy = 0.0
C       20.6467459764     3.7261067495     7.5002652065
H       18.8426898547     3.3296102648     6.0845731752
C       19.4624497654     2.9972454004     6.9214490124
H       18.8187624342     2.9922380620     7.8109052470
H       20.3923902201     2.1217151244     5.4475997157
C       19.8279057281     1.6342771125     6.2568784667
H       18.9020892435     1.5223792692     5.6741501050
H       20.2609225830     0.6649577725     6.5077248469
H       21.5985645987     3.8664286690     6.9836937319
H       20.7152260366     2.8076336854     8.0996551812
H       20.5045662823     4.5281907540     8.2277887760
Si       16.4470341549     3.4023555699     4.4023458932
O       16.3212771205     4.9939247416     4.7277198790
O       17.9526246070     3.0673517559     3.8565950391
O       15.3925124545     2.9758625633     3.2248563865
O       16.1173772464     2.5854512516     5.7744918187
Si       16.5057546271     6.5934075982     4.3709601153
Si       13.9742031405     2.5267105981     2.5122082867
Si       18.8536958378     2.5194927682     2.5934704011
Si       15.7620681034     1.1469355781     6.5044271184
H       17.8928930011     6.8516812714     3.8743698499
H       15.5524203135     6.9422609601     3.2630137748
H       16.2699264018     7.4850983023     5.5730137839
H       12.8369269970     3.2764886313     3.0976032380
H       13.9701130335     2.8076937875     1.0435278759
H       18.4583515567     3.2873494725     1.3795921557
H       13.7309400081     1.0678849379     2.7303312230
H       18.5623566734     1.0731097768     2.3524891789
H       16.4513302553     0.9362573000     7.8300784351
H       14.2823148331     0.9960615248     6.7315351575
H       20.3492692097     2.6726157180     2.7870063785
H       16.2122783016     0.0745250289     5.5828459064
32
# Point -5 Energy = 0.0
C       20.6441481559     3.7197452536     7.5004629725
H       18.8614604426     3.3679832709     6.0834748105
C       19.4587671386     2.9887264229     6.9175224634
H       18.7943006163     2.9527708139     7.7907979085
H       20.4323333342     2.0675658035     5.4448682273
C       19.8323328795     1.6318597024     6.2573080720
H       18.9108066752     1.4497970100     5.6864055061
H       20.2753501045     0.6934146504     6.5960459661
H       21.5733600667     3.8744730515     6.9466646150
H       20.7806643928     2.8390117335     8.1418598604
H       20.4795703095     4.5537707939     8.1867959227
Si       16.4434559113     3.4040144317     4.4009156195
O       16.3192930559     4.9952132318     4.7297234294
O       17.9491831467     3.0690966777     3.8546923322
O       15.3886368584     2.9804632594     3.2224580644
O       16.1137906565     2.5838019812     5.7715721189
Si       16.5047042517     6.5947395683     4.3765829503
Si       13.9703502461     2.5340191128     2.5093685111
Si       18.8498940551     2.5231939105     2.5894495154
Si       15.7577639385     1.1444066407     6.4982535880
H       17.8919259425     6.8533650268     3.8802925057
H       15.5514298074     6.9468239477     3.2694590882
H       16.2696123265     7.4841622337     5.5805345832
H       12.8334832428     3.2832178986     3.0964550343
H       13.9660756502     2.8181423129     1.0412069005
H       18.4546792315     3.2940968680     1.3776872750
H       13.7259845769     1.0748274176     2.7242560224
H       18.5573515516     1.0776769764     2.3457516534
H       16.4469812192     0.9303068710     7.8233274368
H       14.2778559037     0.9939400067     6.7252163086
H       20.3453845482     2.6750509539     2.7834974461
H       16.2070503635     0.0736241660     5.5742586521
32
# Point -4 Energy = 0.0
C       20.6428281328     3.7108036294     7.5025726528
H       18.8820727139     3.4113179354     6.0872302124
C       19.4554717060     2.9804864214     6.9137654841
H       18.7710125967     2.9133744677     7.7695446658
H       20.4698825667     2.0127993346     5.4435745455
C       19.8343937144     1.6303904616     6.2550824596
H       18.9201963272     1.3816444965     5.6985627492
H       20.2815697442     0.7284661438     6.6792689740
H       21.5461098297     3.8789489031     6.9097392403
H       20.8468329074     2.8728135126     8.1808367177
H       20.4549326468     4.5736832917     8.1465954039
Si       16.4402617427     3.4053839318     4.3996060647
O       16.3175336124     4.9962259889     4.7316801266
O       17.9461644894     3.0706422306     3.8529622401
O       15.3852012990     2.9845508102     3.2202184181
O       16.1106513626     2.5819758017     5.7688465015
Si       16.5037255401     6.5957689585     4.3819934156
Si       13.9669907947     2.5406013059     2.5067239639
Si       18.8465831073     2.5266587058     2.5856716312
Si       15.7540400237     1.1417488738     6.4924193508
H       17.8910109650     6.8548302393     3.8859923473
H       15.5504906795     6.9508742027     3.2756520725
H       16.2692684385     7.4830214016     5.5877436169
H       12.8304528876     3.2891671775     3.0954100737
H       13.9625220911     2.8277107359     1.0390580090
H       18.4514378793     3.3004378260     1.3759474923
H       13.7216623820     1.0810496809     2.7185243857
H       18.5529821604     1.0819594908     2.3394066363
H       16.4432169385     0.9244346872     7.8169382918
H       14.2739897057     0.9915682568     6.7192369528
H       20.3419730074     2.6774150120     2.7802302457
H       16.2025186072     0.0725480845     5.5661304183
32
# Point -3 Energy = 0.0
C       20.6426905243     3.6995318355     7.5064752278
H       18.9042063272     3.4589084856     6.0969276582
C       19.4526014091     2.9724532603     6.9102560025
H       18.7490629131     2.8740309974     7.7472868742
H       20.5043165488     1.9578062345     5.4434711216
C       19.8342260033     1.6298430622     6.2501781151
H       18.9297925000     1.3181820627     5.7104816430
H       20.2801191685     0.7694755857     6.7561411840
H       21.5163118910     3.8806004982     6.8730583616
H       20.9137756346     2.9089821251     8.2161248924
H       20.4303329844     4.5881279563     8.1071641102
Si       16.4375245817     3.4064479946     4.3984561783
O       16.3161108474     4.9969550346     4.7336116551
O       17.9436382817     3.0719263315     3.8514628036
O       15.3822790729     2.9881250833     3.2181687522
O       16.1079968180     2.5799789442     5.7663598550
Si       16.5029769306     6.5964805783     4.3871989265
Si       13.9641929907     2.5464877024     2.5042948203
Si       18.8438308911     2.5297873308     2.5822091129
Si       15.7508879939     1.1389842488     6.4869804338
H       17.8903185130     6.8560196031     3.8914885343
H       15.5497816146     6.9544111109     3.2815855980
H       16.2690648525     7.4816798911     5.5946375619
H       12.8279181439     3.2944040413     3.0944692614
H       13.9595427865     2.8364149053     1.0370974479
H       18.4487279303     3.3062715030     1.3744322544
H       13.7180005174     1.0865897280     2.7131688208
H       18.5492801352     1.0858617519     2.3335377800
H       16.4400102561     0.9186575085     7.8109774767
H       14.2707014026     0.9890101376     6.7136390609
H       20.3391047649     2.6795700946     2.7772915967
H       16.1986553707     0.0712963727     5.5585322393
32
# Point -2 Energy = 0.0
C       20.6435829043     3.6862383721     7.5119713238
H       18.9275062908     3.5097216668     6.1134796671
C       19.4501824606     2.9645156881     6.9070506298
H       18.7285772380     2.8346938644     7.7241393616
H       20.5350401400     1.9031654772     5.4443171909
C       19.8320892054     1.6301547245     6.2426986202
H       18.9392617798     1.2595846375     5.7221205011
H       20.2719418354     0.8156589092     6.8256764438
H       21.4834746181     3.8801591098     6.8368641898
H       20.9813260281     2.9476515102     8.2472606988
H       20.4054094223     4.5973540952     8.0683548492
Si       16.4353013974     3.4071955522     4.3974974800
O       16.3151366639     4.9973962244     4.7355430184
O       17.9416530977     3.0728814911     3.8502368567
O       15.3799196259     2.9912083342     3.2163341515
O       16.1058456202     2.5778168608     5.7641456079
Si       16.5026301036     6.5968635211     4.3922198584
Si       13.9619947735     2.5517489262     2.5020974588
Si       18.8416747906     2.5324744078     2.5791122255
Si       15.7482699827     1.1361326499     6.4819734415
H       17.8900328594     6.8568704575     3.8968096632
H       15.5494940862     6.9574542855     3.2872713182
H       16.2691972843     7.4801403931     5.6012326798
H       12.8259399548     3.2990428393     3.0936387913
H       13.9571954724     2.8443202948     1.0353395022
H       18.4466222748     3.3115029630     1.3731853456
H       13.7149831452     1.0915266680     2.7082095291
H       18.5462325008     1.0892870727     2.3281983888
H       16.4373070231     0.9129750987     7.8054880958
H       14.2679461663     0.9863396650     6.7084497416
H       20.3368214301     2.6813577923     2.7747416028
H       16.1953904244     0.0698684473     5.5515071267
32
# Point -1 Energy = 0.0
C       20.6453205169     3.6712677613     7.5188035900
H       18.9516115684     3.5624739950     6.1375406742
C       19.4482262382     2.9565451216     6.9041793459
H       18.7096318468     2.7953110972     7.7001765128
H       20.5616594664     1.8496273720     5.4458629697
C       19.8283420459     1.6312404046     6.2328646892
H       18.9484012226     1.2059589662     5.7335005410
H       20.2582676532     0.8661364917     6.8872375887
H       21.4472248122     3.8782763518     6.8015401735
H       21.0490373458     2.9890656646     8.2737995881
H       20.3798783763     4.6016319811     8.0299588013
Si       16.4336263159     3.4076225675     4.3967504327
O       16.3147081734     4.9975511242     4.7374961863
O       17.9402308645     3.0734435197     3.8493079065
O       15.3781429559     2.9938398380     3.2147314278
O       16.1041957110     2.5754969944     5.7622236823
Si       16.5028470464     6.5969132836     4.3970802580
Si       13.9603999708     2.5564818888     2.5001442673
Si       18.8401179310     2.5346201152     2.5764053787
Si       15.7461245752     1.1332141791     6.4774162636
H       17.8903275252     6.8573230702     3.9019830425
H       15.5498068733     6.9600388976     3.2927305301
H       16.2698605003     7.4784071914     5.6075540741
H       12.8245507936     3.3032261100     3.0929294373
H       13.9554988763     2.8515255981     1.0337958936
H       18.4451577999     3.3160501207     1.3722301456
H       13.7125551295     1.0959661214     2.7036569418
H       18.5437850279     1.0921469141     2.3234104363
H       16.4350340611     0.9073783576     7.8004903833
H       14.2656560417     0.9836362076     6.7036832838
H       20.3351316854     2.6826181126     2.7726085319
H       16.1926216490     0.0682665813     5.5450723824
32
# Point 0 Energy = 0
C       20.6477110000     3.6549790000     7.5266840000
H       18.9761800000     3.6157410000     6.1694560000
C       19.4467280000     2.9484220000     6.9016430000
H       18.6922510000     2.7558520000     7.6754250000
H       20.5840390000     1.7980300000     5.4478400000
C       19.8234060000     1.6330100000     6.2209870000
H       18.9571360000     1.1573250000     5.7446630000
H       20.2404540000     0.9200090000     6.9405780000
H       21.4074060000     3.8754920000     6.7676150000
H       21.1161610000     3.0334640000     8.2953550000
H       20.3536290000     4.6012450000     7.9917750000
Si       16.4325060000     3.4077350000     4.3962220000
O       16.3148940000     4.9974300000     4.7394840000
O       17.9393640000     3.0735620000     3.8486780000
O       15.3769370000     2.9960700000     3.2133680000
O       16.1030250000     2.5730330000     5.7606000000
Si       16.5037570000     6.5966350000     4.4017980000
Si       13.9593780000     2.5607940000     2.4984440000
Si       18.8391290000     2.5361430000     2.5740860000
Si       15.7443760000     1.1302530000     6.4733110000
H       17.8913405600     6.8573308000     3.9070238400
H       15.5508605600     6.9622108000     3.2979838400
H       16.2712205600     7.4764908000     5.6136238400
H       12.8237502400     3.3071035200     3.0923555200
H       13.9544302400     2.8581435200     1.0324755200
H       18.4443303200     3.3198514400     1.3715668800
H       13.7106302400     1.1000235200     2.6995155200
H       18.5418503200     1.0943714400     2.3191668800
H       16.4331100800     0.9018602400     7.7959848800
H       14.2637500800     0.9809802400     6.6993448800
H       20.3340103200     2.6832114400     2.7708868800
H       16.1902300800     0.0665002400     5.5392248800
32
# Point 1 Energy = 0.0
C       20.6506168521     3.6376838135     7.5353695141
H       19.0009893201     3.6682060470     6.2093104768
C       19.4456816078     2.9401010149     6.8994246338
H       18.6764145440     2.7163803862     7.6498660831
H       20.6022712501     1.7489935180     5.4499226364
C       19.8176431589     1.6354294022     6.2073818986
H       18.9654985533     1.1135473604     5.7555707009
H       20.2196876016     0.9764873504     6.9858128115
H       21.3640225568     3.8721273593     6.7356094495
H       21.1817692292     3.0809461943     8.3116937105
H       20.3266569195     4.5964413202     7.9536326256
Si       16.4319303237     3.4075601980     4.3959117560
O       16.3157236365     4.9970635489     4.7415073755
O       17.9390309739     3.0732286470     3.8483370301