32
# Point -15 Energy = 0.0
C       20.5750523851     3.7776217293     7.2093673586
H       18.4007173689     2.8248624471     6.7750147831
C       19.4469920623     2.9733427126     6.5813466235
H       20.2050923498     2.5994919700     7.3079441002
H       21.2118053507     1.2259448654     6.1216179060
C       20.2649465066     1.6886649757     6.3996575654
H       19.5196135351     0.8868275814     6.3578172609
H       20.0759062817     1.8167901529     7.4789670490
H       21.6236074352     4.0458502396     7.1112505711
H       20.3271080173     2.9679526069     7.9134044826
H       20.0852729858     4.5397605182     7.8217648343
Si       16.3550889023     3.4441026681     4.3544701322
O       16.2984752854     5.0155013703     4.6932387475
O       17.8678745754     3.0754915225     3.7713036443
O       15.2951112974     3.0592378358     3.1528623060
O       16.0513020150     2.5602027754     5.6830183049
Si       16.5048822258     6.5936453313     4.4005955228
Si       13.8455895133     2.6732020146     2.4531802442
Si       18.7404720346     2.5321527133     2.4311067725
Si       15.6702032354     1.1308701749     6.3732064991
H       17.8936711463     6.8519061775     3.8835856250
H       15.5466328695     7.0174266342     3.3150656925
H       16.3146184843     7.4720350130     5.6276993588
H       12.7421158842     3.4329156925     3.0816536879
H       13.8319519368     3.0027410995     0.9959283416
H       18.3308828111     3.3562925806     1.2734492691
H       13.5723072170     1.2152834714     2.6289890143
H       18.3988311560     1.1115839005     2.1764858657
H       16.3753521671     0.8565673644     7.6829662148
H       14.1899417777     1.0004731289     6.6255862021
H       20.2292661042     2.6553446981     2.6290133304
H       16.0772956829     0.0692160342     5.4156080497
32
# Point -14 Energy = 0.0
C       20.6013545368     3.7627153106     7.2437187797
H       18.3878485767     2.9610482802     6.7619272917
C       19.4514424795     2.9985233326     6.6043939681
H       20.1317072578     2.5605611662     7.3694720106
H       21.1197568374     1.2154819876     6.0087440621
C       20.1964214600     1.6819429947     6.3535043951
H       19.4183859111     0.9136778656     6.2837286625
H       20.0803764768     1.7518640750     7.4478404703
H       21.6540103177     4.0007549791     7.1107442372
H       20.3744345944     2.9524160975     7.9533333171
H       20.1437437009     4.5432037857     7.8580175688
Si       16.3627537792     3.4462400499     4.3560960717
O       16.2940232404     5.0196385148     4.6903037140
O       17.8772510383     3.0857098040     3.7770770782
O       15.3054607840     3.0502422588     3.1566519873
O       16.0612840338     2.5681912437     5.6897481268
Si       16.4913214865     6.5993340054     4.3898642639
Si       13.8602892721     2.6510818173     2.4567509495
Si       18.7549979880     2.5428920483     2.4433104048
Si       15.6885832494     1.1381837808     6.3856777458
H       17.8789084372     6.8632084454     3.8740518824
H       15.5316743737     7.0109788636     3.3013996265
H       16.2932702103     7.4806783231     5.6131539958
H       12.7505146976     3.4062252034     3.0801235718
H       13.8459471027     2.9736446293     0.9978283709
H       18.3426740471     3.3586627222     1.2798785242
H       13.5961930317     1.1921362035     2.6389182207
H       18.4235125007     1.1184051181     2.1929516903
H       16.3934502089     0.8745693037     7.6974776488
H       14.2088439248     0.9998475588     6.6360591210
H       20.2434865128     2.6757660082     2.6413139617
H       16.1040585315     0.0754762230     5.4331036405
32
# Point -13 Energy = 0.0
C       20.6229586844     3.7477286481     7.2765653587
H       18.3871060913     3.0872511897     6.7406214957
C       19.4561432215     3.0184945034     6.6261716353
H       20.0474115760     2.5265703941     7.4298012912
H       21.0374556688     1.2204726948     5.9079050211
C       20.1347722776     1.6800238925     6.3128819385
H       19.3294561695     0.9438241143     6.2121845058
H       20.0813974439     1.6855624373     7.4137516745
H       21.6763581961     3.9614117787     7.1077248885
H       20.4210999396     2.9363097958     7.9916909084
H       20.1943418353     4.5442948419     7.8912731288
Si       16.3705024167     3.4472813330     4.3578707685
O       16.2913859689     5.0225059376     4.6882523210
O       17.8860772076     3.0935666634     3.7822487455
O       15.3151142049     3.0418661974     3.1608085094
O       16.0708654688     2.5748055921     5.6962884020
Si       16.4811007684     6.6036060498     4.3806622646
Si       13.8737061446     2.6314820085     2.4610522905
Si       18.7679141104     2.5510644463     2.4543383016
Si       15.7053477637     1.1442528085     6.3974451142
H       17.8675482506     6.8718933407     3.8656547882
H       15.5201703551     7.0046009041     3.2898518328
H       16.2766106565     7.4874777997     5.6006057198
H       12.7586758234     3.3828601929     3.0800915896
H       13.8585391401     2.9477874809     1.0006513640
H       18.3533336851     3.3593993306     1.2857018977
H       13.6173171499     1.1717753397     2.6489640910
H       18.4450559990     1.1231896076     2.2077183935
H       16.4100777019     0.8899912366     7.7108595168
H       14.2261231536     0.9993812581     6.6463353909
H       20.2562560726     2.6919962324     2.6519336944
H       16.1277574541     0.0805739496     5.4492585174
32
# Point -12 Energy = 0.0
C       20.6401943626     3.7334254149     7.3070194736
H       18.3969902285     3.2013071146     6.7124342581
C       19.4606279285     3.0331938593     6.6468823920
H       19.9533573888     2.4989628776     7.4875477155
H       20.9664769703     1.2376228906     5.8202612014
C       20.0807831105     1.6808135546     6.2787331662
H       19.2534750478     0.9746664682     6.1452929641
H       20.0807755719     1.6192393860     7.3786736993
H       21.6911409491     3.9286701082     7.1006251646
H       20.4680995308     2.9211634632     8.0281909209
H       20.2374178699     4.5444238970     7.9204615727
Si       16.3780004463     3.4473347589     4.3597100052
O       16.2901706575     5.0242180681     4.6871482236
O       17.8941046411     3.0992409759     3.7868568148
O       15.3238321685     3.0342961820     3.1650937809
O       16.0796214546     2.5800144891     5.7024536984
Si       16.4738253260     6.6066410744     4.3732240051
Si       13.8856400337     2.6146131668     2.4656502031
Si       18.7791155266     2.5569628202     2.4642603364
Si       15.7200341895     1.1489463791     6.4081509149
H       17.8592548411     6.8782147076     3.8587937171
H       15.5117880929     6.9985611031     3.2805863644
H       16.2641164857     7.4925240956     5.5903595249
H       12.7663099048     3.3629778475     3.0810840181
H       13.8696406685     2.9255165338     1.0039814004
H       18.3628263116     3.3589081077     1.2910136322
H       13.6354919480     1.1543564932     2.6585278647
H       18.4633994535     1.1262148677     2.2206824974
H       16.4246812291     0.9025945140     7.7228127246
H       14.2412740084     0.9988946851     6.6558923222
H       20.2674727686     2.7043384530     2.6611098395
H       16.1480414853     0.0844436431     5.4636509438
32
# Point -11 Energy = 0.0
C       20.6536168039     3.7202815753     7.3347972376
H       18.4159055601     3.3021623533     6.6782922516
C       19.4646173856     3.0429771694     6.6667770519
H       19.8509916017     2.4789709876     7.5414270379
H       20.9067033678     1.2637082954     5.7457131002
C       20.0342944300     1.6825599425     6.2512540944
H       19.1898067414     1.0043151101     6.0841086315
H       20.0798930126     1.5535471607     7.3438676673
H       21.6990185917     3.9026349217     7.0888689691
H       20.5161748372     2.9081141435     8.0627333313
H       20.2736853549     4.5445831810     7.9452073542
Si       16.3850675283     3.4465519126     4.3615871337
O       16.2900304614     5.0249424101     4.6869998679
O       17.9012512020     3.1030258282     3.7910043757
O       15.3315509355     3.0276053444     3.1693695478
O       16.0873547391     2.5839028918     5.7081815953
Si       16.4690320283     6.6086584556     4.3676136201
Si       13.8960959094     2.6004227947     2.4702579379
Si       18.7886845792     2.5609686712     2.4732407535
Si       15.7325160831     1.1522771748     6.4176669778
H       17.8535943507     6.8825294358     3.8536618061
H       15.5060930813     6.9930220414     3.2735798626
H       16.2551462144     7.4960124186     5.5824878368
H       12.7732908845     3.3464311252     3.0827331770
H       13.8793343823     2.9068131222     1.0075279106
H       18.3712391155     3.3575708761     1.2959500644
H       13.6508398568     1.1397727968     2.6672659951
H       18.4787677844     1.1278130451     2.2319415475
H       16.4370699821     0.9124255255     7.7332768112
H       14.2541463917     0.9982630878     6.6644647660
H       20.2772076682     2.7133048156     2.6691461982
H       16.1649597348     0.0871333861     5.4761608478
32
# Point -10 Energy = 0.0
C       20.6637898341     3.7085667398     7.3599835169
H       18.4423648746     3.3892866336     6.6387157023
C       19.4679628569     3.0483588754     6.6861398948
H       19.7419665034     2.4675134759     7.5902642711
H       20.8569841537     1.2960967326     5.6833349013
C       19.9946101442     1.6839916489     6.2301369238
H       19.1371423246     1.0315950049     6.0289773705
H       20.0797385076     1.4886912831     7.3099548983
H       21.7005828284     3.8829672393     7.0725214319
H       20.5657647362     2.8980447411     8.0953512492
H       20.3038821638     4.5454535009     7.9655175539
Si       16.3916426217     3.4450801044     4.3635322272
O       16.2907052515     5.0248444764     4.6878064759
O       17.9075499930     3.1052241349     3.7948478823
O       15.3383297349     3.0217924573     3.1735854708
O       16.0940165655     2.5866013499     5.7135041866
Si       16.4663064901     6.6098597798     4.3638180727
Si       13.9052124054     2.5887254413     2.4747129232
Si       18.7968154968     2.5634446659     2.4815109727
Si       15.7428542101     1.1543300738     6.4260231074
H       17.8501659212     6.8851871781     3.8503475233
H       15.5026873543     6.9880608400     3.2687282584
H       16.2490984667     7.4981584748     5.5769495969
H       12.7796199593     3.3329340335     3.0847767218
H       13.8878191169     2.8914656785     1.0111134203
H       18.3787473165     3.3556909544     1.3006878751
H       13.6636512822     1.1277939210     2.6750231225
H       18.4915292081     1.1282879341     2.2417245268
H       16.4472525558     0.9196722653     7.7423494137
H       14.2647891121     0.9974098714     6.6719692962
H       20.2856362027     2.7194306821     2.6763896886
H       16.1787624078     0.0887418074     5.4868668837
32
# Point -9 Energy = 0.0
C       20.6711158541     3.6984890624     7.3828042595
H       18.4750000680     3.4621581732     6.5939927746
C       19.4705570736     3.0497967472     6.7052874796
H       19.6281408088     2.4651139379     7.6330351006
H       20.8158003765     1.3329683109     5.6317557831
C       19.9609286587     1.6842811967     6.2148132732
H       19.0941134541     1.0557788599     5.9799125938
H       20.0812086552     1.4246809148     7.2770773265
H       21.6961744441     3.8692358061     7.0519231551
H       20.6170589748     2.8917828381     8.1261395299
H       20.3284865897     4.5475594704     7.9814961467
Si       16.3977253473     3.4430351550     4.3656185548
O       16.2920265134     5.0240570363     4.6895862557
O       17.9130819244     3.1060721478     3.7985856002
O       15.3442824213     3.0168303259     3.1777466675
O       16.0996018853     2.5882360102     5.7185085257
Si       16.4653565516     6.6103993503     4.3618192441
Si       13.9131794141     2.5793297948     2.4789223734
Si       18.8037348149     2.5646552011     2.4893501139
Si       15.7511264634     1.1552080774     6.4333263103
H       17.8486916796     6.8864560043     3.8489246635
H       15.5013061985     6.9837090790     3.2659225617
H       16.2455134740     7.4991467563     5.5736846517
H       12.7853688341     3.3222204305     3.0870150168
H       13.8953509136     2.8792358137     1.0146277303
H       18.3855760610     3.3534621991     1.3054433545
H       13.6742395499     1.1181977551     2.6817363892
H       18.5020572485     1.1278541491     2.2503315562
H       16.4552478383     0.9245460723     7.7502038848
H       14.2732701929     0.9963083573     6.6784082402
H       20.2929648196     2.7231271467     2.6832260141
H       16.1896934967     0.0893698202     5.4959402287
32
# Point -8 Energy = 0.0
C       20.6757267707     3.6903353049     7.4034321281
H       18.5124807630     3.5200263053     6.5445553847
C       19.4722483514     3.0475438236     6.7245643141
H       19.5116211888     2.4717815596     7.6689447209
H       20.7817621602     1.3733307828     5.5894533045
C       19.9327028380     1.6829159386     6.2046579952
H       19.0597727553     1.0762084854     5.9369159883
H       20.0855175391     1.3615323669     7.2450876819
H       21.6857479693     3.8612218222     7.0273605234
H       20.6701121651     2.8902873349     8.1551372026
H       20.3475143113     4.5514004538     7.9931385208
Si       16.4033175984     3.4404902586     4.3679390762
O       16.2939032614     5.0226678238     4.6923838098
O       17.9179135370     3.1056936950     3.8024403493
O       15.3495147424     3.0127091569     3.1818723211
O       16.1040550369     2.5888994334     5.7232933546
Si       16.4660481127     6.6103745963     4.3616346803
Si       13.9201662081     2.5721380128     2.4828006194
Si       18.8096344390     2.5647189379     2.4970643547
Si       15.7572849755     1.1549981681     6.4396857894
H       17.8490661078     6.8864816378     3.8495106482
H       15.5018724130     6.9799939030     3.2650887343
H       16.2441253746     7.4991050238     5.5726706829
H       12.7906238550     3.3141662366     3.0892537388
H       13.9021913682     2.8699870679     1.0179710238
H       18.3919655506     3.3509577666     1.3104639350
H       13.6828239333     1.1108713790     2.6873412702
H       18.5106227156     1.1266016883     2.2580817234
H       16.4609258196     0.9272005212     7.7570158572
H       14.2795258334     0.9949870238     6.6837786754
H       20.2993687138     2.7245851303     2.6900751638
H       16.1978241915     0.0890903607     5.5035517876
32
# Point -7 Energy = 0.0
C       20.6775024308     3.6844958180     7.4218774204
H       18.5534913861     3.5621943883     6.4915262245
C       19.4728119065     3.0416357620     6.7443190553
H       19.3947447428     2.4868891079     7.6975113669
H       20.7537065794     1.4168486236     5.5549142590
C       19.9097440952     1.6795726179     6.1990916363
H       19.0336751705     1.0920938125     5.9001215628
H       20.0943658654     1.2993921759     7.2136758058
H       21.6688572804     3.8589923867     6.9988700629
H       20.7249632740     2.8946764593     8.1821579879
H       20.3605307942     4.5574369567     8.0003027678
Si       16.4083983596     3.4374791734     4.3705776582
O       16.2962980884     5.0207231418     4.6962498189
O       17.9220736884     3.1041040356     3.8066322955
O       15.3540998055     3.0094468707     3.1859618694
O       16.1072419717     2.5886470189     5.7279351973
Si       16.4683838429     6.6098324872     4.3633064150
Si       13.9262962027     2.5671607919     2.4862294161
Si       18.8146504358     2.5636172150     2.5049585960
Si       15.7611252528     1.1537632582     6.4451704529
H       17.8513365625     6.8852947859     3.8522599543
H       15.5044759083     6.9769515601     3.2661760640
H       16.2448396339     7.4981060856     5.5739165606
H       12.7954597554     3.3088039812     3.0912657246
H       13.9085846818     2.8637076177     1.0210154971
H       18.3981518942     3.3481455266     1.3160030011
H       13.6895024398     1.1058240082     2.6917233063
H       18.5173710192     1.1245043983     2.2652761286
H       16.4639752725     0.9277157640     7.7629213884
H       14.2833280043     0.9935221628     6.6880256839
H       20.3049715279     2.7237808058     2.6973674558
H       16.2030227269     0.0879432024     5.5098247262
32
# Point -6 Energy = 0.0
C       20.6763107718     3.6812233240     7.4380890297
H       18.5969485364     3.5889882511     6.4371546522
C       19.4720353728     3.0321110034     6.7648588415
H       19.2798852240     2.5092212655     7.7185823297
H       20.7302119236     1.4635355839     5.5265724647
C       19.8918460850     1.6741402931     6.1974595217
H       19.0152631780     1.1028986075     5.8695553246
H       20.1093842276     1.2385342502     7.1822428580
H       21.6449235362     3.8624900864     6.9663952234
H       20.7816514726     2.9058494080     8.2066706351
H       20.3670909362     4.5657996558     8.0030171981
Si       16.4129639240     3.4340125541     4.3735883312
O       16.2991937921     5.0182472107     4.7011857912
O       17.9256041229     3.1012866800     3.8113490904
O       15.3581256840     3.0070268422     3.1899954059
O       16.1090477644     2.5875300972     5.7324901750
Si       16.4723887032     6.6087900643     4.3668080149
Si       13.9317078329     2.5643692408     2.4890839364
Si       18.8189254385     2.5612836980     2.5133089368
Si       15.7624616812     1.1515744880     6.4498469323
H       17.8555695425     6.8828870737     3.8572497063
H       15.5092283203     6.9745759130     3.2690663897
H       16.2475886634     7.4962060241     5.5773518192
H       12.7999709294     3.3061342742     3.0928126516
H       13.9147872555     2.8603275369     1.0236247588
H       18.4043774189     3.3449301265     1.3222791570
H       13.6943864361     1.1030315383     2.6947796615
H       18.5224520501     1.1214889376     2.2722061029
H       16.4641055840     0.9261954313     7.7680524689
H       14.2844703635     0.9920040521     6.6911002278
H       20.3099023131     2.7206419787     2.7054960618
H       16.2051715159     0.0859665095     5.5148916618
32
# Point -5 Energy = 0.0
C       20.6724448875     3.6800960620     7.4523425785
H       18.6425825332     3.6030989856     6.3846136152
C       19.4698939269     3.0194354524     6.7863884068
H       19.1690490788     2.5373945934     7.7322080728
H       20.7088793456     1.5134893791     5.5026367357
C       19.8780394753     1.6669694291     6.1986895738
H       19.0027806746     1.1093804781     5.8444614934
H       20.1307599677     1.1792419343     7.1494783708
H       21.6138683120     3.8706238566     6.9304430818
H       20.8400155774     2.9235887915     8.2279458693
H       20.3676194503     4.5757632379     8.0021249111
Si       16.4171060668     3.4301021923     4.3769890351
O       16.3025354896     5.0152730073     4.7070609693
O       17.9286537866     3.0973263418     3.8167189343
O       15.3617830830     3.0052663428     3.1939748516
O       16.1095656009     2.5856614198     5.7370376428
Si       16.4778987386     6.6072641404     4.3718770956
Si       13.9366652228     2.5633982536     2.4913313991
Si       18.8227197978     2.5577528277     2.5223407015
Si       15.7614652314     1.1485815003     6.4539040745
H       17.8616018480     6.8793405704     3.8642643832
H       15.5159913658     6.9727050779     3.2734121572
H       16.2520700583     7.4935150021     5.5826202786
H       12.8043296751     3.3057570639     3.0937343857
H       13.9211149634     2.8593463010     1.0257380530
H       18.4109008547     3.3412033932     1.3294251410
H       13.6978495431     1.1021286006     2.6965970397
H       18.5262564436     1.1175438071     2.2792109624
H       16.4614376869     0.9229674119     7.7726554807
H       14.2831265410     0.9904851942     6.6931281190
H       20.3143968372     2.7153416020     2.7147502418
H       16.2045785362     0.0832597494     5.5190617047
32
# Point -4 Energy = 0.0
C       20.6669586594     3.6795601266     7.4656677743
H       18.6917332564     3.6100188469     6.3366934917
C       19.4666561235     3.0048113879     6.8089211497
H       19.0633734723     2.5705986422     7.7383236093
H       20.6865034627     1.5667617201     5.4814286810
C       19.8662468478     1.6590845491     6.2011766179
H       18.9928804246     1.1143662499     5.8227604570
H       20.1560049066     1.1217103115     7.1132549728
H       21.5768444632     3.8804943061     6.8928783884
H       20.8993273097     2.9456912663     8.2456111467
H       20.3641750138     4.5854801040     7.9997021176
Si       16.4210086177     3.4257902830     4.3807480170
O       16.3061336563     5.0118758782     4.7135515656
O       17.9314803899     3.0925188105     3.8227618410
O       15.3653520270     3.0037386059     3.1979551264
O       16.1091897035     2.5832661842     5.7417028744
Si       16.4843487811     6.6053071809     4.3778976256
Si       13.9415511935     2.5633527891     2.4931189714
Si       18.8264089501     2.5532878168     2.5321693251
Si       15.7588729620     1.1450621626     6.4577326908
H       17.8687963425     6.8749387618     3.8726280149
H       15.5241066654     6.9709597754     3.2785360751
H       16.2575143513     7.4902573173     5.5889416793
H       12.8087486018     3.3066229697     3.0940475729
H       13.9278714991     2.8595917467     1.0274488238
H       18.4179063443     3.3369082240     1.3374157351
H       13.7006224338     1.1022041834     2.6975936171
H       18.5294994572     1.1128187835     2.2866738909
H       16.4567693455     0.9187208913     7.7771573919
H       14.2800760944     0.9889402706     6.6945392593
H       20.3187916938     2.7085298533     2.7252064322
H       16.2022275498     0.0800320011     5.5229204241
32
# Point -3 Energy = 0.0
C       20.6613474426     3.6773847327     7.4795926549
H       18.7474307660     3.6155592074     6.2938017959
C       19.4627250394     2.9898353224     6.8321819152
H       18.9629614848     2.6089753968     7.7364327894
H       20.6609760060     1.6231191770     5.4627242178
C       19.8543228474     1.6517665974     6.2036115883
H       18.9823194830     1.1215813265     5.8018353840
H       20.1807847102     1.0662041102     7.0719616473
H       21.5362094454     3.8879900302     6.8566847633
H       20.9581112454     2.9686250756     8.2602266898
H       20.3599103706     4.5928076210     7.9981105647
Si       16.4247693153     3.4211854196     4.3847483186
O       16.3095989602     5.0081961396     4.7202190811
O       17.9342438371     3.0873437241     3.8293116308
O       15.3689761139     3.0019642707     3.2019907256
O       16.1083970377     2.5806388297     5.7465666434
Si       16.4908104468     6.6030451166     4.3840875235
Si       13.9465991387     2.5631459324     2.4947059497
Si       18.8302237986     2.5483859787     2.5426719225
Si       15.7556816474     1.1413488877     6.4617388607
H       17.8760947315     6.8701478858     3.8813939208
H       15.5324426259     6.9689259373     3.2836559587
H       16.2628008814     7.4867387467     5.5953661225
H       12.8132696842     3.3074054839     3.0939449030
H       13.9350801206     2.8596650486     1.0289569560
H       18.4252800328     3.3321591656     1.3459987205
H       13.7034272778     1.1021381475     2.6983512503
H       18.5328589160     1.1076652198     2.2947952424
H       16.4512725441     0.9142898387     7.7819554181
H       14.2763876849     0.9872747835     6.6958880894
H       20.3232806745     2.7012250906     2.7365926236
H       16.1993862898     0.0765637559     5.5270614884
32
# Point -2 Energy = 0.0
C       20.6565191395     3.6721657653     7.4949547574
H       18.8128247604     3.6212896971     6.2534366545
C       19.4582690031     2.9755281102     6.8556694746
H       18.8674695215     2.6529877129     7.7256872242
H       20.6332856245     1.6816269087     5.4487516569
C       19.8419295352     1.6455265963     6.2063253946
H       18.9707791058     1.1326506855     5.7806608588
H       20.2022232163     1.0134011056     7.0266731464
H       21.4941503882     3.8899528168     6.8240652050
H       21.0145922939     2.9901426984     8.2729995636
H       20.3569901888     4.5969753487     7.9978432389
Si       16.4282035816     3.4164783768     4.3887909419
O       16.3124453518     5.0044255405     4.7267583077
O       17.9367685902     3.0822709742     3.8360286147
O       15.3724300736     2.9998206776     3.2060295864
O       16.1073303774     2.5780044176     5.7515252253
Si       16.4964222241     6.6006831607     4.3900036599
Si       13.9516005809     2.5622991066     2.4962297863
Si       18.8339606522     2.5436118085     2.5534513395
Si       15.7524185610     1.1376449181     6.4659642579
H       17.8825227945     6.8654303112     3.8899479384
H       15.5399398751     6.9665230202     3.2884071016
H       16.2670131521     7.4832064540     5.6014091924
H       12.8175925842     3.3074297162     3.0936319822
H       13.9423084719     2.8589751692     1.0303798159
H       18.4325215697     3.3273452388     1.3547640635
H       13.7063891381     1.1014153639     2.6991427874
H       18.5364107644     1.1025655673     2.3033181332
H       16.4456672166     0.9101237601     7.7870311832
H       14.2726478371     0.9853947862     6.6973894179
H       20.3276487418     2.6943234088     2.7483372998
H       16.1967056847     0.0730827779     5.5315575501
32
# Point -1 Energy = 0.0
C       20.6522464154     3.6642239931     7.5111492614
H       18.8892763543     3.6233570886     6.2124625941
C       19.4530670992     2.9618896995     6.8789139441
H       18.7769923017     2.7023626712     7.7054120827
H       20.6066754005     1.7405900300     5.4429401323
C       19.8308415085     1.6396861272     6.2113201852
H       18.9611637831     1.1457556949     5.7607060337
H       20.2210808895     0.9643512674     6.9813028300
H       21.4513799789     3.8855501454     6.7949446836
H       21.0674621528     3.0109218915     8.2847418249
H       20.3553484757     4.5991250622     7.9968053500
Si       16.4309092557     3.4119125315     4.3926676364
O       16.3142838820     5.0007710311     4.7331376980
O       17.9386151037     3.0776119824     3.8425616828
O       15.3752289164     2.9976693347     3.2098942762
O       16.1056888978     2.5754573625     5.7563031586
Si       16.5007604093     6.5984664583     4.3957711272
Si       13.9560225798     2.5612397964     2.4975681862
Si       18.8370913945     2.5394198039     2.5640354997
Si       15.7488435537     1.1339652181     6.4700056323
H       17.8876203811     6.8610940577     3.8983451515
H       15.5460940871     6.9641078793     3.2930218066
H       16.2698086973     7.4797747230     5.6073061798
H       12.8212219006     3.3070517446     3.0931461275
H       13.9489169258     2.8581057164     1.0316274966
H       18.4390128938     3.3230470852     1.3633518409
H       13.7089994201     1.1004391626     2.6997084273
H       18.5396184702     1.0979984745     2.3116387975
H       16.4398089306     0.9061006128     7.7919077609
H       14.2686331842     0.9832804513     6.6987288014
H       20.3313817128     2.6882684107     2.7598785616
H       16.1938856439     0.0697064922     5.5358605888
32
# Point 0 Energy = 0
C       20.6477110000     3.6549790000     7.5266840000
H       18.9761800000     3.6157410000     6.1694560000
C       19.4467280000     2.9484220000     6.9016430000
H       18.6922510000     2.7558520000     7.6754250000
H       20.5840390000     1.7980300000     5.4478400000
C       19.8234060000     1.6330100000     6.2209870000
H       18.9571360000     1.1573250000     5.7446630000
H       20.2404540000     0.9200090000     6.9405780000
H       21.4074060000     3.8754920000     6.7676150000
H       21.1161610000     3.0334640000     8.2953550000
H       20.3536290000     4.6012450000     7.9917750000
Si       16.4325060000     3.4077350000     4.3962220000
O       16.3148940000     4.9974300000     4.7394840000
O       17.9393640000     3.0735620000     3.8486780000
O       15.3769370000     2.9960700000     3.2133680000
O       16.1030250000     2.5730330000     5.7606000000
Si       16.5037570000     6.5966350000     4.4017980000
Si       13.9593780000     2.5607940000     2.4984440000
Si       18.8391290000     2.5361430000     2.5740860000
Si       15.7443760000     1.1302530000     6.4733110000
H       17.8913405600     6.8573308000     3.9070238400
H       15.5508605600     6.9622108000     3.2979838400
H       16.2712205600     7.4764908000     5.6136238400
H       12.8237502400     3.3071035200     3.0923555200
H       13.9544302400     2.8581435200     1.0324755200
H       18.4443303200     3.3198514400     1.3715668800
H       13.7106302400     1.1000235200     2.6995155200
H       18.5418503200     1.0943714400     2.3191668800
H       16.4331100800     0.9018602400     7.7959848800
H       14.2637500800     0.9809802400     6.6993448800
H       20.3340103200     2.6832114400     2.7708868800
H       16.1902300800     0.0665002400     5.5392248800
32
# Point 1 Energy = 0.0
C       20.6423273708     3.6457161788     7.5402816900
H       19.0725092744     3.5937447814     6.1251704405
C       19.4389729152     2.9348747582     6.9237305663
H       18.6141066127     2.8118829490     7.6358086568
H       20.5664975608     1.8524012984     5.4642682904
C       19.8210327271     1.6246487224     6.2369290107
H       18.9608873209     1.1646330610     5.7345897419
H       20.2630176589     0.8808598851     6.9080565693
H       21.3617553679     3.8603847617     6.7404758951
H       21.1605334950     3.0598680718     8.3043199757
H       20.3508392998     4.6048199751     7.9802030246
Si       16.4327728804     3.4041629524     4.3993441805
O       16.3141357966     4.9945841710     4.7458703766
O       17.9387841196     3.0703180533     3.8542505707