32
# Point -15 Energy = 0.0
C       20.6488301263     3.7158406584     7.4332023899
H       18.8384245665     3.6607597095     6.2137293743
C       19.4409798267     2.9910243120     6.8398177662
H       18.7870499995     2.7327807020     7.6807534936
H       20.6007608059     1.7220035903     5.4143100000
C       19.8235336927     1.6578988281     6.1858978016
H       18.9540462702     1.1227605952     5.7794516766
H       20.2188005676     1.0134710522     6.9795489340
H       21.4335542472     3.9336053401     6.6999179660
H       21.0858441844     3.0873490091     8.2150614589
H       20.3427792785     4.6557200207     7.9024398684
Si       16.6043294456     3.2791905559     4.1152448981
O       16.1246470081     4.8234106458     4.8766831025
O       17.8155254364     2.9702840437     3.7232671126
O       15.3654354601     2.9720891189     3.2307826810
O       15.9532707170     2.7907501809     5.8485011562
Si       16.5266403952     6.5316649528     4.4647442977
Si       14.0961987432     2.6545449973     2.3731875374
Si       18.5878970162     2.5793065549     2.8024907845
Si       15.7891814535     0.9882153185     6.6334653468
H       17.8969832937     6.6385310364     4.0339091447
H       15.5807709437     6.8937033459     3.3967268834
H       16.2833944824     7.2628169345     5.7373032328
H       12.9161418311     3.4403799387     2.9080777134
H       14.1591691235     3.0114647383     0.9106438838
H       18.3788489469     3.2650946054     1.4100371128
H       13.6938554855     1.2023861692     2.4689923159
H       18.4761281706     1.0617037346     2.3506744106
H       16.5690728796     1.1020612397     7.8042863485
H       14.3711178590     0.9564092317     6.8550623224
H       20.2302825729     2.6338734995     2.8008367578
H       16.2744857703     0.1222073396     5.6381175876
32
# Point -14 Energy = 0.0
C       20.6514897513     3.7106261202     7.4409212501
H       18.8500953583     3.6580179699     6.2111814917
C       19.4439840318     2.9876676705     6.8448059133
H       18.7825069325     2.7333946314     7.6811778393
H       20.6020030423     1.7262730558     5.4169591793
C       19.8254924166     1.6557076898     6.1887050370
H       18.9559442774     1.1249719314     5.7769784410
H       20.2216370605     1.0059846526     6.9775321859
H       21.4348706540     3.9285011123     6.7061880479
H       21.0901623709     3.0821176914     8.2218073626
H       20.3464718820     4.6508929717     7.9101252833
Si       16.5961099208     3.2906032243     4.1333217303
O       16.1429827224     4.8438647876     4.8676996498
O       17.8271268764     2.9787667450     3.7318991853
O       15.3641108529     2.9763990493     3.2319118614
O       15.9688115410     2.7725529475     5.8459669435
Si       16.5241877342     6.5456968288     4.4551645704
Si       14.0832805143     2.6454717508     2.3867318929
Si       18.6096082155     2.5780848605     2.7884005482
Si       15.7774583867     0.9910453558     6.6186463930
H       17.8957429220     6.6657682915     4.0192853996
H       15.5762773893     6.9015484616     3.3839876884
H       16.2804378670     7.2903823732     5.7219366497
H       12.9048757864     3.4256885238     2.9273638955
H       14.1365893399     2.9959040984     0.9229878783
H       18.3874879241     3.2703895079     1.4070429699
H       13.6957786172     1.1910735761     2.4938230244
H       18.4842546315     1.0644118596     2.3489602036
H       16.5490062277     1.0733369496     7.8053639929
H       14.3539168575     0.9561217051     6.8346789540
H       20.2431814154     2.6386496296     2.7998254413
H       16.2620970802     0.1133859770     5.6257844561
32
# Point -13 Energy = 0.0
C       20.6534410124     3.7055310486     7.4488035793
H       18.8612408182     3.6552099950     6.2087690186
C       19.4464107614     2.9843181072     6.8498474610
H       18.7774248272     2.7340154909     7.6815739921
H       20.6029273327     1.7307323523     5.4197814881
C       19.8270952979     1.6535850506     6.1915804229
H       18.9576004791     1.1271877148     5.7745297592
H       20.2241314497     0.9986342142     6.9755665450
H       21.4355143338     3.9236181475     6.7126949267
H       21.0937697847     3.0770447758     8.2287447313
H       20.3493156895     4.6461434688     7.9179646038
Si       16.5876171101     3.3016067974     4.1512717747
O       16.1607893563     4.8630194122     4.8584077563
O       17.8384163745     2.9870380110     3.7401678730
O       15.3629668403     2.9802986464     3.2326937466
O       15.9838924591     2.7547555361     5.8426065461
Si       16.5220936414     6.5582510911     4.4462024454
Si       14.0706744288     2.6367223420     2.3999477106
Si       18.6307081543     2.5766880326     2.7737371617
Si       15.7674592712     0.9950458793     6.6042654346
H       17.8947301845     6.6911543155     4.0051841712
H       15.5722600446     6.9088618628     3.3721150634
H       16.2780573463     7.3158387329     5.7074400374
H       12.8942937832     3.4117734927     2.9463660239
H       14.1146933252     2.9809630047     0.9351770539
H       18.3955089582     3.2755803056     1.4037391493
H       13.6974596844     1.1804244834     2.5177819884
H       18.4919441822     1.0671245013     2.3467173842
H       16.5307577057     1.0469576615     7.8057081060
H       14.3386153289     0.9565146121     6.8156007249
H       20.2553384158     2.6433021980     2.7981300313
H       16.2508322181     0.1053607157     5.6140486490
32
# Point -12 Energy = 0.0
C       20.6547498816     3.7005181227     7.4567907520
H       18.8719078463     3.6523442523     6.2064636311
C       19.4482962068     2.9809684441     6.8549083175
H       18.7718502385     2.7346463814     7.6819190759
H       20.6035119084     1.7353462395     5.4227217530
C       19.8283355457     1.6515145860     6.1944828960
H       18.9589877994     1.1294115709     5.7720813340
H       20.2262792849     0.9913953611     6.9736039512
H       21.4355423025     3.9188990919     6.7193640485
H       21.0967324811     3.0720827109     8.2358067523
H       20.3514093496     4.6414421754     7.9259052183
Si       16.5788110978     3.3122353189     4.1691342607
O       16.1779957102     4.8809152358     4.8488527516
O       17.8493576560     2.9951305887     3.7481313992
O       15.3620259214     2.9837777326     3.2331248552
O       15.9984494895     2.7374286380     5.8384864648
Si       16.5203000390     6.5693871182     4.4378729384
Si       14.0584340132     2.6282682455     2.4127510619
Si       18.6511712722     2.5751390145     2.7585762887
Si       15.7591152616     1.0001911892     6.5903719942
H       17.8939147441     6.7147382369     3.9916727162
H       15.5686817881     6.9156940685     3.3610862215
H       16.2761829874     7.3392764707     5.6938299758
H       12.8844008966     3.3985959247     2.9649188155
H       14.0936040683     2.9666037782     0.9471157569
H       18.4029092339     3.2806645816     1.4001918024
H       13.6989515277     1.1703809223     2.5407906996
H       18.4991772608     1.0698550391     2.3440464899
H       16.5143329404     1.0229471501     7.8054537161
H       14.3251399062     0.9575043884     6.7978807050
H       20.2667273983     2.6478500839     2.7958562629
H       16.2406945428     0.0981493379     5.6029724537
32
# Point -11 Energy = 0.0
C       20.6554889208     3.6955610659     7.4648098176
H       18.8821426768     3.6494289256     6.2042302497
C       19.4496814436     2.9776177477     6.8599490830
H       18.7658388876     2.7352989117     7.6821895342
H       20.6037372160     1.7400834610     5.4257191940
C       19.8292117516     1.6494848047     6.1973696019
H       18.9600840149     1.1316479868     5.7696130771
H       20.2280859268     0.9842525640     6.9715952440
H       21.4350138293     3.9142963802     6.7261017829
H       21.0991282489     3.0671987824     8.2429123778
H       20.3528586910     4.6367719516     7.9338779091
Si       16.5696471832     3.3225195240     4.1869562359
O       16.1945315802     4.8975900120     4.8390917632
O       17.8599097840     3.0030706998     3.7558581232
O       15.3613112206     2.9868387209     3.2332044409
O       16.0124091519     2.7206366290     5.8336813971
Si       16.5187529160     6.5791590230     4.4302034831
Si       14.0466205810     2.6200826628     2.4250514654
Si       18.6709687421     2.5734528692     2.7430050166
Si       15.7523359313     1.0064532519     6.5770110194
H       17.8932711397     6.7365618107     3.9788300482
H       15.5655120623     6.9220934124     3.3508925454
H       16.2747501861     7.3607787988     5.6811346395
H       12.8752006682     3.3861119041     2.9828423848
H       14.0734611915     2.9527862359     0.9587002778
H       18.4096854987     3.2856364558     1.3964787757
H       13.7003225201     1.1608877962     2.5627678933
H       18.5059266621     1.0726113219     2.3410550594
H       16.4997090171     1.0013124017     7.8047314285
H       14.3133977615     0.9590106634     6.7815632647
H       20.2773181411     2.6523007536     2.7931226342
H       16.2316670539     0.0917644713     5.5926155922
32
# Point -10 Energy = 0.0
C       20.6557346147     3.6906527356     7.4727758337
H       18.8919895325     3.6464711613     6.2020272402
C       19.4506128469     2.9742738356     6.8649273986
H       18.7594557325     2.7359948845     7.6823632361
H       20.6035919016     1.7449198253     5.4287135697
C       19.8297334442     1.6474912541     6.2002015374
H       18.9608792979     1.1339005026     5.7671147281
H       20.2295734930     0.9772042529     6.9694978586
H       21.4339879098     3.9097813242     6.7327982400
H       21.1010451507     3.0623864543     8.2499705369
H       20.3537702157     4.6321359654     7.9417967531
Si       16.5600784856     3.3324741185     4.2047902388
O       16.2103256898     4.9130658235     4.8291886336
O       17.8700309530     3.0108684599     3.7634252235
O       15.3608495307     2.9894804558     3.2329336934
O       16.0256923472     2.7044262640     5.8282729717
Si       16.5173952865     6.5876032331     4.4232262446
Si       14.0352936893     2.6121644003     2.4367506214
Si       18.6900740701     2.5716278846     2.7271215139
Si       15.7470174975     1.0137916074     6.5642251608
H       17.8927713612     6.7566501602     3.9667394113
H       15.5627191802     6.9280889610     3.3415309058
H       16.2736898308     7.3804106640     5.6693848200
H       12.8667040535     3.3743131721     2.9999568629
H       14.0544116530     2.9395127630     0.9698219335
H       18.4158377205     3.2904746058     1.3926878905
H       13.7016161105     1.1519203776     2.5836086975
H       18.5121675518     1.0753855738     2.3378597144
H       16.4868419148     0.9820386387     7.8036690968
H       14.3032850673     0.9609432916     6.7666858884
H       20.2870816007     2.6566461774     2.7900602190
H       16.2237228665     0.0862031718     5.5830386854
32
# Point -9 Energy = 0.0
C       20.6555666641     3.6858021989     7.4805932288
H       18.9014900914     3.6434776022     6.1998069397
C       19.4511406988     2.9709523232     6.8697979890
H       18.7527728235     2.7367651929     7.6824190763
H       20.6030701735     1.7498371228     5.4316441848
C       19.8299181408     1.6455356701     6.2029423263
H       18.9613725704     1.1361723108     5.7645836847
H       20.2307767576     0.9702605636     6.9672741495
H       21.4325231218     3.9053409815     6.7393292111
H       21.1025797232     3.0576611268     8.2568810059
H       20.3542512871     4.6275546640     7.9495613136
Si       16.5500563784     3.3421033669     4.2226932482
O       16.2253092033     4.9273543307     4.8192152893
O       17.8796781513     3.0185218910     3.7709162714
O       15.3606693447     2.9917087524     3.2323164144
O       16.0382144679     2.6888309494     5.8223480850
Si       16.5161729043     6.5947440463     4.4169818677
Si       14.0245137881     2.6045259345     2.4477458099
Si       18.7084613250     2.5696498990     2.7110312637
Si       15.7430404386     1.0221580244     6.5520520117
H       17.8923905724     6.7750156836     3.9554913938
H       15.5602758065     6.9336992044     3.3330084662
H       16.2729362320     7.3982229422     5.6586191884
H       12.8589228363     3.3632055320     3.0160799179
H       14.0366084750     2.9268050147     0.9803680291
H       18.4213674389     3.2951489096     1.3889144177
H       13.7028711971     1.1434695968     2.6031993753
H       18.5178730423     1.0781595612     2.3345804465
H       16.4756641698     0.9650917687     7.8023875704
H       14.2946846827     0.9632101688     6.7532771210
H       20.2959883260     2.6608645152     2.7868078384
H       16.2168197670     0.0814521514     5.5742982244
32
# Point -8 Energy = 0.0
C       20.6550660755     3.6810371799     7.4881582236
H       18.9106826789     3.6404542769     6.1975163584
C       19.4513186510     2.9676772602     6.8745141837
H       18.7458680968     2.7376498361     7.6823379423
H       20.6021736198     1.7548240916     5.4344528899
C       19.8297927417     1.6436265656     6.2055607485
H       18.9615736479     1.1384655631     5.7620268687
H       20.2317446179     0.9634446340     6.9648947642
H       21.4306761831     3.9009810507     6.7455592712
H       21.1038350051     3.0530635399     8.2635375787
H       20.3544066256     4.6230681376     7.9570582466
Si       16.5395321757     3.3513971023     4.2407248382
O       16.2394161924     4.9404527885     4.8092492999
O       17.8888090780     3.0260140630     3.7784190905
O       15.3608012937     2.9935324091     3.2313591309
O       16.0498880069     2.6738669558     5.8159974320
Si       16.5150329428     6.6005898083     4.4115165176
Si       14.0143381954     2.5972007472     2.4579309034
Si       18.7261072418     2.5674900035     2.6948447253
Si       15.7402735394     1.0314932590     6.5405242853
H       17.8921054077     6.7916552230     3.9451805311
H       15.5581570125     6.9389269413     3.3253398130
H       16.2724253874     7.4142488826     5.6488812590
H       12.8518713114     3.3528202922     3.0310335689
H       14.0202049978     2.9147179195     0.9902243384
H       18.4262786627     3.2996174065     1.3852586200
H       13.7041099604     1.1355495159     2.6214124108
H       18.5230174986     1.0809019484     2.3313388224
H       16.4660889828     0.9504170025     7.8010000544
H       14.2874703179     0.9657136697     6.7413571291
H       20.3040104437     2.6649192606     2.7835091267
H       16.2109040075     0.0774846655     5.5664463873
32
# Point -7 Energy = 0.0
C       20.6543134211     3.6764039746     7.4953613758
H       18.9196016377     3.6374067143     6.1950980989
C       19.4512026667     2.9644809042     6.8790290915
H       18.7388234745     2.7386971904     7.6821031500
H       20.6009112345     1.7598764402     5.4370858169
C       19.8293930653     1.6417790834     6.2080319417
H       18.9615030401     1.1407811533     5.7594609417
H       20.2325390706     0.9567922108     6.9623401596
H       21.4285008663     3.8967260012     6.7513451484
H       21.1049181356     3.0486596297     8.2698308802
H       20.3543359243     4.6187358994     7.9641637260
Si       16.5284585023     3.3603305132     4.2589454496
O       16.2525851963     4.9523438367     4.7993723700
O       17.8973833319     3.0333131644     3.7860231913
O       15.3612775469     2.9949642707     3.2300714181
O       16.0606245926     2.6595328873     5.8093137786
Si       16.5139251091     6.6051328341     4.4068806848
Si       14.0048195153     2.5902434620     2.4671987024
Si       18.7429918873     2.5651051415     2.6786740765
Si       15.7385762468     1.0417268109     6.5296689799
H       17.8918947251     6.8065500532     3.9359034415
H       15.5563407710     6.9437592921     3.3185462872
H       16.2720966940     7.4285038669     5.6402186071
H       12.8455652510     3.3432133545     3.0446483853
H       14.0053504698     2.9033400230     0.9992777341
H       18.4305776966     3.3038271132     1.3818229168
H       13.7053378085     1.1281965747     2.6381089109
H       18.5275771321     1.0835689025     2.3282545269
H       16.4580129206     0.9379391080     7.7996103654
H       14.2815089275     0.9683511006     6.7309375596
H       20.3111223422     2.6687598959     2.7803084296
H       16.2059113962     0.0742605931     5.5595292139
32
# Point -6 Energy = 0.0
C       20.6533868740     3.6719670516     7.5020904791
H       18.9282767404     3.6343399898     6.1924914865
C       19.4508498268     2.9614033063     6.8832969381
H       18.7317227513     2.7399630617     7.6817008775
H       20.5992994435     1.7649967613     5.4394953415
C       19.8287633023     1.6400147170     6.2103387105
H       18.9611917497     1.1431184606     5.7569124938
H       20.2332340138     0.9503510559     6.9596021979
H       21.4260467870     3.8926189035     6.7565395715
H       21.1059376066     3.0445399954     8.2756515334
H       20.3541312137     4.6146363206     7.9707462553
Si       16.5167907637     3.3688638988     4.2774145649
O       16.2647606342     4.9629953467     4.7896683963
O       17.9053636956     3.0403727284     3.7938170381
O       15.3621311839     2.9960215958     3.2284661863
O       16.0703373054     2.6458092015     5.8023901515
Si       16.5128024428     6.6083493205     4.4031272955
Si       13.9960039338     2.5837303615     2.4754434978
Si       18.7590993817     2.5624389067     2.6626297788
Si       15.7378016809     1.0527765881     6.5195067103
H       17.8917399502     6.8196659415     3.9277561343
H       15.5548080177     6.9481674069     3.3126546588
H       16.2718943257     7.4409853398     5.6326812574
H       12.8400213860     3.3344650477     3.0567684634
H       13.9921854264     2.8927947792     1.0074193295
H       18.4342729067     3.3077148136     1.3787088536
H       13.7065425807     1.1214694040     2.6531405019
H       18.5315308883     1.0861047964     2.3254419427
H       16.4513194705     0.9275627797     7.7983114768
H       14.2766637164     0.9710147393     6.7220216715
H       20.3173014269     2.6723229597     2.7773464923
H       16.2017691733     0.0717264205     5.5535850734
32
# Point -5 Energy = 0.0
C       20.6523601015     3.6678080210     7.5082337116
H       18.9367326630     3.6312587058     6.1896339085
C       19.4503169678     2.9584916055     6.8872744714
H       18.7246492470     2.7415094577     7.6811205234
H       20.5973618876     1.7701942101     5.4416420314
C       19.8279551590     1.6383608088     6.2124727221
H       18.9606807652     1.1454751185     5.7544179951
H       20.2339135958     0.9441799592     6.9566855176
H       21.4233581423     3.8887205994     6.7609954719
H       21.1070002090     3.0408185393     8.2808934949
H       20.3538742025     4.6108654022     7.9766698570
Si       16.5044886073     3.3769429128     4.2961888857
O       16.2758941765     4.9723608226     4.7802213043
O       17.9127173535     3.0471324073     3.8018852001
O       15.3633954345     2.9967263619     3.2265599518
O       16.0789431011     2.6326582456     5.7953179938
Si       16.5116221353     6.6101997508     4.4003094552
Si       13.9879297918     2.5777592678     2.4825639238
Si       18.7744184375     2.5594228981     2.6468169755
Si       15.7377999636     1.0645489250     6.5100511046
H       17.8916253648     6.8309536212     3.9208308018
H       15.5535426331     6.9521065801     3.3076955077
H       16.2717687492     7.4516733529     5.6263196341
H       12.8352570206     3.3266790443     3.0672566146
H       13.9808372375     2.8832408500     1.0145479937
H       18.4373742650     3.3112083069     1.3760139412
H       13.7076946637     1.1154480927     2.6663516335
H       18.5348612163     1.0884434191     2.3230066777
H       16.4458831161     0.9191733925     7.7971842236
H       14.2727974255     0.9735920391     6.7146046422
H       20.3225287263     2.6755336915     2.7747559375
H       16.1983982403     0.0698155905     5.5486432529
32
# Point -4 Energy = 0.0
C       20.6513000763     3.6640239574     7.5136829224
H       18.9449885283     3.6281668861     6.1864623401
C       19.4496591766     2.9557990321     6.8909223839
H       18.7176832898     2.7434031041     7.6803549691
H       20.5951289469     1.7754839390     5.4434964958
C       19.8270266960     1.6368498317     6.2144355251
H       18.9600202384     1.1478468220     5.7520234922
H       20.2346701374     0.9383473732     6.9536085951
H       21.4204724332     3.8851081850     6.7645703937
H       21.1082077612     3.0376302663     8.2854574280
H       20.3536336801     4.6075348686     7.9817975430
Si       16.4915173079     3.3844993374     4.3153205883
O       16.2859460203     4.9803803765     4.7711127361
O       17.9194169807     3.0535193200     3.8103054878
O       15.3651028185     2.9971054659     3.2243730743
O       16.0863652426     2.6200248657     5.7881853559
Si       16.5103463695     6.6106298203     4.3984779134
Si       13.9806265307     2.5724486888     2.4884660167
Si       18.7889426631     2.5559786363     2.6313318431
Si       15.7384217525     1.0769390188     6.5013082980
H       17.8915383674     6.8403496748     3.9152121952
H       15.5525313685     6.9555168307     3.3037013770
H       16.2716783852     7.4605317471     5.6211821475
H       12.8312897805     3.3199802782     3.0759995662
H       13.9714160414     2.8748712275     1.0205741145
H       18.4398926549     3.3142281129     1.3738284680
H       13.7087481236     1.1102328690     2.6775822726
H       18.5375546676     1.0905096977     2.3210421670
H       16.4415737963     0.9126382001     7.7962962032
H       14.2697757913     0.9759660539     6.7086740459
H       20.3267893012     2.6783082435     2.7726566842
H       16.1957156720     0.0684492696     5.5447227166
32
# Point -3 Energy = 0.0
C       20.6502638468     3.6607254813     7.5183375844
H       18.9530569345     3.6250676980     6.1829150940
C       19.4489275411     2.9533836883     6.8942069646
H       18.7108987062     2.7457135831     7.6794007500
H       20.5926370713     1.7808865586     5.4450416884
C       19.8260407741     1.6355185797     6.2162397708
H       18.9592684890     1.1502270486     5.7497841842
H       20.2356015172     0.9329299266     6.9504050352
H       21.4174183768     3.8818733428     6.7671318538
H       21.1096525847     3.0351288211     8.2892547889
H       20.3534616365     4.6047699338     7.9859954571
Si       16.4778491138     3.3914516003     4.3348549436
O       16.2948857404     4.9869816011     4.7624184912
O       17.9254418212     3.0594495628     3.8191453960
O       15.3672837300     2.9971895788     3.2219296928
O       16.0925359524     2.6078366848     5.7810744074
Si       16.5089436108     6.6095712856     4.3976780145
Si       13.9741128077     2.5679375394     2.4930658603
Si       18.8026709078     2.5520196430     2.6162573288
Si       15.7395240535     1.0898313365     6.4932775306
H       17.8914700825     6.8477768664     3.9109731856
H       15.5517640781     6.9583242765     3.3007046969
H       16.2715922781     7.4675088766     5.6173125368
H       12.8281372018     3.3145136696     3.0829136497
H       13.9640099368     2.8679142336     1.0254232750
H       18.4418390340     3.3166889547     1.3722315769
H       13.7096400111     1.1059433775     2.6866687072
H       18.5396029801     1.0922213952     2.3196259900
H       16.4382646246     0.9078088461     7.7957012374
H       14.2674732826     0.9780150212     6.7042126049
H       20.3300727067     2.6805564630     2.7711507287
H       16.1936391676     0.0675365255     5.5418323344
32
# Point -2 Energy = 0.0
C       20.6492995314     3.6580327501     7.5221058621
H       18.9609454326     3.6219634309     6.1789333029
C       19.4481694223     2.9513069385     6.8971004792
H       18.7043629338     2.7485120357     7.6782579893
H       20.5899274798     1.7864263690     5.4462722194
C       19.8250635887     1.6344067963     6.2179082946
H       18.9584900590     1.1526074846     5.7477631110
H       20.2368088144     0.9280098216     6.9471218384
H       21.4142172567     3.8791179494     6.7685587374
H       21.1114175966     3.0334811369     8.2922082243
H       20.3533954504     4.6027051819     7.9891348570
Si       16.4634638839     3.3977091545     4.3548313261
O       16.3026939977     4.9920837027     4.7542098424
O       17.9307777162     3.0648319143     3.8284619416
O       15.3699669441     2.9970168081     3.2192585504
O       16.0973973446     2.5960088417     5.7740622354
Si       16.5073883876     6.6069458099     4.3979481900
Si       13.9684003867     2.5643782564     2.4962942843
Si       18.8156059704     2.5474554779     2.6016620002
Si       15.7409669329     1.1031025167     6.4859479166
H       17.8914148484     6.8531485347     3.9081727059
H       15.5512329191     6.9604421677     3.2987361315
H       16.2714896169     7.4725433084     5.6147473409
H       12.8258174301     3.3104340190     3.0879470645
H       13.9586865549     2.8626197595     1.0290405739
H       18.4432230354     3.3185042640     1.3712909400
H       13.7103027696     1.1027123816     2.6934539558
H       18.5410009767     1.0934933157     2.3188185497
H       16.4358272852     0.9045211315     7.7954377129
H       14.2657696412     0.9796166666     6.7011925728
H       20.3323719900     2.6821848515     2.7703203427
H       16.1920844026     0.0669792229     5.5399662666
32
# Point -1 Energy = 0.0
C       20.6484414769     3.6560735101     7.5249093780
H       18.9686547234     3.6188548590     6.1744629025
C       19.4474251269     2.9496319526     6.8995830891
H       18.6981321035     2.7518687992     7.6769304054
H       20.5870454412     1.7921310494     5.4471973366
C       19.8241627876     1.6335563683     6.2194756647
H       18.9577547936     1.1549775792     5.7460306529
H       20.2383932719     0.9236734638     6.9438211103
H       21.4108795403     3.8769525647     6.7687478470
H       21.1135699680     3.0328650662     8.2942565850
H       20.3534518959     4.6014821422     7.9910970217
Si       16.4483502657     3.4031720462     4.3752798067
O       16.3093623225     4.9955976445     4.7465478390
O       17.9354181418     3.0695692057     3.8382971574
O       15.3731774628     2.9966282952     3.2163923217
O       16.1009042973     2.5844432379     5.7672172957
Si       16.5056629634     6.6026651845     4.3993162284
Si       13.9634905995     2.5619383536     2.4980981634
Si       18.8277551622     2.5421935657     2.5875951437
Si       15.7426231915     1.1166215575     6.4793014076
H       17.8913710638     6.8563676391     3.9068502102
H       15.5509328033     6.9617731414     3.2978221973
H       16.2713635285     7.4755631007     5.6135130179
H       12.8243487169     3.3079076565     3.0910859223
H       13.9554873885     2.8592652484     1.0313935560
H       18.4440521159     3.3195865905     1.3710578257
H       13.7106586694     1.1006870524     2.6977839242
H       18.5417488104     1.0942383816     2.3186594389
H       16.4341451742     0.9025999023     7.7955293986
H       14.2645595401     0.9806461566     6.6995827706
H       20.3336843820     2.6830999566     2.7702223240
H       16.1909728712     0.0666707283     5.5391074173
32
# Point 0 Energy = 0
C       20.6477110000     3.6549790000     7.5266840000
H       18.9761800000     3.6157410000     6.1694560000
C       19.4467280000     2.9484220000     6.9016430000
H       18.6922510000     2.7558520000     7.6754250000
H       20.5840390000     1.7980300000     5.4478400000
C       19.8234060000     1.6330100000     6.2209870000
H       18.9571360000     1.1573250000     5.7446630000
H       20.2404540000     0.9200090000     6.9405780000
H       21.4074060000     3.8754920000     6.7676150000
H       21.1161610000     3.0334640000     8.2953550000
H       20.3536290000     4.6012450000     7.9917750000
Si       16.4325060000     3.4077350000     4.3962220000
O       16.3148940000     4.9974300000     4.7394840000
O       17.9393640000     3.0735620000     3.8486780000
O       15.3769370000     2.9960700000     3.2133680000
O       16.1030250000     2.5730330000     5.7606000000
Si       16.5037570000     6.5966350000     4.4017980000
Si       13.9593780000     2.5607940000     2.4984440000
Si       18.8391290000     2.5361430000     2.5740860000
Si       15.7443760000     1.1302530000     6.4733110000
H       17.8913405600     6.8573308000     3.9070238400
H       15.5508605600     6.9622108000     3.2979838400
H       16.2712205600     7.4764908000     5.6136238400
H       12.8237502400     3.3071035200     3.0923555200
H       13.9544302400     2.8581435200     1.0324755200
H       18.4443303200     3.3198514400     1.3715668800
H       13.7106302400     1.1000235200     2.6995155200
H       18.5418503200     1.0943714400     2.3191668800
H       16.4331100800     0.9018602400     7.7959848800
H       14.2637500800     0.9809802400     6.6993448800
H       20.3340103200     2.6832114400     2.7708868800
H       16.1902300800     0.0665002400     5.5392248800
32
# Point 1 Energy = 0.0
C       20.6471141982     3.6548643980     7.5273791496
H       18.9835084312     3.6126199524     6.1638727935
C       19.4460975499     2.9477324996     6.9032725762
H       18.6867459944     2.7605187711     7.6737476049
H       20.5809435558     1.8041496386     5.4482238175
C       19.8228456423     1.6328058621     6.2224847967
H       18.9566920183     1.1596386592     5.7437269789
H       20.2430696883     0.9170938393     6.9374620239
H       21.4037859770     3.8748361313     6.7650950241
H       21.1192210659     3.0354395136     8.2954691996
H       20.3539098993     4.6021194901     7.9910796841
Si       16.4159281437     3.4113065512     4.4176758535
O       16.3192988780     4.9975033559     4.7330599140
O       17.9426137981     3.0767271246     3.8596218788