32
# Point -15 Energy = 0.0
C       21.3395110788     3.3443405327     8.1160528587
H       19.2675281060     4.0244841493     7.6298767891
C       19.9420369829     3.1404945527     7.5211953457
H       19.4849387744     2.6311463361     8.3789319114
H       20.1008498101     3.0213104877     5.3614672566
C       19.7116269916     2.4201553689     6.1923594267
H       18.6508917281     2.2328135985     6.0095562839
H       20.2416365419     1.4611292876     6.1818482673
H       21.9594567648     3.9733163080     7.4681396180
H       21.8142046681     2.3699359801     8.1824122851
H       21.3413105061     3.7814908234     9.1166055802
Si       16.3062852829     3.2964337043     4.2020908917
O       16.1735834963     4.8961901625     4.4876817816
O       17.8247195603     2.9641431753     3.6736815368
O       15.2167102684     2.8382006198     3.0503683481
O       16.0153524753     2.5076838077     5.6054485629
Si       16.3996113624     6.4816328787     4.1087249102
Si       13.7852562580     2.4652849992     2.3023830338
Si       18.6278088734     2.3319117223     2.3665051326
Si       15.5301480960     1.0949475033     6.3113520139
H       17.7887742733     6.6996413511     3.5972462350
H       15.4467135860     6.8481139225     3.0035623756
H       16.1969055194     7.3884356050     5.3037496812
H       12.6392381327     3.2457191415     2.8601897470
H       13.7637014570     2.7293976708     0.8138166031
H       18.2404377228     3.0868819216     1.1295140103
H       13.4838058085     1.0137099751     2.5187881803
H       18.2825109908     0.8838774204     2.1301624354
H       16.2082580171     0.8831438555     7.6293238042
H       14.0356057335     0.9940330495     6.5411469136
H       20.1207555115     2.4329636353     2.5336974903
H       15.9278062215     -0.0096615463     5.3992860498
32
# Point -14 Energy = 0.0
C       21.2976291564     3.3529354987     8.0926273269
H       19.2566913982     4.0375929096     7.5363979792
C       19.9098258424     3.1345099742     7.4814321764
H       19.4263815663     2.6479387249     8.3379845433
H       20.1344998066     2.9367058686     5.3329339406
C       19.7136140662     2.3695358660     6.1722545371
H       18.6569276683     2.1855071123     5.9627751007
H       20.2329382380     1.4054452383     6.2115334006
H       21.9320838672     3.9540567037     7.4323211371
H       21.7682298179     2.3804613607     8.2074608928
H       21.2810584425     3.8303322820     9.0746801821
Si       16.3145238994     3.3051683425     4.2156329995
O       16.1802113786     4.9046081624     4.5022889935
O       17.8328377098     2.9743216100     3.6868040055
O       15.2278657910     2.8461125885     3.0626672835
O       16.0220482503     2.5150932529     5.6177012296
Si       16.4013077067     6.4906994630     4.1232395481
Si       13.7973948332     2.4660320500     2.3180944376
Si       18.6437740911     2.3478516749     2.3824784764
Si       15.5479558468     1.0999215015     6.3257372715
H       17.7901235801     6.7128588209     3.6126548043
H       15.4479924774     6.8535945307     3.0173638752
H       16.1949730909     7.3975774216     5.3177331743
H       12.6512382460     3.2435777947     2.8775952818
H       13.7760516310     2.7299790203     0.8305884597
H       18.2546245377     3.1022798757     1.1466366610
H       13.5014118392     1.0137362243     2.5358775802
H       18.3043951550     0.8991961384     2.1470113301
H       16.2271149969     0.8898574226     7.6443100071
H       14.0544987212     0.9931384744     6.5554218482
H       20.1367154024     2.4549854434     2.5514837100
H       15.9510415454     -0.0023093518     5.4134431661
32
# Point -13 Energy = 0.0
C       21.2560385781     3.3618452087     8.0672433913
H       19.2461590727     4.0471630865     7.4418274728
C       19.8774326880     3.1286777190     7.4417266220
H       19.3681678319     2.6652498831     8.2961863048
H       20.1668207272     2.8518311681     5.3093437912
C       19.7148104196     2.3190878622     6.1550262702
H       18.6631502830     2.1365823839     5.9190210183
H       20.2225663245     1.3521698829     6.2440450928
H       21.9046605294     3.9342562322     7.3951809953
H       21.7214201754     2.3931172155     8.2300324079
H       21.2227943594     3.8789327066     9.0287663469
Si       16.3228165480     3.3138673934     4.2290958326
O       16.1868781850     4.9129569840     4.5169831281
O       17.8410296749     2.9845132358     3.6998777571
O       15.2391686719     2.8541359327     3.0747494873
O       16.0287420642     2.5223304995     5.6297815626
Si       16.4030512791     6.4997271653     4.1380379641
Si       13.8098279913     2.4668865173     2.3333927699
Si       18.6598311460     2.3639251719     2.3984358237
Si       15.5656727561     1.1048138260     6.3398843871
H       17.7915285265     6.7261034268     3.6284349986
H       15.4493792378     6.8591640139     3.0314506127
H       16.1930299388     7.4065243949     5.3320974506
H       12.6634398576     3.2414491374     2.8945093803
H       13.7888586844     2.7307950592     0.8469675638
H       18.2689964556     3.1179004627     1.1637715905
H       13.5193627114     1.0138587690     2.5523994753
H       18.3263373011     0.9147005350     2.1637212353
H       16.2457926586     0.8964315247     7.6590915931
H       14.0733050260     0.9922270621     6.5693642983
H       20.1527327039     2.4770872115     2.5693567384
H       15.9741781920     0.0049903284     5.4273619971
32
# Point -12 Energy = 0.0
C       21.2147000999     3.3713195250     8.0398787122
H       19.2355640419     4.0527600480     7.3461958829
C       19.8448213425     3.1228316361     7.4020668161
H       19.3103663692     2.6828391098     8.2535639240
H       20.1979636458     2.7667457674     5.2907320698
C       19.7154944152     2.2686678788     6.1407151726
H       18.6698818134     2.0855444025     5.8783841843
H       20.2111257216     1.3013315681     6.2794254449
H       21.8769322638     3.9142794928     7.3566330553
H       21.6741334820     2.4083139313     8.2501465081
H       21.1663385093     3.9275685440     8.9788464167
Si       16.3311276349     3.3225204278     4.2424763359
O       16.1935974844     4.9212240317     4.5317939791
O       17.8492491113     2.9946719982     3.7128913056
O       15.2505675129     2.8623188260     3.0866043088
O       16.0353759651     2.5293664005     5.6416702746
Si       16.4049037779     6.5087046273     4.1531819970
Si       13.8224917154     2.4679572289     2.3482576109
Si       18.6759124653     2.3800858594     2.4143544946
Si       15.5831950187     1.1095930111     6.3537459320
H       17.7930569577     6.7393313684     3.6446528549
H       15.4509450013     6.8648634027     3.0458918880
H       16.1911673850     7.4152471804     5.3469228508
H       12.6758030967     3.2394653942     2.9109278061
H       13.8020662673     2.7319874119     0.8629393768
H       18.2835075359     3.1337350085     1.1809118596
H       13.5375483164     1.0141911452     2.5683035585
H       18.3482242585     0.9303585399     2.1802407115
H       16.2641806559     0.9027855201     7.6736171698
H       14.0919163741     0.9913090919     6.5829239248
H       20.1687439136     2.4991721153     2.5872956928
H       15.9970784472     0.0122115068     5.4409732411
32
# Point -11 Energy = 0.0
C       21.1735471932     3.3816422825     8.0104866948
H       19.2245198322     4.0539105154     7.2495224118
C       19.8119625715     3.1167812652     7.3624283297
H       19.2530476582     2.7004246821     8.2101367651
H       20.2281207223     2.6815078777     5.2771504097
C       19.7159775721     2.2181138431     6.1293982914
H       18.6774814288     2.0318558554     5.8410353802
H       20.1992644635     1.2529498697     6.3177661318
H       21.8486374049     3.8945391309     7.3165698498
H       21.6267240535     2.4265317468     8.2678261004
H       21.1114097356     3.9765452030     8.9248404427
Si       16.3394235110     3.3311145073     4.2557696067
O       16.2003935089     4.9293936377     4.5467567798
O       17.8574487743     3.0047440581     3.7258260529
O       15.2620074783     2.8707171841     3.0982201201
O       16.0418934166     2.5361650776     5.6533433712
Si       16.4069446069     6.5176185078     4.1687453966
Si       13.8353137589     2.4693708468     2.3626690141
Si       18.6919438812     2.3962798223     2.4302003374
Si       15.6004147601     1.1142184466     6.3672645251
H       17.7947947926     6.7524920205     3.6613840818
H       15.4527770826     6.8707414415     3.0607727529
H       16.1895020701     7.4237107870     5.3623060627
H       12.6882848892     3.2377798938     2.9268528493
H       13.8156072378     2.7337219506     0.8784911526
H       18.2981057591     3.1497746983     1.1980434071
H       13.5558434911     1.0148644430     2.5835343305
H       18.3699283362     0.9461324357     2.1965013110
H       16.2821672231     0.9088202567     7.6878227859
H       14.1102197328     0.9903920814     6.5960433901
H       20.1846807364     2.5211273247     2.6052652885
H       16.0195929173     0.0193203071     5.4541919362
32
# Point -10 Energy = 0.0
C       21.1324785632     3.3931378628     7.9789921349
H       19.2126187360     4.0500872949     7.1518223941
C       19.7788347908     3.1103043353     7.3227735502
H       19.1962863851     2.7176742886     8.1659180247
H       20.2575293123     2.5961808452     5.2686667398
C       19.7166095613     2.1672484863     6.1211897202
H       18.6863528578     1.9749396749     5.8072309323
H       20.1876803223     1.2070453021     6.3592064719
H       21.8195024025     3.8755063397     7.2748624738
H       21.5795358811     2.4483362292     8.2830917207
H       21.0576073112     4.0262015079     8.8665951649
Si       16.3476734898     3.3396323806     4.2689694963
O       16.2073047167     4.9374451418     4.5619142693
O       17.8655808797     3.0146641509     3.7386560837
O       15.2734302429     2.8793954913     3.1095849092
O       16.0482394843     2.5426814740     5.6647721048
Si       16.4092767668     6.5264516088     4.1848173060
Si       13.8482125948     2.4712754261     2.3766081077
Si       18.7078438361     2.4124415472     2.4459267409
Si       15.6172183074     1.1186377262     6.3803715147
H       17.7968522250     6.7655243476     3.6787173490
H       15.4549849876     6.8768551438     3.0761981327
H       16.1881835858     7.4318720545     5.3783644818
H       12.7008392002     3.2365718826     2.9422949464
H       13.8294025598     2.7361935878     0.8936128186
H       18.3127329987     3.1660081827     1.2151449197
H       13.5741048167     1.0160309882     2.5980304238
H       18.3913042496     0.9619754326     2.2124153569
H       16.2996376121     0.9144132047     7.7016301737
H       14.1280953663     0.9894802088     6.6086573611
H       20.2004696824     2.5428174757     2.6232145207
H       16.0415568734     0.0262723772     5.4669150153
32
# Point -9 Energy = 0.0
C       21.0913479141     3.4061774591     7.9452869898
H       19.1994313227     4.0406908163     7.0531219087
C       19.7454260466     3.1031384204     7.2830495800
H       19.1401667922     2.7341933472     8.1209152157
H       20.2864738765     2.5108444590     5.2653648457
C       19.7177836952     2.1158855816     6.1162406222
H       18.6969554607     1.9141831986     5.7773205404
H       20.1771271859     1.1636537357     6.4039280758
H       21.7892351799     3.8577226810     7.2313633624
H       21.5328920597     2.4743965924     8.2959536826
H       21.0043871081     4.0769097132     8.8038731278
Si       16.3558513810     3.3480502895     4.2820689331
O       16.2143884257     4.9453505665     4.5773184835
O       17.8735977060     3.0243511196     3.7513472057
O       15.2847740125     2.8884275454     3.1206869709
O       16.0543617082     2.5488586798     5.6759227377
Si       16.4120341741     6.5351804869     4.2015053760
Si       13.8610961048     2.4738442845     2.3900582291
Si       18.7235222807     2.4284887541     2.4614726809
Si       15.6334849208     1.1227839242     6.3929856353
H       17.7993712646     6.7783523800     3.6967567746
H       15.4577076369     6.8832700750     3.0922968950
H       16.1874041476     7.4396766824     5.3952402315
H       12.7134173981     3.2360519669     2.9572751538
H       13.8433596052     2.7396313223     0.9082984105
H       18.3273245604     3.1824181158     1.2321868611
H       13.5921668008     1.0178684432     2.6117245768
H       18.4121852426     0.9778272320     2.2278729017
H       16.3164732985     0.9194133468     7.7149447441
H       14.1454153904     0.9885741212     6.6206919469
H       20.2160314376     2.5640765621     2.6410739090
H       16.0627864618     0.0330100972     5.4790187515
32
# Point -8 Energy = 0.0
C       21.0499433161     3.4211864770     7.9092310354
H       19.1845080262     4.0250444765     6.9534619786
C       19.7117388465     3.0949706344     7.2431855185
H       19.0847852136     2.7495116735     8.0751288396
H       20.3153014274     2.4255997214     5.2673264445
C       19.7199472098     2.0638367313     6.1147279786
H       18.7098153846     1.8489580683     5.7517385733
H       20.1684232495     1.1228354385     6.4521415474
H       21.7575173036     3.8418171506     7.1859174808
H       21.4870681907     2.5055057653     8.3064112725
H       20.9510127662     4.1290734428     8.7363480495
Si       16.3639388831     3.3563347376     4.2950620124
O       16.2217285723     4.9530712169     4.5930346121
O       17.8814534173     3.0337015732     3.7638564627
O       15.2959742005     2.8978968901     3.1315182479
O       16.0602133360     2.5546243551     5.6867582061
Si       16.4153928594     6.5437719364     4.2189410356
Si       13.8738599102     2.4772805132     2.4030098533
Si       18.7388796238     2.4443147925     2.4767604182
Si       15.6490876418     1.1265718507     6.4050135940
H       17.8025370231     6.7908787387     3.7156254781
H       15.4611237802     6.8900602214     3.1092289272
H       16.1874136351     7.4470551796     5.4131066385
H       12.7259691800     3.2364688200     2.9718324951
H       13.8573690888     2.7443040641     0.9225513770
H       18.3418082976     3.1989756259     1.2491306329
H       13.6098369256     1.0205846096     2.6245473742
H       18.4323781969     0.9936073062     2.2427383604
H       16.3325542906     0.9236344527     7.7276548537
H       14.1620444428     0.9876705324     6.6320672989
H       20.2312806556     2.5846964425     2.6587511723
H       16.0830757050     0.0394585618     5.4903575908
32
# Point -7 Energy = 0.0
C       21.0079668228     3.4386429073     7.8706517959
H       19.1673907031     4.0023824137     6.8529365905
C       19.6777973839     3.0854303532     7.2030867955
H       19.0302636759     2.7630699236     8.0285507186
H       20.3444134319     2.3405981448     5.2746216381
C       19.7236014528     2.0109322968     6.1168444351
H       18.7255363556     1.7786473765     5.7310077593
H       20.1624438652     1.0847029814     6.5040586360
H       21.7239938291     3.8285182424     7.1383792678
H       21.4422587106     2.5425936439     8.3144376423
H       20.8965159213     4.1831020836     8.6636037337
Si       16.3719302658     3.3644388563     4.3079443033
O       16.2294444124     4.9605539380     4.6091416536
O       17.8891070220     3.0425831269     3.7761296496
O       15.3069653317     2.9078956242     3.1420766845
O       16.0657584740     2.5598879611     5.6972387876
Si       16.4195825584     6.5521786418     4.2372800437
Si       13.8863870686     2.4818188254     2.4154653523
Si       18.7538064795     2.4597798278     2.4916915289
Si       15.6638965362     1.1298959905     6.4163511304
H       17.8065890528     6.8029772628     3.7354637237
H       15.4654625150     6.8973057341     3.1271875605
H       16.1885351102     7.4539188360     5.4321691873
H       12.7384448393     3.2381133252     2.9860307394
H       13.8713029886     2.7505224224     0.9363895200
H       18.3561040603     3.2156322814     1.2659255357
H       13.6268925593     1.0244198951     2.6364322502
H       18.4516598481     1.0092068858     2.2568469519
H       16.3477640964     0.9268514410     7.7396314948
H       14.1778429949     0.9867634113     6.6427012663
H       20.2461263817     2.6044146749     2.6761245970
H       16.1021958528     0.0455226709     5.5007643868
32
# Point -6 Energy = 0.0
C       20.9650035900     3.4590637812     7.8293563352
H       19.1476393016     3.9718753633     6.7517332187
C       19.6436599856     3.0740864536     7.1626291592
H       18.9767628826     2.7742115309     7.9811610941
H       20.3742595080     2.2560747210     5.2872693368
C       19.7292944990     1.9570548239     6.1227640609
H       18.7447947936     1.7027159037     5.7157110371
H       20.1600951771     1.0494460937     6.5598356709
H       21.6882655520     3.8186620902     7.0886482131
H       21.3985137807     2.5867192137     8.3199704988
H       20.8396387845     4.2393608187     8.5851563374
Si       16.3798409583     3.3722973552     4.3207153122
O       16.2377029392     4.9677260602     4.6257334084
O       17.8965287090     3.0508262270     3.7880997273
O       15.3176859225     2.9185199516     3.1523725217
O       16.0709826895     2.5645382823     5.7073262264
Si       16.4249011720     6.5603330509     4.2567013019
Si       13.8985500932     2.4877227817     2.4274498304
Si       18.7681859068     2.4746992806     2.5061435049
Si       15.6777886971     1.1326292835     6.4268895262
H       17.8118350090     6.8144837455     3.7564235123
H       15.4710154948     6.9050871688     3.1464009423
H       16.1911840651     7.4601552315     5.4526638789
H       12.7508002232     3.2413182833     2.9999716264
H       13.8850132553     2.7586340287     0.9498557448
H       18.3701242351     3.2323076214     1.2825058976
H       13.6430808726     1.0296453611     2.6473285362
H       18.4697757968     1.0244778589     2.2700037485
H       16.3620028516     0.9287994245     7.7507328280
H       14.1926776933     0.9858456522     6.6525203422
H       20.2604751576     2.6229003829     2.6930351199
H       16.1199010034     0.0510841740     5.5100568612
32
# Point -5 Energy = 0.0
C       20.9204901502     3.4829621611     7.7851609821
H       19.1248887664     3.9327118452     6.6502017653
C       19.6094375803     3.0604599407     7.1216522474
H       18.9244998477     2.7821919854     7.9329246440
H       20.4053054609     2.1724036356     5.3051707319
C       19.7375870908     1.9021986999     6.1325784532
H       18.7683026878     1.6208399330     5.7064266635
H       20.1622403452     1.0173609578     6.6194690178
H       21.6498894837     3.8131802010     7.0367314723
H       21.3556437726     2.6390108469     8.3229019029
H       20.7787928054     4.2980694530     8.5005178338
Si       16.3877206824     3.3798207942     4.3333815669
O       16.2467325841     4.9744900227     4.6429151065
O       17.9037108542     3.0582171748     3.7996856103
O       15.3280882529     2.9298590442     3.1624375789
O       16.0759108979     2.5684440081     5.7169913098
Si       16.4317267464     6.5681399429     4.2773961262
Si       13.9102185160     2.4952699166     2.4390275947
Si       18.7819006524     2.4888315767     2.5199677083
Si       15.6906692586     1.1346265645     6.4365303194
H       17.8186607711     6.8251869548     3.7786516196
H       15.4781452703     6.9134727249     3.1671236747
H       16.1958840483     7.4656254642     5.4748433603
H       12.7630061023     3.2464450706     3.0138122954
H       13.8983345014     2.7690020730     0.9630336301
H       18.3837768622     3.2488711627     1.2987875458
H       13.6581277049     1.0365490147     2.6572249353
H       18.4864476030     1.0392198226     2.2819889233
H       16.3752127240     0.9291831376     7.7608169057
H       14.2064433894     0.9849127473     6.6614805794
H       20.2742387599     2.6397434155     2.7092779459
H       16.1359464274     0.0560017077     5.5180553093
32
# Point -4 Energy = 0.0
C       20.8736956044     3.5107514088     7.7379560202
H       19.0989565931     3.8842899623     6.5489485182
C       19.5753178089     3.0440694497     7.0799563923
H       18.8737627580     2.7862298235     7.8837842951
H       20.4379624674     2.0901768306     5.3280011531
C       19.7489705522     1.8465644308     6.1461839247
H       18.7967059343     1.5331293445     5.7035876866
H       20.1695432390     0.9888691438     6.6826205583
H       21.6084030563     3.8130410006     6.9828489267
H       21.3130856991     2.7005016242     8.3230793936
H       20.7120759441     4.3591274210     8.4093357712
Si       16.3956713735     3.3868907861     4.3459606537
O       16.2568332367     4.9807197118     4.6607916111
O       17.9106851471     3.0644974339     3.8107933091
O       15.3381553072     2.9419722811     3.1723384389
O       16.0806346916     2.5714615372     5.7262273752
Si       16.4405171135     6.5754693602     4.2995396776
Si       13.9212761695     2.5047134061     2.4503257399
Si       18.7948492033     2.5018699274     2.5329924438
Si       15.7025098527     1.1357376436     6.4452143789
H       17.8275264860     6.8348248019     3.8022527168
H       15.4872794320     6.9224941246     3.1896089897
H       16.2032653720     7.4701671405     5.4989400400
H       12.7750635466     3.2538437293     3.0277858537
H       13.9110946990     2.7819518097     0.9760684690
H       18.3969733519     3.2651191131     1.3146650725
H       13.6717641039     1.0453988080     2.6661887205
H       18.5013965276     1.0531684729     2.2925767062
H       16.3874219861     0.9277074666     7.7697696638
H       14.2191037774     0.9839692205     6.6696043558
H       20.2873496857     2.6544569062     2.7245977403
H       16.1501298800     0.0601178795     5.5246207633
32
# Point -3 Energy = 0.0
C       20.8237501226     3.5425713625     7.6878240596
H       19.0700184243     3.8265803151     6.4489290445
C       19.5415879837     3.0245348010     7.0373098927
H       18.8249047562     2.7856373939     7.8336500340
H       20.4724640516     2.0102920579     5.3550637039
C       19.7637128183     1.7906835986     6.1631116535
H       18.8303813757     1.4404508909     5.7072266496
H       20.1821946433     0.9644962680     6.7483726635
H       21.5633987334     3.8191031835     6.9275888602
H       21.2697523050     2.7717911401     8.3203412169
H       20.6374373896     4.4218603436     8.3116445816
Si       16.4038655651     3.3933606997     4.3584850652
O       16.2683695148     4.9862637220     4.6794408056
O       17.9175441518     3.0693798818     3.8213222955
O       15.3479248884     2.9548503289     3.1821914614
O       16.0853465645     2.5734568406     5.7350707731
Si       16.4517765604     6.5821551556     4.3232334397
Si       13.9316519753     2.5162062812     2.4615614683
Si       18.8069739331     2.5134498061     2.5450371945
Si       15.7134080668     1.1358373306     6.4529702396
H       17.8389273518     6.8430966517     3.8272232444
H       15.4988702100     6.9321081091     3.2140472754
H       16.2140195424     7.4736108777     5.5250919508
H       12.7870242896     3.2637684950     3.0422172117
H       13.9231388896     2.7976666518     0.9891893057
H       18.4096423411     3.2807518468     1.3300125793
H       13.6837814494     1.0563676669     2.6744214150
H       18.5143950765     1.0659946654     2.3015780418
H       16.3988099570     0.9241439936     7.7775552269
H       14.2307546997     0.9830381287     6.6770355459
H       20.2997863846     2.6665133274     2.7386958219
H       16.1623665845     0.0632801845     5.5297226380
32
# Point -2 Energy = 0.0
C       20.7697740807     3.5780452284     7.6352079959
H       19.0388304513     3.7606487166     6.3514531522
C       19.5086362997     3.0017520811     6.9934777072
H       18.7782817600     2.7800615363     7.7823784087
H       20.5087100114     1.9339962728     5.3851635588
C       19.7816413344     1.7355266923     6.1823437686
H       18.8691372863     1.3447624443     5.7166160949
H       20.1995457071     0.9447644695     6.8149969205
H       21.5146752224     3.8318452873     6.8720814633
H       21.2239449003     2.8525173964     8.3146172195
H       20.5531023869     4.4847637025     8.2082075361
Si       16.4125508339     3.3990704003     4.3710024529
O       16.2817248711     4.9909643927     4.6988690197
O       17.9244566622     3.0725968346     3.8311800954
O       15.3575125265     2.9683646367     3.1921709672
O       16.0903649361     2.5743471687     5.7436234942
Si       16.4659616839     6.5880096626     4.3484169782
Si       13.9413605933     2.5296872179     2.4730582312
Si       18.8182976726     2.5231916990     2.5559441760
Si       15.7236550805     1.1348763309     6.4599749314
H       17.8532921291     6.8497084922     3.8533602245
H       15.5132943610     6.9421508036     3.2404649498
H       16.2287732112     7.4758195559     5.5532292806
H       12.7990069657     3.2762431784     3.0575148597
H       13.9343666162     2.8160339478     1.0027167575
H       18.4217472818     3.2953711204     1.3446923250
H       13.6941168589     1.0694180180     2.6823144072
H       18.5253496628     1.0773321436     2.3089111175
H       16.4097758874     0.9184396574     7.7842849729
H       14.2416970171     0.9821712401     6.6840999473
H       20.3116031838     2.6754399511     2.7512620238
H       16.1727931242     0.0653817206     5.5335303225
32
# Point -1 Energy = 0.0
C       20.7111332987     3.6160839719     7.5810450762
H       19.0068722242     3.6890801212     6.2579530202
C       19.4768972903     2.9760870246     6.9482774129
H       18.7341044512     2.7697819391     7.7297440113
H       20.5461751926     1.8627777129     5.4166569941
C       19.8019722979     1.6824724787     6.2022681770
H       18.9119624837     1.2491695690     5.7299815543
H       20.2198452101     0.9299791101     6.8799780465
H       21.4624389179     3.8510233262     6.8180610937
H       21.1734839597     2.9408417029     8.3060963144
H       20.4582558078     4.5454728392     8.1007589157
Si       16.4220156415     3.4038829661     4.3835671063
O       16.2972006039     4.9946990015     4.7189631955
O       17.9316534383     3.0739837966     3.8403038868
O       15.3671103160     2.9822350979     3.2024936936
O       16.0961138206     2.5741543975     5.7520608205
Si       16.4833224429     6.5928653071     4.3747849268
Si       13.9505301238     2.5447761982     2.4852204741
Si       18.8289473723     2.5307932819     2.5656235409
Si       15.7337624567     1.1329378675     6.4665902795
H       17.8708198025     6.8544587907     3.8801916646
H       15.5306962344     6.9523165424     3.2686186001
H       16.2478779391     7.4767482476     5.5829679417
H       12.8111881547     3.2909258402     3.0741119673
H       13.9447686418     2.8365078029     1.0170296069
H       18.4332965882     3.3085298805     1.3585749110
H       13.7029355227     1.0841922189     2.6904544544
H       18.5343845737     1.0868521617     2.3146759823
H       16.4209556519     0.9108309100     7.7902697404
H       14.2524674205     0.9814519713     6.6913240127
H       20.3229441361     2.6809754481     2.7620376777
H       16.1818485845     0.0664144758     5.5364802605
32
# Point 0 Energy = 0
C       20.6477110000     3.6549790000     7.5266840000
H       18.9761800000     3.6157410000     6.1694560000
C       19.4467280000     2.9484220000     6.9016430000
H       18.6922510000     2.7558520000     7.6754250000
H       20.5840390000     1.7980300000     5.4478400000
C       19.8234060000     1.6330100000     6.2209870000
H       18.9571360000     1.1573250000     5.7446630000
H       20.2404540000     0.9200090000     6.9405780000
H       21.4074060000     3.8754920000     6.7676150000
H       21.1161610000     3.0334640000     8.2953550000
H       20.3536290000     4.6012450000     7.9917750000
Si       16.4325060000     3.4077350000     4.3962220000
O       16.3148940000     4.9974300000     4.7394840000
O       17.9393640000     3.0735620000     3.8486780000
O       15.3769370000     2.9960700000     3.2133680000
O       16.1030250000     2.5730330000     5.7606000000
Si       16.5037570000     6.5966350000     4.4017980000
Si       13.9593780000     2.5607940000     2.4984440000
Si       18.8391290000     2.5361430000     2.5740860000
Si       15.7443760000     1.1302530000     6.4733110000
H       17.8913405600     6.8573308000     3.9070238400
H       15.5508605600     6.9622108000     3.2979838400
H       16.2712205600     7.4764908000     5.6136238400
H       12.8237502400     3.3071035200     3.0923555200
H       13.9544302400     2.8581435200     1.0324755200
H       18.4443303200     3.3198514400     1.3715668800
H       13.7106302400     1.1000235200     2.6995155200
H       18.5418503200     1.0943714400     2.3191668800
H       16.4331100800     0.9018602400     7.7959848800
H       14.2637500800     0.9809802400     6.6993448800
H       20.3340103200     2.6832114400     2.7708868800
H       16.1902300800     0.0665002400     5.5392248800
32
# Point 1 Energy = 0.0
C       20.5796734338     3.6933068703     7.4731584526
H       18.9482945409     3.5438392677     6.0859563256
C       19.4182678952     2.9196573987     6.8536483046
H       18.6522995996     2.7395148946     7.6191304283
H       20.6217684474     1.7404124225     5.4777363571
C       19.8449183730     1.5879899788     6.2372357879
H       19.0033005452     1.0716148849     5.7584019754
H       20.2592865251     0.9143137847     6.9952107485
H       21.3501655731     3.9040177283     6.7221337782
H       21.0503715031     3.1273529746     8.2830247255
H       20.2407443237     4.6502235357     7.8830985810
Si       16.4441512338     3.4106550052     4.4090019804
O       16.3347430630     4.9992054163     4.7602221504
O       17.9477291464     3.0714871636     3.8563373158