32
# Point -15 Energy = 0.0
C       20.6930252137     3.7827872790     7.4798873993
H       18.9474321223     3.6614800191     6.2197705837
C       19.4982429902     3.0149696751     6.9187776759
H       18.7961307948     2.7701591489     7.7244220531
H       20.7294367654     1.9679614062     5.4716598297
C       19.9408796989     1.7418890055     6.2001201956
H       19.1190567795     1.2482357060     5.6678053387
H       20.3531044090     1.0142397223     6.9074622443
H       21.4264685039     3.9838405423     6.6898307436
H       21.1975632891     3.2091679641     8.2626502823
H       20.3898690874     4.7432447281     7.9080505941
Si       16.4389217092     3.3435955077     4.3833716945
O       16.1026337432     4.7306706680     5.2596631874
O       17.6383720336     2.7685172995     3.5319824492
O       15.7272101966     2.9074182597     2.9312055305
O       16.3062542438     2.9280994582     6.0075189082
Si       16.3451480163     6.2423977722     4.5789559884
Si       14.1266179321     2.7983397785     2.4450058371
Si       18.7829180484     2.2018360143     2.5103056395
Si       15.7880578381     1.3696128295     6.3391001247
H       17.7374298719     6.6927985214     3.9492739874
H       15.4211712747     6.6733619556     3.3705590051
H       16.1170357501     7.2284165477     5.6855304540
H       12.9499581905     3.5555735387     3.1352554113
H       14.1369868877     3.3006499996     1.0686861299
H       18.4405506276     3.0428329430     1.4783869174
H       13.6353283192     1.3604432292     2.4505961161
H       18.2604566810     0.9558888435     2.5707342925
H       16.2795861649     0.8413294197     7.7035859644
H       14.2151850359     1.0125645889     6.4505158574
H       20.2011168341     2.3352306987     2.9796235924
H       16.1258315467     0.0457489295     5.4468713325
32
# Point -14 Energy = 0.0
C       20.6878369202     3.7657667520     7.4845914796
H       18.9479254455     3.6558481473     6.2159905028
C       19.4905976643     3.0059323226     6.9178580293
H       18.7831930094     2.7668443701     7.7207146706
H       20.7139278337     1.9477709996     5.4716247464
C       19.9255360908     1.7283949165     6.2023064383
H       19.0996712065     1.2383968573     5.6728061083
H       20.3348762637     1.0004907194     6.9110776123
H       21.4245336126     3.9657613651     6.6973234564
H       21.1872548680     3.1872170914     8.2670205481
H       20.3880711415     4.7263259703     7.9149473227
Si       16.4379709422     3.3533489671     4.3811432637
O       16.1161520698     4.7616526556     5.2226902716
O       17.6612669059     2.7891097878     3.5494274582
O       15.7009456680     2.9129231681     2.9458308665
O       16.2908047373     2.9106455698     5.9934547626
Si       16.3604184151     6.2808419509     4.5645518097
Si       14.1088095795     2.7680942458     2.4482573796
Si       18.7957486086     2.2379650877     2.5066824680
Si       15.7863745963     1.3560173283     6.3540751701
H       17.7555305877     6.7151633414     3.9462692364
H       15.4357195338     6.7116378230     3.3634344720
H       16.1346827847     7.2604323238     5.6787346463
H       12.9324532865     3.5241430453     3.1286343630
H       14.1100282977     3.2445087662     1.0605602868
H       18.4441743111     3.0774639068     1.4665099246
H       13.6427100660     1.3238985206     2.4814900802
H       18.2980853956     0.9708096256     2.5423637179
H       16.2992331539     0.8485428036     7.7159758926
H       14.2202495016     1.0090417627     6.4832982269
H       20.2198592923     2.3796218991     2.9585840316
H       16.1333388100     0.0486899091     5.4589361168
32
# Point -13 Energy = 0.0
C       20.6827579921     3.7499397095     7.4892682956
H       18.9485455408     3.6505297993     6.2124022623
C       19.4834384191     2.9975295833     6.9170332027
H       18.7709995345     2.7638391570     7.7171515872
H       20.6991633331     1.9289203877     5.4715098134
C       19.9111776190     1.7158286083     6.2044840516
H       19.0814624828     1.2291522917     5.6778756776
H       20.3180754924     0.9878442861     6.9145956185
H       21.4225214062     3.9492298160     6.7047275660
H       21.1773973225     3.1667216432     8.2712782611
H       20.3859392530     4.7104238870     7.9218677427
Si       16.4371608756     3.3622622649     4.3793664077
O       16.1299897766     4.7907069436     5.1858597689
O       17.6838496722     2.8097058453     3.5673571073
O       15.6750492068     2.9185716322     2.9611379738
O       16.2754192243     2.8921759527     5.9791078584
Si       16.3753076448     6.3170950458     4.5502742204
Si       14.0921741959     2.7397878387     2.4519509476
Si       18.8068979714     2.2721871516     2.5037996499
Si       15.7846161894     1.3419840796     6.3682112853
H       17.7727197588     6.7357164167     3.9430156430
H       15.4497231118     6.7470603169     3.3563469644
H       16.1515309377     7.2902323212     5.6719110996
H       12.9163926232     3.4946285228     3.1228489875
H       14.0856516359     3.1917865965     1.0539756097
H       18.4468011076     3.1100031127     1.4550831586
H       13.6501355530     1.2905410898     2.5107439067
H       18.3329239504     0.9854668077     2.5150462879
H       16.3175423830     0.8553182542     7.7273682290
H       14.2252476575     1.0055775685     6.5136836801
H       20.2368851150     2.4211620713     2.9377926804
H       16.1404836134     0.0513729983     5.4700898150
32
# Point -12 Energy = 0.0
C       20.6778469146     3.7353142097     7.4938740945
H       18.9493194437     3.6455392475     6.2089780784
C       19.4768037502     2.9897666323     6.9162756134
H       18.7595874726     2.7611462770     7.7137152601
H       20.6851816844     1.9113952681     5.4712823344
C       19.8978407904     1.7041806406     6.2066291332
H       19.0644577973     1.2204861172     5.6830016547
H       20.3027441307     0.9762893545     6.9179926581
H       21.4204850268     3.9342530273     6.7119902138
H       21.1680622710     3.1476851463     8.2753788468
H       20.3835391046     4.6955535652     7.9287655862
Si       16.4364808956     3.3703465427     4.3780400789
O       16.1440911689     4.8178265699     5.1492201550
O       17.7061069960     2.8302945188     3.5857806675
O       15.6495335954     2.9243567430     2.9771077727
O       16.2601528796     2.8727159236     5.9644603164
Si       16.3897346183     6.3511668964     4.5361887721
Si       14.0766537862     2.7134646284     2.4559682929
Si       18.8164684918     2.3044674630     2.5017533608
Si       15.7827574689     1.3275384343     6.3815077494
H       17.7889321402     6.7545072893     3.9395859283
H       15.4630909114     6.7796554113     3.3493757996
H       16.1675046018     7.3178088180     5.6651463162
H       12.9017332386     3.4670873054     3.1178086869
H       14.0637371736     3.1426282199     1.0487207950
H       18.4485557713     3.1403957802     1.4441705510
H       13.6574956009     1.2602493414     2.5382135168
H       18.3649592914     0.9997137338     2.4889347674
H       16.3345011751     0.8616601408     7.7378050385
H       14.2301155486     1.0022084512     6.5416923897
H       20.2522686735     2.4597992276     2.9174363872
H       16.1472381865     0.0538010750     5.4803645439
32
# Point -11 Energy = 0.0
C       20.6731584810     3.7218977870     7.4983637086
H       18.9502710889     3.6408906287     6.2056890914
C       19.4707283744     2.9826491649     6.9155570135
H       18.7489907137     2.7587704828     7.7103879098
H       20.6720148603     1.8951803995     5.4709095322
C       19.8855566069     1.6934421261     6.2087179224
H       19.0486788313     1.2123836451     5.6881724651
H       20.2889182533     0.9658162692     6.9212454685
H       21.4184733266     3.9208363221     6.7190566602
H       21.1593170283     3.1301112483     8.2792766214
H       20.3809339577     4.6817294011     7.9355927586
Si       16.4359182707     3.3776135876     4.3771631554
O       16.1584008007     4.8430110590     5.1128187929
O       17.7280223162     2.8508657066     3.6047081356
O       15.6244107452     2.9302669990     2.9937218684
O       16.2450591038     2.8522914793     5.9494959749
Si       16.4036223571     6.3830702418     4.5223584427
Si       14.0621919005     2.6891635858     2.4601989506
Si       18.8245577595     2.3347775692     2.5006384688
Si       15.7807740950     1.3127045723     6.3939627353
H       17.8041079122     6.7715830707     3.9360493595
H       15.4757382612     6.8094513451     3.3425971262
H       16.1825340215     7.3431577372     5.6585224545
H       12.8884352577     3.4415760627     3.1134287167
H       14.0441680218     3.0971591276     1.0445965980
H       18.4495611982     3.1685871344     1.4338310687
H       13.6646873387     1.2329074576     2.5637726336
H       18.3941922677     1.0134070301     2.4641798081
H       16.3501015430     0.8675687918     7.7473221417
H       14.2347957742     0.9989696412     6.5673450997
H       20.2660836643     2.4954838662     2.8976984490
H       16.1535764682     0.0559784601     5.4897862278
32
# Point -10 Energy = 0.0
C       20.6687435891     3.7096979163     7.5026907273
H       18.9514212032     3.6365986127     6.2025054158
C       19.4652433306     2.9761837920     6.9148481158
H       18.7392400687     2.7567181278     7.7071509667
H       20.6596890031     1.8802613733     5.4703574967
C       19.8743512070     1.6836057221     6.2107255730
H       19.0341426352     1.2048323995     5.6933757669
H       20.2766288277     0.9564174510     6.9243294216
H       21.4165306464     3.9089844387     6.7258706397
H       21.1512245671     3.1140038632     8.2829245678
H       20.3781840709     4.6689651853     7.9423001435
Si       16.4354582833     3.3840767358     4.3767342350
O       16.1728631032     4.8662666990     5.0767022035
O       17.7495760436     2.8714117243     3.6241495781
O       15.5996919004     2.9362875771     3.0109619853
O       16.2301892247     2.8309297283     5.9341998188
Si       16.4168971570     6.4128213593     4.5088448180
Si       14.0487340974     2.6669194371     2.4645404058
Si       18.8312585662     2.3630915492     2.5005494231
Si       15.7786429846     1.2975052469     6.4055718880
H       17.8181916216     6.7869900363     3.9324735223
H       15.4875861815     6.8364795708     3.3360850437
H       16.1965538087     7.3662785600     5.6521190202
H       12.8764617547     3.4181500470     3.1096308209
H       14.0268306093     3.0554876525     1.0414170318
H       18.4499416328     3.1945182848     1.4241186858
H       13.6716151049     1.2084065660     2.5873113986
H       18.4206329777     1.0264046607     2.4409331012
H       16.3643402448     0.8730402132     7.7559479641
H       14.2392380208     0.9958940840     6.5906612223
H       20.2784030895     2.5281621495     2.8787612636
H       16.1594750444     0.0579112361     5.4983730949
32
# Point -9 Energy = 0.0
C       20.6646493151     3.6987202143     7.5068077770
H       18.9527875267     3.6326763871     6.1993962457
C       19.4603756588     2.9703764410     6.9141193818
H       18.7303627497     2.7549968390     7.7039859374
H       20.6482234547     1.8666208505     5.4695932243
C       19.8642447143     1.6746631387     6.2126282275
H       19.0208602456     1.1978197777     5.6986008688
H       20.2658999722     0.9480853195     6.9272212975
H       21.4146971252     3.8986984573     6.7323745331
H       21.1438430527     3.0993658196     8.2862752508
H       20.3753473859     4.6572729672     7.9488369657
Si       16.4350845973     3.3897488737     4.3767516356
O       16.1874239184     4.8876045996     5.0409141772
O       17.7707456548     2.8919234282     3.6441154115
O       15.5753876073     2.9423978462     3.0288102574
O       16.2155916334     2.8086589818     5.9185588339
Si       16.4294912393     6.4404376811     4.4957045926
Si       14.0362277633     2.6467602950     2.4688996610
Si       18.8366597789     2.3893940785     2.5015769503
Si       15.7763405367     1.2819627286     6.4163307463
H       17.8311348445     6.8007700023     3.9289210192
H       15.4985645181     6.8607718505     3.3299074034
H       16.2095058089     7.3871733593     5.6460084418
H       12.8657787413     3.3968612258     3.1063440992
H       14.0116148912     3.0177016561     1.0390114951
H       18.4498167975     3.2181378251     1.4150846303
H       13.6781891934     1.1866432316     2.6087385616
H       18.4443088458     1.0385755443     2.4193374076
H       16.3772163359     0.8780683767     7.7637066986
H       14.2433971006     0.9930146099     6.6116611532
H       20.2892988535     2.5577927822     2.8608026843
H       16.1649107388     0.0596068116     5.5061397904
32
# Point -8 Energy = 0.0
C       20.6609185796     3.6889690249     7.5106669970
H       18.9543847135     3.6291364751     6.1963300605
C       19.4561484586     2.9652328663     6.9133407891
H       18.7223823913     2.7536151701     7.7008738997
H       20.6376315167     1.8542405785     5.4685837364
C       19.8552519469     1.6666062992     6.2144018719
H       19.0088376879     1.1913342423     5.7038371119
H       20.2567498305     0.9408130791     6.9298976386
H       21.4130084237     3.8899772230     6.7385101150
H       21.1372256164     3.0861990794     8.2892808918
H       20.3724787319     4.6466632352     7.9551519435
Si       16.4347795750     3.3946435530     4.3772130976
O       16.2020302755     4.9070409796     5.0054962137
O       17.7915062123     2.9123920688     3.6646157311
O       15.5515080863     2.9485729164     3.0472484780
O       16.2013118454     2.7855091745     5.9025613281
Si       16.4413418680     6.4659385985     4.4829910561
Si       14.0246229004     2.6287086014     2.4731930892
Si       18.8408456549     2.4136759832     2.5038087771
Si       15.7738435105     1.2660986275     6.4262332215
H       17.8428950382     6.8129622737     3.9254515695
H       15.5086110549     6.8823614292     3.3241273151
H       16.2213374872     7.4058467813     5.6402581625
H       12.8563553613     3.3777574864     3.1035054575
H       13.9984151415     2.9838707687     1.0372254322
H       18.4493042788     3.2393967452     1.4067770058
H       13.6843272625     1.1675205037     2.6279797185
H       18.4652581628     1.0497970800     2.3995299659
H       16.3887318258     0.8826449557     7.7706169992
H       14.2472338783     0.9903628940     6.6303644162
H       20.2988412208     2.5843389159     2.8439976200
H       16.1698620626     0.0610743899     5.5130956499
32
# Point -7 Energy = 0.0
C       20.6575898994     3.6804470709     7.5142204201
H       18.9562243055     3.6259905059     6.1932747659
C       19.4525807363     2.9607583578     6.9124819488
H       18.7153187780     2.7525822607     7.6977954678
H       20.6279205171     1.8431012051     5.4672962574
C       19.8473823560     1.6594271007     6.2160223560
H       18.9980760058     1.1853651663     5.7090737085
H       20.2491903685     0.9345943831     6.9323347225
H       21.4114956185     3.8828170340     6.7442190821
H       21.1314199526     3.0745043128     8.2918937308
H       20.3696295190     4.6371445697     7.9611937446
Si       16.4345245790     3.3987749987     4.3781155482
O       16.2166308387     4.9245967177     4.9704871489
O       17.8118307004     2.9328090142     3.6856599816
O       15.5280633363     2.9547837067     3.0662577097
O       16.1873923693     2.7615121781     5.8861967543
Si       16.4523917479     6.4893451741     4.4707537880
Si       14.0138725001     2.6127808109     2.4773468421
Si       18.8438958437     2.4359345518     2.5073289488
Si       15.7711290793     1.2499342152     6.4352715849
H       17.8534357830     6.8236035962     3.9221220631
H       15.5176720098     6.9012828151     3.3188026566
H       16.2320020220     7.4223057536     5.6349303816
H       12.8481640222     3.3608814504     3.1010602155
H       13.9871304168     2.9540465136     1.0359212475
H       18.4485189601     3.2582494800     1.3992413729
H       13.6899547407     1.1509478628     2.6449770187
H       18.4835291385     1.0599567868     2.3816409945
H       16.3988914611     0.8867601157     7.7766923487
H       14.2507152601     0.9879697353     6.6467895899
H       20.3070984141     2.6077693845     2.8285177794
H       16.1743093202     0.0623251717     5.5192451804
32
# Point -6 Energy = 0.0
C       20.6546970885     3.6731551905     7.5174203852
H       18.9583146819     3.6232491031     6.1901978503
C       19.4496872401     2.9569575318     6.9115121936
H       18.7091875516     2.7519074965     7.6947307033
H       20.6190919417     1.8331823120     5.4656982965
C       19.8406400152     1.6531173087     6.2174652991
H       18.9885713624     1.1799028084     5.7142994207
H       20.2432272358     0.9294230935     6.9345083803
H       21.4101850525     3.8772114932     6.7494436448
H       21.1264678793     3.0642805158     8.2940663798
H       20.3668473329     4.6287233405     7.9669115310
Si       16.4343002751     3.4021582641     4.3794548343
O       16.2311763052     4.9402970314     4.9359229190
O       17.8316903959     2.9531657082     3.7072565825
O       15.5050632161     2.9609972009     3.0858178435
O       16.1738727117     2.7367021207     5.8694554547
Si       16.4625892703     6.5106800288     4.4590385932
Si       14.0039329337     2.5989871965     2.4812971109
Si       18.8458853058     2.4561733630     2.5122173065
Si       15.7681751007     1.2334907497     6.4434363381
H       17.8627268669     6.8327283760     3.9189868161
H       15.5257023145     6.9175717832     3.3139858844
H       16.2414582412     7.4365592723     5.6300820999
H       12.8411805497     3.3462693500     3.0989626521
H       13.9776649859     2.9282626331     1.0349789389
H       18.4475727440     3.2746542148     1.3925211698
H       13.6950053389     1.1368411701     2.6596886881
H       18.4991783381     1.0689532608     2.3657927363
H       16.4077027970     0.8904032570     7.7819412604
H       14.2538143943     0.9858652744     6.6609542021
H       20.3141361884     2.6280589232     2.8145315030
H       16.1782349449     0.0633726277     5.5245883416
32
# Point -5 Energy = 0.0
C       20.6522689330     3.6670920668     7.5202199746
H       18.9606609983     3.6209217828     6.1870665535
C       19.4474782748     2.9538341208     6.9104006794
H       18.7039998870     2.7516001708     7.6916590289
H       20.6111415710     1.8244624435     5.4637577509
C       19.8350235984     1.6476684449     6.2187060105
H       18.9803151277     1.1749382780     5.7195022404
H       20.2388596069     0.9252930267     6.9363938368
H       21.4090981700     3.8731513548     6.7541271569
H       21.1224048640     3.0555246174     8.2957522024
H       20.3641754926     4.6214033996     7.9722555204
Si       16.4340869342     3.4048094011     4.3812254383
O       16.2456198200     4.9541711991     4.9018363653
O       17.8510552483     2.9734536360     3.7294125447
O       15.4825174817     2.9671767354     3.1059071611
O       16.1607894733     2.7111156932     5.8523283917
Si       16.4718887436     6.5299672748     4.4478874739
Si       13.9947643008     2.5873316545     2.4849903036
Si       18.8468842230     2.4744021221     2.5185489665
Si       15.7649604861     1.2167898371     6.4507161258
H       17.8707443645     6.8403689396     3.9160978049
H       15.5326658377     6.9312654369     3.3097239094
H       16.2496705776     7.4486182272     5.6257652033
H       12.8353843332     3.3339499396     3.0971764950
H       13.9699286672     2.9065354124     1.0342965029
H       18.4465742629     3.2885731174     1.3866580764
H       13.6994215305     1.1251225199     2.6720885288
H       18.5122691216     1.0766969234     2.3520985262
H       16.4151764162     0.8935638011     7.7863674873
H       14.2565109599     0.9840792665     6.6728747488
H       20.3200173918     2.6451883650     2.8022034908
H       16.1816239019     0.0642327915     5.5291208606
32
# Point -4 Energy = 0.0
C       20.6503288505     3.6622539621     7.5225734802
H       18.9632651267     3.6190168594     6.1838480541
C       19.4459595109     2.9513907679     6.9091165091
H       18.6997621522     2.7516691467     7.6885591557
H       20.6040596372     1.8169191384     5.4614430372
C       19.8305263618     1.6430716707     6.2197194364
H       18.9732939690     1.1704634905     5.7246690835
H       20.2360800205     0.9221976921     6.9379655885
H       21.4082513462     3.8706243747     6.7582147889
H       21.1192595314     3.0482310880     8.2969057265
H       20.3616525827     4.6151857778     7.9771775670
Si       16.4338647401     3.4067456312     4.3834201831
O       16.2599174015     4.9662523172     4.8682570757
O       17.8698942777     2.9936642901     3.7521330734
O       15.4604357892     2.9732823188     3.1265019129
O       16.1481765266     2.6847924290     5.8348068759
Si       16.4802506111     6.5472324834     4.4373386292
Si       13.9863307131     2.5778115187     2.4883831374
Si       18.8469578968     2.4906365006     2.5263937873
Si       15.7614656566     1.1998538194     6.4570976922
H       17.8774707138     6.8465558195     3.9135048696
H       15.5385355557     6.9424023141     3.3060580269
H       16.2566090458     7.4584952553     5.6220265712
H       12.8307584425     3.3239434645     3.0956753461
H       13.9638370472     2.8888640176     1.0337901095
H       18.4456285740     3.2999725046     1.3816923127
H       13.7031549691     1.1157200028     2.6821653935
H       18.5228701069     1.0831105765     2.3406618740
H       16.4213262667     0.8962320017     7.7899702430
H       14.2587915267     0.9826413922     6.6825668246
H       20.3248015046     2.6591448188     2.7916944119
H       16.1844641452     0.0649245559     5.5328345829
32
# Point -3 Energy = 0.0
C       20.6488945490     3.6586344655     7.5244369056
H       18.9661256047     3.6175413610     6.1805096804
C       19.4451318002     2.9496288279     6.9076288843
H       18.6964755667     2.7521225251     7.6854090313
H       20.5978310179     1.8105289716     5.4587232638
C       19.8271361468     1.6393176735     6.2204801432
H       18.9674899607     1.1664711121     5.7297855123
H       20.2348742391     0.9201300325     6.9391973336
H       21.4076557217     3.8696151819     6.7616542461
H       21.1170531700     3.0423915637     8.2974830997
H       20.3593119675     4.6100683952     7.9816317641
Si       16.4336141043     3.4079855047     4.3860299305
O       16.2740283787     4.9765770819     4.8352112583
O       17.8881759910     3.0137891335     3.7754211532
O       15.4388276671     2.9792709877     3.1475759208
O       16.1360652639     2.6577749436     5.8168822991
Si       16.4876416574     6.5625026742     4.4274264721
Si       13.9786004985     2.5704173978     2.4914426445
Si       18.8461666376     2.5048979726     2.5358158150
Si       15.7576730664     1.1827061690     6.4625658794
H       17.8828947927     6.8513180519     3.9112558782
H       15.5432936761     6.9510225197     3.3030238862
H       16.2622492395     7.4662046107     5.6189081973
H       12.8272896979     3.3162607081     3.0944430293
H       13.9593115529     2.8752308726     1.0333940515
H       18.4448368284     3.3088229534     1.3776628710
H       13.7061668120     1.1085673912     2.6899226348
H       18.5310536730     1.0881297840     2.3315755606
H       16.4261700877     0.8983997578     7.7927444302
H       14.2606499671     0.9815815862     6.6900453419
H       20.3285441482     2.6699218340     2.7831603831
H       16.1867471155     0.0654699553     5.5357178585
32
# Point -2 Energy = 0.0
C       20.6479776970     3.6562242703     7.5257685054
H       18.9692376041     3.6165009568     6.1770191470
C       19.4449910136     2.9485481834     6.9059072936
H       18.6941358762     2.7529673219     7.6821858194
H       20.5924354801     1.8052676140     5.4555684493
C       19.8248354223     1.6363965615     6.2209623509
H       18.9628807300     1.1629544968     5.7348354982
H       20.2352211522     0.9190821773     6.9400619682
H       21.4073170549     3.8701051827     6.7643965336
H       21.1157992578     3.0379945039     8.2974425919
H       20.3571813023     4.6060458002     7.9855750679
Si       16.4333159933     3.4085490321     4.3890432775
O       16.2879158368     4.9851855831     4.8027216393
O       17.9058688226     3.0338195524     3.7992771160
O       15.4177024699     2.9850971998     3.1691002191
O       16.1244849048     2.6301091186     5.7985458774
Si       16.4940352035     6.5758063101     4.4181816530
Si       13.9715463048     2.5651330542     2.4941460901
Si       18.8445656469     2.5172136397     2.5468727025
Si       15.7535677767     1.1653718732     6.4671036652
H       17.8870119945     6.8546834713     3.9093968445
H       15.5469317165     6.9571678674     3.3006514875
H       16.2665723494     7.4717620388     5.6164473111
H       12.8249686752     3.3109021467     3.0934738535
H       13.9562793553     2.8656021015     1.0330604729
H       18.4442959088     3.3150993635     1.3746076774
H       13.7084279171     1.1036037630     2.6953775219
H       18.5368945208     1.0917030910     2.3249207463
H       16.4297298942     0.9000614041     7.7946808806
H       14.2620878962     0.9809303593     6.6953248232
H       20.3312965608     2.6775195517     2.7767523153
H       16.1884682617     0.0658944096     5.5377559604
32
# Point -1 Energy = 0.0
C       20.6475836245     3.6550109926     7.5265293619
H       18.9725929295     3.6158998978     6.1733448208
C       19.4455279139     2.9481470819     6.9039217412
H       18.6927330612     2.7542091614     7.6788659191
H       20.5878479899     1.8011099144     5.4519497971
C       19.8236013819     1.6342977719     6.2211400254
H       18.9594396534     1.1599076138     5.7398012406
H       20.2370927429     0.9190452189     6.9405316653
H       21.4072356045     3.8720725134     6.7663967616
H       21.1155030272     3.0350249031     8.2967451497
H       20.3552820529     4.6031089501     7.9889679370
Si       16.4329522688     3.4084577739     4.3924462558
O       16.3015470652     4.9921210984     4.7708073825
O       17.9229416017     3.0537467959     3.8236981893
O       15.3970693175     2.9907132662     3.1910427402
O       16.1134628507     2.6018442143     5.7797884098
Si       16.4994112886     6.5871732841     4.4096310825
Si       13.9651450895     2.5619353431     2.4964807999
Si       18.8422048980     2.5276160385     2.5596150990
Si       15.7491380558     1.1478777872     6.4706922379
H       17.8898243016     6.8566789830     3.9079719915
H       15.5494505382     6.9608820088     3.2989651974
H       16.2695652002     7.4751846409     5.6146764884
H       12.8237896311     3.3078572400     3.0927727801
H       13.9546730874     2.8599280676     1.0327588829
H       18.4440980265     3.3187809754     1.3725636826
H       13.7099188838     1.1007730845     2.6985606202
H       18.5404683074     1.0937920927     2.3207660937
H       16.4320324885     0.9012144454     7.7957666016
H       14.2631151152     0.9807190876     6.6984197455
H       20.3331050365     2.6819448428     2.7726151282
H       16.1896275660     0.0662269104     5.5389315312
32
# Point 0 Energy = 0
C       20.6477110000     3.6549790000     7.5266840000
H       18.9761800000     3.6157410000     6.1694560000
C       19.4467280000     2.9484220000     6.9016430000
H       18.6922510000     2.7558520000     7.6754250000
H       20.5840390000     1.7980300000     5.4478400000
C       19.8234060000     1.6330100000     6.2209870000
H       18.9571360000     1.1573250000     5.7446630000
H       20.2404540000     0.9200090000     6.9405780000
H       21.4074060000     3.8754920000     6.7676150000
H       21.1161610000     3.0334640000     8.2953550000
H       20.3536290000     4.6012450000     7.9917750000
Si       16.4325060000     3.4077350000     4.3962220000
O       16.3148940000     4.9974300000     4.7394840000
O       17.9393640000     3.0735620000     3.8486780000
O       15.3769370000     2.9960700000     3.2133680000
O       16.1030250000     2.5730330000     5.7606000000
Si       16.5037570000     6.5966350000     4.4017980000
Si       13.9593780000     2.5607940000     2.4984440000
Si       18.8391290000     2.5361430000     2.5740860000
Si       15.7443760000     1.1302530000     6.4733110000
H       17.8913405600     6.8573308000     3.9070238400
H       15.5508605600     6.9622108000     3.2979838400
H       16.2712205600     7.4764908000     5.6136238400
H       12.8237502400     3.3071035200     3.0923555200
H       13.9544302400     2.8581435200     1.0324755200
H       18.4443303200     3.3198514400     1.3715668800
H       13.7106302400     1.1000235200     2.6995155200
H       18.5418503200     1.0943714400     2.3191668800
H       16.4331100800     0.9018602400     7.7959848800
H       14.2637500800     0.9809802400     6.6993448800
H       20.3340103200     2.6832114400     2.7708868800
H       16.1902300800     0.0665002400     5.5392248800
32
# Point 1 Energy = 0.0
C       20.6483535263     3.6561140344     7.5262005098
H       18.9799854987     3.6160260887     6.1653232823
C       19.4485743432     2.9493695699     6.8990435681
H       18.6926707046     2.7578995280     7.6718392125
H       20.5809792071     1.7960036815     5.4432152064
C       19.8242210781     1.6325230386     6.2204792070
H       18.9559406941     1.1552016083     5.7494018692
H       20.2452692641     0.9219653472     6.9401748894
H       21.4078185170     3.8803403231     6.7680161383
H       21.1177638353     3.0332954425     8.2932403349
H       20.3522303170     4.6004419282     7.9939642328
Si       16.4319630325     3.4063996442     4.4003516172
O       16.3279342074     5.0011561343     4.7087608875
O       17.9551096973     3.0932533706     3.8742094170