32
# Point -15 Energy = 0.0
C       20.6491509847     3.6761295871     7.5212448640
H       19.0197282405     3.6040748773     6.1536189046
C       19.4576421912     2.9262839549     6.9043287401
H       18.6817654760     2.7370875159     7.6566836132
H       20.5920904092     1.8174070833     5.4655979546
C       19.8192381717     1.6501540358     6.2237883374
H       18.9673938289     1.1385400181     5.7568743434
H       20.2262732489     0.9473541851     6.9575430197
H       21.4307212728     3.8610155161     6.7763124848
H       21.0764467146     3.0001449467     8.2680254224
H       20.3929804096     4.6134349760     8.0216112699
Si       16.4506463649     3.3815252788     4.3993074472
O       16.3245795194     5.3508362290     4.7202690730
O       18.1083479622     3.0091572607     3.7101055435
O       15.1342330781     2.9150480549     3.0430310331
O       16.0433030482     2.3696248594     5.9279776556
Si       16.4838724386     6.4906014734     4.4254167228
Si       14.0446719154     2.5883544029     2.5412009871
Si       18.7982019657     2.5637137800     2.6371040762
Si       15.7638903997     1.2066844123     6.4417857070
H       17.8789304556     6.8595310569     3.9104761614
H       15.5450847461     6.9613654434     3.3023471708
H       16.2621367797     7.4784251788     5.6136495578
H       12.8265581125     3.3059785305     3.0888433705
H       13.9558449841     2.8606870163     1.0320152961
H       18.4487641363     3.3210367115     1.3759243701
H       13.7124436727     1.1042172970     2.6954832732
H       18.5482148479     1.0986233437     2.3209757457
H       16.4316135453     0.9023035157     7.8044366244
H       14.2651544107     0.9787692148     6.7089199228
H       20.3384158960     2.6862146189     2.7719280118
H       16.1896413728     0.0689776249     5.5503386560
32
# Point -14 Energy = 0.0
C       20.6489472098     3.6747430472     7.5217085952
H       19.0166814597     3.6049811642     6.1547133855
C       19.4567775124     2.9278110539     6.9041764808
H       18.6822785223     2.7383825522     7.6579460716
H       20.5914235505     1.8162163301     5.4643621057
C       19.8193556257     1.6490985137     6.2235311674
H       18.9665014553     1.1399028812     5.7559468413
H       20.2270292820     0.9455657950     6.9563241807
H       21.4291433343     3.8620473174     6.7758514782
H       21.0789897967     3.0022659662     8.2700491462
H       20.3902193702     4.6126585219     8.0198562143
Si       16.4494139876     3.3834463544     4.3990135381
O       16.3237234039     5.3273825318     4.7226342941
O       18.0973592347     3.0135824637     3.7197330184
O       15.1508533929     2.9202605600     3.0538439232
O       16.0474716294     2.3837154419     5.9171129140
Si       16.4855594150     6.4974996820     4.4236635421
Si       14.0389706384     2.5862900252     2.5386683057
Si       18.8005944411     2.5618754242     2.6328421866
Si       15.7628081016     1.2016501139     6.4433684131
H       17.8803265100     6.8593464407     3.9100653607
H       15.5456128096     6.9614291451     3.3018441017
H       16.2630905067     7.4781942554     5.6136782770
H       12.8262031051     3.3059339962     3.0894081899
H       13.9556698153     2.8602029133     1.0321882253
H       18.4481829205     3.3209776667     1.3754315319
H       13.7123325535     1.1035316385     2.6961335915
H       18.5475283090     1.0981904343     2.3208483279
H       16.4319846154     0.9023451857     7.8034743815
H       14.2651412400     0.9790124754     6.7078370514
H       20.3378827781     2.6860581246     2.7718549457
H       16.1899240732     0.0687039838     5.5490555733
32
# Point -13 Energy = 0.0
C       20.6487582357     3.6733524486     7.5221587256
H       19.0136545992     3.6058690728     6.1558030705
C       19.4559319341     2.9293305830     6.9040209010
H       18.6828175011     2.7396705567     7.6592071057
H       20.5907749133     1.8150118173     5.4631335447
C       19.8194955064     1.6480305163     6.2232837552
H       18.9656384987     1.1412504495     5.7550350229
H       20.2278118408     0.9437721279     6.9551171903
H       21.4275685350     3.8630692033     6.7753747209
H       21.0815475104     3.0044011466     8.2720459072
H       20.3874762906     4.6118765427     8.0180681583
Si       16.4481847183     3.3853436980     4.3987326213
O       16.3228965742     5.3039107181     4.7248456448
O       18.0863295796     3.0179906056     3.7293062232
O       15.1674142359     2.9255028705     3.0647331166
O       16.0516144956     2.3977320481     5.9062057953
Si       16.4871951748     6.5044234784     4.4219358378
Si       14.0332720885     2.5842569839     2.5360919195
Si       18.8030347568     2.5600375723     2.6285891584
Si       15.7616952658     1.1966060927     6.4450248568
H       17.8816423498     6.8591683088     3.9096781756
H       15.5461217338     6.9614929321     3.3013687899
H       16.2639950000     7.4779806217     5.6137015981
H       12.8258714998     3.3059054176     3.0899269270
H       13.9555062489     2.8597626312     1.0323413134
H       18.4476416654     3.3209164601     1.3749671469
H       13.7122204836     1.1029030658     2.6967315456
H       18.5468776087     1.0977795135     2.3207210534
H       16.4323181127     0.9023747947     7.8025685299
H       14.2651171119     0.9792399213     6.7068166672
H       20.3373837929     2.6858953283     2.7717818013
H       16.1901727379     0.0684444728     5.5478485356
32
# Point -12 Energy = 0.0
C       20.6485842067     3.6719579586     7.5225950573
H       19.0106477986     3.6067386039     6.1568877940
C       19.4551055742     2.9308426024     6.9038618890
H       18.6833825680     2.7409516987     7.6604666222
H       20.5901445875     1.8137933910     5.4619123049
C       19.8196579338     1.6469500408     6.2230461743
H       18.9648050534     1.1425826056     5.7541390185
H       20.2286210577     0.9419732642     6.9539222145
H       21.4259969264     3.8640812631     6.7748819148
H       21.0841199333     3.0065505456     8.2740152770
H       20.3847515771     4.6110891241     8.0162469896
Si       16.4469585979     3.3872170496     4.3984646168
O       16.3220992059     5.2804214390     4.7269028484
O       18.0752593055     3.0223812705     3.7388248488
O       15.1839148161     2.9307743698     3.0756989359
O       16.0557313819     2.4116742756     5.8952563983
Si       16.4887796297     6.5113725903     4.4202336272
Si       14.0275761277     2.5822555212     2.5334714250
Si       18.8055229536     2.5582001165     2.6243449529
Si       15.7605517274     1.1915525582     6.4467551328
H       17.8828777567     6.8589964161     3.9093151244
H       15.5466112184     6.9615565450     3.3009218158
H       16.2648501399     7.4777836905     5.6137197784
H       12.8255634148     3.3058930618     3.0903993057
H       13.9553542664     2.8593664319     1.0324744229
H       18.4471405746     3.3208529479     1.3745313306
H       13.7121073423     1.1023317812     2.6972766247
H       18.5462631215     1.0973904327     2.3205941088
H       16.4326137529     0.9023927484     7.8017192160
H       14.2650818871     0.9794520267     6.7058590042
H       20.3369189705     2.6857262348     2.7717087260
H       16.1903871923     0.0681993941     5.5467178602
32
# Point -11 Energy = 0.0
C       20.6484252652     3.6705597429     7.5230173939
H       19.0076611966     3.6075897594     6.1579673899
C       19.4542985486     2.9323471719     6.9036993316
H       18.6839738764     2.7422261479     7.6617245255
H       20.5895326613     1.8125608970     5.4606984194
C       19.8198430259     1.6458570845     6.2228184974
H       18.9640012110     1.1438992333     5.7532589549
H       20.2294570615     0.9401692829     6.9527394179
H       21.4244285606     3.8650835870     6.7743727673
H       21.0867071406     3.0087142144     8.2759568274
H       20.3820456314     4.6102963507     8.0143926008
Si       16.4457356675     3.3890661521     4.3982094413
O       16.3213314761     5.2569153500     4.7288056417
O       18.0641487238     3.0267540481     3.7482885859
O       15.2003543444     2.9360744307     3.0867416935
O       16.0598220340     2.4255417214     5.8842648203
Si       16.4903126904     6.5183467433     4.4185569234
Si       14.0218826188     2.5802858828     2.5308064235
Si       18.8080590707     2.5563629499     2.6201095291
Si       15.7593773223     1.1864897250     6.4485593345
H       17.8840325070     6.8588305166     3.9089767203
H       15.5470809638     6.9616197230     3.3005037622
H       16.2656558082     7.4776028599     5.6137330694
H       12.8252789722     3.3058971942     3.0908250541
H       13.9552138514     2.8590145766     1.0325874256
H       18.4466798487     3.3207869817     1.3741241948
H       13.7119930145     1.1018179910     2.6977683241
H       18.5456852222     1.0970230440     2.3204676821
H       16.4328712550     0.9023994621     7.8009265816
H       14.2650354308     0.9796492705     6.7049642958
H       20.3364883360     2.6855508521     2.7716358645
H       16.1905672631     0.0679690531     5.5456638661
32
# Point -10 Energy = 0.0
C       20.6482815511     3.6691579657     7.5234255401
H       19.0046949305     3.6084225420     6.1590416916
C       19.4535109706     2.9338443503     6.9035331142
H       18.6845915766     2.7434940740     7.6629807178
H       20.5889392211     1.8113141801     5.4594919212
C       19.8200508983     1.6447516445     6.2226007961
H       18.9632270606     1.1452002175     5.7523949559
H       20.2303199775     0.9383602620     6.9515689644
H       21.4228634905     3.8660762648     6.7738469914
H       21.0893092049     3.0108921975     8.2778701301
H       20.3793588506     4.6094983054     8.0125048888
Si       16.4445159688     3.3908907507     4.3979670088
O       16.3205935631     5.2333931102     4.7305537752
O       18.0529981487     3.0311085333     3.7576971245
O       15.2167320340     2.9414024152     3.0978616916
O       16.0638862072     2.4393339824     5.8732311574
Si       16.4917942663     6.5253456610     4.4169057344
Si       14.0161914249     2.5783483189     2.5280965216
Si       18.8106431458     2.5545259662     2.6158828439
Si       15.7581718871     1.1814178134     6.4504375541
H       17.8851063714     6.8586703636     3.9086634718
H       15.5475306710     6.9616822037     3.3001152130
H       16.2664118880     7.4774375133     5.6137417170
H       12.8250182987     3.3059180781     3.0912039042
H       13.9550849896     2.8587073261     1.0326802033
H       18.4462596849     3.3207184085     1.3737458477
H       13.7118773902     1.1013619053     2.6982061457
H       18.5451442855     1.0966771998     2.3203419631
H       16.4330903413     0.9023953598     7.8001907635
H       14.2649776133     0.9798321359     6.7041327752
H       20.3360919097     2.6853691914     2.7715633583
H       16.1907127779     0.0677537596     5.5446868743
32
# Point -9 Energy = 0.0
C       20.6481532023     3.6677527895     7.5238193021
H       19.0017491366     3.6092369551     6.1601105317
C       19.4527429516     2.9353341958     6.9033631211
H       18.6852358161     2.7447556471     7.6642350993
H       20.5883643518     1.8100530849     5.4582928433
C       19.8202816643     1.6436337184     6.2223931407
H       18.9624826888     1.1464854438     5.7515471419
H       20.2312099277     0.9365462782     6.9504110162
H       21.4213017694     3.8670593869     6.7733043057
H       21.0919261965     3.0130845324     8.2797547569
H       20.3766916268     4.6086950698     8.0105837556
Si       16.4432995439     3.3926905932     4.3977372301
O       16.3198856464     5.2098553823     4.7321470125
O       18.0418078976     3.0354443264     3.7670501544
O       15.2330471011     2.9467576748     3.1090592216
O       16.0679236673     2.4530506550     5.8621555046
Si       16.4932242659     6.5323690651     4.4152800639
Si       14.0105024100     2.5764430834     2.5253413312
Si       18.8132752146     2.5526890599     2.6116648521
Si       15.7569352596     1.1763370490     6.4523898825
H       17.8860991145     6.8585157103     3.9083758815
H       15.5479600415     6.9617437233     3.2997567539
H       16.2671182637     7.4772870199     5.6137459607
H       12.8247815250     3.3059559744     3.0915355918
H       13.9549676689     2.8584449400     1.0327526477
H       18.4458802771     3.3206470704     1.3733963938
H       13.7117603649     1.1009637384     2.6985895977
H       18.5446406862     1.0963527536     2.3202171429
H       16.4332707376     0.9023808747     7.7995118940
H       14.2649083102     0.9800011102     6.7033646748
H       20.3357297065     2.6851812673     2.7714913463
H       16.1908235655     0.0675538269     5.5437872073
32
# Point -8 Energy = 0.0
C       20.6480403542     3.6663443748     7.5241984875
H       18.9988239499     3.6100330032     6.1611737429
C       19.4519946006     2.9368167660     6.9031892349
H       18.6859067397     2.7460110367     7.6654875678
H       20.5878081361     1.8087774551     5.4571012186
C       19.8205354349     1.6425033036     6.2221956008
H       18.9617681794     1.1477547990     5.7507156301
H       20.2321270305     0.9347274070     6.9492657346
H       21.4197434512     3.8680330433     6.7727444346
H       21.0945581830     3.0152912501     8.2816102798
H       20.3740443477     4.6078867239     8.0086291075
Si       16.4420864351     3.3944654301     4.3975200132
O       16.3192079061     5.1863028327     4.7335851312
O       18.0305782907     3.0397610334     3.7763473651
O       15.2492987645     2.9521395507     3.1203345649
O       16.0719341899     2.4666913353     5.8510379557
Si       16.4946025959     6.5394166755     4.4136799114
Si       14.0048154390     2.5745704343     2.5225404694
Si       18.8159553117     2.5508521264     2.6074555068
Si       15.7556672785     1.1712476630     6.4544164094
H       17.8870104945     6.8583663097     3.9081144466
H       15.5483687781     6.9618040168     3.2994289718
H       16.2677748212     7.4771507347     5.6137460333
H       12.8245687861     3.3060111416     3.0918198570
H       13.9548618791     2.8582276773     1.0328046606
H       18.4455418160     3.3205728051     1.3730759338
H       13.7116418397     1.1006237085     2.6989181951
H       18.5441747988     1.0960495593     2.3200934143
H       16.4334121730     0.9023564486     7.7988901005
H       14.2648274020     0.9801566851     6.7026602267
H       20.3354017369     2.6849870973     2.7714199644
H       16.1908994557     0.0673695718     5.5429651896
32
# Point -7 Energy = 0.0
C       20.6479431400     3.6649328804     7.5245629052
H       18.9959195041     3.6108106911     6.1622311572
C       19.4512660243     2.9382921173     6.9030113375
H       18.6866044893     2.7472604126     7.6667380194
H       20.5872706555     1.8074871340     5.4559170798
C       19.8208123190     1.6413603976     6.2220082449
H       18.9610836140     1.1490081711     5.7499005344
H       20.2330714007     0.9329037223     6.9481332794
H       21.4181885904     3.8689973241     6.7721671084
H       21.0972052296     3.0175123741     8.2834362715
H       20.3714173957     4.6070733460     8.0066408558
Si       16.4408766852     3.3962150147     4.3973152632
O       16.3185605233     5.1627361308     4.7348679219
O       18.0193096511     3.0440582655     3.7855884463
O       15.2654862462     2.9575473738     3.1316879917
O       16.0759175608     2.4802556192     5.8398786032
Si       16.4959291620     6.5464882102     4.4121052718
Si       13.9991303774     2.5727306337     2.5196935590
Si       18.8186834698     2.5490150620     2.6032547591
Si       15.7543677842     1.1661498919     6.4565172231
H       17.8878402628     6.8582219159     3.9078796580
H       15.5487565850     6.9618628186     3.2991324549
H       16.2683814477     7.4770279993     5.6137421609
H       12.8243802209     3.3060838357     3.0920564437
H       13.9547676121     2.8580557964     1.0328361542
H       18.4452444890     3.3204954453     1.3727845646
H       13.7115217210     1.1003420388     2.6991914594
H       18.5437469980     1.0957674720     2.3199709710
H       16.4335143806     0.9023225321     7.7983255052
H       14.2647347753     0.9802993558     6.7020196626
H       20.3351080058     2.6847867026     2.7713493454
H       16.1909402791     0.0672013149     5.5422211474
32
# Point -6 Energy = 0.0
C       20.6478616904     3.6635184629     7.5249123659
H       18.9930359318     3.6115700248     6.1632826065
C       19.4505573273     2.9397603054     6.9028293093
H       18.6873292039     2.7485039440     7.6679863478
H       20.5867519894     1.8061819645     5.4547404596
C       19.8211124229     1.6402049981     6.2218311402
H       18.9604290715     1.1502454490     5.7491019653
H       20.2340431500     0.9310752971     6.9470138091
H       21.4166372421     3.8699523191     6.7715720631
H       21.0998673989     3.0197479210     8.2852323051
H       20.3688111482     4.6062550127     8.0046189164
Si       16.4396703373     3.3979391026     4.3971228824
O       16.3179436796     5.1391559495     4.7359951892
O       18.0080023050     3.0483356397     3.7947730876
O       15.2816087717     2.9629804652     3.1431197618
O       16.0798735756     2.4937431019     5.8286775384
Si       16.4972038679     6.5535833854     4.4105561362
Si       13.9934470921     2.5709239481     2.5168002284
Si       18.8214597199     2.5471777639     2.5990625585
Si       15.7530366183     1.1610439778     6.4586924109
H       17.8885881637     6.8580822838     3.9076720003
H       15.5491231679     6.9619198624     3.2988677920
H       16.2689380318     7.4769181417     5.6137345619
H       12.8242159725     3.3061743094     3.0922450997
H       13.9546848616     2.8579295545     1.0328470512
H       18.4449884802     3.3204148193     1.3725223796
H       13.7113999204     1.1001189565     2.6994089188
H       18.5433576579     1.0955063476     2.3198500081
H       16.4335770970     0.9022795840     7.7978182254
H       14.2646303218     0.9804296213     6.7014432137
H       20.3348485136     2.6845801069     2.7712796191
H       16.1909458677     0.0670493801     5.5415554088
32
# Point -5 Energy = 0.0
C       20.6477961341     3.6621012769     7.5252466818
H       18.9901733643     3.6123110107     6.1643279225
C       19.4498686117     2.9412213850     6.9026430295
H       18.6880810198     2.7497417999     7.6692324447
H       20.5862522156     1.8048617888     5.4535713906
C       19.8214358510     1.6390371025     6.2216643531
H       18.9598046282     1.1514665225     5.7483200300
H       20.2350423864     0.9292422024     6.9459074807
H       21.4150894617     3.8708981176     6.7709590408
H       21.1025447507     3.0219979001     8.2869979549
H       20.3662259778     4.6054317988     8.0025632098
Si       16.4384674347     3.3996374525     4.3969427708
O       16.3173575568     5.1155629643     4.7369667511
O       17.9966565811     3.0525927784     3.8039009788
O       15.2976655702     2.9684381360     3.1546301240
O       16.0838020398     2.5071533782     5.8174348512
Si       16.4984266161     6.5607019157     4.4090324916
Si       13.9877654509     2.5691506479     2.5138601116
Si       18.8242840916     2.5453401304     2.5948788525
Si       15.7516736244     1.1559301681     6.4609420589
H       17.8892539339     6.8579471701     3.9074919514
H       15.5494682347     6.9619748817     3.2986355731
H       16.2694444633     7.4768204773     5.6137234469
H       12.8240761875     3.3062828123     3.0923855765
H       13.9546136233     2.8578492078     1.0328372850
H       18.4447739706     3.3203307502     1.3722894682
H       13.7112763551     1.0999546939     2.6995701082
H       18.5430071528     1.0952660431     2.3197307215
H       16.4336000628     0.9022280711     7.7973683733
H       14.2645139395     0.9805479837     6.7009311107
H       20.3346232553     2.6843673375     2.7712109124
H       16.1909160541     0.0669140946     5.5409683037
32
# Point -4 Energy = 0.0
C       20.6477465969     3.6606814747     7.5255656669
H       18.9873319315     3.6130336559     6.1653669370
C       19.4491999775     2.9426754095     6.9024523765
H       18.6888600702     2.7509741486     7.6704762001
H       20.5857714102     1.8035264490     5.4524099054
C       19.8217827050     1.6378567085     6.2215079487
H       18.9592103582     1.1526712828     5.7475548323
H       20.2360692144     0.9274045083     6.9448144498
H       21.4135453055     3.8718348083     6.7703277898
H       21.1052373426     3.0242623134     8.2887327958
H       20.3636622514     4.6046037773     8.0004736614
Si       16.4372680215     3.4013098257     4.3967748256
O       16.3168023371     5.0919578534     4.7377824390
O       17.9852728113     3.0568293097     3.8129718104
O       15.3136558749     2.9739196875     3.1662193161
O       16.0877027687     2.5204860425     5.8061506308
Si       16.4995973067     6.5678435139     4.4075343213
Si       13.9820853229     2.5674110076     2.5108728484
Si       18.8271566127     2.5435020609     2.5907035874
Si       15.7502786479     1.1508087156     6.4632662520
H       17.8898373023     6.8578163336     3.9073399818
H       15.5497914957     6.9620276102     3.2984363885
H       16.2699006336     7.4767343092     5.6137090184
H       12.8239610165     3.3064095905     3.0924776296
H       13.9545538944     2.8578150115     1.0328068001
H       18.4446011379     3.3202430568     1.3720859163
H       13.7111509472     1.0998494879     2.6996745696
H       18.5426958565     1.0950464166     2.3196133083
H       16.4335830226     0.9021684685     7.7969760557
H       14.2643855323     0.9806549486     6.7004835841
H       20.3344322213     2.6841484246     2.7711433488
H       16.1908506723     0.0667957887     5.5404601639
32
# Point -3 Energy = 0.0
C       20.6477132025     3.6592592064     7.5258691370
H       18.9845117620     3.6137379681     6.1663994817
C       19.4485515224     2.9441224315     6.9022572276
H       18.6896664855     2.7522011578     7.6717175019
H       20.5853096475     1.8021757863     5.4512560365
C       19.8221530847     1.6366638135     6.2213619913
H       18.9586463330     1.1538596220     5.7468064727
H       20.2371237352     0.9255622829     6.9437348706
H       21.4120048299     3.8727624795     6.7696780642
H       21.1079452293     3.0265411552     8.2904364043
H       20.3611203312     4.6037710192     7.9983502010
Si       16.4360721416     3.4029559862     4.3966189417
O       16.3162782025     5.0683412979     4.7384420982
O       17.9738513301     3.0610448673     3.8219852732
O       15.3295789232     2.9794244117     3.1778875651
O       16.0915755875     2.5337406887     5.7948249648
Si       16.5007158384     6.5750078913     4.4060616047
Si       13.9764065786     2.5657053063     2.5078380846
Si       18.8300773096     2.5416634559     2.5865367078
Si       15.7488515364     1.1456798788     6.4656650741
H       17.8903379898     6.8576895365     3.9072165547
H       15.5500926637     6.9620777825     3.2982708292
H       16.2703064355     7.4766589284     5.6136914700
H       12.8238706134     3.3065548862     3.0925210180
H       13.9545056737     2.8578272197     1.0327555518
H       18.4444701569     3.3201515527     1.3719118058
H       13.7110236240     1.0998035807     2.6997218515
H       18.5424241425     1.0948473276     2.3194979657
H       16.4335257251     0.9021012584     7.7966413743
H       14.2642450102     0.9807510242     6.7001008639
H       20.3342753969     2.6839234014     2.7710770489
H       16.1907495570     0.0666947953     5.5400313231
32
# Point -2 Energy = 0.0
C       20.6476960720     3.6578346197     7.5261569096
H       18.9817129831     3.6144239554     6.1674253882
C       19.4479233417     2.9455625020     6.9020574591
H       18.6905003932     2.7534229945     7.6729562361
H       20.5848670003     1.8008096419     5.4501098163
C       19.8225470874     1.6354584151     6.2212265438
H       18.9581126215     1.1550314331     5.7460750482
H       20.2382060466     0.9237155933     6.9426688956
H       21.4104680921     3.8736812186     6.7690096246
H       21.1106684628     3.0288344125     8.2921083579
H       20.3586005736     4.6029335936     7.9961927633
Si       16.4348798396     3.4045757008     4.3964750113
O       16.3157853352     5.0447139809     4.7389455873
O       17.9623924749     3.0652390905     3.8309410586
O       15.3454339569     2.9849515908     3.1896350867
O       16.0954203309     2.5469169099     5.7834579397
Si       16.5017821075     6.5821947576     4.4046143187
Si       13.9707290901     2.5640338267     2.5047554719
Si       18.8330462070     2.5398242171     2.5823781567
Si       15.7473921397     1.1405439214     6.4681386081
H       17.8907557085     6.8575665445     3.9071221260
H       15.5503714552     6.9621251343     3.2981394865
H       16.2706617634     7.4765936150     5.6136709869
H       12.8238051357     3.3067189373     3.0925155040
H       13.9544689613     2.8578860848     1.0326835068
H       18.4443811993     3.3200560467     1.3717672149
H       13.7108943177     1.0998172191     2.6997115092
H       18.5421923841     1.0946686367     2.3193848919
H       16.4334279229     0.9020269307     7.7963644254
H       14.2640922898     0.9808367212     6.6997831802
H       20.3341527625     2.6836923039     2.7710121297
H       16.1906125438     0.0666114506     5.5396821172
32
# Point -1 Energy = 0.0
C       20.6476953257     3.6564078599     7.5264288001
H       18.9789357212     3.6150916262     6.1684444859
C       19.4473155296     2.9469956710     6.9018529438
H       18.6913619198     2.7546398254     7.6741922854
H       20.5844435386     1.7994278547     5.4489712749
C       19.8229648081     1.6342405096     6.2211016668
H       18.9576092902     1.1561866093     5.7453606522
H       20.2393162435     0.9218645039     6.9416166746
H       21.4089351508     3.8745911115     6.7683222323
H       21.1134070955     3.0311420650     8.2937482317
H       20.3561033322     4.6020915684     7.9940012830
Si       16.4336911592     3.4061687375     4.3963429249
O       16.3153239152     5.0210765857     4.7392927632
O       17.9508965833     3.0694116239     3.8398388571
O       15.3612202197     2.9905005039     3.2014620864
O       16.0992368414     2.5600142941     5.7720496373
Si       16.5027960034     6.5894038201     4.4031924480
Si       13.9650527369     2.5623968564     2.5016246583
Si       18.8360633276     2.5379842418     2.5782278795
Si       15.7459003107     1.1354011181     6.4706869462
H       17.8910901535     6.8574471260     3.9070571520
H       15.5506275847     6.9621694031     3.2980429622
H       16.2709665072     7.4765376412     5.6136477554
H       12.8237647495     3.3069019785     3.0924608420
H       13.9544437649     2.8579918595     1.0325906307
H       18.4443344339     3.3199563387     1.3716522208
H       13.7107629700     1.0998906578     2.6996430945
H       18.5420009518     1.0945102025     2.3192742879
H       16.4332893744     0.9019459873     7.7961453096
H       14.2639272944     0.9809125562     6.6995307727
H       20.3340642943     2.6834551651     2.7709487070
H       16.1904394689     0.0665460978     5.5394128936
32
# Point 0 Energy = 0
C       20.6477110000     3.6549790000     7.5266840000
H       18.9761800000     3.6157410000     6.1694560000
C       19.4467280000     2.9484220000     6.9016430000
H       18.6922510000     2.7558520000     7.6754250000
H       20.5840390000     1.7980300000     5.4478400000
C       19.8234060000     1.6330100000     6.2209870000
H       18.9571360000     1.1573250000     5.7446630000
H       20.2404540000     0.9200090000     6.9405780000
H       21.4074060000     3.8754920000     6.7676150000
H       21.1161610000     3.0334640000     8.2953550000
H       20.3536290000     4.6012450000     7.9917750000
Si       16.4325060000     3.4077350000     4.3962220000
O       16.3148940000     4.9974300000     4.7394840000
O       17.9393640000     3.0735620000     3.8486780000
O       15.3769370000     2.9960700000     3.2133680000
O       16.1030250000     2.5730330000     5.7606000000
Si       16.5037570000     6.5966350000     4.4017980000
Si       13.9593780000     2.5607940000     2.4984440000
Si       18.8391290000     2.5361430000     2.5740860000
Si       15.7443760000     1.1302530000     6.4733110000
H       17.8913405600     6.8573308000     3.9070238400
H       15.5508605600     6.9622108000     3.2979838400
H       16.2712205600     7.4764908000     5.6136238400
H       12.8237502400     3.3071035200     3.0923555200
H       13.9544302400     2.8581435200     1.0324755200
H       18.4443303200     3.3198514400     1.3715668800
H       13.7106302400     1.1000235200     2.6995155200
H       18.5418503200     1.0943714400     2.3191668800
H       16.4331100800     0.9018602400     7.7959848800
H       14.2637500800     0.9809802400     6.6993448800
H       20.3340103200     2.6832114400     2.7708868800
H       16.1902300800     0.0665002400     5.5392248800
32
# Point 1 Energy = 0.0
C       20.6477432695     3.6535482168     7.5269229604
H       18.9734460171     3.6163720709     6.1704603657
C       19.4461609939     2.9498415096     6.9014280441
H       18.6931679174     2.7570594768     7.6766547794
H       20.5836537585     1.7966161929     5.4467164418
C       19.8238710686     1.6317669723     6.2208829949
H       18.9566931875     1.1584465545     5.7439825185
H       20.2416197952     0.9181492048     6.9395533356
H       21.4058807306     3.8763841997     6.7668883587
H       21.1189303948     3.0358002533     8.2969288546
H       20.3511777921     4.6003939144     7.9895145523
Si       16.4313245317     3.4092741766     4.3961126867
O       16.3144958751     4.9737747433     4.7395187814
O       17.9277950599     3.0776900319     3.8574585737