32
# Point -15 Energy = 0.0
C       20.5889792794     3.8173134661     7.4090145033
H       19.4540566430     3.4389083451     5.8115494441
C       19.3126573586     3.0554506915     6.8216302350
H       19.1998838850     2.5202617959     7.7548900580
H       20.9006150997     1.8094360370     6.3294300182
C       19.8201913052     1.6493883610     6.2171275505
H       18.8242167928     1.3469479298     6.4822210166
H       20.5278252476     0.8682622657     6.5846177264
H       21.4006568507     3.1221734218     7.1556185790
H       21.5119936620     3.5062954274     7.9541658070
H       19.8148488119     4.2139049320     8.0411447778
Si       16.3789607709     3.4389025734     4.3545320969
O       16.2530081289     5.0276358886     4.6991817651
O       17.8889168336     3.1141682245     3.7990257580
O       15.3227864439     3.0217202176     3.1748847007
O       16.0613710014     2.6028195108     5.7178605074
Si       16.4297579696     6.6285563115     4.3621907107
Si       13.9048217630     2.5775068059     2.4649673454
Si       18.7839061505     2.5860655731     2.5213452738
Si       15.7157458703     1.1546231892     6.4319596620
H       17.8136420273     6.8988790869     3.8622095133
H       15.4701358597     6.9886885413     3.2624685257
H       16.1961585274     7.5056833850     5.5757342807
H       12.7667422345     3.3157859698     3.0639706414
H       13.8923798833     2.8761981420     0.9993132051
H       18.3802346650     3.3672335778     1.3213462662
H       13.6667130297     1.1149958969     2.6656528426
H       18.4961772753     1.1416216718     2.2665569320
H       16.4104662931     0.9304716448     7.7514750983
H       14.2363185658     0.9960889001     6.6634596700
H       20.2795651237     2.7418735266     2.7126645465
H       16.1642472472     0.0954406892     5.4949563023
32
# Point -14 Energy = 0.0
C       20.5937345170     3.8042630899     7.4176545115
H       19.4398150476     3.4874860298     5.8316562623
C       19.3217702933     3.0504694767     6.8233249131
H       19.1720945294     2.5428552743     7.7679699846
H       20.9011507640     1.8366188473     6.2982526029
C       19.8224397046     1.6521744386     6.2100963937
H       18.8227172599     1.3409077236     6.4564089161
H       20.5152977614     0.8680441281     6.5947487858
H       21.3941233548     3.1174205618     7.1117351918
H       21.4988019732     3.4750020550     7.9789037461
H       19.8301263190     4.2144235397     8.0560928752
Si       16.3812478256     3.4371014316     4.3550514118
O       16.2555730042     5.0259931355     4.6990785986
O       17.8907973680     3.1119750115     3.7993849892
O       15.3245958071     3.0195332173     3.1759197233
O       16.0638436800     2.6015231620     5.7189339832
Si       16.4324822696     6.6267267280     4.3613430699
Si       13.9064014470     2.5752326535     2.4666040989
Si       18.7855757199     2.5830398065     2.5216244491
Si       15.7181559824     1.1538502506     6.4336683527
H       17.8162677121     6.8966241036     3.8608619461
H       15.4726098145     6.9865305122     3.2617287010
H       16.1993501733     7.5044236138     5.5745681302
H       12.7685906290     3.3139385862     3.0656069202
H       13.8935774374     2.8732815735     1.0008226731
H       18.3816174484     3.3638108229     1.3213818183
H       13.6681216964     1.1128410151     2.6679955559
H       18.4974991455     1.1385915516     2.2675241155
H       16.4132539311     0.9301100694     7.7531048591
H       14.2388171423     0.9955868461     6.6656587463
H       20.2812421573     2.7387782439     2.7124454829
H       16.1662886848     0.0941445003     5.4970135516
32
# Point -13 Energy = 0.0
C       20.5990856361     3.7961915751     7.4245593182
H       19.3961877725     3.5137518365     5.8433847130
C       19.3325455478     3.0461652711     6.8265796541
H       19.1280748453     2.5494776509     7.7679841063
H       20.9006263548     1.8623917233     6.2621956641
C       19.8240589634     1.6554098178     6.2035650712
H       18.8218895845     1.3353083695     6.4348449081
H       20.5031337279     0.8691318584     6.6040846596
H       21.3900640573     3.1238219367     7.0668560778
H       21.4868184676     3.4504646831     8.0004513637
H       19.8460139506     4.2177031905     8.0702592061
Si       16.3853990223     3.4358588852     4.3568788381
O       16.2600082309     5.0249377449     4.7001512391
O       17.8945790940     3.1102647744     3.8011977520
O       15.3283547177     3.0178372454     3.1782107670
O       16.0680545966     2.6008978851     5.7213547094
Si       16.4371374787     6.6254543726     4.3615622639
Si       13.9099779936     2.5734258063     2.4694176523
Si       18.7892364159     2.5803789325     2.5234696315
Si       15.7222169607     1.1538113004     6.4368084158
H       17.8208696232     6.8948583256     3.8606706818
H       15.4771096624     6.9848655611     3.2619519723
H       16.2043949244     7.5038190623     5.5743823922
H       12.7724039102     3.3126289352     3.0682719230
H       13.8968953784     2.8707199164     1.0034854284
H       18.3851036575     3.3606690804     1.3228912949
H       13.6714798684     1.1111744337     2.6716083900
H       18.5008011054     1.1359134032     2.2701458731
H       16.4175829590     0.9305695373     7.7562381867
H       14.2429449376     0.9958684759     6.6691838224
H       20.2848984166     2.7360298087     2.7138993711
H       16.1700327388     0.0935006005     5.5006200127
32
# Point -12 Energy = 0.0
C       20.6039699471     3.7885910190     7.4317579677
H       19.3595883942     3.5401774770     5.8589765343
C       19.3426941785     3.0428137201     6.8299232259
H       19.0887996505     2.5605162012     7.7680030526
H       20.9004605674     1.8764953101     6.2208755416
C       19.8246340580     1.6592044133     6.1979885235
H       18.8220501861     1.3210548449     6.4079382022
H       20.4886517873     0.8710242261     6.6158026309
H       21.3878696382     3.1356770215     7.0260530601
H       21.4723709654     3.4249351100     8.0230056251
H       19.8635285361     4.2237986997     8.0850924513
Si       16.3890320579     3.4349419505     4.3585723520
O       16.2636616486     5.0242149863     4.7009589708
O       17.8979299014     3.1090643814     3.8030059673
O       15.3317402653     3.0162173235     3.1803271037
O       16.0717795739     2.6006562259     5.7236839465
Si       16.4407924113     6.6245148229     4.3614057367
Si       13.9132973873     2.5714271105     2.4719923965
Si       18.7926338621     2.5782638660     2.5254134110
Si       15.7259612358     1.1541595064     6.4399446789
H       17.8244649773     6.8935955174     3.8601785040
H       15.4806306633     6.9833038928     3.2617060610
H       16.2082232632     7.5036051902     5.5737369009
H       12.7758071289     3.3110019518     3.0705620848
H       13.9000129974     2.8678516683     1.0058861034
H       18.3882918851     3.3579195388     1.3244116383
H       13.6747873107     1.1092961058     2.6750782444
H       18.5040746693     1.1337186192     2.2729578395
H       16.4215382436     0.9316230267     7.7594324503
H       14.2467639505     0.9963323071     6.6726154433
H       20.2882548300     2.7340666227     2.7155428705
H       16.1736844281     0.0932393428     5.5043358411
32
# Point -11 Energy = 0.0
C       20.6045997896     3.7837568597     7.4425716459
H       19.3215630993     3.5660936000     5.8796236243
C       19.3491246291     3.0416693650     6.8365179651
H       19.0468525718     2.5759486669     7.7698575855
H       20.9033585625     1.8421993014     6.1384707425
C       19.8216613849     1.6647216897     6.1971289776
H       18.8290756967     1.2637184165     6.3416061379
H       20.4697606509     0.8789139597     6.6399813879
H       21.4095136111     3.1801116482     7.0034483755
H       21.4509785660     3.4005620637     8.0503876384
H       19.9032426295     4.2578883089     8.1138333600
Si       16.3909268041     3.4348269672     4.3609302165
O       16.2650354719     5.0244014253     4.7017296266
O       17.9000544215     3.1087023753     3.8068498804
O       15.3344312659     3.0147850340     3.1823908638
O       16.0727720456     2.6016790585     5.7267279163
Si       16.4421889236     6.6243846994     4.3607575108
Si       13.9165811977     2.5691195456     2.4735080103
Si       18.7959480213     2.5766523314     2.5303343769
Si       15.7266150799     1.1559861342     6.4440529199
H       17.8261726474     6.8931790481     3.8602387866
H       15.4827452870     6.9819817452     3.2600401225
H       16.2086473072     7.5046178411     5.5720757637
H       12.7785595902     3.3091055487     3.0705728720
H       13.9042610136     2.8641213257     1.0071065486
H       18.3922647186     3.3551557558     1.3282823002
H       13.6781279653     1.1071473816     2.6778408450
H       18.5077076384     1.1318864933     2.2790516167
H       16.4213472041     0.9347646724     7.7642568220
H       14.2473259970     0.9981214267     6.6758545574
H       20.2913450131     2.7329211457     2.7213421809
H       16.1751917951     0.0941781650     5.5097941821
32
# Point -10 Energy = 0.0
C       20.6041493058     3.7724556313     7.4548311804
H       19.2833889365     3.5845322258     5.9032225142
C       19.3541995614     3.0349111520     6.8441603286
H       19.0041494418     2.5870657113     7.7707717098
H       20.8931861417     1.8192819100     6.0506445178
C       19.8164069380     1.6645009915     6.1971599562
H       18.8304604063     1.2250425307     6.2678881206
H       20.4473064829     0.8837185334     6.6693056403
H       21.4514274391     3.2578875486     6.9835054174
H       21.4215424873     3.3586869744     8.0793295529
H       19.9651523653     4.3169741565     8.1369328064
Si       16.3925002666     3.4325306209     4.3636484905
O       16.2669216481     5.0222499871     4.7038938063
O       17.9018408247     3.1056385345     3.8113200281
O       15.3369324502     3.0125940010     3.1841919133
O       16.0725091749     2.5997878012     5.7294655246
Si       16.4451568768     6.6220410397     4.3626415085
Si       13.9196403831     2.5673727759     2.4740035175
Si       18.7990183208     2.5726696973     2.5358128375
Si       15.7249251154     1.1546204039     6.4467658298
H       17.8297711842     6.8900669654     3.8634590968
H       15.4869987551     6.9797576934     3.2608405873
H       16.2107754068     7.5027366556     5.5734649418
H       12.7813352537     3.3080407954     3.0696959207
H       13.9089324007     2.8619493572     1.0075041175
H       18.3968435361     3.3510713674     1.3331077184
H       13.6803102864     1.1055636988     2.6785181923
H       18.5103197874     1.1280247509     2.2846342416
H       16.4182554949     0.9334112475     7.7677585118
H       14.2453771884     0.9974384596     6.6771154875
H       20.2942213966     2.7283886919     2.7282855567
H       16.1740253428     0.0922900899     5.5132857865
32
# Point -9 Energy = 0.0
C       20.6057615369     3.7600947215     7.4665719003
H       19.2474131916     3.5994242755     5.9283917108
C       19.3611371712     3.0269818925     6.8519027745
H       18.9645380461     2.5985940051     7.7701765835
H       20.8764165237     1.8110703288     5.9712176386
C       19.8126849230     1.6629466585     6.1976706083
H       18.8311506166     1.2045690813     6.2014784262
H       20.4253960322     0.8872802979     6.6981105362
H       21.4753259452     3.3297189872     6.9535821565
H       21.3913992967     3.3142304566     8.1068979563
H       20.0132225283     4.3658051400     8.1410284590
Si       16.3955262909     3.4298481900     4.3670902266
O       16.2704846154     5.0196600529     4.7071079502
O       17.9049426013     3.1021403759     3.8161729474
O       15.3406273316     3.0103484803     3.1868313044
O       16.0738666036     2.5972840243     5.7328255289
Si       16.4499007385     6.6193052602     4.3658486065
Si       13.9237187427     2.5658504203     2.4755137329
Si       18.8031130837     2.5684036712     2.5414085563
Si       15.7248418453     1.1525416731     6.4498889191
H       17.8350790854     6.8865176104     3.8677987291
H       15.4928620451     6.9774477996     3.2632102815
H       16.2149926738     7.5002565427     5.5763876244
H       12.7853164538     3.3072023860     3.0701840804
H       13.9143828894     2.8602817277     1.0089759766
H       18.4023047334     3.3469727218     1.3382740811
H       13.6834009085     1.1041902544     2.6799747084
H       18.5137630375     1.1239571650     2.2901117619
H       16.4169911987     0.9310239685     7.7714991210
H       14.2450632495     0.9961485928     6.6790296061
H       20.2981720868     2.7233842795     2.7350997882
H       16.1741845741     0.0898209585     5.5169030789
32
# Point -8 Energy = 0.0
C       20.6087526440     3.7477838877     7.4772276021
H       19.2130136661     3.6115401236     5.9544187912
C       19.3693179852     3.0187913396     6.8592663289
H       18.9274636343     2.6114608369     7.7676755202
H       20.8553215686     1.8093235308     5.8978798383
C       19.8102093941     1.6609478825     6.1984454253
H       18.8332449794     1.1929401595     6.1404426825
H       20.4038930248     0.8903414188     6.7258530622
H       21.4867577484     3.3951796667     6.9213347848
H       21.3617943798     3.2723853939     8.1327220437
H       20.0529092210     4.4054774283     8.1361351257
Si       16.3993367591     3.4271442784     4.3707486632
O       16.2749206599     5.0170254206     4.7106788404
O       17.9087177335     3.0986373296     3.8209323265
O       15.3448776473     3.0081835368     3.1898567239
O       16.0762550013     2.5946654873     5.7364016732
Si       16.4554769618     6.6165463085     4.3694959563
Si       13.9282122877     2.5644820967     2.4776458580
Si       18.8076301302     2.5642107864     2.5467024784
Si       15.7259042346     1.1503022592     6.4531884960
H       17.8411276720     6.8829602832     3.8723357285
H       15.4993547191     6.9752089736     3.2662286640
H       16.2202855722     7.4976687249     5.5798590501
H       12.7898378136     3.3064921061     3.0715635642
H       13.9199755758     2.8588745998     1.0110939210
H       18.4079726166     3.3430402670     1.3432721601
H       13.6869230370     1.1029601724     2.6819912086
H       18.5175585760     1.1199859326     2.2952367889
H       16.4171193939     0.9283701887     7.7752680262
H       14.2459372981     0.9947039866     6.6813895818
H       20.3025830364     2.7184156929     2.7413397864
H       16.1752956282     0.0872519007     5.5205346595
32
# Point -7 Energy = 0.0
C       20.6125654015     3.7355979675     7.4867828901
H       19.1797996644     3.6209292633     5.9810410345
C       19.3782145495     3.0104015160     6.8661705113
H       18.8924045432     2.6256549966     7.7631925397
H       20.8305904330     1.8100873341     5.8290777733
C       19.8086846464     1.6585679335     6.1995266689
H       18.8375494905     1.1857800023     6.0831295889
H       20.3825897518     0.8931327959     6.7528251555
H       21.4905129201     3.4575160578     6.8902657411
H       21.3324316262     3.2335680920     8.1570223757
H       20.0891360170     4.4394162296     8.1264301767
Si       16.4035131496     3.4244587846     4.3744109333
O       16.2797932017     5.0143882016     4.7143763223
O       17.9127734351     3.0951677707     3.8254550438
O       15.3493181433     3.0061288530     3.1930110002
O       16.0791961615     2.5919814032     5.7399733829
Si       16.4614614498     6.6138040998     4.3733493773
Si       13.9327879742     2.5632900627     2.4800825469
Si       18.8122348904     2.5601217068     2.5515949967
Si       15.7276044164     1.1479560202     6.4564394567
H       17.8475150669     6.8794335596     3.8768955887
H       15.5061011031     6.9730716239     3.2696158154
H       16.2261742024     7.4950214408     5.5836283851
H       12.7945380315     3.3059346334     3.0734608889
H       13.9254425147     2.8577396442     1.0135375287
H       18.4135649486     3.3392953382     1.3479783176
H       13.6905370037     1.1018968200     2.6842505777
H       18.5213855500     1.1161394705     2.2999075223
H       16.4180736773     0.9255144137     7.7788730608
H       14.2474810606     0.9931577409     6.6839054691
H       20.3071111663     2.7135174261     2.7469716285
H       16.1768944091     0.0846307973     5.5239830613
32
# Point -6 Energy = 0.0
C       20.6169035554     3.7235466635     7.4952891679
H       19.1476236335     3.6276178653     6.0080746984
C       19.3875470886     3.0018267331     6.8726121358
H       18.8591055067     2.6411005569     7.7567203114
H       20.8026247746     1.8114848744     5.7640915250
C       19.8080260467     1.6558189520     6.2010019000
H       18.8445488083     1.1809426163     6.0286245995
H       20.3614668814     0.8958563279     6.7793659088
H       21.4888726841     3.5184761841     6.8618192813
H       21.3030075770     3.1976042331     8.1799981011
H       20.1242917398     4.4695001564     8.1134981971
Si       16.4078459058     3.4218097586     4.3779922785
O       16.2848846813     5.0117665620     4.7181117390
O       17.9169157402     3.0917479784     3.8296991750
O       15.3537722418     3.0042035831     3.1961794372
O       16.0824407925     2.5892503229     5.7434472420
Si       16.4676480602     6.6110965116     4.3773247964
Si       13.9372887791     2.5622950326     2.4826689634
Si       18.8167691942     2.5561515935     2.5560694516
Si       15.7296711076     1.1455220364     6.4595390602
H       17.8540497817     6.8759536875     3.8814333148
H       15.5129266473     6.9710546063     3.2732602745
H       16.2324188872     7.4923329154     5.5876048676
H       12.7992437853     3.3055520080     3.0756888747
H       13.9306686993     2.8568974427     1.0161513789
H       18.4189585334     3.3357534238     1.3523641660
H       13.6940783946     1.1010212529     2.6865916065
H       18.5250913665     1.1124333020     2.3040994919
H       16.4195450537     0.9224750591     7.7822313430
H       14.2494163533     0.9915306417     6.6864326680
H       20.3115931817     2.7087029561     2.7520210274
H       16.1787351171     0.0819761625     5.5271583772
32
# Point -5 Energy = 0.0
C       20.6215973735     3.7116426429     7.5027944850
H       19.1164424613     3.6316568200     6.0353453975
C       19.3971553163     2.9930896329     6.8785959318
H       18.8274403103     2.6577198762     7.7482549141
H       20.7717502871     1.8125329760     5.7026283299
C       19.8082374295     1.6527168575     6.2029462831
H       18.8545815859     1.1772423808     5.9764322072
H       20.3405702853     0.8986944603     6.8057466400
H       21.4830073065     3.5788612299     6.8366684142
H       21.2733072591     3.1642983550     8.2017876602
H       20.1595889035     4.4967209748     8.0980314625
Si       16.4122148338     3.4192150531     4.3814506301
O       16.2900674374     5.0091784191     4.7218394666
O       17.9210341087     3.0883970378     3.8336477954
O       15.3581396917     3.0024234549     3.1993029603
O       16.0858470594     2.5864908762     5.7467768156
Si       16.4739129434     6.6084413124     4.3813779499
Si       13.9416266266     2.5615105906     2.4853231159
Si       18.8211442641     2.5523195177     2.5601239952
Si       15.7319522304     1.1430192155     6.4624366457
H       17.8606160138     6.8725395615     3.8859271019
H       15.5197252583     6.9691737069     3.2771016127
H       16.2388747039     7.4896216048     5.5917396225
H       12.8038562086     3.3053569999     3.0781461571
H       13.9355899833     2.8563603582     1.0188529207
H       18.4240835699     3.3324321373     1.3564204459
H       13.6974574204     1.1003470195     2.6889297937
H       18.5285930504     1.1088860410     2.3078075078
H       16.4213598883     0.9192728890     7.7853038884
H       14.2515873682     0.9898401366     6.6888963514
H       20.3159370388     2.7039931775     2.7565105977
H       16.1806823820     0.0793066841     5.5300182601
32
# Point -4 Energy = 0.0
C       20.6265409082     3.6999041531     7.5093394891
H       19.0862592372     3.6331241272     6.0626806975
C       19.4069385807     2.9842238147     6.8841240856
H       18.7973448148     2.6754379890     7.7377853220
H       20.7382688712     1.8126605011     5.6446068340
C       19.8093521243     1.6492854263     6.2054147607
H       18.8678995203     1.1739550621     5.9262894682
H       20.3199524048     0.9018121930     6.8321704386
H       21.4735850265     3.6389707201     6.8151501251
H       21.2431774873     3.1335020210     8.2224859300
H       20.1956830379     4.5216056592     8.0803821206
Si       16.4165419513     3.4166937948     4.3847606354
O       16.2952548087     5.0066430831     4.7255295401
O       17.9250571938     3.0851380230     3.8372910035
O       15.3623555055     3.0008017171     3.2023468202
O       16.0893263162     2.5837238688     5.7499354489
Si       16.4801674490     6.6058576556     4.3854771635
Si       13.9457449611     2.5609438388     2.4879973795
Si       18.8253031325     2.5486490379     2.5637584948
Si       15.7343568777     1.1404687141     6.4651053324
H       17.8671291979     6.8692139622     3.8903581770
H       15.5264179046     6.9674426531     3.2810980272
H       16.2454381045     7.4869082580     5.5959968359
H       12.8083103428     3.3053540581     3.0807724507
H       13.9401632795     2.8561325114     1.0215937581
H       18.4288923168     3.3293512559     1.3601414344
H       13.7006203970     1.0998808954     2.6912183260
H       18.5318409343     1.1055198478     2.3110317451
H       16.4234150285     0.9159340295     7.7880710583
H       14.2539013903     0.9881028920     6.6912555481
H       20.3200834146     2.6994170366     2.7604544707
H       16.1826580802     0.0766432001     5.5325424388
32
# Point -3 Energy = 0.0
C       20.6316639785     3.6883517713     7.5149614268
H       19.0570994105     3.6321238072     6.0899127210
C       19.4168290467     2.9752719220     6.8891958980
H       18.7687868926     2.6941819315     7.7252932398
H       20.7024732868     1.8115000152     5.5900474699
C       19.8114065775     1.6455561843     6.2084429484
H       18.8846929223     1.1706035146     5.8780672599
H       20.2996466819     0.9053615040     6.8587844341
H       21.4610333082     3.6988367883     6.7974340512
H       21.2124996185     3.1051055423     8.2421580721
H       20.2329472717     4.5444249787     8.0607664858
Si       16.4207719293     3.4142658253     4.3879047529
O       16.3003811403     5.0041807045     4.7291586120
O       17.9289348033     3.0819969819     3.8406213724
O       15.3663736733     2.9993491239     3.2052885333
O       16.0928192747     2.5809716292     5.7529063301
Si       16.4863396894     6.6033655272     4.3895950540
Si       13.9496043513     2.5605959838     2.4906622258
Si       18.8292061470     2.5451670534     2.5669725110
Si       15.7368288786     1.1378932896     6.4675308723
H       17.8735191400     6.8660025897     3.8947065739
H       15.5329374990     6.9658730651     3.2852152818
H       16.2520252567     7.4842152757     5.6003449124
H       12.8125592458     3.3055402191     3.0835290682
H       13.9443565377     2.8562105902     1.0243433718
H       18.4333483662     3.3265318986     1.3635218441
H       13.7035342369     1.0996235137     2.6934309050
H       18.5348043833     1.1023594091     2.3137746719
H       16.4256474558     0.9124888781     7.7905234221
H       14.2563016133     0.9863346332     6.6934876561
H       20.3239907289     2.6950098290     2.7638606622
H       16.1846172542     0.0740080205     5.5347227193
32
# Point -2 Energy = 0.0
C       20.6369189443     3.6770048304     7.5196979821
H       19.0290008776     3.6287852834     6.1168818862
C       19.4267788202     2.9662836376     6.8938088020
H       18.7417523994     2.7138798582     7.7107547187
H       20.6646505890     1.8087934943     5.5390151054
C       19.8144281476     1.6415681983     6.2120489798
H       18.9051033291     1.1668577251     5.8317165493
H       20.2796561267     0.9094856285     6.8856894686
H       21.4456598735     3.7583467165     6.7835974832
H       21.1811709707     3.0790211376     8.2608471308
H       20.2716048131     4.5652989738     8.0393515812
Si       16.4248631072     3.4119509370     4.3908697347
O       16.3053927910     5.0018115205     4.7327064427
O       17.9326296735     3.0790017413     3.8436327277
O       15.3701598509     2.9980736628     3.2081126674
O       16.0962846397     2.5782571715     5.7556783827
Si       16.4923665969     6.6009849877     4.3937054939
Si       13.9531761156     2.5604626173     2.4932987497
Si       18.8328245466     2.5419024709     2.5697653887
Si       15.7393338512     1.1353164751     6.4697068269
H       17.8797229439     6.8629329149     3.8989502748
H       15.5392227631     6.9644741547     3.2894222225
H       16.2585625188     7.4815658838     5.6047531961
H       12.8165669306     3.3059056917     3.0863897799
H       13.9481447283     2.8565843203     1.0270816555
H       18.4374223248     3.3239954827     1.3665563795
H       13.7061792807     1.0995696867     2.6955537211
H       18.5374652848     1.0994307205     2.3160405096
H       16.4280192361     0.9089708842     7.7926579906
H       14.2587537737     0.9845497770     6.6955813077
H       20.3276284877     2.6908113506     2.7667335037
H       16.1865362636     0.0714240653     5.5365587173
32
# Point -1 Energy = 0.0
C       20.6422742005     3.6658781357     7.5235901036
H       19.0020099784     3.6232636937     6.1434404534
C       19.4367533602     2.9573140062     6.8979592043
H       18.7162385482     2.7344603694     7.6941419463
H       20.6250817106     1.8043501704     5.4915879849
C       19.8184294533     1.6373680710     6.2162348450
H       18.9292303810     1.1624851874     5.7872378665
H       20.2599483620     0.9143227130     6.9129461157
H       21.4277120735     3.8173091713     6.7736623383
H       21.1490926201     3.0551685908     8.2785773985
H       20.3117983159     4.5842524454     8.0162965513
Si       16.4287830060     3.4097681442     4.3936450341
O       16.3102438291     4.9995551575     4.7361542856
O       17.9361133481     3.0761807589     3.8463197834
O       15.3736877104     2.9969801870     3.2108083494
O       16.0996932639     2.5756034915     5.7582443757
Si       16.4981903633     6.5987354502     4.3977822210
Si       13.9564391168     2.5605337948     2.4958949807
Si       18.8361372339     2.5388848510     2.5721366001
Si       15.7418523488     1.1327619343     6.4716323219
H       17.8856819444     6.8600330763     3.9030649743
H       15.5452156671     6.9632523376     3.2936886083
H       16.2649821432     7.4789834296     5.6091904369
H       12.8203048818     3.3064342467     3.0893362250
H       13.9515079223     2.8572366166     1.0297952255
H       18.4410897925     3.3217625482     1.3692397802
H       13.7085455003     1.0997085360     2.6975814957
H       18.5398146052     1.0967598187     2.3178352645
H       16.4305095249     0.9054156373     7.7944765403
H       14.2612390546     0.9827612083     6.6975328952
H       20.3309739506     2.6868640971     2.7690752284
H       16.1884063892     0.0689141240     5.5380559260
32
# Point 0 Energy = 0
C       20.6477110000     3.6549790000     7.5266840000
H       18.9761800000     3.6157410000     6.1694560000
C       19.4467280000     2.9484220000     6.9016430000
H       18.6922510000     2.7558520000     7.6754250000
H       20.5840390000     1.7980300000     5.4478400000
C       19.8234060000     1.6330100000     6.2209870000
H       18.9571360000     1.1573250000     5.7446630000
H       20.2404540000     0.9200090000     6.9405780000
H       21.4074060000     3.8754920000     6.7676150000
H       21.1161610000     3.0334640000     8.2953550000
H       20.3536290000     4.6012450000     7.9917750000
Si       16.4325060000     3.4077350000     4.3962220000
O       16.3148940000     4.9974300000     4.7394840000
O       17.9393640000     3.0735620000     3.8486780000
O       15.3769370000     2.9960700000     3.2133680000
O       16.1030250000     2.5730330000     5.7606000000
Si       16.5037570000     6.5966350000     4.4017980000
Si       13.9593780000     2.5607940000     2.4984440000
Si       18.8391290000     2.5361430000     2.5740860000
Si       15.7443760000     1.1302530000     6.4733110000
H       17.8913405600     6.8573308000     3.9070238400
H       15.5508605600     6.9622108000     3.2979838400
H       16.2712205600     7.4764908000     5.6136238400
H       12.8237502400     3.3071035200     3.0923555200
H       13.9544302400     2.8581435200     1.0324755200
H       18.4443303200     3.3198514400     1.3715668800
H       13.7106302400     1.1000235200     2.6995155200
H       18.5418503200     1.0943714400     2.3191668800
H       16.4331100800     0.9018602400     7.7959848800
H       14.2637500800     0.9809802400     6.6993448800
H       20.3340103200     2.6832114400     2.7708868800
H       16.1902300800     0.0665002400     5.5392248800
32
# Point 1 Energy = 0.0
C       20.6532160320     3.6443211686     7.5290193506
H       18.9515435998     3.6063952420     6.1948130967
C       19.4566860510     2.9396617564     6.9048584557
H       18.6698102463     2.7779732654     7.6545837243
H       20.5417753538     1.7897290955     5.4078268859
C       19.8293371780     1.6285470237     6.2262822884
H       18.9888459979     1.1512552468     5.7040623416
H       20.2210812964     0.9266791883     6.9685781289
H       21.3849272304     3.9326635969     6.7653974403
H       21.0822712273     3.0138433248     8.3111572485
H       20.3971620178     4.6162041777     7.9659680990
Si       16.4360139939     3.4058665068     4.3985950247
O       16.3193114447     4.9954518264     4.7426812173
O       17.9423670498     3.0711703783     3.8507054628