32
# Point -15 Energy = 0.0
C       20.6887055216     3.6596876472     7.5118470639
H       18.6459883488     4.0897523856     5.6413922948
C       19.5824555517     2.9235949110     6.8572372987
H       17.8783711056     2.5537429769     8.5232903529
H       20.8307484244     1.8480670616     5.2118594466
C       19.8441213998     1.6424882134     6.2153971544
H       18.9532261097     1.1315958754     5.7096409786
H       20.3400739514     0.8136764326     7.0282794289
H       21.4226437741     3.8637383532     6.7681542042
H       21.1282416716     3.0759946936     8.2195820145
H       20.4622021551     4.4152973801     7.8833105933
Si       16.4572241306     3.4064674777     4.4002983241
O       16.3429326029     4.9961479881     4.7441511852
O       17.9605335002     3.0708762522     3.8449555289
O       15.3947074889     2.9955432493     3.2238567402
O       16.1352070745     2.5727314528     5.7674578851
Si       16.5311929757     6.5953328425     4.4047194266
Si       13.9726368518     2.5614697940     2.5167874029
Si       18.8525706508     2.5320785070     2.5647766183
Si       15.7789734283     1.1301983067     6.4825455595
H       17.9161000524     6.8546100832     3.9018948875
H       15.5722274757     6.9612973463     3.3063654409
H       16.3064013000     7.4756634268     5.6176437405
H       12.8411093456     3.3090171648     3.1169163012
H       13.9598255937     2.8585401139     1.0508445836
H       18.4514026739     3.3158025621     1.3643624636
H       13.7236368349     1.1009962896     2.7195870164
H       18.5524796960     1.0905444744     2.3121108554
H       16.4752225590     0.9019690092     7.8013535722
H       14.2996377410     0.9825350610     6.7172217554
H       20.3485965362     2.6779764334     2.7529339303
H       16.2185840741     0.0658682344     5.5463913112
32
# Point -14 Energy = 0.0
C       20.6859037376     3.6596733443     7.5130633003
H       18.6704346752     4.0584652312     5.6747402092
C       19.5732662821     2.9253522387     6.8603589617
H       17.9342616379     2.5653704836     8.4683547944
H       20.8136654653     1.8446182750     5.2276042562
C       19.8422795042     1.6416292995     6.2159327292
H       18.9529527488     1.1330946790     5.7122301214
H       20.3329873714     0.8206896488     7.0227587389
H       21.4214209277     3.8648989907     6.7682233777
H       21.1274540037     3.0734259621     8.2247844493
H       20.4550236987     4.4280222858     7.8907953740
Si       16.4554904799     3.4066044653     4.3999587786
O       16.3409455271     4.9962854229     4.7437649957
O       17.9590529924     3.0711323672     3.8451617163
O       15.3934512928     2.9955928772     3.2230877016
O       16.1329680435     2.5727929742     5.7669257772
Si       16.5292258705     6.5954734500     4.4044467266
Si       13.9716939263     2.5613973135     2.5154916782
Si       18.8516376218     2.5324386443     2.5653704413
Si       15.7765875864     1.1302340950     6.4818438732
H       17.9143170501     6.8548661318     3.9021807124
H       15.5706764500     6.9613920007     3.3057101522
H       16.3038828109     7.4757733940     5.6172921351
H       12.8398709512     3.3088407251     3.1151940148
H       13.9594064882     2.8584709450     1.0495427368
H       18.4509008141     3.3161515701     1.3648060176
H       13.7227450322     1.1008999717     2.7181896021
H       18.5517629373     1.0908828696     2.3125523860
H       16.4723190467     0.9020016066     7.8009214198
H       14.2971631468     0.9824356516     6.7159194971
H       20.3475830379     2.6784410245     2.7541293221
H       16.2166494411     0.0659540611     5.5458293631
32
# Point -13 Energy = 0.0
C       20.6831114351     3.6596157255     7.5142481547
H       18.6945529801     4.0271341946     5.7083593617
C       19.5640968933     2.9270950133     6.8634576847
H       17.9899044064     2.5772721083     8.4131703178
H       20.7966801033     1.8411870477     5.2433493205
C       19.8405040045     1.6408029623     6.2164406344
H       18.9527566655     1.1346265347     5.7147761016
H       20.3259611331     0.8277106167     7.0171859285
H       21.4202287457     3.8660055620     6.7682800837
H       21.1266624254     3.0708183748     8.2299669620
H       20.4478360501     4.4406997196     7.8982450441
Si       16.4537687118     3.4067334492     4.3996300326
O       16.3389746827     4.9964148970     4.7433906662
O       17.9575819447     3.0713772895     3.8453747375
O       15.3922047883     2.9956398313     3.2223299337
O       16.1307424423     2.5728480064     5.7664055407
Si       16.5272775161     6.5956058746     4.4041862756
Si       13.9707588472     2.5613279806     2.5142079087
Si       18.8507092949     2.5327860731     2.5659687736
Si       15.7742135705     1.1302646518     6.4811557256
H       17.9125518251     6.8551112877     3.9024754124
H       15.5691422726     6.9614811725     3.3050699626
H       16.3013881496     7.4758749671     5.6169536210
H       12.8386435766     3.3086702977     3.1134856385
H       13.9589949787     2.8584071801     1.0482534916
H       18.4504023408     3.3164892542     1.3652555972
H       13.7218564167     1.1008073366     2.7168022099
H       18.5510470204     1.0912093473     2.3129987699
H       16.4694300328     0.9020280006     7.8005009718
H       14.2947008653     0.9823347092     6.7146345489
H       20.3465748210     2.6788894361     2.7553253226
H       16.2147216594     0.0660330977     5.5452806256
32
# Point -12 Energy = 0.0
C       20.6803286086     3.6595149791     7.5154014068
H       18.7183387037     3.9957587341     5.7422483390
C       19.5549474299     2.9288231780     6.8665334439
H       18.0453028465     2.5894453831     8.3577422847
H       20.7797907406     1.8377729371     5.2590941126
C       19.8387948055     1.6400091181     6.2169219244
H       18.9526376708     1.1361908444     5.7172805789
H       20.3189960756     0.8347400717     7.0115623717
H       21.4190669017     3.8670582158     6.7683237739
H       21.1258671837     3.0681722440     8.2351292462
H       20.4406391741     4.4533298752     7.9056593090
Si       16.4520589251     3.4068545580     4.3993118044
O       16.3370202421     4.9965365465     4.7430279146
O       17.9561204681     3.0716110535     3.8455943843
O       15.3909681114     2.9956842816     3.2215831021
O       16.1285302470     2.5728966928     5.7658968763
Si       16.5253481950     6.5957302420     4.4039378045
Si       13.9698317631     2.5612620276     2.5129356897
Si       18.8497858165     2.5331207702     2.5665714478
Si       15.7718512316     1.1302901384     6.4804807920
H       17.9108047054     6.8553455958     3.9027787882
H       15.5676252997     6.9615650429     3.3044445517
H       16.2989175868     7.4759682856     5.6166279238
H       12.8374273733     3.3085061745     3.1117907091
H       13.9585913002     2.8583490411     1.0469764404
H       18.4499075078     3.3168156146     1.3657110121
H       13.7209710589     1.1007186289     2.7154244282
H       18.5503320141     1.0915239018     2.3134498206
H       16.4665552885     0.9020483076     7.8000919417
H       14.2922507213     0.9822324818     6.7133665094
H       20.3455720366     2.6793215525     2.7565218409
H       16.2128005666     0.0661054815     5.5447447872
32
# Point -11 Energy = 0.0
C       20.6775552844     3.6593712696     7.5165228261
H       18.7417872981     3.9643384253     5.7764057399
C       19.5458179382     2.9305366913     6.8695862160
H       18.1004603773     2.6018878699     8.3020759572
H       20.7629957889     1.8343755398     5.2748381234
C       19.8371518003     1.6392477001     6.2173776419
H       18.9525955621     1.1377870461     5.7197451870
H       20.3120930091     0.8417787380     7.0058894105
H       21.4179350951     3.8680570655     6.7683538830
H       21.1250685538     3.0654878367     8.2402709690
H       20.4334330985     4.4659129245     7.9130378803
Si       16.4503612134     3.4069679157     4.3990038204
O       16.3350823657     4.9966505029     4.7426764652
O       17.9546686691     3.0718336958     3.8458204541
O       15.3897413927     2.9957263874     3.2208468837
O       16.1263314358     2.5729391725     5.7653994944
Si       16.5234381696     6.5958466736     4.4037010481
Si       13.9689128179     2.5611996682     2.5116746320
Si       18.8488673278     2.5334427175     2.5671782999
Si       15.7695004323     1.1303107110     6.4798187598
H       17.9090759960     6.8555691031     3.9030906410
H       15.5661258629     6.9616437829     3.3038336051
H       16.2964713715     7.4760534857     5.6163147723
H       12.8362224856     3.3083486239     3.1101087801
H       13.9581956782     2.8582967294     1.0457111906
H       18.4494165576     3.3171306531     1.3661720760
H       13.7200890320     1.1006340735     2.7140558633
H       18.5496179891     1.0918265307     2.3139053580
H       16.4636946002     0.9020626443     7.7996940542
H       14.2898125523     0.9821292055     6.7121149928
H       20.3445748302     2.6797372708     2.7577187858
H       16.2108860145     0.0661713457     5.5442215490
32
# Point -10 Energy = 0.0
C       20.6747915190     3.6591847382     7.5176121729
H       18.7648942264     3.9328729571     5.8108301731
C       19.5367084670     2.9322355277     6.8726159778
H       18.1553803993     2.6145971593     8.2461764973
H       20.7462936701     1.8309944915     5.2905808606
C       19.8355748710     1.6385186589     6.2178088170
H       18.9526301234     1.1394146141     5.7221715322
H       20.3052527149     0.8488273294     7.0001683551
H       21.4168330502     3.8690021893     6.7683698302
H       21.1242668367     3.0627653739     8.2453917724
H       20.4262179144     4.4784490170     7.9203804774
Si       16.4486756658     3.4070736423     4.3987058151
O       16.3331612025     4.9967568934     4.7423360488
O       17.9532266495     3.0720452555     3.8460527491
O       15.3885247573     2.9957662970     3.2201209667
O       16.1241459898     2.5729755804     5.7649131153
Si       16.5215476816     6.5959552873     4.4034757455
Si       13.9680021503     2.5611410973     2.5104243617
Si       18.8479539649     2.5337519024     2.5677891699
Si       15.7671610466     1.1303265212     6.4791693287
H       17.9073659793     6.8557818586     3.9034107725
H       15.5646442696     6.9617175537     3.3032368145
H       16.2940497310     7.4761307000     5.6160138989
H       12.8350290508     3.3081978911     3.1084394224
H       13.9578083281     2.8582504257     1.0444573651
H       18.4489297209     3.3174343737     1.3666386065
H       13.7192104116     1.1005538760     2.7126961393
H       18.5489050173     1.0921172352     2.3143652083
H       16.4608477703     0.9020711271     7.7993070447
H       14.2873862088     0.9820251044     6.7108796297
H       20.3435833422     2.6801365012     2.7589160666
H       16.2089778693     0.0662308199     5.5437106248
32
# Point -9 Energy = 0.0
C       20.6720373982     3.6589555030     7.5186691993
H       18.7876549620     3.9013621292     5.8455202537
C       19.5276190678     2.9339196770     6.8756227066
H       18.2100662934     2.6275708698     8.1900489676
H       20.7296828165     1.8276294664     5.3063218476
C       19.8340638882     1.6378219621     6.2182164665
H       18.9527411255     1.1410730583     5.7245611928
H       20.2984759457     0.8558865492     6.9944004831
H       21.4157605166     3.8698936308     6.7683710213
H       21.1234623580     3.0600050310     8.2504912745
H       20.4189937755     4.4909382807     7.9276868294
Si       16.4470023669     3.4071718537     4.3984175314
O       16.3312568903     4.9968558413     4.7420064025
O       17.9517945070     3.0722457746     3.8462910765
O       15.3873183252     2.9958041482     3.2194050509
O       16.1219738932     2.5730060481     5.7644374693
Si       16.5196769534     6.5960561973     4.4032616397
Si       13.9670998942     2.5610864919     2.5091845207
Si       18.8470458596     2.5340483176     2.5684039012
Si       15.7648329603     1.1303377156     6.4785322110
H       17.9056749154     6.8559839143     3.9037389848
H       15.5631808029     6.9617865069     3.3026538774
H       16.2916528716     7.4762000580     5.6157250391
H       12.8338471998     3.3080541982     3.1067822244
H       13.9574294557     2.8582102906     1.0432146018
H       18.4484472171     3.3177267821     1.3671104248
H       13.7183352762     1.1004782229     2.7113448983
H       18.5481931725     1.0923960203     2.3148292037
H       16.4580146170     0.9020738734     7.7989306597
H       14.2849715545     0.9819203914     6.7096600666
H       20.3425977076     2.6805191664     2.7601135922
H       16.2070760120     0.0662840297     5.5432117414
32
# Point -8 Energy = 0.0
C       20.6692930353     3.6586836586     7.5196936497
H       18.8100649871     3.8698058484     5.8804746008
C       19.5185497950     2.9355891445     6.8786063798
H       18.2645214197     2.6408066466     8.1336983309
H       20.7131616711     1.8242801771     5.3220606227
C       19.8326187116     1.6371575942     6.2186015931
H       18.9529283263     1.1427619247     5.7269157182
H       20.2917634256     0.8629570903     6.9885870404
H       21.4147172679     3.8707313998     6.7683568502
H       21.1226554651     3.0572069378     8.2555690709
H       20.4117608977     4.5033808218     7.9349566767
Si       16.4453413975     3.4072626623     4.3981387202
O       16.3293695560     4.9969474657     4.7416872701
O       17.9503723354     3.0724352976     3.8465352485
O       15.3861222112     2.9958400685     3.2186988476
O       16.1198151335     2.5730307031     5.7639722964
Si       16.5178261881     6.5961495143     4.4030584774
Si       13.9662061792     2.5610360107     2.5079547664
Si       18.8461431388     2.5343319612     2.5690223411
Si       15.7625160714     1.1303444369     6.4779071317
H       17.9040030423     6.8561753242     3.9040750801
H       15.5617357223     6.9618507845     3.3020844974
H       16.2892809792     7.4762616863     5.6154479317
H       12.8326770565     3.3079177449     3.1051367921
H       13.9570592569     2.8581764648     1.0419825544
H       18.4479692544     3.3180078860     1.3675873557
H       13.7174637073     1.1004072817     2.7100018008
H       18.5474825302     1.0926628945     2.3152971826
H       16.4551949752     0.9020710009     7.7985646566
H       14.2825684667     0.9818152681     6.7084559666
H       20.3416180565     2.6808852025     2.7613112710
H       16.2051803387     0.0663310975     5.5427246383
32
# Point -7 Energy = 0.0
C       20.6665585700     3.6583692770     7.5206852618
H       18.8321197921     3.8382041252     5.9156918342
C       19.5095007068     2.9372439509     6.8815669748
H       18.3187491162     2.6543021607     8.0771294510
H       20.6967286883     1.8209463735     5.3377967383
C       19.8312391901     1.6365255562     6.2189651847
H       18.9531914712     1.1444807943     5.7292366283
H       20.2851158507     0.8700396358     6.9827292409
H       21.4137031020     3.8715154729     6.7683267003
H       21.1218465261     3.0543711785     8.2606247354
H       20.4045195582     4.5157767251     7.9421897722
Si       16.4436928342     3.4073461767     4.3978691405
O       16.3274993162     4.9970318823     4.7413784014
O       17.9489602248     3.0726138722     3.8467850821
O       15.3849365256     2.9958741754     3.2180020795
O       16.1176697021     2.5730496700     5.7635173466
Si       16.5159955695     6.5962353458     4.4028660095
Si       13.9653211301     2.5609897949     2.5067347724
Si       18.8452459249     2.5346028371     2.5696443395
Si       15.7602102904     1.1303468233     6.4772938281
H       17.9023505768     6.8563561453     3.9044188608
H       15.5603092640     6.9619105196     3.3015283836
H       16.2869342197     7.4763157087     5.6151823188
H       12.8315187389     3.3077887085     3.1035027493
H       13.9566979179     2.8581490691     1.0407608920
H       18.4474960296     3.3182776954     1.3680692275
H       13.7165957888     1.1003412013     2.7086665257
H       18.5467731675     1.0929178702     2.3157689891
H       16.4523886966     0.9020626282     7.7982088038
H       14.2801768366     0.9817099252     6.7072670093
H       20.3406445143     2.6812345583     2.7625090107
H       16.2032907601     0.0663721424     5.5422490679
32
# Point -6 Energy = 0.0
C       20.6638341665     3.6580124076     7.5216437674
H       18.8538148740     3.8065570711     5.9511705718
C       19.5004718651     2.9388841319     6.8845044688
H       18.3727526981     2.6680551076     8.0203470932
H       20.6803823341     1.8176278429     5.3535297596
C       19.8299251619     1.6359258657     6.2193082141
H       18.9535302933     1.1462292830     5.7315254128
H       20.2785338891     0.8771348589     6.9768282664
H       21.4127178400     3.8722457943     6.7682799463
H       21.1210359278     3.0514977925     8.2656578221
H       20.3972700951     4.5281260544     7.9493858834
Si       16.4420567504     3.4074225020     4.3976085595
O       16.3256462772     4.9971092032     4.7410795527
O       17.9475582614     3.0727815489     3.8470403987
O       15.3837613735     2.9959065763     3.2173144809
O       16.1155375940     2.5730630697     5.7630723798
Si       16.5141852634     6.5963137962     4.4026839905
Si       13.9644448672     2.5609479683     2.5055242279
Si       18.8443543360     2.5348609547     2.5702697501
Si       15.7579155403     1.1303450090     6.4766920502
H       17.9007177142     6.8565264373     3.9047701290
H       15.5589016412     6.9619658359     3.3009852516
H       16.2846127395     7.4763622462     5.6149279457
H       12.8303723583     3.3076672445     3.1018797377
H       13.9563456154     2.8581282053     1.0395492995
H       18.4470277283     3.3185362223     1.3685558717
H       13.7157316078     1.1002801127     2.7073387701
H       18.5460651636     1.0931609639     2.3162444732
H       16.4495956499     0.9020488748     7.7978628807
H       14.2777965694     0.9816045426     6.7060928910
H       20.3396772015     2.6815671958     2.7637067181
H       16.2014072025     0.0664072805     5.5417847955
32
# Point -5 Energy = 0.0
C       20.6611200131     3.6576130773     7.5225688931
H       18.8751457357     3.7748648946     5.9869094273
C       19.4914633360     2.9405097384     6.8874188389
H       18.4265354573     2.6820632066     7.9633559248
H       20.6641210866     1.8143244088     5.3692592644
C       19.8286764554     1.6353585559     6.2196316380
H       18.9539445139     1.1480070412     5.7337835307
H       20.2720181819     0.8842434235     6.9708852675
H       21.4117613259     3.8729222767     6.7682159556
H       21.1202240736     3.0485867744     8.2706678658
H       20.3900129062     4.5404288523     7.9565447932
Si       16.4404332159     3.4074917403     4.3973567525
O       16.3238105357     4.9971795369     4.7407904867
O       17.9461665286     3.0729383813     3.8473010246
O       15.3825968560     2.9959373693     3.2166357976
O       16.1134188087     2.5730710205     5.7626371656
Si       16.5123954172     6.5963849669     4.4025121787
Si       13.9635775068     2.5609106375     2.5043228383
Si       18.8434684858     2.5351063292     2.5708984289
Si       15.7556317572     1.1303391247     6.4761015607
H       17.8991046294     6.8566862626     3.9051286868
H       15.5575130443     6.9620168485     3.3004548224
H       16.2823166661     7.4764014177     5.6146845609
H       12.8292380204     3.3075534869     3.1002674172
H       13.9560025163     2.8581139559     1.0383474773
H       18.4465645251     3.3187834814     1.3690471228
H       13.7148712542     1.1002241288     2.7060182500
H       18.5453585992     1.0933921958     2.3167234902
H       16.4468157214     0.9020298615     7.7975266775
H       14.2754275848     0.9814992901     6.7049333244
H       20.3387162341     2.6818830896     2.7649042985
H       16.1995296073     0.0664366249     5.5413315991
32
# Point -4 Energy = 0.0
C       20.6584163197     3.6571712913     7.5234603611
H       18.8961078846     3.7431278986     6.0229070066
C       19.4824751905     2.9421208363     6.8903100615
H       18.4801006614     2.6963241999     7.9061605159
H       20.6479434364     1.8110359305     5.3849848417
C       19.8274928888     1.6348236761     6.2199363970
H       18.9544338431     1.1498137526     5.7360124100
H       20.2655693435     0.8913659843     6.9649013637
H       21.4108334263     3.8735448019     6.7681340897
H       21.1194113820     3.0456380744     8.2756543836
H       20.3827484484     4.5526851412     7.9636663014
Si       16.4388222975     3.4075539904     4.3971135025
O       16.3219921788     4.9972429890     4.7405109723
O       17.9447851062     3.0730844264     3.8475667900
O       15.3814430694     2.9959666427     3.2159657869
O       16.1113133501     2.5730736375     5.7622114837
Si       16.5106261606     6.5964489565     4.4023503364
Si       13.9627191607     2.5608778926     2.5031303249
Si       18.8425884840     2.5353389815     2.5715302349
Si       15.7533588901     1.1303292973     6.4755221346
H       17.8975114767     6.8568356868     3.9054943360
H       15.5561436419     6.9620636639     3.2999368234
H       16.2800461084     7.4764333393     5.6144519160
H       12.8281158246     3.3074475484     3.0986654658
H       13.9556687779     2.8581063850     1.0371551419
H       18.4461065835     3.3190194894     1.3695428181
H       13.7140148209     1.1001733450     2.7047046997
H       18.5446535570     1.0936115905     2.3172059007
H       16.4440488150     0.9020057099     7.7971999955
H       14.2730698170     0.9813943270     6.7037880393
H       20.3377617237     2.6821822277     2.7661016559
H       16.1976579315     0.0664602861     5.5408892695
32
# Point -3 Energy = 0.0
C       20.6557233174     3.6566870333     7.5243178898
H       18.9166968314     3.7113464768     6.0591619061
C       19.4735075042     2.9437175059     6.8931781128
H       18.5334515536     2.7108358513     7.8487653404
H       20.6318478869     1.8077623022     5.4007060911
C       19.8263742711     1.6343212904     6.2202234149
H       18.9549979803     1.1516491340     5.7382134472
H       20.2591879626     0.8985031870     6.9588776433
H       21.4099340294     3.8741132220     6.7680337057
H       21.1185982850     3.0426515994     8.2806168760
H       20.3754772360     4.5648949231     7.9707502265
Si       16.4372240591     3.4076093482     4.3968786007
O       16.3201912847     4.9972996617     4.7402407844
O       17.9434140712     3.0732197443     3.8478375297
O       15.3803001060     2.9959944761     3.2153042176
O       16.1092212269     2.5730710332     5.7617951233
Si       16.5088776061     6.5965058610     4.4021982293
Si       13.9618699364     2.5608498071     2.5019464251
Si       18.8417144360     2.5355589385     2.5721650294
Si       15.7510969015     1.1303156500     6.4749535595
H       17.8959383907     6.8569747782     3.9058668778
H       15.5547935801     6.9621063803     3.2994309878
H       16.2778011576     7.4764581253     5.6142297659
H       12.8270058647     3.3073495211     3.0970735800
H       13.9553445478     2.8581055383     1.0359720252
H       18.4456540562     3.3192442661     1.3700427977
H       13.7131624035     1.1001278394     2.7033978722
H       18.5439501214     1.0938191768     2.3176915703
H       16.4412948526     0.9019765432     7.7968826464
H       14.2707232147     0.9812898030     6.7026567819
H       20.3368137773     2.6824646108     2.7672986921
H       16.1957921475     0.0664783719     5.5404576098
32
# Point -2 Energy = 0.0
C       20.6530412566     3.6561602662     7.5251411944
H       18.9369080892     3.6795211111     6.0956727098
C       19.4645603583     2.9452998421     6.8960229680
H       18.5865913520     2.7255959462     7.7911747766
H       20.6158329549     1.8045034520     5.4164226221
C       19.8253204025     1.6338514782     6.2204935985
H       18.9556366147     1.1535129340     5.7403880075
H       20.2528746024     0.9056556690     6.9528151647
H       21.4090630443     3.8746273604     6.7679141576
H       21.1177852265     3.0396272128     8.2855548278
H       20.3681998403     4.5770581805     7.9777964059
Si       16.4356385619     3.4076579070     4.3966518461
O       16.3184079225     4.9973496546     4.7399797044
O       17.9420534978     3.0733443986     3.8481130822
O       15.3791680537     2.9960209398     3.2146508698
O       16.1071424527     2.5730633173     5.7613878834
Si       16.5071498494     6.5965557739     4.4020556270
Si       13.9610299375     2.5608264386     2.5007708926
Si       18.8408464432     2.5357662329     2.5728026760
Si       15.7488457673     1.1302983030     6.4743956353
H       17.8943854862     6.8571036084     3.9062461133
H       15.5534629840     6.9621450877     3.2989370546
H       16.2755818874     7.4764758874     5.6140178687
H       12.8259082290     3.3072594765     3.0954914746
H       13.9550299641     2.8581114437     1.0347978752
H       18.4452070848     3.3194578336     1.3705469040
H       13.7123141008     1.1000876735     2.7020975390
H       18.5432483786     1.0940149877     2.3181803696
H       16.4385537743     0.9019424857     7.7965744528
H       14.2683877419     0.9811858576     6.7015393153
H       20.3358724979     2.6827302525     2.7684953071
H       16.1939322435     0.0664909877     5.5400364360
32
# Point -1 Energy = 0.0
C       20.6503704061     3.6555909318     7.5259299878
H       18.9567371711     3.6476523676     6.1324379870
C       19.4556338396     2.9468679535     6.8988446016
H       18.6395232460     2.7406022941     7.7333931056
H       20.5998971711     1.8012593413     5.4321340534
C       19.8243310746     1.6334143326     6.2207478372
H       18.9563494264     1.1554049323     5.7425374241
H       20.2466298021     0.9128240592     6.9467149562
H       21.4082204011     3.8750870121     6.7677747976
H       21.1169726606     3.0365647359     8.2904677096
H       20.3609168878     4.5891748760     7.9848046980
Si       16.4340658647     3.4076997571     4.3964330452
O       16.3166421532     4.9973930641     4.7397275200
O       17.9407034576     3.0734584562     3.8483932900
O       15.3780469967     2.9960460955     3.2140055353
O       16.1050770464     2.5730505971     5.7609895725
Si       16.5054429697     6.5965987860     4.4019223031
Si       13.9601992633     2.5608078289     2.4996034970
Si       18.8399846032     2.5359609035     2.5734430402
Si       15.7466054772     1.1302773727     6.4738481744
H       17.8928528593     6.8572222521     3.9066318430
H       15.5521519573     6.9621798680     3.2984547696
H       16.2733883548     7.4764867357     5.6138159860
H       12.8248230000     3.3071774662     3.0939188831
H       13.9547251550     2.8581241114     1.0336324557
H       18.4447658002     3.3196602170     1.3710549817
H       13.7114700142     1.1000528919     2.7008034905
H       18.5425484166     1.0941990606     2.3186721734
H       16.4358255390     0.9019036630     7.7962752477
H       14.2660633777     0.9810826210     6.7004354194
H       20.3349379843     2.6829791794     2.7696913981
H       16.1920782232     0.0664982363     5.5396255761
32
# Point 0 Energy = 0
C       20.6477110000     3.6549790000     7.5266840000
H       18.9761800000     3.6157410000     6.1694560000
C       19.4467280000     2.9484220000     6.9016430000
H       18.6922510000     2.7558520000     7.6754250000
H       20.5840390000     1.7980300000     5.4478400000
C       19.8234060000     1.6330100000     6.2209870000
H       18.9571360000     1.1573250000     5.7446630000
H       20.2404540000     0.9200090000     6.9405780000
H       21.4074060000     3.8754920000     6.7676150000
H       21.1161610000     3.0334640000     8.2953550000
H       20.3536290000     4.6012450000     7.9917750000
Si       16.4325060000     3.4077350000     4.3962220000
O       16.3148940000     4.9974300000     4.7394840000
O       17.9393640000     3.0735620000     3.8486780000
O       15.3769370000     2.9960700000     3.2133680000
O       16.1030250000     2.5730330000     5.7606000000
Si       16.5037570000     6.5966350000     4.4017980000
Si       13.9593780000     2.5607940000     2.4984440000
Si       18.8391290000     2.5361430000     2.5740860000
Si       15.7443760000     1.1302530000     6.4733110000
H       17.8913405600     6.8573308000     3.9070238400
H       15.5508605600     6.9622108000     3.2979838400
H       16.2712205600     7.4764908000     5.6136238400
H       12.8237502400     3.3071035200     3.0923555200
H       13.9544302400     2.8581435200     1.0324755200
H       18.4443303200     3.3198514400     1.3715668800
H       13.7106302400     1.1000235200     2.6995155200
H       18.5418503200     1.0943714400     2.3191668800
H       16.4331100800     0.9018602400     7.7959848800
H       14.2637500800     0.9809802400     6.6993448800
H       20.3340103200     2.6832114400     2.7708868800
H       16.1902300800     0.0665002400     5.5392248800
32
# Point 1 Energy = 0.0
C       20.6450634255     3.6543242334     7.5274029766
H       18.9952317823     3.5837877438     6.2067255804
C       19.4378429569     2.9499621181     6.9044181395
H       18.7447771367     2.7713436376     7.6172740801
H       20.5682571104     1.7948155293     5.4635400726
C       19.8225450262     1.6326386508     6.2212118734
H       18.9579960838     1.1592730585     5.7467658809
H       20.2343477240     0.9272111315     6.9344051969
H       21.4066199345     3.8758419023     6.7674341848
H       21.1153507461     3.0303245444     8.3002161647
H       20.3463370630     4.6132683420     7.9987072838
Si       16.4309590333     3.4077637048     4.3960185437
O       16.3131635164     4.9974605375     4.7392489533
O       17.9380352018     3.0736550907     3.8489670684