32
# Point -15 Energy = 0.0
C       20.7336278632     3.5856627174     7.5032996843
H       19.0487035597     3.6003271714     6.1570552326
C       19.5053474181     2.9197331676     6.8862449992
H       18.7501622732     2.7609363998     7.6662397524
H       20.6035353912     1.6964992591     5.4537518485
C       19.8285350475     1.5796535838     6.2242563031
H       18.9452154169     1.1220762941     5.7610566556
H       20.2214419440     0.8640479939     6.9544082662
H       21.5045620180     3.7693612680     6.7453158673
H       21.1750324625     2.9543564415     8.2798629489
H       20.4730454993     4.5468862622     7.9560211803
Si       16.4839498131     3.4805764262     4.3861510117
O       16.4823173776     5.0451771570     4.8233283014
O       17.9181681508     3.0378152285     3.7681148267
O       15.4440543205     3.0878582340     3.2144583863
O       16.1533057910     2.6489706748     5.7212084514
Si       16.1681394987     6.4218385581     3.9556997103
Si       14.1037606721     2.5471660938     2.4795270589
Si       19.1118197589     2.5068526024     2.8030817412
Si       15.7377076900     1.2810213053     6.4919186116
H       17.4011385305     7.1889876840     3.9621206315
H       15.3149148072     6.6517842454     3.3707176728
H       15.9959847914     7.2557948965     5.7605269581
H       12.9105040492     3.5029471858     3.0455397847
H       14.0272034291     2.9872672807     1.0201042531
H       18.4755806634     3.2071250380     1.3863813740
H       13.7209024437     1.2547718159     2.6834020051
H       18.4937772459     1.0965627077     2.3209152952
H       16.4205488716     1.0042309151     7.8076762880
H       14.2540709691     1.1481507550     6.7149212592
H       20.3190448520     2.5712015703     2.8603434069
H       16.1418779808     0.1476610668     5.5635155934
32
# Point -14 Energy = 0.0
C       20.7242202253     3.5912770495     7.5072120339
H       19.0396464180     3.6012310847     6.1608269073
C       19.4989129659     2.9211536550     6.8888220989
H       18.7443371529     2.7570984350     7.6683670626
H       20.6018938068     1.7076595764     5.4522870177
C       19.8282890835     1.5845457534     6.2230271651
H       18.9469061395     1.1247267000     5.7584036570
H       20.2245459945     0.8685837139     6.9510399881
H       21.4938032652     3.7804484873     6.7492310607
H       21.1690232758     2.9601020733     8.2819469700
H       20.4595203703     4.5501605676     7.9626025242
Si       16.4758671550     3.4733921618     4.3904113887
O       16.4633191126     5.0392771689     4.8242997333
O       17.9160105902     3.0418607821     3.7756889838
O       15.4353461045     3.0793495569     3.2176176062
O       16.1475796857     2.6384492685     5.7260376975
Si       16.2006181642     6.4384958741     3.9774151000
Si       14.0903192404     2.5433826876     2.4842173409
Si       19.0937034672     2.5147260774     2.7863430954
Si       15.7385064081     1.2631489352     6.4905759680
H       17.4652819353     7.1577578214     3.9522343247
H       15.3399912531     6.6907029738     3.3590784046
H       16.0219415728     7.2887716834     5.7383522726
H       12.8986695609     3.4813193223     3.0552577110
H       14.0164512465     2.9757372239     1.0244606399
H       18.4703335773     3.2250958491     1.3862031877
H       13.7181556397     1.2383891708     2.6867267807
H       18.4984446040     1.0983632014     2.3201683527
H       16.4227309882     0.9884864041     7.8061084917
H       14.2553825748     1.1258111067     6.7138446559
H       20.3206009842     2.5868737723     2.8488134538
H       16.1476280374     0.1369238622     5.5595436854
32
# Point -13 Energy = 0.0
C       20.7151149657     3.5970670750     7.5106888236
H       19.0309935493     3.6023248733     6.1640527992
C       19.4926676637     2.9228820748     6.8910886386
H       18.7386379469     2.7539976332     7.6701795501
H       20.6001724668     1.7184434009     5.4509705826
C       19.8279201995     1.5894974604     6.2219227004
H       18.9483924373     1.1275269952     5.7559627597
H       20.2273100797     0.8733225955     6.9480355783
H       21.4834131763     3.7912810195     6.7527094071
H       21.1631137411     2.9661702768     8.2838135481
H       20.4465213961     4.5537923617     7.9684352872
Si       16.4682960159     3.4665024069     4.3939992587
O       16.4451915658     5.0337269633     4.8241113527
O       17.9142040839     3.0456866955     3.7828449681
O       15.4271222582     3.0710354439     3.2201629479
O       16.1420806255     2.6287147288     5.7304232702
Si       16.2321132519     6.4543818231     4.0008667572
Si       14.0773048468     2.5399995341     2.4883107808
Si       19.0754108735     2.5218088033     2.7697230629
Si       15.7392291497     1.2464482497     6.4891560525
H       17.5250919793     7.1258308103     3.9440663061
H       15.3647308117     6.7275627632     3.3489829936
H       16.0486572759     7.3185383383     5.7186247763
H       12.8876022996     3.4605982408     3.0638380893
H       14.0064490039     2.9643092774     1.0281611193
H       18.4653946958     3.2415279650     1.3857839064
H       13.7157130730     1.2226171061     2.6896302717
H       18.5029062784     1.0999322229     2.3194727075
H       16.4246912564     0.9741688914     7.8045873880
H       14.2565889308     1.1050601414     6.7126700123
H       20.3219113609     2.6015460947     2.8380021791
H       16.1530333407     0.1269997339     5.5558874845
32
# Point -12 Energy = 0.0
C       20.7063770414     3.6029523486     7.5137464994
H       19.0228059859     3.6035663412     6.1667542924
C       19.4866610282     2.9248607435     6.8930616466
H       18.7331077201     2.7515846725     7.6716979717
H       20.5984059133     1.7287744570     5.4498046131
C       19.8274562970     1.5944412475     6.2209500161
H       18.9496921759     1.1304258916     5.7537408977
H       20.2297493668     0.8781814768     6.9453985134
H       21.4734638933     3.8017698084     6.7557634387
H       21.1573579655     2.9724639180     8.2854755607
H       20.4341291425     4.5577085418     7.9735429678
Si       16.4612881732     3.4599218982     4.3969434831
O       16.4280176977     5.0285438011     4.8227983877
O       17.9127998957     3.0492828926     3.7895998894
O       15.4194260658     3.0629561930     3.2221224202
O       16.1368432825     2.6197788139     5.7343920653
Si       16.2625153226     6.4695059139     4.0259366691
Si       14.0647557709     2.5370902428     2.4918260861
Si       19.0569945194     2.5280598007     2.7532385442
Si       15.7398811565     1.2309247257     6.4876853272
H       17.5804179614     7.0937574989     3.9373847060
H       15.3888559770     6.7621827315     3.3403372334
H       16.0756049968     7.3452242397     5.7012477823
H       12.8773412077     3.4408821267     3.0713172519
H       13.9972350782     2.9530629063     1.0312330337
H       18.4608221703     3.2564076374     1.3851385577
H       13.7135761563     1.2075305598     2.6921369679
H       18.5071635471     1.1012406586     2.3188378529
H       16.4264319304     0.9612626330     7.8031357008
H       14.2576898299     1.0859286863     6.7114270280
H       20.3230295487     2.6151423462     2.8279286041
H       16.1580837819     0.1178862471     5.5525613516
32
# Point -11 Energy = 0.0
C       20.6980674917     3.6088536326     7.5164040841
H       19.0151400855     3.6049132550     6.1689558093
C       19.4809396394     2.9270318410     6.8947596884
H       18.7277872615     2.7498071876     7.6729440663
H       20.5966276455     1.7385816096     5.4487909520
C       19.8269247573     1.5993117501     6.2201154792
H       18.9508234011     1.1333732940     5.7517435817
H       20.2318802825     0.8830790396     6.9431299319
H       21.4640229464     3.8118299616     6.7584088724
H       21.1518078031     2.9788867969     8.2869470101
H       20.4224185325     4.5618355764     7.9779532824
Si       16.4548899755     3.4536629700     4.3992763059
O       16.4118721669     5.0237418128     4.8204023888
O       17.9118447752     3.0526408672     3.7959736491
O       15.4122955860     3.0551498241     3.2235271134
O       16.1318992658     2.6116481247     5.7379724232
Si       16.2917142089     6.4838780622     4.0524999855
Si       14.0527065135     2.5347249214     2.4947844503
Si       19.0385028900     2.5334472096     2.7369082378
Si       15.7404674812     1.2165767584     6.4861887711
H       17.6311603528     7.0620719439     3.9319735388
H       15.4120954784     6.7944013914     3.3330302515
H       16.1022847150     7.3689688723     5.6860958071
H       12.8679191646     3.4222610302     3.0777353286
H       13.9888419512     2.9420757950     1.0337070384
H       18.4566666727     3.2697288648     1.3842875284
H       13.7117445457     1.1931990922     2.6942713400
H       18.5112174090     1.1022646876     2.3182729927
H       16.4279564597     0.9497440008     7.8017737473
H       14.2586853205     1.0684370654     6.7101437190
H       20.3240047158     2.6275980172     2.8186115406
H       16.1627711050     0.1095767444     5.5495764446
32
# Point -10 Energy = 0.0
C       20.6902430278     3.6146936200     7.5186829259
H       19.0080472022     3.6063237895     6.1706844905
C       19.4755468592     2.9293380232     6.8962026472
H       18.7227149153     2.7486104374     7.6739403346
H       20.5948697538     1.7477994724     5.4479311743
C       19.8263521970     1.6040463620     6.2194246614
H       18.9518041759     1.1363208840     5.7499748721
H       20.2337203274     0.8879366539     6.9412286773
H       21.4551527251     3.8213814164     6.7606643588
H       21.1465124908     2.9853445546     8.2882428666
H       20.4114584066     4.5661001896     7.9816977975
Si       16.4491421670     3.4477356143     4.4010329440
O       16.3968210082     5.0193319986     4.8169706695
O       17.9113806410     3.0557538057     3.8019886482
O       15.4057635356     3.0476519279     3.2244107985
O       16.1272770952     2.6043243349     5.7411938235
Si       16.3195995708     6.4975089463     4.0804250878
Si       14.0411877355     2.5329697572     2.4972092553
Si       19.0199799639     2.5379484616     2.7207524673
Si       15.7409931689     1.2033960963     6.4846896959
H       17.6772656760     7.0312849185     3.9276321461
H       15.4341893385     6.8240780649     3.3269367597
H       16.1282279670     7.3899178297     5.6730192272
H       12.8593631165     3.4048164179     3.0831357065
H       13.9812961784     2.9314232770     1.0356166647
H       18.4529707811     3.2814934044     1.3832562282
H       13.7102163555     1.1796866247     2.6960575721
H       18.5150683726     1.1029861225     2.3177871096
H       16.4292696772     0.9395821417     7.8005193376
H       14.2595760047     1.0525954553     6.7088462243
H       20.3248811012     2.6388606214     2.8100694894
H       16.1670890642     0.1020607759     5.5469406985
32
# Point -9 Energy = 0.0
C       20.6829557303     3.6203975173     7.5206064994
H       19.0015734725     3.6077569264     6.1719699312
C       19.4705226334     2.9317229449     6.8974115481
H       18.7179264770     2.7479378936     7.6747098736
H       20.5931626181     1.7563688988     5.4472265453
C       19.8257642709     1.6085857956     6.2188822943
H       18.9526524484     1.1392226350     5.7484373551
H       20.2352879062     0.8926790772     6.9396913408
H       21.4469100775     3.8303494551     6.7625512730
H       21.1415183630     2.9917453999     8.2893789521
H       20.4013112202     4.5704299169     7.9848116371
Si       16.4440798293     3.4421476271     4.4022512392
O       16.3829214775     5.0153223202     4.8125558389
O       17.9114443794     3.0586167511     3.8076695298
O       15.3998572843     3.0404956603     3.2248095793
O       16.1230022437     2.5978044807     5.7440866380
Si       16.3460616652     6.5104103804     4.1095738460
Si       14.0302262834     2.5318868027     2.4991258214
Si       19.0014648841     2.5415504209     2.7047930134
Si       15.7414634480     1.1913683159     6.4832096060
H       17.7187204956     7.0018778893     3.9241738529
H       15.4548935242     6.8510931353     3.3219191593
H       16.1530013884     7.4082192692     5.6618486155
H       12.8516943138     3.3886209857     3.0875645773
H       13.9746184754     2.9211780142     1.0369979371
H       18.4497685191     3.2917108659     1.3820747639
H       13.7089884101     1.1670513913     2.6975193278
H       18.5187162661     1.1033927804     2.3173890280
H       16.4303779746     0.9307396189     7.7993877157
H       14.2603633299     1.0384043284     6.7075586672
H       20.3256976248     2.6488899421     2.8023205390
H       16.1710335657     0.0953245591     5.5446588144
32
# Point -8 Energy = 0.0
C       20.6762528527     3.6258934970     7.5222002496
H       18.9957597080     3.6091728128     6.1728439688
C       19.4659033764     2.9341317007     6.8984084211
H       18.7134551519     2.7477317502     7.6752762580
H       20.5915346737     1.7642373694     5.4466779727
C       19.8251855233     1.6128745444     6.2184922282
H       18.9533859505     1.1420352641     5.7471321188
H       20.2366021776     0.8972350150     6.9385122925
H       21.4393460368     3.8386650850     6.7640935422
H       21.1368686478     2.9980006612     8.2903718571
H       20.3920328686     4.5747535447     7.9873332602
Si       16.4397324242     3.4369048430     4.4029713735
O       16.3702220466     5.0117178900     4.8072154285
O       17.9120677480     3.0612268157     3.8130429573
O       15.3945989433     3.0337118822     3.2247616012
O       16.1190972395     2.5920813065     5.7466819411
Si       16.3709923020     6.5225956914     4.1398020741
Si       14.0198452871     2.5315339657     2.5005612092
Si       18.9829917447     2.5442495134     2.6890529504
Si       15.7418839245     1.1804733299     6.4817680974
H       17.7555447649     6.9742973548     3.9214242664
H       15.4739841209     6.8753470122     3.3178292720
H       16.1762091895     7.4240209457     5.6523986278
H       12.8449286306     3.3737387267     3.0910705794
H       13.9688238986     2.9114099272     1.0378890488
H       18.4470850392     3.3003988990     1.3807776286
H       13.7080565171     1.1553460971     2.6986795529
H       18.5221600629     1.1034788884     2.3170874645
H       16.4312894617     0.9231730286     7.7983915369
H       14.2610498664     1.0258549715     6.7063030646
H       20.3264876339     2.6576582041     2.7953822623
H       16.1746027872     0.0893514625     5.5427322537
32
# Point -7 Energy = 0.0
C       20.6701760071     3.6311138564     7.5234913246
H       18.9906406708     3.6105334636     6.1733403586
C       19.4617214099     2.9365116924     6.8992160301
H       18.7093311191     2.7479336466     7.6756632903
H       20.5900120051     1.7713601399     5.4462857800
C       19.8246391165     1.6168618905     6.2182572077
H       18.9540220879     1.1447190321     5.7460585382
H       20.2376829661     0.9015383043     6.9376835038
H       21.4325048677     3.8462663404     6.7653173605
H       21.1326028036     3.0040261356     8.2912387214
H       20.3836716619     4.5790021661     7.9893041611
Si       16.4361232622     3.4320111455     4.4032354671
O       16.3587614053     5.0085209435     4.8010114800
O       17.9132767850     3.0635835380     3.8181372729
O       15.3900049724     3.0273288486     3.2243066408
O       16.1155814111     2.5871432294     5.7490111954
Si       16.3942871389     6.5340814263     4.1709612431
Si       14.0100638497     2.5319641424     2.5015439922
Si       18.9645890479     2.5460521361     2.6735563499
Si       15.7422607914     1.1706854202     6.4803825567
H       17.7877876095     6.9489454801     3.9192203631
H       15.4912636373     6.8967605604     3.3145107636
H       16.1974991019     7.4374679000     5.6444727733
H       12.8390763296     3.3602238420     3.0937043443
H       13.9639215548     2.9021853226     1.0383299227
H       18.4449358726     3.3075834880     1.3794032007
H       13.7074157662     1.1446171664     2.6995601517
H       18.5253976306     1.1032455325     2.3168911321
H       16.4320142003     0.9168332633     7.7975406558
H       14.2616396309     1.0149291498     6.7050990627
H       20.3272783203     2.6651506437     2.7892715050
H       16.1777975666     0.0841221534     5.5411590106
32
# Point -6 Energy = 0.0
C       20.6647633280     3.6359928518     7.5245088521
H       18.9862473286     3.6118019569     6.1734950184
C       19.4580065537     2.9388114868     6.8998582343
H       18.7055829263     2.7484843166     7.6758954171
H       20.5886189387     1.7776978302     5.4460501603
C       19.8241472507     1.6205003071     6.2181793953
H       18.9545779778     1.1472368692     5.7452148422
H       20.2385504812     0.9055260159     6.9371952075
H       21.4264264549     3.8530953126     6.7662514016
H       21.1287580597     3.0097395848     8.2919976333
H       20.3762713322     4.5831073604     7.9907690277
Si       16.4332717422     3.4274697859     4.4030878065
O       16.3485721534     5.0057321811     4.7940105069
O       17.9150936970     3.0656888117     3.8229827121
O       15.3860881469     3.0213743311     3.2234863277
O       16.1124722895     2.5829761662     5.7511066169
Si       16.4158432001     6.5448835960     4.2028961619
Si       14.0008986633     2.5332286704     2.5021043155
Si       18.9462810626     2.5469737794     2.6583284739
Si       15.7426009000     1.1619754436     6.4790688331
H       17.8155111767     6.9261870336     3.9174068548
H       15.5065560707     6.9152636526     3.3117967317
H       16.2165498449     7.4487001595     5.6378625733
H       12.8341443939     3.3481254623     3.0955187173
H       13.9599166281     2.8935702505     1.0383624072
H       18.4433286359     3.3132990739     1.3779939724
H       13.7070607478     1.1349085366     2.7001823372
H       18.5284259201     1.1027009265     2.3168085288
H       16.4325639657     0.9116672473     7.7968428423
H       14.2621380420     1.0056027040     6.7039645947
H       20.3280921535     2.6713640423     2.7840044999
H       16.1806205337     0.0796162533     5.5399343561
32
# Point -5 Energy = 0.0
C       20.6600472906     3.6404693775     7.5252834892
H       18.9826047356     3.6129438740     6.1733455426
C       19.4547845824     2.9409825869     6.9003594665
H       18.7022362019     2.7493246844     7.6759972226
H       20.5873772731     1.7832193212     5.4459705456
C       19.8237306496     1.6237476754     6.2182597242
H       18.9550703484     1.1495559512     5.7445974413
H       20.2392254223     0.9091409988     6.9370351906
H       21.4211438337     3.8591015080     6.7669263662
H       21.1253677701     3.0150637790     8.2926671373
H       20.3698681063     4.5870035422     7.9917753867
Si       16.4311914852     3.4232828862     4.4025742933
O       16.3396775224     5.0033502235     4.7862831775
O       17.9175351263     3.0675476197     3.8276108774
O       15.3828560228     3.0158743341     3.2223435712
O       16.1097845457     2.5795625827     5.7530006414
Si       16.4355637936     6.5550220454     4.2354488753
Si       13.9923627523     2.5353746262     2.5022736692
Si       18.9280864773     2.5470402001     2.6433952639
Si       15.7429120239     1.1543096920     6.4778404807
H       17.8387927023     6.9063319442     3.9158373665
H       15.5197176983     6.9307992522     3.3095132353
H       16.2330850433     7.4578517957     5.6323536692
H       12.8301349651     3.3374839697     3.0965682208
H       13.9568089408     2.8856279691     1.0380296921
H       18.4422612551     3.3175891999     1.3765957411
H       13.7069858603     1.1262589095     2.7005660289
H       18.5312404616     1.1018610604     2.3168481699
H       16.4329527014     0.9076172560     7.7963031064
H       14.2625523766     0.9978431507     6.7029152099
H       20.3289454995     2.6763083018     2.7795965054
H       16.1830771318     0.0758116820     5.5390500517
32
# Point -4 Energy = 0.0
C       20.6560554468     3.6444864261     7.5258474293
H       18.9797328492     3.6139272588     6.1729311827
C       19.4520777786     2.9429792624     6.9007447893
H       18.6993141307     2.7503960066     7.6759935401
H       20.5863064692     1.7879010624     5.4460456835
C       19.8234086883     1.6265669178     6.2184980300
H       18.9555155402     1.1516475940     5.7442010905
H       20.2397288324     0.9123314067     6.9371890087
H       21.4166840121     3.8642409914     6.7673749301
H       21.1224619007     3.0199258391     8.2932663176
H       20.3644917484     4.5906275709     7.9923735558
Si       16.4298912130     3.4194521757     4.4017424054
O       16.3320927582     5.0013723915     4.7779041545
O       17.9206128760     3.0691682245     3.8320546876
O       15.3803117487     3.0108540968     3.2209225181
O       16.1075305392     2.5768824122     5.7547260064
Si       16.4533585924     6.5645192625     4.2684585171
Si       13.9844661246     2.5384462432     2.5020848696
Si       18.9100189613     2.5462872049     2.6287832508
Si       15.7432029264     1.1476509760     6.4767089988
H       17.8577149889     6.8896343998     3.9143730444
H       15.5306368044     6.9433166582     3.3074786543
H       16.2468691616     7.4650494108     5.6277269285
H       12.8270463324     3.3283329826     3.0969090474
H       13.9545938407     2.8784203508     1.0373762513
H       18.4417226117     3.3205068473     1.3752574320
H       13.7071855240     1.1187033639     2.7007299338
H       18.5338353993     1.1007500599     2.3170184401
H       16.4331964253     0.9046218376     7.7959240024
H       14.2628917945     0.9916112860     6.7019643484
H       20.3298492486     2.6800059834     2.7760616794
H       16.1851753321     0.0726854964     5.5384946321
32
# Point -3 Energy = 0.0
C       20.6528104876     3.6479913601     7.5262342290
H       18.9776466768     3.6147229532     6.1722926331
C       19.4499049926     2.9447588759     6.9010397650
H       18.6968374853     2.7516403214     7.6759093734
H       20.5854236391     1.7917271689     5.4462735547
C       19.8231993648     1.6289262280     6.2188930099
H       18.9559294716     1.1534875218     5.7440188824
H       20.2400819832     0.9150509369     6.9376400290
H       21.4130680599     3.8684765311     6.7676315199
H       21.1200670024     3.0242575207     8.2938147062
H       20.3601656821     4.5939190969     7.9926164071
Si       16.4293750114     3.4159794324     4.4006409430
O       16.3258254555     4.9997952089     4.7689517297
O       17.9243341079     3.0705624244     3.8363481452
O       15.3784543619     3.0063385158     3.2192683004
O       16.1057204677     2.5749135785     5.7563156337
Si       16.4691447534     6.5734004077     4.3017622937
Si       13.9772159907     2.5424853122     2.5015719277
Si       18.8920873700     2.5447605589     2.6145193321
Si       15.7434834118     1.1419592515     6.4756838428
H       17.8723600577     6.8762885529     3.9128820732
H       15.5392353882     6.9527675507     3.3055045426
H       16.2577076083     7.4704106600     5.6237608977
H       12.8248733286     3.3207000208     3.0965988241
H       13.9532625957     2.8720082577     1.0364475785
H       18.4416927808     3.3221146094     1.3740306679
H       13.7076544021     1.1122738974     2.7006914636
H       18.5362034241     1.0994003856     2.3173275702
H       16.4333131749     0.9026164639     7.7957057253
H       14.2631673752     0.9868619471     6.7011233965
H       20.3308090893     2.6824920652     2.7734128703
H       16.1869255995     0.0702143841     5.5382534924
32
# Point -2 Energy = 0.0
C       20.6503302576     3.6509362177     7.5264786206
H       18.9763563731     3.6153049254     6.1714718094
C       19.4482816634     2.9462822094     6.9012703194
H       18.6948246065     2.7530008814     7.6757698163
H       20.5847435474     1.7946895234     5.4466512852
C       19.8231192732     1.6307992897     6.2194421807
H       18.9563276098     1.1550561003     5.7440422429
H       20.2403062721     0.9172590608     6.9383694760
H       21.4103111634     3.8717777965     6.7677320698
H       21.1182061497     3.0279955356     8.2943321779
H       20.3569070395     4.5968209461     7.9925591138
Si       16.4296425329     3.4128668574     4.3993197766
O       16.3208758004     4.9986148559     4.7595074496
O       17.9287015109     3.0717457683     3.8405261024
O       15.3772790343     3.0023524719     3.2174267919
O       16.1043624593     2.5736324425     5.7578025185
Si       16.4828479743     6.5816932210     4.3351963503
Si       13.9706169363     2.5475314610     2.5007699287
Si       18.8742959637     2.5425158529     2.6006305428
Si       15.7437643346     1.1371921459     6.4747724543
H       17.8828039771     6.8664248627     3.9112391601
H       15.5454705395     6.9591027876     3.3033967809
H       16.2654469225     7.4740428936     5.6202341053
H       12.8236076312     3.3146070355     3.0956963926
H       13.9528027365     2.8664517884     1.0352899348
H       18.4421432917     3.3224848192     1.3729693109
H       13.7083875887     1.1069998243     2.7004666787
H       18.5383357342     1.0978529558     2.3177835885
H       16.4333229110     0.9015340979     7.7956462259
H       14.2633921022     0.9835446418     6.7004017660
H       20.3318258087     2.6838136804     2.7716613935
H       16.1883408547     0.0683750496     5.5383089957
32
# Point -1 Energy = 0.0
C       20.6486277388     3.6532780444     7.5266162862
H       18.9758673041     3.6156505796     6.1705115871
C       19.4472198074     2.9475137859     6.9014625844
H       18.6932913370     2.7544225931     7.6755999526
H       20.5842786202     1.7967878388     5.4471750675
C       19.8231835650     1.6321654665     6.2201418495
H       18.9567249327     1.1563385169     5.7442609511
H       20.2404231096     0.9189212377     6.9393565067
H       21.4084226619     3.8741215701     6.7677137359
H       21.1168988465     3.0310819150     8.2948388223
H       20.3547266620     4.5992795487     7.9922588321
Si       16.4306891668     3.4101173675     4.3978295596
O       16.3172367658     4.9978275622     4.7496556622
O       17.9337134603     3.0727376833     3.8446240014
O       15.3767772913     2.9989210375     3.2154443382
O       16.1034626157     2.5730141907     5.7592196042
Si       16.4944034122     6.5894277815     4.3685965745
Si       13.9646710639     2.5536222936     2.4997148906
Si       18.8566446538     2.5396182357     2.5871438163
Si       15.7440575572     1.1333054255     6.4739803106
H       17.8891128953     6.8601073888     3.9093248597
H       15.5493353945     6.9622701726     3.3009572912
H       16.2699749264     7.4760418607     5.6169273988
H       12.8232380027     3.3100708096     3.0942615566
H       13.9531983792     2.8618103495     1.0339500756
H       18.4430374499     3.3216995154     1.3721289518
H       13.7093807644     1.1029080232     2.7000702551
H       18.5402220306     1.0961571080     2.3183942683
H       16.4332473628     0.9013057371     7.7957413494
H       14.2635807799     0.9816041128     6.6998069925
H       20.3328956319     2.6840297323     2.7708167994
H       16.1894364100     0.0671445161     5.5386406286
32
# Point 0 Energy = 0
C       20.6477110000     3.6549790000     7.5266840000
H       18.9761800000     3.6157410000     6.1694560000
C       19.4467280000     2.9484220000     6.9016430000
H       18.6922510000     2.7558520000     7.6754250000
H       20.5840390000     1.7980300000     5.4478400000
C       19.8234060000     1.6330100000     6.2209870000
H       18.9571360000     1.1573250000     5.7446630000
H       20.2404540000     0.9200090000     6.9405780000
H       21.4074060000     3.8754920000     6.7676150000
H       21.1161610000     3.0334640000     8.2953550000
H       20.3536290000     4.6012450000     7.9917750000
Si       16.4325060000     3.4077350000     4.3962220000
O       16.3148940000     4.9974300000     4.7394840000
O       17.9393640000     3.0735620000     3.8486780000
O       15.3769370000     2.9960700000     3.2133680000
O       16.1030250000     2.5730330000     5.7606000000
Si       16.5037570000     6.5966350000     4.4017980000
Si       13.9593780000     2.5607940000     2.4984440000
Si       18.8391290000     2.5361430000     2.5740860000
Si       15.7443760000     1.1302530000     6.4733110000
H       17.8913405600     6.8573308000     3.9070238400
H       15.5508605600     6.9622108000     3.2979838400
H       16.2712205600     7.4764908000     5.6136238400
H       12.8237502400     3.3071035200     3.0923555200
H       13.9544302400     2.8581435200     1.0324755200
H       18.4443303200     3.3198514400     1.3715668800
H       13.7106302400     1.1000235200     2.6995155200
H       18.5418503200     1.0943714400     2.3191668800
H       16.4331100800     0.9018602400     7.7959848800
H       14.2637500800     0.9809802400     6.6993448800
H       20.3340103200     2.6832114400     2.7708868800
H       16.1902300800     0.0665002400     5.5392248800
32
# Point 1 Energy = 0.0
C       20.6475836146     3.6560051661     7.5267192708
H       18.9772905134     3.6155605364     6.1683499955
C       19.4468115530     2.9489783643     6.9018379817
H       18.6917145117     2.7572366427     7.6752700891
H       20.5840323346     1.7984310822     5.4486394421
C       19.8237987122     1.6333231681     6.2219707339
H       18.9575745273     1.1580103061     5.7452340785
H       20.2404201223     0.9204988305     6.9420078923
H       21.4072592102     3.8758792819     6.7674752120
H       21.1160051702     3.0350929615     8.2959008941
H       20.3536128161     4.6026699551     7.9911691482
Si       16.4350800631     3.4057255950     4.3945497812
O       16.3138264284     4.9974201241     4.7290835533
O       17.9456429448     3.0742472142     3.8527247474