32
# Point -15 Energy = 0.0
C       20.6541810311     3.5776856592     7.4682993848
H       18.9511976819     3.5868284510     6.1435976623
C       19.4277650843     2.9026656785     6.8570508380
H       18.6884142560     2.7223192075     7.6500412421
H       20.5104569286     1.7397026683     5.3757462589
C       19.7606272530     1.5834283624     6.1606815029
H       18.8822631711     1.1289093233     5.6933200677
H       20.1827904631     0.8655010919     6.8728308120
H       21.4076326555     3.7839534727     6.6989324103
H       21.1192300278     2.9336854491     8.2203641507
H       20.3955039865     4.5263894633     7.9499771201
Si       16.3800338401     3.4451281974     4.3958995604
O       16.2949352276     5.0507248675     4.8258463007
O       17.8370114286     2.9843238224     3.8691729946
O       15.2873162027     2.9514426826     3.3257487594
O       16.0757721962     2.5344772154     5.6552299462
Si       16.5128241690     6.6286009780     4.3233137781
Si       14.0132324708     2.7405097640     2.3533448454
Si       18.8087274832     2.9203217951     2.5580619985
Si       15.7156463930     1.4149041927     6.7438378834
H       17.8709592529     6.8785115622     3.9016995686
H       15.5294095506     7.0062017412     3.3519752613
H       16.3041909238     7.4958525459     5.6555912878
H       12.8136361704     3.0337412793     2.8939163432
H       14.1090000227     2.6203100027     1.0724653885
H       18.5272606852     3.4033207109     1.5016199272
H       13.9916957465     0.9479409614     2.8690458985
H       18.5693634395     1.1302634856     2.4324276427
H       16.4693533048     1.0278955161     7.7421732069
H       14.3515361724     1.0458769355     6.7752422605
H       20.2620741010     2.6914598722     2.9186648337
H       16.1639392803     0.1704250448     5.4710462249
32
# Point -14 Energy = 0.0
C       20.6547779473     3.5868955126     7.4749417351
H       18.9543852155     3.5894947676     6.1473242572
C       19.4311490567     2.9076752507     6.8628218473
H       18.6906638524     2.7262690001     7.6543870918
H       20.5196015656     1.7456199400     5.3847708475
C       19.7689126860     1.5884909791     6.1687459444
H       18.8921140019     1.1310416679     5.7008025043
H       20.1913472129     0.8720447065     6.8821924829
H       21.4087207903     3.7944109963     6.7064011642
H       21.1205875147     2.9456225260     8.2288627300
H       20.3923183194     4.5355497724     7.9546145356
Si       16.3859295537     3.4385879566     4.3969497755
O       16.2961917739     5.0434845411     4.8198013584
O       17.8475432475     2.9874071617     3.8703630549
O       15.2970437624     2.9479099793     3.3184595947
O       16.0803322241     2.5333643808     5.6639953298
Si       16.5119711269     6.6231160538     4.3274912940
Si       14.0087896069     2.7389824400     2.3611225405
Si       18.8091947884     2.8927920629     2.5522939213
Si       15.7150046263     1.3907391766     6.7312405683
H       17.8724769735     6.8739461299     3.9021554415
H       15.5306166053     6.9986487611     3.3463763032
H       16.3000357717     7.4923673412     5.6508823642
H       12.8113244607     3.0657171882     2.9096629460
H       14.0949705454     2.6489000964     1.0633125686
H       18.5136077044     3.3909881912     1.4845133982
H       13.9577608644     0.9623135828     2.8398034046
H       18.5663953886     1.1250897044     2.4190665490
H       16.4654765967     1.0106755971     7.7519400295
H       14.3409604801     1.0361291127     6.7704744000
H       20.2702320123     2.6918875322     2.8982172499
H       16.1675443238     0.1571398907     5.4831781276
32
# Point -13 Energy = 0.0
C       20.6550361885     3.5956385823     7.4813455143
H       18.9573141226     3.5920966323     6.1507527850
C       19.4341506198     2.9124613276     6.8682129018
H       18.6924815719     2.7299638336     7.6582936763
H       20.5282792696     1.7514162440     5.3933025225
C       19.7766819688     1.5934060106     6.1762618065
H       18.9014216114     1.1332027622     5.7076378882
H       20.1992668819     0.8782870693     6.8909178220
H       21.4095231383     3.8044234879     6.7136924712
H       21.1214845236     2.9569323618     8.2370471675
H       20.3888921543     4.5441913725     7.9591328204
Si       16.3916491826     3.4325527358     4.3975846359
O       16.2975012312     5.0366654942     4.8135541883
O       17.8577727961     2.9909344566     3.8710504816
O       15.3065411601     2.9452031122     3.3107471094
O       16.0845650576     2.5326673999     5.6721833351
Si       16.5111321258     6.6180424244     4.3316433047
Si       14.0041086806     2.7359530108     2.3694565862
Si       18.8102441590     2.8653109905     2.5475161670
Si       15.7148223329     1.3670363589     6.7174344798
H       17.8739857963     6.8698507567     3.9025665775
H       15.5319244257     6.9916473159     3.3408017930
H       16.2959679676     7.4890639158     5.6462666938
H       12.8098792176     3.0960502336     2.9264343996
H       14.0807352670     2.6760115933     1.0555518790
H       18.5014239539     3.3794855866     1.4686782498
H       13.9256429568     0.9768304363     2.8137724888
H       18.5635794036     1.1201149698     2.4064685403
H       16.4618371595     0.9945478633     7.7605157789
H       14.3310761861     1.0269530823     6.7650843020
H       20.2780498103     2.6918635396     2.8793966839
H       16.1710096789     0.1444970395     5.4938603097
32
# Point -12 Energy = 0.0
C       20.6549937863     3.6038759730     7.4874728775
H       18.9599897939     3.5946239984     6.1538820066
C       19.4367801233     2.9170054046     6.8732136649
H       18.6938923975     2.7334005980     7.6617673412
H       20.5364458308     1.7570480671     5.4013084036
C       19.7839058180     1.5981451854     6.1832131940
H       18.9101367710     1.1353790535     5.7138299986
H       20.2065242060     0.8841927397     6.8989827857
H       21.4100642374     3.8139369626     6.7207514959
H       21.1219658052     2.9675676985     8.2448709226
H       20.3852916177     4.5522829749     7.9634985588
Si       16.3971520271     3.4270561294     4.3978585540
O       16.2988597012     5.0303083248     4.8071582808
O       17.8676429270     2.9949104384     3.8712608482
O       15.3157353076     2.9433719939     3.3026930373
O       16.0884460140     2.5324241666     5.6798586840
Si       16.5103214902     6.6134115764     4.3358129912
Si       13.9992646211     2.7313889861     2.3782906095
Si       18.8118002916     2.8379472791     2.5437247450
Si       15.7150758878     1.3438723032     6.7025022476
H       17.8754943569     6.8662332934     3.9029449325
H       15.5333314061     6.9852469706     3.3353154766
H       16.2920459793     7.4859854112     5.6417909183
H       12.8092305784     3.1246139869     2.9439200795
H       14.0664570166     2.7015002151     1.0491044401
H       18.4906684067     3.3688856410     1.4540958494
H       13.8954421816     0.9912541119     2.7909023084
H       18.5609258525     1.1154070857     2.3946331180
H       16.4584165132     0.9795786910     7.7679592934
H       14.3218706851     1.0184225593     6.7591826268
H       20.2855107430     2.6914592679     2.8622018544
H       16.1742982259     0.1325649125     5.5031632157
32
# Point -11 Energy = 0.0
C       20.6546923345     3.6115726891     7.4932862213
H       18.9624195510     3.5970669488     6.1567123547
C       19.4390514892     2.9212906240     6.8778157933
H       18.6949255399     2.7365780455     7.6648173853
H       20.5440610839     1.7624727527     5.4087575815
C       19.7905596773     1.6026812676     6.1895870969
H       18.9182149385     1.1375564019     5.7193867598
H       20.2131002009     0.8897287513     6.9063666287
H       21.4103714723     3.8229011985     6.7275226949
H       21.1220813092     2.9774866845     8.2522879219
H       20.3815855169     4.5597975983     7.9676779762
Si       16.4023974334     3.4221266073     4.3978300557
O       16.3002611003     5.0244489028     4.8006697463
O       17.8770972340     2.9993356095     3.8710226729
O       15.3245524938     2.9424585391     3.2943844029
O       16.0919535389     2.5326689197     5.6870916221
Si       16.5095502762     6.6092502280     4.3400442927
Si       13.9943365891     2.7252687617     2.3875648767
Si       18.8137824975     2.8107643767     2.5409161161
Si       15.7157422887     1.3213208222     6.6865343316
H       17.8770071319     6.8630976640     3.9033016982
H       15.5348304961     6.9794898975     3.3299820420
H       16.2883243200     7.4831715132     5.6375017230
H       12.8092947907     3.1513017764     2.9617971526
H       14.0523033238     2.7252390074     1.0438781249
H       18.4812882007     3.3592468990     1.4407489269
H       13.8672556992     1.0053634266     2.7711025203
H       18.5584408243     1.1110273710     2.3835654195
H       16.4551991544     0.9658263325     7.7743350172
H       14.3133341834     1.0106046767     6.7528900546
H       20.2925911958     2.6907469740     2.8466223993
H       16.1773747142     0.1214107322     5.5111637499
32
# Point -10 Energy = 0.0
C       20.6541763622     3.6186979115     7.4987484629
H       18.9646124301     3.5994157452     6.1592458208
C       19.4409818584     2.9253019141     6.8820129562
H       18.6956139143     2.7394968221     7.6674559238
H       20.5510890307     1.7676488554     5.4156214057
C       19.7966236717     1.6069883074     6.1953735167
H       18.9256164112     1.1397202297     5.7243201802
H       20.2189819859     0.8948649419     6.9130521533
H       21.4104746040     3.8312701150     6.7339502551
H       21.1218854054     2.9866532416     8.2592529622
H       20.3778444973     4.5667127592     7.9716371381
Si       16.4073451462     3.4177872287     4.3975610838
O       16.3016972334     5.0191179682     4.7941465535
O       17.8860804793     3.0042061898     3.8703670327
O       15.3329190682     2.9424962304     3.2859125467
O       16.0950693182     2.5334319656     5.6939571546
Si       16.5088263053     6.6055800126     4.3443811911
Si       13.9894074189     2.7175820689     2.3972163304
Si       18.8161059983     2.7838202027     2.5390871526
Si       15.7167991407     1.2994523126     6.6696281387
H       17.8785245120     6.8604437195     3.9036468973
H       15.5364094434     6.9744103808     3.3248661611
H       16.2848531232     7.4806580225     5.6334450501
H       12.8099747384     3.1760259725     2.9797348969
H       14.0384453318     2.7471205178     1.0397688917
H       18.4732193240     3.3506134540     1.4286215405
H       13.8411763415     1.0189568282     2.7542457357
H       18.5561269873     1.1070300513     2.3732762873
H       16.4521731587     0.9533398826     7.7797121489
H       14.3054598058     1.0035585371     6.7463365097
H       20.2992613778     2.6897994759     2.8326389681
H       16.1802061761     0.1111001352     5.5179443136
32
# Point -9 Energy = 0.0
C       20.6534926629     3.6252252137     7.5038232965
H       18.9665789393     3.6016608676     6.1614858146
C       19.4425911919     2.9290260982     6.8858008248
H       18.6959935765     2.7421594698     7.6696977113
H       20.5574978868     1.7725364669     5.4218737578
C       19.8020824877     1.6110418635     6.2005655691
H       18.9323064069     1.1418556636     5.7286462645
H       20.2241625192     0.8995742349     6.9190259348
H       21.4104052534     3.8390020878     6.7399785192
H       21.1214360399     2.9950373507     8.2657220898
H       20.3741401742     4.5730105998     7.9753421198
Si       16.4119556574     3.4140554156     4.3971162649
O       16.3031578998     5.0143407891     4.7876477302
O       17.8945389936     3.0095141002     3.8693271551
O       15.3407621275     2.9435097797     3.2773721130
O       16.0977783555     2.5347394429     5.7005342287
Si       16.5081542405     6.6024172194     4.3488669664
Si       13.9845629765     2.7083303454     2.4071786389
Si       18.8186832578     2.7571669553     2.5382350713
Si       15.7182246443     1.2783331372     6.6518870626
H       17.8800429136     6.8582671297     3.9039889650
H       15.5380511096     6.9700344141     3.3200315046
H       16.2816777877     7.4784764698     5.6296652782
H       12.8111610028     3.1987169418     2.9973990512
H       14.0250567460     2.7670589667     1.0366623513
H       18.4663873888     3.3430150191     1.4176989931
H       13.8172911661     1.0318552021     2.7401703591
H       18.5539843662     1.1034617747     2.3637821835
H       16.4493307364     0.9421585399     7.7841638873
H       14.2982436582     0.9973339140     6.7396602480
H       20.3054860789     2.6886898286     2.8202234852
H       16.1827623541     0.1016966980     5.5235919202
32
# Point -8 Energy = 0.0
C       20.6526895899     3.6311327173     7.5084754175
H       18.9683307916     3.6037930385     6.1634369966
C       19.4439018353     2.9324519694     6.8891770301
H       18.6961031291     2.7445703948     7.6715599254
H       20.5632600597     1.7770975079     5.4274913042
C       19.8069251925     1.6148191920     6.2051595576
H       18.9382550792     1.1439476639     5.7323848944
H       20.2286402586     0.9038328710     6.9242785110
H       21.4101963454     3.8460602030     6.7455523863
H       21.1207938491     3.0026152589     8.2716529431
H       20.3705442513     4.5786779564     7.9787591430
Si       16.4161905391     3.4109427774     4.3965621521
O       16.3046310202     5.0101368717     4.7812325422
O       17.9024210410     3.0152469785     3.8679379953
O       15.3480101905     2.9455148726     3.2688600174
O       16.1000690148     2.5366131214     5.7069048773
Si       16.5075356827     6.5997725854     4.3535434401
Si       13.9798914310     2.6975270039     2.4173822723
Si       18.8214253185     2.7308509999     2.5383573393
Si       15.7199975936     1.2580250472     6.6334194617
H       17.8815549099     6.8565593087     3.9043343258
H       15.5397338278     6.9663793802     3.3155397544
H       16.2788386763     7.4766537727     5.6262043862
H       12.8127335396     3.2193217567     3.0144561276
H       14.0123128440     2.7849923872     1.0344355626
H       18.4607084810     3.3364673019     1.4079677012
H       13.7956799240     1.0439040616     2.7286837441
H       18.5520110320     1.1003612569     2.3551049690
H       16.4466686971     0.9323112013     7.7877667936
H       14.2916848500     0.9919701652     6.7330067918
H       20.3112254744     2.6874910096     2.8093395877
H       16.1850161306     0.0932613673     5.5281974090
32
# Point -7 Energy = 0.0
C       20.6518163301     3.6364031869     7.5126707102
H       18.9698806155     3.6058032311     6.1651050856
C       19.4449380568     2.9355703288     6.8921410859
H       18.6959831114     2.7467357992     7.6730619100
H       20.5683520630     1.7812959831     5.4324537174
C       19.8111449998     1.6182994000     6.2091550116
H       18.9434374785     1.1459811335     5.7355596770
H       20.2324187667     0.9076205827     6.9288045276
H       21.4098815213     3.8524124493     6.7506176808
H       21.1200212454     3.0093696051     8.2770050504
H       20.3671276363     4.5837063657     7.9818546757
Si       16.4200127535     3.4084549776     4.3959664566
O       16.3061027713     5.0065197174     4.7749596680
O       17.9096771417     3.0213882205     3.8662358042
O       15.3545938468     2.9485179868     3.2604744100
O       16.1019330301     2.5390702250     5.7131533344
Si       16.5069692708     6.5976511332     4.3584502243
Si       13.9754824425     2.6851975794     2.4277546149
Si       18.8242431137     2.7049128343     2.5394515583
Si       15.7220973943     1.2385846416     6.6143375947
H       17.8830493592     6.8553073725     3.9046869780
H       15.5414317783     6.9634538087     3.3114496355
H       16.2763708515     7.4752119302     5.6231011221
H       12.8145640285     3.2378027536     3.0305776053
H       14.0003895574     2.8008846912     1.0329590510
H       18.4560900752     3.3309726472     1.3994150201
H       13.7764134818     1.0549751217     2.7195656156
H       18.5502037055     1.0977590596     2.3472715689
H       16.4441887864     0.9238164065     7.7906002715
H       14.2857854860     0.9874954123     6.7265277010
H       20.3164359542     2.6862756223     2.7999432276
H       16.1869439467     0.0858517932     5.5318547659
32
# Point -6 Energy = 0.0
C       20.6509221683     3.6410240668     7.5163763962
H       18.9712416480     3.6076826581     6.1664966461
C       19.4457255670     2.9383739862     6.8946942800
H       18.6956753874     2.7486635729     7.6742248849
H       20.5727543780     1.7850981995     5.4367438619
C       19.8147389961     1.6214635587     6.2125546873
H       18.9478334645     1.1479410047     5.7381977597
H       20.2355062774     0.9109207144     6.9326028350
H       21.4094945294     3.8580318542     6.7551214823
H       21.1191814958     3.0152894693     8.2817400776
H       20.3639595631     4.5880920159     7.9845954968
Si       16.4233869317     3.4065916388     4.3953972835
O       16.3075577173     5.0034966232     4.7688863868
O       17.9162603460     3.0279170413     3.8642576939
O       15.3604463665     2.9525162773     3.2523136548
O       16.1033654831     2.5421232728     5.7193651388
Si       16.5064507681     6.5960520492     4.3636239940
Si       13.9714262709     2.6713797430     2.4382201293
Si       18.8270487294     2.6793871303     2.5415153303
Si       15.7245041032     1.2200628579     6.5947565276
H       17.8845115144     6.8544941262     3.9050481003
H       15.5431153572     6.9612572056     3.3078159898
H       16.2743038365     7.4741677518     5.6203901981
H       12.8165189087     3.2541360375     3.0454439202
H       13.9894626219     2.8147275981     1.0320990278
H       18.4524319982     3.3265209062     1.3920290268
H       13.7595522547     1.0649672750     2.7125717178
H       18.5485582789     1.0956775041     2.3403135461
H       16.4418978595     0.9166826233     7.7927461512
H       14.2805506380     0.9839260293     6.7203791768
H       20.3210709527     2.6851156259     2.7919834138
H       16.1885261882     0.0795215825     5.5346605448
32
# Point -5 Energy = 0.0
C       20.6500557558     3.6449874607     7.5195611460
H       18.9724274145     3.6094227429     6.1676188621
C       19.4462910316     2.9408577242     6.8968395372
H       18.6952225403     2.7503631495     7.6750716265
H       20.5764512690     1.7884729450     5.4403479420
C       19.8177078361     1.6242947790     6.2153645317
H       18.9514275827     1.1498123002     5.7403296146
H       20.2379152386     0.9137202834     6.9356765329
H       21.4090686047     3.8628965624     6.7590124200
H       21.1183378109     3.0203703460     8.2858220257
H       20.3611067353     4.5918356421     7.9869487296
Si       16.4262796163     3.4053462812     4.3949223837
O       16.3089789291     5.0010685240     4.7630677977
O       17.9221264569     3.0348085553     3.8620412105
O       15.3655042595     2.9574975225     3.2444753396
O       16.1043647515     2.5457799364     5.7256262382
Si       16.5059731261     6.5949686043     4.3690978026
Si       13.9678128174     2.6561231749     2.4487005810
Si       18.8297565947     2.6543028445     2.5445461090
Si       15.7271984945     1.2025044998     6.5747930338
H       17.8859231043     6.8540980789     3.9054156919
H       15.5447515221     6.9597799532     3.3046889159
H       16.2726613907     7.4735326227     5.6181015336
H       12.8184630688     3.2683100260     3.0587481530
H       13.9797067690     2.8265423455     1.0317197854
H       18.4496274259     3.3230904786     1.3857982665
H       13.7451447229     1.0738069983     2.7074376578
H       18.5470702620     1.0941307186     2.3342666062
H       16.4398078741     0.9109088422     7.7942883440
H       14.2759883127     0.9812664640     6.7147205056
H       20.3250817597     2.6840820953     2.7854030650
H       16.1897475221     0.0743194984     5.5367133707
32
# Point -4 Energy = 0.0
C       20.6492643939     3.6482900595     7.5221951576
H       18.9734514020     3.6110150743     6.1684793047
C       19.4466615865     2.9430182280     6.8985812606
H       18.6946672876     2.7518453283     7.6756261299
H       20.5794305641     1.7913916270     5.4432556138
C       19.8200554187     1.6267782466     6.2175936123
H       18.9542089086     1.1515801696     5.7419887968
H       20.2396618449     0.9160099868     6.9380329665
H       21.4086358503     3.8669898621     6.7622409293
H       21.1175524587     3.0246140487     8.2892173804
H       20.3586325011     4.5949423748     7.9888818526
Si       16.4286594651     3.4047062954     4.3946084376
O       16.3103480902     4.9992298777     4.7575560860
O       17.9272342003     3.0420338729     3.8596239217
O       15.3697077773     2.9634401308     3.2370553331
O       16.1049324276     2.5500429143     5.7320221108
Si       16.5055265208     6.5943881129     4.3749004549
Si       13.9647306124     2.6394892972     2.4591153349
Si       18.8322845828     2.6296833954     2.5485410440
Si       15.7301621495     1.1859478048     6.5545645035
H       17.8872623829     6.8540934870     3.9057842612
H       15.5463041050     6.9590032791     3.3021129912
H       16.2714612983     7.4733123076     5.6162595646
H       12.8202641001     3.2803241331     3.0701993266
H       13.9712949185     2.8363810925     1.0316862264
H       18.4475638963     3.3206494778     1.3807114661
H       13.7332261111     1.0814482320     2.7038829127
H       18.5457351598     1.0931248137     2.3291700531
H       16.4379356992     0.9064854246     7.7953125303
H       14.2721094315     0.9795093909     6.7097123652
H       20.3284182916     2.6832450077     2.7801399337
H       16.1905971633     0.0702886470     5.5381134977
32
# Point -3 Energy = 0.0
C       20.6485933483     3.6509330209     7.5242502115
H       18.9743267329     3.6124513488     6.1690857052
C       19.4468643646     2.9448539860     6.8999251603
H       18.6940519231     2.7531220702     7.6759132620
H       20.5816834094     1.7938283719     5.4454600642
C       19.8217885531     1.6289012220     6.2192540205
H       18.9561708705     1.1532299020     5.7432116845
H       20.2407655722     0.9177841557     6.9396836786
H       21.4082266328     3.8703001593     6.7647594816
H       21.1168859209     3.0280285492     8.2918952227
H       20.3565960740     4.5974215451     7.9903626944
Si       16.4304974163     3.4046529517     4.3945203811
O       16.3116455846     4.9979685979     4.7523998502
O       17.9315453465     3.0495602122     3.8570430292
O       15.3730013522     2.9703132083     3.2301469018
O       16.1050732127     2.5549098288     5.7386369155
Si       16.5050983629     6.5942919362     4.3810559515
Si       13.9622657676     2.6215508717     2.4693817293
Si       18.8345550128     2.6055468983     2.5534968224
Si       15.7333775692     1.1704240618     6.5341878805
H       17.8885041491     6.8544504262     3.9061445703
H       15.5477340878     6.9588992955     3.3001265905
H       16.2707151703     7.4735067994     5.6148826337
H       12.8217969728     3.2901876816     3.0795252312
H       13.9643973151     2.8443279241     1.0318664808
H       18.4461243245     3.3191569642     1.3767572233
H       13.7238173103     1.0878717832     2.7016149614
H       18.5445487902     1.0926581820     2.3250662128
H       16.4363027508     0.9033951299     7.7959058363
H       14.2689278352     0.9786361742     6.7055150236
H       20.3310298081     2.6826730490     2.7761275610
H       16.1910690593     0.0674656927     5.5389623883
32
# Point -2 Energy = 0.0
C       20.6480852039     3.6529218081     7.5256997090
H       18.9750658478     3.6137233038     6.1694457397
C       19.4469260438     2.9463651663     6.9008780785
H       18.6934177948     2.7542062766     7.6759584166
H       20.5832040093     1.7957600837     5.4469580672
C       19.8229166233     1.6306530063     6.2203607570
H       18.9573110555     1.1547469181     5.7440372100
H       20.2412487234     0.9190406612     6.9406443288
H       21.4078690067     3.8728209048     6.7665227911
H       21.1163961029     3.0306277608     8.2938273073
H       20.3550518109     4.5992864563     7.9913594255
Si       16.4317668168     3.4051614464     4.3947207840
O       16.3128505728     4.9972660363     4.7476434995
O       17.9350247866     3.0573510266     3.8543350124
O       15.3753339727     2.9780766869     3.2238398971
O       16.1047947874     2.5603731510     5.7455526848
Si       16.5046732882     6.5946555294     4.3875830124
Si       13.9605009173     2.6023914726     2.4794155290
Si       18.8364955451     2.5819064494     2.5594095160
Si       15.7368283041     1.1559572899     6.5137786420
H       17.8896197458     6.8551348899     3.9064834440
H       15.5489998462     6.9594311106     3.2987613103
H       16.2704282659     7.4741102187     5.6139824709
H       12.8229489502     3.2979191373     3.0864747217
H       13.9591805534     2.8504993781     1.0321345573
H       18.4451880073     3.3185642013     1.3739236768
H       13.7169241125     1.0930843090     2.7003334906
H       18.5435075489     1.0927219076     2.3219998363
H       16.4349344810     0.9016142428     7.7961564621
H       14.2664603270     0.9786175918     6.7022864751
H       20.3328655644     2.6824334272     2.7732962244
H       16.1911619840     0.0658801509     5.5393622827
32
# Point -1 Energy = 0.0
C       20.6477792720     3.6542659929     7.5265187058
H       18.9756802062     3.6148226478     6.1695668359
C       19.4468724244     2.9475534762     6.9014478217
H       18.6928048242     2.7551115607     7.6757871835
H       20.5839893616     1.7971664630     5.4477500234
C       19.8234512601     1.6320248768     6.2209316082
H       18.9576310065     1.1561167459     5.7445065898
H       20.2411359930     0.9197807791     6.9409345886
H       21.4075881795     3.8745504767     6.7674880094
H       21.1161376092     3.0324312740     8.2949881235
H       20.3540485569     4.6005541310     7.9918405543
Si       16.4324435191     3.4062009892     4.3952692873
O       16.3139410577     4.9970970189     4.7433267288
O       17.9376405736     3.0653661462     3.8515353124
O       15.3766594976     2.9866815132     3.2182200179
O       16.1041076625     2.5664201626     5.7528485685
Si       16.5042331366     6.5954485367     4.3944946841
Si       13.9595141705     2.5821048435     2.4891314581
Si       18.8380399689     2.5587704480     2.5662744369
Si       15.7404990952     1.1425639900     6.4934498351
H       17.8905770500     6.8561089153     3.9067836446
H       15.5500573660     6.9605530086     3.2980414994
H       16.2705993394     7.4751107695     5.6135637696
H       12.8236245315     3.3035457409     3.0908194641
H       13.9558064359     2.8550444322     1.0323729756
H       18.4446316105     3.3188158919     1.3721981672
H       13.7125368126     1.0971169447     2.6997346118
H       18.5426086308     1.0933002774     2.3200174891
H       16.4338597571     0.9011137147     7.7961532309
H       14.2647267550     0.9794147621     6.7001805607
H       20.3338753923     2.6825916762     2.7715738425
H       16.1908795434     0.0655537940     5.5394157311
32
# Point 0 Energy = 0
C       20.6477110000     3.6549790000     7.5266840000
H       18.9761800000     3.6157410000     6.1694560000
C       19.4467280000     2.9484220000     6.9016430000
H       18.6922510000     2.7558520000     7.6754250000
H       20.5840390000     1.7980300000     5.4478400000
C       19.8234060000     1.6330100000     6.2209870000
H       18.9571360000     1.1573250000     5.7446630000
H       20.2404540000     0.9200090000     6.9405780000
H       21.4074060000     3.8754920000     6.7676150000
H       21.1161610000     3.0334640000     8.2953550000
H       20.3536290000     4.6012450000     7.9917750000
Si       16.4325060000     3.4077350000     4.3962220000
O       16.3148940000     4.9974300000     4.7394840000
O       17.9393640000     3.0735620000     3.8486780000
O       15.3769370000     2.9960700000     3.2133680000
O       16.1030250000     2.5730330000     5.7606000000
Si       16.5037570000     6.5966350000     4.4017980000
Si       13.9593780000     2.5607940000     2.4984440000
Si       18.8391290000     2.5361430000     2.5740860000
Si       15.7443760000     1.1302530000     6.4733110000
H       17.8913405600     6.8573308000     3.9070238400
H       15.5508605600     6.9622108000     3.2979838400
H       16.2712205600     7.4764908000     5.6136238400
H       12.8237502400     3.3071035200     3.0923555200
H       13.9544302400     2.8581435200     1.0324755200
H       18.4443303200     3.3198514400     1.3715668800
H       13.7106302400     1.1000235200     2.6995155200
H       18.5418503200     1.0943714400     2.3191668800
H       16.4331100800     0.9018602400     7.7959848800
H       14.2637500800     0.9809802400     6.6993448800
H       20.3340103200     2.6832114400     2.7708868800
H       16.1902300800     0.0665002400     5.5392248800
32
# Point 1 Energy = 0.0
C       20.6479111269     3.6550777927     7.5261738286
H       18.9765734514     3.6164684916     6.1691194673
C       19.4465156057     2.9489741352     6.9014727770
H       18.6917921559     2.7564407206     7.6748968487
H       20.5833553164     1.7983353958     5.4472357876
C       19.8227967159     1.6336025011     6.2205499986
H       18.9558358124     1.1583559053     5.7445516076
H       20.2392321082     0.9197324015     6.9396020818
H       21.4073399709     3.8756533834     6.7668660794
H       21.1165122669     3.0337562006     8.2949078939
H       20.3538282668     4.6013824737     7.9911316060
Si       16.4319349437     3.4097180800     4.3976310813
O       16.3156842080     4.9982240144     4.7361439381
O       17.9401691973     3.0818894004     3.8457952646