32
# Point -15 Energy = 0.0
C       20.8715162803     3.7096481101     7.6092934353
H       18.9164369560     3.5432092211     6.1822672501
C       19.4943619190     2.9288768165     6.9011761910
H       18.6723917964     2.7999920503     7.6379917954
H       20.4967834280     2.1583533044     5.5650227281
C       19.9255722418     1.4289163603     6.1158783272
H       18.8840130157     1.5092693371     5.8749861826
H       20.1733192305     1.3083217770     7.1578922939
H       21.0891458070     3.6477694284     6.5512911912
H       20.8933404258     2.7399749018     8.0749510084
H       20.0760301364     4.4225601120     7.7215105063
Si       16.4718787228     3.3953228541     4.4094685623
O       16.3598315602     4.9851349185     4.7601415552
O       17.9727561093     3.0612187462     3.8509445814
O       15.4065080435     2.9914940137     3.2317024215
O       16.1487199452     2.5572889248     5.7732586624
Si       16.5503739301     6.5846709772     4.4273351290
Si       13.9842050796     2.5626085593     2.5247599357
Si       18.8643634146     2.5262007312     2.5692423393
Si       15.7917719991     1.1120515641     6.4818979142
H       17.9353334170     6.8440098661     3.9246293414
H       15.5912332507     6.9569114720     3.3311449050
H       16.3277687161     7.4603310393     5.6440814169
H       12.8539958578     3.3092199757     3.1287768092
H       13.9702792192     2.8656662528     1.0598932068
H       18.4633591475     3.3152239050     1.3717890676
H       13.7329566605     1.1015787836     2.7215550063
H       18.5615866800     1.0857999586     2.3099970795
H       16.4877775164     0.8767911844     7.7995349072
H       14.3115831728     0.9654404533     6.7172596547
H       20.3604775897     2.6685356526     2.7563588869
H       16.2283093311     0.0509107485     5.5411330679
32
# Point -14 Energy = 0.0
C       20.8619270882     3.7033847893     7.6017626005
H       18.9245858616     3.5466478892     6.1806273520
C       19.4959510019     2.9279390292     6.8998428050
H       18.6788447282     2.7946435635     7.6399074214
H       20.5004611488     2.1640218674     5.5665808777
C       19.9224710942     1.4404566759     6.1206063824
H       18.8789574528     1.5130546053     5.8782870949
H       20.1745922067     1.3098151623     7.1615786775
H       21.0921696022     3.6460545646     6.5451916717
H       20.8851268901     2.7356824389     8.0741753667
H       20.0683279347     4.4187744673     7.7242309267
Si       16.4724038616     3.3951951558     4.4094168778
O       16.3605504820     4.9849303030     4.7600975445
O       17.9732305001     3.0609260110     3.8505040989
O       15.4067936033     2.9913758144     3.2319318515
O       16.1495877571     2.5570861538     5.7732458264
Si       16.5510794806     6.5844947307     4.4272620267
Si       13.9842313730     2.5625448468     2.5253178404
Si       18.8643937298     2.5259056228     2.5685197221
Si       15.7927175582     1.1118962468     6.4820166627
H       17.9359239222     6.8437729567     3.9242035354
H       15.5916771258     6.9567803853     3.3313187077
H       16.3288258339     7.4601570934     5.6440691762
H       12.8542264127     3.3092083388     3.1296370567
H       13.9699597088     2.8656146706     1.0604653154
H       18.4631419068     3.3149760985     1.3712122708
H       13.7329865411     1.1015305592     2.7221805509
H       18.5615114146     1.0855435325     2.3093851364
H       16.4890956085     0.8765993365     7.7994514401
H       14.3126287503     0.9653496081     6.7177324957
H       20.3605858738     2.6681982972     2.7552940974
H       16.2290141466     0.0507411851     5.5411119496
32
# Point -13 Energy = 0.0
C       20.8521237295     3.6972511276     7.5942942360
H       18.9325950247     3.5501049142     6.1789882274
C       19.4973507443     2.9271133854     6.8985446039
H       18.6851098470     2.7894224628     7.6417916280
H       20.5045711844     2.1686857427     5.5675599844
C       19.9192643629     1.4520929135     6.1254481404
H       18.8739328915     1.5156675417     5.8810401477
H       20.1762318846     1.3098789637     7.1649400034
H       21.0957846996     3.6448587402     6.5394920182
H       20.8780287309     2.7320800003     8.0744169224
H       20.0614630475     4.4159799723     7.7277699624
Si       16.4727964542     3.3951178634     4.4093211355
O       16.3611114366     4.9847790967     4.7599876630
O       17.9735895066     3.0606927842     3.8500604664
O       15.4069799713     2.9912827531     3.2320958071
O       16.1502983038     2.5569467067     5.7731909354
Si       16.5516183670     6.5843699249     4.4271086182
Si       13.9841804850     2.5624828806     2.5257803780
Si       18.8643457632     2.5256641126     2.5678224107
Si       15.7935037261     1.1118089789     6.4821018831
H       17.9363573169     6.8435960912     3.9237284142
H       15.5919774248     6.9566775197     3.3313842133
H       16.3296771283     7.4600467796     5.6439606097
H       12.8543570980     3.3091937613     3.1303651035
H       13.9695959622     2.8655472127     1.0609381645
H       18.4628675662     3.3147633470     1.3706415238
H       13.7329497814     1.1014837859     2.7227219632
H       18.5613794738     1.0853344164     2.3088082840
H       16.4902243422     0.8764986519     7.7993542873
H       14.3135107663     0.9653140087     6.7181371359
H       20.3606097087     2.6679325462     2.7542897024
H       16.2295938705     0.0506330138     5.5410807868
32
# Point -12 Energy = 0.0
C       20.8420511930     3.6912788139     7.5869116273
H       18.9404182589     3.5536032864     6.1773612632
C       19.4985125009     2.9264264350     6.8972982436
H       18.6911333128     2.7843561945     7.6436567138
H       20.5091907313     2.1720685799     5.5678024088
C       19.9159109123     1.4638506483     6.1304257884
H       18.8689595611     1.5168002936     5.8830872851
H       20.1782993416     1.3081876429     7.1678608672
H       21.1002326791     3.6443704722     6.5343189085
H       20.8722814226     2.7293385176     8.0758798233
H       20.0556377462     4.4143979896     7.7323069885
Si       16.4730248847     3.3951019378     4.4091741078
O       16.3614762435     4.9846931149     4.7597987584
O       17.9738065020     3.0605319751     3.8496185850
O       15.4070451903     2.9912193299     3.2321804987
O       16.1508120299     2.5568851397     5.7730871144
Si       16.5519508503     6.5843077783     4.4268579999
Si       13.9840367087     2.5624213219     2.5261246450
Si       18.8642036904     2.5254871916     2.5671635543
Si       15.7940893395     1.1118057126     6.4821487313
H       17.9365969453     6.8434923241     3.9231964275
H       15.5921015231     6.9566081590     3.3313162348
H       16.3302717015     7.4600146905     5.6437343850
H       12.8543658603     3.3091740340     3.1309273367
H       13.9691822959     2.8654577767     1.0612877423
H       18.4625271246     3.3145917768     1.3700844601
H       13.7328328818     1.1014371328     2.7231591955
H       18.5611805412     1.0851820093     2.3082820711
H       16.4911134621     0.8765110766     7.7992445196
H       14.3141866602     0.9653466714     6.7184583131
H       20.3605315660     2.6677537342     2.7533694149
H       16.2300169390     0.0506002388     5.5410413471
32
# Point -11 Energy = 0.0
C       20.8316317629     3.6855125508     7.5796481978
H       18.9479907567     3.5571753687     6.1757626470
C       19.4993675673     2.9259156780     6.8961276880
H       18.6968388713     2.7794835325     7.6455201757
H       20.5144208900     2.1737726265     5.5670925006
C       19.9123529478     1.4757658988     6.1355716033
H       18.8640798865     1.5160186750     5.8842073576
H       20.1808764858     1.3042879563     7.1701670242
H       21.1058440584     3.6448535127     6.5298634209
H       20.8682152260     2.7277088928     8.0788419277
H       20.0511448671     4.4143337052     7.7380880670
Si       16.4730446566     3.3951629020     4.4089658643
O       16.3615911199     4.9846890787     4.7595125458
O       17.9738440627     3.0604618690     3.8491857395
O       15.4069584775     2.9911919628     3.2321666671
O       16.1510731430     2.5569220333     5.7729248972
Si       16.5520209711     6.5843241721     4.4264866218
Si       13.9837781342     2.5623583531     2.5263184252
Si       18.8639454149     2.5253904569     2.5665621353
Si       15.7944162897     1.1119089908     6.4821505673
H       17.9365912284     6.8434801375     3.9225973196
H       15.5920035788     6.9565798193     3.3310794767
H       16.3305377666     7.4600814514     5.6433606901
H       12.8542217967     3.3091460988     3.1312763575
H       13.9687110435     2.8653378403     1.0614802763
H       18.4621081970     3.3144701325     1.3695522635
H       13.7326170338     1.1013887924     2.7234640309
H       18.5609003112     1.0850996665     2.3078288346
H       16.4916919373     0.8766675977     7.7991238830
H       14.3145963401     0.9654659883     6.7186745861
H       20.3603269264     2.6676835901     2.7525672245
H       16.2302388509     0.0506626690     5.5409963440
32
# Point -10 Energy = 0.0
C       20.8207528618     3.6800170904     7.5725525207
H       18.9552195699     3.5608685776     6.1742159934
C       19.4998164381     2.9256355403     6.8950676617
H       18.7021164325     2.7748602945     7.6474071220
H       20.5204021770     2.1732150420     5.5651248486
C       19.9085074431     1.4878907529     6.1409333379
H       18.8593683957     1.5126956919     5.8840837360
H       20.1840798841     1.2975280478     7.1715976612
H       21.1130925896     3.6466893113     6.5264137746
H       20.8663019468     2.7275620030     8.0836940594
H       20.0484129555     4.4162204999     7.7454645830
Si       16.4727913296     3.3953233268     4.4086821028
O       16.3613781929     4.9847912938     4.7591025933
O       17.9736479697     3.0605090294     3.8487725487
O       15.4066752460     2.9912100233     3.2320265303
O       16.1510008557     2.5570872992     5.7726906604
Si       16.5517477107     6.5844421883     4.4259603994
Si       13.9833730250     2.5622914134     2.5263152049
Si       18.8635388899     2.5253965668     2.5660457224
Si       15.7944004353     1.1121515792     6.4820978847
H       17.9362654759     6.8435863736     3.9219162408
H       15.5916172243     6.9566034553     3.3306228603
H       16.3303714045     7.4602770267     5.6427963496
H       12.8538801695     3.3091056039     3.1313436610
H       13.9681710831     2.8651751152     1.0614670065
H       18.4615927968     3.3144111325     1.3690612105
H       13.7322749870     1.1013362240     2.7235957747
H       18.5605180091     1.0851067996     2.3074810322
H       16.4918569192     0.8770132252     7.7989949995
H       14.3146528069     0.9656987171     6.7187550328
H       20.3599602250     2.6677536534     2.7519324090
H       16.2301951499     0.0508491018     5.5409498378
32
# Point -9 Energy = 0.0
C       20.8092424981     3.6748911307     7.5656996277
H       18.9619632503     3.5647549418     6.1727576068
C       19.4997071396     2.9256689848     6.8941719312
H       18.7067975302     2.7705716143     7.6493562124
H       20.5273280867     2.1694877303     5.5614525397
C       19.9042479710     1.5003044628     6.1465852810
H       18.8549743794     1.5058778202     5.8822406377
H       20.1880767101     1.2869290142     7.1717251911
H       21.1226826131     3.6504572471     6.5244381206
H       20.8672545139     2.7294870738     8.0910091471
H       20.0481123667     4.4206985379     7.7549575716
Si       16.4721667854     3.3956176876     4.4083014742
O       16.3607188506     4.9850368676     4.7585290583
O       17.9731357381     3.0607140195     3.8483958652
O       15.4061278152     2.9912879002     3.2317180583
O       16.1504719236     2.5574265832     5.7723640167
Si       16.5510077382     6.5846970665     4.4252278717
Si       13.9827734021     2.5622167293     2.5260442095
Si       18.8629355883     2.5255401518     2.5656571421
Si       15.7939132948     1.1125834690     6.4819764983
H       17.9355060614     6.8438520013     3.9211312523
H       15.5908416391     6.9566958476     3.3298689062
H       16.3296142227     7.4606471210     5.6419760043
H       12.8532731246     3.3090460388     3.1310247923
H       13.9675460741     2.8649510272     1.0611737562
H       18.4609540219     3.3144342787     1.3686368845
H       13.7317655468     1.1012756894     2.7234924701
H       18.5600023034     1.0852331043     2.3072888914
H       16.4914512076     0.8776165844     7.7988622466
H       14.3142232064     0.9660856986     6.7186526137
H       20.3593775273     2.6680120764     2.7515410937
H       16.2297874691     0.0512034995     5.5409083873
32
# Point -8 Energy = 0.0
C       20.7968257540     3.6702908598     7.5592101182
H       18.9679965354     3.5689484779     6.1714458038
C       19.4987967136     2.9261473495     6.8935269120
H       18.7106127532     2.7667521267     7.6514292818
H       20.5354668281     2.1611098667     5.5554005069
C       19.8993727923     1.5131322955     6.1526473874
H       18.8512008815     1.4940545021     5.8779363129
H       20.1931131772     1.2709595795     7.1698124244
H       21.1357143049     3.6570807590     6.5247358256
H       20.8721983665     2.7344668204     8.1016608614
H       20.0513446862     4.4287490102     7.7673753622
Si       16.4710144930     3.3961006656     4.4077902866
O       16.3594240590     4.9854846347     4.7577288935
O       17.9721757620     3.0611411201     3.8480831225
O       15.4052083510     2.9914485181     3.2311744170
O       16.1492894241     2.5580122574     5.7719126310
Si       16.5496047710     6.5851446671     4.4242076677
Si       13.9819029396     2.5621285232     2.5253925327
Si       18.8620581543     2.5258760878     2.5654653645
Si       15.7927492850     1.1132839301     6.4817637379
H       17.9341322528     6.8443419117     3.9202083093
H       15.5895166905     6.9568836668     3.3286946836
H       16.3280139687     7.4612641526     5.6407961401
H       12.8522926879     3.3089573162     3.1301530267
H       13.9668104174     2.8646363758     1.0604822700
H       18.4601493136     3.3145705103     1.3683208178
H       13.7310229728     1.1012014854     2.7230550789
H       18.5593031019     1.0855256673     2.3073329984
H       16.4902231620     0.8785864173     7.7987325933
H       14.3130949688     0.9666917596     6.7182920248
H       20.3584928016     2.6685350954     2.7515155799
H       16.2288582302     0.0517955901     5.5408823873
32
# Point -7 Energy = 0.0
C       20.7830468784     3.6664660951     7.5532832067
H       18.9729466550     3.5736317177     6.1703765078
C       19.4966817619     2.9272808892     6.8932747305
H       18.7131147414     2.7636173417     7.6537272644
H       20.5451589342     2.1455741189     5.5459485181
C       19.8935461609     1.5265745718     6.1593171275
H       18.8486909387     1.4747703115     5.8699931891
H       20.1995404252     1.2471719677     7.1645146232
H       21.1539728460     3.6680906769     6.5287525731
H       20.8829824129     2.7442262813     8.1170111951
H       20.0600203675     4.4419042898     7.7840120223
Si       16.4690748262     3.3968600175     4.4070922874
O       16.3571816769     4.9862289896     4.7565984940
O       17.9705493300     3.0618933059     3.8478790752
O       15.4037376353     2.9917288762     3.2302842175
O       16.1471261342     2.5589604795     5.7712817222
Si       16.5472159819     6.5858745664     4.4227671567
Si       13.9806343556     2.5620179717     2.5241721794
Si       18.8607772490     2.5264921878     2.5655835926
Si       15.7905656517     1.1143802421     6.4814196067
H       17.9318471114     6.8451599890     3.9190934107
H       15.5873798155     6.9572098173     3.3268991068
H       16.3251558350     7.4622442386     5.6390880772
H       12.8507598433     3.3088238207     3.1284517971
H       13.9659211243     2.8641848002     1.0591960414
H       18.4591076667     3.3148693142     1.3681814949
H       13.7299363172     1.1011049652     2.7221173739
H       18.5583350508     1.0860598825     2.3077446447
H       16.4877534826     0.8800971550     7.7986148507
H       14.3109137399     0.9676212075     6.7175459600
H       20.3571623553     2.6694445777     2.7520575035
H       16.2271432952     0.0527373340     5.5408858095
32
# Point -6 Energy = 0.0
C       20.7671782728     3.6637656876     7.5482260681
H       18.9762172625     3.5790606262     6.1696943703
C       19.4927141650     2.9293641677     6.8936299927
H       18.7135851576     2.7614698526     7.6563989773
H       20.5566227241     2.1187995115     5.5317737680
C       19.8862210747     1.5409117601     6.1668909701
H       18.8488246286     1.4443118980     5.8567083013
H       20.2077223461     1.2119760794     7.1533594108
H       21.1802728673     3.6859516415     6.5391643455
H       20.9025774894     2.7618055524     8.1390218078
H       20.0775010790     4.4623558939     7.8068401166
Si       16.4659294005     3.3980193913     4.4061108819
O       16.3534967421     4.9874029057     4.7549731590
O       17.9679011606     3.0631148747     3.8478454776
O       15.4014229826     2.9921817318     3.2288621846
O       16.1434534190     2.5604351104     5.7703731966
Si       16.5433359707     6.5870127687     4.4207026621
Si       13.9787555955     2.5618740767     2.5220750540
Si       18.8588766193     2.5275109414     2.5661797112
Si       15.7868033863     1.1160521958     6.4808630660
H       17.9281870049     6.8464516342     3.9177083783
H       15.5840225891     6.9577350669     3.3241720690
H       16.3203925467     7.4637508360     5.6365946913
H       12.8483839343     3.3086255562     3.1254760844
H       13.9648006814     2.8635324296     1.0569950744
H       18.4577083481     3.3153993806     1.3683196977
H       13.7283134672     1.1009755898     2.7203993810
H       18.5569456582     1.0869409879     2.3087141870
H       16.4833610376     0.8823946341     7.7985039037
H       14.3071018149     0.9690222798     6.7161946939
H       20.3551475655     2.6709101689     2.7534751256
H       16.2242036084     0.0541867684     5.5409185521
32
# Point -5 Energy = 0.0
C       20.7484587021     3.6623517248     7.5443078121
H       18.9771749142     3.5853592868     6.1695114181
C       19.4861982107     2.9325383890     6.8947605436
H       18.7112551470     2.7604582593     7.6595456798
H       20.5690506948     2.0764391016     5.5124572752
C       19.8767769005     1.5562783741     6.1755915008
H       18.8539955377     1.3995517360     5.8368875543
H       20.2173705926     1.1627091541     7.1328518713
H       21.2175878973     3.7133591048     6.5600522572
H       20.9342658281     2.7913581492     8.1690946128
H       20.1084697467     4.4915734766     7.8376829888
Si       16.4611207129     3.3996405254     4.4047122686
O       16.3478606114     4.9890728186     4.7526787178
O       17.9638308419     3.0648747537     3.8480011164
O       15.3979265440     2.9928355393     3.2266794619
O       16.1376903678     2.5625189586     5.7690364910
Si       16.5374710776     6.5886215460     4.4178292085
Si       13.9760031936     2.5616963492     2.5187424453
Si       18.8560859207     2.5289884071     2.5673696914
Si       15.7808283153     1.1183916205     6.4799349796
H       17.9227035564     6.8482858237     3.9159983313
H       15.5790546297     6.9584908853     3.3202293159
H       16.3131026949     7.4658654229     5.6330923854
H       12.8448353204     3.3083598611     3.1207432216
H       13.9633249326     2.8626521497     1.0535147464
H       18.4557892258     3.3161904549     1.3687987352
H       13.7258877008     1.1008138757     2.7175448458
H       18.5549054623     1.0882172503     2.3103549838
H       16.4762855458     0.8856024497     7.7983117415
H       14.3010046458     0.9709741752     6.7139379371
H       20.3521573354     2.6730083932     2.7560270185
H       16.2195077933     0.0562239836     5.5408842031
32
# Point -4 Energy = 0.0
C       20.7273837948     3.6615958099     7.5412255591
H       18.9762035103     3.5920787970     6.1696688911
C       19.4775379360     2.9362834967     6.8964236228
H       18.7065751252     2.7600582864     7.6629775291
H       20.5796323253     2.0205757821     5.4913132312
C       19.8654824315     1.5721796913     6.1850563560
H       18.8660804065     1.3445578188     5.8130599626
H       20.2265712082     1.1043745916     7.1018922510
H       21.2636208627     3.7489253883     6.5934052686
H       20.9760261736     2.8337448254     8.2037660670
H       20.1536924362     4.5254162152     7.8742992106
Si       16.4548967737     3.4015068981     4.4029060449
O       16.3406290778     4.9910066730     4.7498274425
O       17.9585267516     3.0669135570     3.8482258958
O       15.3933900359     2.9935988036     3.2238010109
O       16.1301421800     2.5649301190     5.7672536820
Si       16.5300349517     6.5904789593     4.4143407522
Si       13.9724461930     2.5615082619     2.5143189354
Si       18.8524710777     2.5306968922     2.5689372077
Si       15.7729234757     1.1210923680     6.4785568173
H       17.9157856047     6.8504002658     3.9140713726
H       15.5728292019     6.9593699895     3.3153585366
H       16.3038345807     7.4683042033     5.6288425244
H       12.8402669090     3.3080713858     3.1145248039
H       13.9614710354     2.8616561074     1.0489201332
H       18.4533693710     3.3171071019     1.3694799500
H       13.7226674218     1.1006444160     2.7136295309
H       18.5521873823     1.0896921069     2.3123873484
H       16.4668939930     0.8892998716     7.7978934119
H       14.2929163621     0.9732319899     6.7107970020
H       20.3482772719     2.6754240996     2.7593952145
H       16.2132147389     0.0585772278     5.5406097937
32
# Point -3 Energy = 0.0
C       20.7059471397     3.6606568606     7.5381923460
H       18.9749335206     3.5986072862     6.1698397324
C       19.4685091527     2.9398946465     6.8981034498
H       18.7015070227     2.7595534225     7.6663674282
H       20.5860851597     1.9605374150     5.4733556283
C       19.8538332871     1.5879450754     6.1945530056
H       18.8842114236     1.2893870586     5.7904097297
H       20.2334696822     1.0476985247     7.0642621470
H       21.3092607345     3.7859424061     6.6348902318
H       21.0187001648     2.8831120113     8.2355730736
H       20.2055597703     4.5553444853     7.9101835444
Si       16.4484208319     3.4033151086     4.4009983288
O       16.3331596139     4.9928799005     4.7468846077
O       17.9529855163     3.0688754404     3.8484100096
O       15.3886457096     2.9943340444     3.2207753621
O       16.1222704191     2.5672745382     5.7653455133
Si       16.5224031343     6.5922754533     4.4107844711
Si       13.9687060570     2.5613231449     2.5096860349
Si       18.8486618947     2.5323272618     2.5704982896
Si       15.7646398920     1.1237254731     6.4770232189
H       17.9086952614     6.8524361125     3.9121376993
H       15.5664625026     6.9602152912     3.3103856600
H       16.2943357498     7.4706726667     5.6245215377
H       12.8355053271     3.3077979358     3.1080558430
H       13.9595010615     2.8606785038     1.0441213105
H       18.4508202025     3.3179644924     1.3701478856
H       13.7192299266     1.1004806202     2.7094801066
H       18.5492604455     1.0910971826     2.3143875374
H       16.4570629747     0.8929045354     7.7973439775
H       14.2844395241     0.9754441651     6.7074373068
H       20.3441947650     2.6777350581     2.7628203164
H       16.2065627324     0.0608658787     5.5401900266
32
# Point -2 Energy = 0.0
C       20.6854408271     3.6592361092     7.5347654328
H       18.9744343168     3.6047241352     6.1698593797
C       19.4602852849     2.9431184405     6.8995349083
H       18.6973443933     2.7586832387     7.6695687763
H       20.5884494958     1.9026702548     5.4604513742
C       19.8428599737     1.6033344379     6.2037123523
H       18.9062921949     1.2395833911     5.7715024110
H       20.2378175498     0.9981160837     7.0238808035
H       21.3486815925     3.8197857460     6.6791513605
H       21.0564547952     2.9338909325     8.2611038280
H       20.2572271745     4.5775155162     7.9417263767
Si       16.4424726072     3.4049535544     4.3992260022
O       16.3263222633     4.9945729610     4.7441543229
O       17.9478903870     3.0706328803     3.8485369732
O       15.3842735910     2.9949886368     3.2179980359
O       16.1150571880     2.5694060957     5.7635761016
Si       16.5154260049     6.5938977030     4.4074827626
Si       13.9652384019     2.5611409051     2.5054554010
Si       18.8451235090     2.5337714182     2.5718752509
Si       15.7570434080     1.1261308296     6.4756120159
H       17.9022080357     6.8542650890     3.9103036393
H       15.5606349582     6.9609678039     3.3057987028
H       16.2856717723     7.4728255247     5.6205156074
H       12.8311190020     3.3075458809     3.1021539479
H       13.9576402294     2.8597641093     1.0397404675
H       18.4484298374     3.3186997927     1.3707130630
H       13.7160314648     1.1003216478     2.7057039009
H       18.5465171580     1.0923386063     2.3161821693
H       16.4480667859     0.8962010345     7.7968224323
H       14.2766739072     0.9774757631     6.7043713236
H       20.3404092892     2.6797947846     2.7658874612
H       16.2004432012     0.0629486932     5.5397987754
32
# Point -1 Energy = 0.0
C       20.6660799228     3.6573246203     7.5308996774
H       18.9748897942     3.6104217117     6.1697171130
C       19.4530690363     2.9459454736     6.9006952965
H       18.6943087160     2.7574347193     7.6725747990
H       20.5875411809     1.8485740467     5.4522149540
C       19.8327528025     1.6183407897     6.2124993490
H       18.9308520516     1.1958297953     5.7564411634
H       20.2400156155     0.9559237444     6.9824822220
H       21.3811098589     3.8495035552     6.7236555055
H       21.0886340117     2.9840917218     8.2806779423
H       20.3065895485     4.5923701062     7.9687037087
Si       16.4371935822     3.4064195121     4.3976387119
O       16.3202653124     4.9960820992     4.7416947724
O       17.9433706934     3.0721856905     3.8486191470
O       15.3803868184     2.9955631357     3.2155417466
O       16.1086770551     2.5713173402     5.7620005772
Si       16.5092425557     6.5953433150     4.4044948144
Si       13.9621390416     2.5609636711     2.5017315976
Si       18.8419556541     2.5350337895     2.5730566303
Si       15.7503266618     1.1282983186     6.4743821128
H       17.8964514953     6.8558871739     3.9085960978
H       15.5554585047     6.9616282936     3.3016802885
H       16.2780097295     7.4747563738     5.6168930990
H       12.8272168157     3.3073148796     3.0969535684
H       13.9559491241     2.8589198850     1.0358826666
H       18.4462685083     3.3193212388     1.3711756187
H       13.7131737563     1.1001686916     2.7024063224
H       18.5440522529     1.0934213380     2.3177616413
H       16.4401301075     0.8991752458     7.7963710897
H       14.2698170197     0.9793151341     6.7016927058
H       20.3370258142     2.6816078481     2.7685502631
H       16.1950275582     0.0648187417     5.5394801578
32
# Point 0 Energy = 0
C       20.6477110000     3.6549790000     7.5266840000
H       18.9761800000     3.6157410000     6.1694560000
C       19.4467280000     2.9484220000     6.9016430000
H       18.6922510000     2.7558520000     7.6754250000
H       20.5840390000     1.7980300000     5.4478400000
C       19.8234060000     1.6330100000     6.2209870000
H       18.9571360000     1.1573250000     5.7446630000
H       20.2404540000     0.9200090000     6.9405780000
H       21.4074060000     3.8754920000     6.7676150000
H       21.1161610000     3.0334640000     8.2953550000
H       20.3536290000     4.6012450000     7.9917750000
Si       16.4325060000     3.4077350000     4.3962220000
O       16.3148940000     4.9974300000     4.7394840000
O       17.9393640000     3.0735620000     3.8486780000
O       15.3769370000     2.9960700000     3.2133680000
O       16.1030250000     2.5730330000     5.7606000000
Si       16.5037570000     6.5966350000     4.4017980000
Si       13.9593780000     2.5607940000     2.4984440000
Si       18.8391290000     2.5361430000     2.5740860000
Si       15.7443760000     1.1302530000     6.4733110000
H       17.8913405600     6.8573308000     3.9070238400
H       15.5508605600     6.9622108000     3.2979838400
H       16.2712205600     7.4764908000     5.6136238400
H       12.8237502400     3.3071035200     3.0923555200
H       13.9544302400     2.8581435200     1.0324755200
H       18.4443303200     3.3198514400     1.3715668800
H       13.7106302400     1.1000235200     2.6995155200
H       18.5418503200     1.0943714400     2.3191668800
H       16.4331100800     0.9018602400     7.7959848800
H       14.2637500800     0.9809802400     6.6993448800
H       20.3340103200     2.6832114400     2.7708868800
H       16.1902300800     0.0665002400     5.5392248800
32
# Point 1 Energy = 0.0
C       20.6301319401     3.6522620027     7.5222203147
H       18.9781435564     3.6207275786     6.1691246134
C       19.4410841409     2.9505997552     6.9024447849
H       18.6909721913     2.7539857737     7.6781636925
H       20.5783835626     1.7503924929     5.4466407527
C       19.8146711891     1.6473925827     6.2292602470
H       18.9848153465     1.1231083733     5.7355901246
H       20.2394035861     0.8892367094     6.8982095183
H       21.4286189808     3.8984034005     6.8109627927
H       21.1400189189     3.0822611385     8.3060046761
H       20.3988467025     4.6052788032     8.0115876627
Si       16.4283008913     3.4089235368     4.3949525655
O       16.3100803007     4.9986412665     4.7374882063
O       17.9357795493     3.0747909614     3.8487351711