32
# Point -15 Energy = 0.0
C       20.3414196116     4.1125657898     8.0519194581
H       19.1687261700     4.0961561285     6.1983429345
C       19.3699780972     3.4458153705     7.0670272054
H       18.4086845215     3.2071998343     7.5397435382
H       20.8897561538     2.3798550788     5.9423810872
C       20.0047733191     2.1581665724     6.5479200526
H       19.3062828743     1.5839742342     5.9264400275
H       20.3081445803     1.5210552003     7.3874928653
H       21.2815906904     4.3580757312     7.5460734931
H       20.5783401534     3.4321808963     8.8814527445
H       19.9150209653     5.0361411058     8.4574870627
Si       16.5426870716     3.1004142653     4.2370129445
O       16.7314014105     4.6271250267     4.7761364063
O       17.8331042223     2.5437540057     3.3854262344
O       15.3388528218     2.9894751154     3.1234121744
O       16.3576937353     2.1572949094     5.5553536706
Si       17.0791263917     6.2264949901     4.6158138558
Si       13.8034555438     2.8420280411     2.5351581016
Si       18.3209509212     2.0652274359     1.8784269409
Si       15.9606563352     0.6853276473     6.1799775144
H       18.3634419030     6.3910948287     3.8682557568
H       15.9911665036     6.8698044885     3.7996575728
H       17.2248865172     6.9340988971     5.9493974315
H       12.8359077026     3.6435830252     3.3324227465
H       13.6926277393     3.3262752918     1.1208948133
H       17.8768384753     3.0618685573     0.8578551862
H       13.3611651091     1.4113884386     2.5884857537
H       17.6918247941     0.7485812419     1.5470952092
H       16.8779606693     0.2018467087     7.2749605900
H       14.5611730665     0.7008050832     6.7265553237
H       19.8239555534     1.9101809542     1.7627849483
H       16.0263869764     -0.2945528944     5.0658017161
32
# Point -14 Energy = 0.0
C       20.3578683533     4.1017604408     8.0243978685
H       19.1561363671     4.0704274688     6.1932243241
C       19.3769382871     3.4225639944     7.0584416759
H       18.4253211875     3.1862530024     7.5515568652
H       20.8824140222     2.3523341122     5.9181061642
C       20.0034779427     2.1330884995     6.5335324797
H       19.2971890181     1.5595667877     5.9202951645
H       20.3159415378     1.4956322991     7.3694033197
H       21.2901441874     4.3484092820     7.5045255045
H       20.6091330362     3.4302922222     8.8565638621
H       19.9326202838     5.0264090765     8.4286395191
Si       16.5361501837     3.1027429943     4.2454492289
O       16.7081802157     4.6345619825     4.7757251371
O       17.8427863437     2.5634582753     3.4082074458
O       15.3360065934     2.9929736837     3.1282813822
O       16.3408946863     2.1655354187     5.5666566530
Si       17.0472499157     6.2349009042     4.6062249960
Si       13.8033769573     2.8462221606     2.5334587852
Si       18.3555926714     2.0833538973     1.9103360600
Si       15.9439994191     0.6950141746     6.1949660863
H       18.3391753985     6.4025791661     3.8724510133
H       15.9646142743     6.8640831681     3.7722844459
H       17.1724720398     6.9538353173     5.9357562842
H       12.8337595153     3.6473804037     3.3280053091
H       13.6986247494     3.3318166459     1.1193938926
H       17.9083619991     3.0693732558     0.8813577738
H       13.3610762102     1.4156909009     2.5839826117
H       17.7489750655     0.7565017808     1.5783861194
H       16.8484665646     0.2246116221     7.3062803041
H       14.5364670033     0.7037103694     6.7211811685
H       19.8618474241     1.9494253890     1.8120264381
H       16.0327191463     -0.2912066960     5.0880674774
32
# Point -13 Energy = 0.0
C       20.3741513696     4.0919035800     7.9956538972
H       19.1428611880     4.0445169246     6.1882123572
C       19.3836948976     3.3996533120     7.0497550909
H       18.4424436159     3.1654302411     7.5634313289
H       20.8746841374     2.3253059733     5.8937566542
C       20.0022020358     2.1084016555     6.5193790049
H       19.2882087530     1.5350994413     5.9149144472
H       20.3242225008     1.4709882159     7.3515492594
H       21.2978832278     4.3397324856     7.4611394749
H       20.6405771702     3.4298370436     8.8302271058
H       19.9499362357     5.0175921075     8.3985120425
Si       16.5297542894     3.1042692835     4.2539486352
O       16.6850228640     4.6408978259     4.7755461985
O       17.8522658612     2.5824701970     3.4313662159
O       15.3333581971     2.9966785341     3.1330803718
O       16.3240229183     2.1729226880     5.5778416946
Si       17.0155598889     6.2421196012     4.5972198045
Si       13.8035124345     2.8515361858     2.5315119608
Si       18.3902188045     2.1013044902     1.9429993709
Si       15.9270934963     0.7038767121     6.2097691887
H       18.3150644461     6.4132298764     3.8776157088
H       15.9387296547     6.8572586250     3.7455861244
H       17.1199182501     6.9718951532     5.9225665397
H       12.8321015505     3.6523378564     3.3236237208
H       13.7051505289     3.3391652294     1.1178878404
H       17.9405023687     3.0768217710     0.9056388500
H       13.3606168318     1.4212767834     2.5785421886
H       17.8061044141     0.7647062973     1.6104297712
H       16.8182939538     0.2465158513     7.3372048374
H       14.5118197405     0.7056619620     6.7154446614
H       19.8992271981     1.9883682516     1.8622919818
H       16.0387777770     -0.2884721553     5.1105190315
32
# Point -12 Energy = 0.0
C       20.4089856515     4.0756138442     7.9505024040
H       19.1331148510     4.0166043035     6.1793023545
C       19.3996614979     3.3736695861     7.0337044105
H       18.4737035584     3.1431830307     7.5752117537
H       20.8630795575     2.2927269098     5.8490776421
C       20.0023410458     2.0796718386     6.4919548678
H       19.2744884440     1.5087558111     5.9022801826
H       20.3393936153     1.4408639150     7.3168035598
H       21.3192417169     4.3226991720     7.3934889844
H       20.6966214731     3.4216880812     8.7837370441
H       19.9916789106     5.0029983244     8.3565013520
Si       16.5101961182     3.1125129380     4.2785264424
O       16.6466978393     4.6545240974     4.7890236947
O       17.8512385823     2.6088178114     3.4762678730
O       15.3358431273     2.9988793269     3.1361129511
O       16.2914505705     2.1860944295     5.6038494481
Si       16.9691429597     6.2561970494     4.6002205183
Si       13.8193944576     2.8469416697     2.5047344666
Si       18.4200964706     2.1264141119     2.0005370022
Si       15.8950324159     0.7176301188     6.2376417133
H       18.2782396627     6.4302041147     3.8990960657
H       15.9014829235     6.8554589997     3.7265964803
H       17.0479228839     6.9986728532     5.9198753108
H       12.8307077270     3.6450004342     3.2769452004
H       13.7472001678     3.3325903519     1.0892954446
H       17.9715811085     3.0901229816     0.9523069680
H       13.3817257154     1.4151064348     2.5452299960
H       17.8608960939     0.7798931874     1.6668939222
H       16.7696960870     0.2744441590     7.3832606133
H       14.4711656371     0.7095461358     6.7183049119
H       19.9313117700     2.0356532235     1.9431313357
H       16.0346479595     -0.2798772452     5.1467504459
32
# Point -11 Energy = 0.0
C       20.4137742864     4.0396375690     7.9402896296
H       19.1212270236     3.9828535075     6.1848117749
C       19.3969906984     3.3367187644     7.0333344530
H       18.4766940122     3.1114138920     7.5867638987
H       20.8469911827     2.2483090418     5.8383599691
C       19.9867717708     2.0399058033     6.4837435217
H       19.2519802309     1.4773981860     5.8945371279
H       20.3228083018     1.3943531675     7.3036523266
H       21.3204787764     4.2845489074     7.3763313636
H       20.7065508928     3.3887150323     8.7737089336
H       20.0010304686     4.9686708586     8.3471343556
Si       16.5158422599     3.1361169795     4.2710039420
O       16.6322240856     4.6838726317     4.7691233471
O       17.8702648030     2.6476221628     3.4825851993
O       15.3309558434     2.9982929428     3.1428371144
O       16.2923215232     2.2191818238     5.6022427970
Si       16.9412028619     6.2866972137     4.5675554202
Si       13.8105765629     2.8241101329     2.5277638633
Si       18.4610475107     2.1593852308     2.0176948114
Si       15.9007113832     0.7534254331     6.2453970598
H       18.2554484565     6.4670462350     3.8775667460
H       15.8763710149     6.8668762656     3.6778054417
H       16.9996778617     7.0423222651     5.8807518334
H       12.8222573711     3.6204862226     3.3016109279
H       13.7199345776     3.2938788473     1.1083269120
H       18.0079826356     3.1081231754     0.9583203458
H       13.3886094189     1.3884964955     2.5878923435
H       17.9242957613     0.8023104808     1.6906104371
H       16.7657430449     0.3287706657     7.4053569406
H       14.4712454094     0.7365063143     6.7096454181
H       19.9739000885     2.0901002559     1.9747655995
H       16.0620704812     -0.2528445045     5.1656415056
32
# Point -10 Energy = 0.0
C       20.4282747766     4.0030461166     7.9199254905
H       19.1102233759     3.9489363134     6.1872721344
C       19.3990659253     3.2996344995     7.0284182515
H       18.4874386663     3.0796138737     7.5981656403
H       20.8290939235     2.2033427011     5.8161286468
C       19.9726195581     1.9999163294     6.4682988493
H       19.2278619243     1.4461079604     5.8833748213
H       20.3113398862     1.3475661968     7.2815963470
H       21.3283754990     4.2453590067     7.3442450758
H       20.7303687660     3.3550021557     8.7518550979
H       20.0227125019     4.9339112803     8.3297076949
Si       16.5142079815     3.1610925011     4.2727466351
O       16.6099279310     4.7145425709     4.7575027254
O       17.8833077889     2.6879779716     3.5012084777
O       15.3290448517     2.9974729433     3.1488433749
O       16.2841175998     2.2527077495     5.6088517589
Si       16.9063111060     6.3180790384     4.5426648019
Si       13.8105532764     2.7991910143     2.5371633762
Si       18.4991788338     2.1941846234     2.0488890293
Si       15.8970293025     0.7891378864     6.2598697086
H       18.2268498810     6.5042848229     3.8662299780
H       15.8465265532     6.8787337777     3.6346655190
H       16.9420809809     7.0873297742     5.8486705626
H       12.8149735758     3.5927935080     3.3039018554
H       13.7134230141     3.2525060277     1.1130107379
H       18.0442001371     3.1276384224     0.9773226196
H       13.4055003069     1.3596928353     2.6136237984
H       17.9856986511     0.8268797083     1.7277532710
H       16.7503758858     0.3828952078     7.4350518131
H       14.4615451642     0.7619868020     6.7053095785
H       20.0132546585     2.1465651058     2.0235860177
H       16.0824983165     -0.2248267247     5.1913116711
32
# Point -9 Energy = 0.0
C       20.4442991678     3.9661736602     7.8966733957
H       19.0986164152     3.9148786156     6.1891431501
C       19.4014530465     3.2624666592     7.0223443968
H       18.4995566968     3.0473623989     7.6092819664
H       20.8098657708     2.1586504847     5.7911512000
C       19.9580420720     1.9600761422     6.4511136047
H       19.2027621599     1.4150171024     5.8714803425
H       20.3003155126     1.3009179469     7.2573026962
H       21.3367188570     4.2059147606     7.3079626329
H       20.7570100583     3.3208817898     8.7264103019
H       20.0466450911     4.8988273336     8.3100384057
Si       16.5113412330     3.1865600685     4.2763543250
O       16.5862216772     4.7453951719     4.7474459193
O       17.8950555468     2.7286818447     3.5226439472
O       15.3281993154     2.9966769474     3.1549759187
O       16.2742995915     2.2864396162     5.6169619347
Si       16.8702635893     6.3493830032     4.5192930264
Si       13.8129967811     2.7738096621     2.5443594286
Si       18.5367675871     2.2295227901     2.0837318607
Si       15.8916694298     0.8249756851     6.2754950894
H       18.1972264303     6.5416424800     3.8571189998
H       15.8164101833     6.8903365331     3.5927325562
H       16.8825878802     7.1320049124     5.8176899839
H       12.8086246757     3.5642927556     3.3021804603
H       13.7118966025     3.2103227211     1.1154399930
H       18.0811469072     3.1475564307     0.9996787300
H       13.4252023690     1.3306997567     2.6366996250
H       18.0464982236     0.8524626054     1.7687256651
H       16.7326639924     0.4371070870     7.4657649278
H       14.4503975935     0.7870324498     6.7016990999
H       20.0515518826     2.2033595315     2.0768670168
H       16.1016742603     -0.1961269464     5.2184047593
32
# Point -8 Energy = 0.0
C       20.4619118338     3.9292554922     7.8702341415
H       19.0864555643     3.8807831714     6.1903186258
C       19.4042602387     3.2253882850     7.0149760751
H       18.5132623467     3.0147927607     7.6199984523
H       20.7893367658     2.1144436916     5.7633250037
C       19.9431545501     1.9205683249     6.4321321475
H       19.1768121319     1.3842326447     5.8589103386
H       20.2899211612     1.2546489988     7.2307073710
H       21.3454561338     4.1664717208     7.2671493031
H       20.7866122771     3.2866206495     8.6970156978
H       20.0729091790     4.8636494674     8.2877951776
Si       16.5071762325     3.2123295666     4.2819577497
O       16.5610643521     4.7762131446     4.7391325903
O       17.9054250860     2.7695044856     3.5470714980
O       15.3284912746     2.9959395978     3.1612098980
O       16.2626972476     2.3201755942     5.6266802750
Si       16.8330724686     6.3803992241     4.4976950058
Si       13.8180548233     2.7481921266     2.5491311468
Si       18.5737187067     2.2651901743     2.1224542475
Si       15.8843673534     0.8607418141     6.2923515389
H       18.1665954669     6.5789269282     3.8505621495
H       15.7861097014     6.9015366354     3.5522590680
H       16.8211820164     7.1760687039     5.7880665421
H       12.8033719199     3.5351889109     3.2961400670
H       13.7157617990     3.1677244792     1.1154154844
H       18.1188191926     3.1677334921     1.0256496241
H       13.4476551876     1.3017819352     2.6567760211
H       18.1065242420     0.8788706478     1.8137308372
H       16.7122512862     0.4911473699     7.4976042391
H       14.4375429245     0.8115056585     6.6988174199
H       20.0886753144     2.2602079752     2.1348808754
H       16.1193318216     -0.1669316710     5.2470167482
32
# Point -7 Energy = 0.0
C       20.4810536245     3.8925081069     7.8404237849
H       19.0737830762     3.8467413115     6.1907369129
C       19.4075374415     3.1885568780     7.0062307894
H       18.5286796776     2.9820225715     7.6301935564
H       20.7675481113     2.0709217064     5.7326844488
C       19.9280482861     1.8815598175     6.4113790398
H       19.1501567851     1.3538471047     5.8457536733
H       20.2802719566     1.2089776405     7.2018385558
H       21.3544390198     4.1272692387     7.2216485253
H       20.8191350514     3.2524634685     8.6634342607
H       20.1014390372     4.8285877273     8.2627390629
Si       16.5017359813     3.2382106691     4.2895719786
O       16.5345022238     4.8067802551     4.7326338191
O       17.9144043487     2.8102134487     3.5745244484
O       15.3299656714     2.9952955322     3.1675318352
O       16.2492520374     2.3537376007     5.6380153921
Si       16.7948183544     6.4109261235     4.4780202833
Si       13.8257892059     2.7225676022     2.5514257760
Si       18.6099705662     2.3009682582     2.1651266468
Si       15.8749783874     0.8962742322     6.3104502264
H       18.1350233773     6.6159672764     3.8467551990
H       15.7557565917     6.9121943789     3.5134180693
H       16.7579399173     7.2192448188     5.7599552435
H       12.7993830912     3.5057028633     3.2857319004
H       13.7251879310     3.1251100394     1.1129240804
H       18.1572179784     3.1880175234     1.0553480391
H       13.4727156298     1.2731965616     2.6737240776
H       18.1656315980     0.9059011232     1.8628218533
H       16.6889230836     0.5448117378     7.5305993099
H       14.4228498652     0.8353155501     6.6966264107
H       20.1245429842     2.3168253988     2.1977046801
H       16.1352997084     -0.1374145651     5.2771934806
32
# Point -6 Energy = 0.0
C       20.5016403136     3.8561329136     7.8070792283
H       19.0606515575     3.8128350106     6.1903477481
C       19.4113308580     3.1521182501     6.9960359445
H       18.5459228753     2.9491632465     7.6397378647
H       20.7445461413     2.0282659621     5.6992925950
C       19.9128144655     1.8432012760     6.3888916668
H       19.1229494513     1.3239392201     5.8321007855
H       20.2714717800     1.1641016331     7.1707354146
H       21.3634963170     4.0885284731     7.1713447634
H       20.8544950389     3.2186390478     8.6254449202
H       20.1321427813     4.7938386304     8.2346445718
Si       16.4950577662     3.2640174682     4.2991894284
O       16.5065910342     4.8368880002     4.7279977763
O       17.9219928469     2.8505802231     3.6050083515
O       15.3326656180     2.9947781079     3.1739289089
O       16.2339251728     2.3869678940     5.6509613122
Si       16.7555813544     6.4407744899     4.4603945248
Si       13.8362564056     2.6971583613     2.5512150321
Si       18.6454640872     2.3366375770     2.2117893667
Si       15.8633817308     0.9314376290     6.3298046044
H       18.1025685388     6.6526095654     3.8458641682
H       15.7254746677     6.9221808066     3.4763635050
H       16.6929423347     7.2612706916     5.7334872201
H       12.7968402933     3.4760537995     3.2709371990
H       13.7403086617     3.0828727589     1.1079884681
H       18.1963367700     3.2082547026     1.0888602476
H       13.5002430375     1.2451806954     2.6874458393
H       18.2236783541     0.9333445754     1.9160222461
H       16.6624928168     0.5979405895     7.5647809057
H       14.4062130902     0.8583996012     6.6950933269
H       20.1590766733     2.3729280658     2.2653791973
H       16.1494277661     -0.1077372657     5.3089982284
32
# Point -5 Energy = 0.0
C       20.5235618679     3.8203144532     7.7700609378
H       19.0471225820     3.7791364854     6.1891119278
C       19.4156809622     3.1162054958     6.9843294058
H       18.5650926742     2.9163199797     7.6484952402
H       20.7203810048     1.9866374960     5.6632398725
C       19.8975418731     1.8056258248     6.3647191665
H       19.0953489797     1.2945738482     5.8180416141
H       20.2636103884     1.1201967936     7.1374470942
H       21.3724350017     4.0504495061     7.1161662680
H       20.8925642633     3.1853584696     8.5828465905
H       20.1649016225     4.7595838763     8.2033027088
Si       16.4871922167     3.2895705663     4.3107812512
O       16.4773954829     4.8663375816     4.7252501817
O       17.9282005531     2.8903822734     3.6385012783
O       15.3366330272     2.9944193850     3.1803896090
O       16.2166997463     2.4197301222     5.6654981580
Si       16.7154402787     6.4697687322     4.4449185780
Si       13.8495091882     2.6721787283     2.5484948002
Si       18.6801414092     2.3719792079     2.2624519039
Si       15.8494848908     0.9661241328     6.3504303144
H       18.0692800605     6.6887168197     3.8480225172
H       15.6953782413     6.9313787309     3.4412299813
H       16.6262746391     7.3018994655     5.7087686296
H       12.7959391920     3.4464596212     3.2517669867
H       13.7612239436     3.0413964730     1.1006671679
H       18.2361593437     3.2282899067     1.1262453042
H       13.5301038990     1.2179510168     2.6978725352
H       18.2805249530     0.9609865166     1.9733256025
H       16.6328089794     0.6504201190     7.6001780041
H       14.3875583189     0.8807218232     6.6941943537
H       20.1922006861     2.4282353156     2.3379072244
H       16.1615903305     -0.0780467666     5.3425101522
32
# Point -4 Energy = 0.0
C       20.5466853731     3.7852215755     7.7292507225
H       19.0332661739     3.7457090348     6.1869991388
C       19.4206231001     3.0809399243     6.9710579345
H       18.5862769830     2.8835938363     7.6563236163
H       20.6951056231     1.9461760666     5.6246393943
C       19.8823164064     1.7689495503     6.3389197555
H       19.0675178665     1.2658028069     5.8036641065
H       20.2567640594     1.0774181338     7.1020300760
H       21.3810435195     4.0132112875     7.0560810652
H       20.9331740476     3.1528170428     8.5354570823
H       20.1995730889     4.7259921577     8.1685188916
Si       16.4781998343     3.3146971127     4.3243021537
O       16.4469863732     4.8949396832     4.7243986399
O       17.9330446476     2.9294029119     3.6749585481
O       15.3419100810     2.9942504735     3.1869037615
O       16.1975787998     2.4519077620     5.6815957589
Si       16.6744703246     6.4977459249     4.4316720968
Si       13.8656008470     2.6478363179     2.5432791508
Si       18.7139433204     2.4067744613     2.3170971912
Si       15.8332228163     1.0002512222     6.3723470673
H       18.0351956640     6.7241666645     3.8533341859
H       15.6655697668     6.9396821475     3.4081363229
H       16.5580248770     7.3408993602     5.6858842512
H       12.7968894295     3.4171391652     3.2282536979
H       13.7880096840     3.0010557512     1.0910487979
H       18.2766574346     3.2479659107     1.1675391323
H       13.5621771346     1.1917059960     2.7049547588
H       18.3360319841     0.9886075874     2.0346993398
H       16.5997555766     0.7021795926     7.6368174939
H       14.3668417659     0.9022686317     6.6939188381
H       20.2238393000     2.4824691137     2.4152580443
H       16.1716846971     -0.0484752069     5.3778243451
32
# Point -3 Energy = 0.0
C       20.5708527925     3.7510071767     7.6845577044
H       19.0191588574     3.7126079370     6.1839881858
C       19.4261842236     3.0464313813     6.9561794215
H       18.6095449348     2.8510829640     7.6630774060
H       20.6687752113     1.9069992674     5.5836288534
C       19.8672184532     1.7332717767     6.3115623479
H       19.0396194248     1.2376660938     5.7890539735
H       20.2509915852     1.0359002587     7.0645510103
H       21.3890927109     3.9769704058     6.9911033622
H       20.9761113157     3.1211941464     8.4831217389
H       20.2359877712     4.6932192883     8.1301187375
Si       16.4681519321     3.3392321172     4.3396894296
O       16.4154426404     4.9225155379     4.7254312778
O       17.9365501293     2.9674324706     3.7143096452
O       15.3485383630     2.9943015665     3.1934633644
O       16.1765895181     2.4834032264     5.6992117994
Si       16.6327452881     6.5245560388     4.4207110802
Si       13.8845829531     2.6243318466     2.5356039942
Si       18.7468090412     2.4408058246     2.3756767550
Si       15.8145638866     1.0337600321     6.3955749235
H       18.0003437169     6.7588499988     3.8618686866
H       15.6361404223     6.9469966989     3.3771841255
H       16.4882879005     7.3780543824     5.6648953751
H       12.7999116700     3.3883132833     3.2004582139
H       13.8207126381     2.9622128132     1.0792553895
H       18.3177891475     3.2671236742     1.2127498540
H       13.5963541517     1.1666272216     2.7086657368
H       18.3900600172     1.0159849793     2.1000798932
H       16.5632613413     0.7531881488     7.6747176528
H       14.3440564766     0.9230453579     6.6942698600
H       20.2539169740     2.5353549448     2.4973608137
H       16.1796351116     -0.0191388599     5.4150447481
32
# Point -2 Energy = 0.0
C       20.5958849146     3.7178119477     7.6359151146
H       19.0048835403     3.6798827624     6.1800642894
C       19.4323844546     3.0127810917     6.9396611576
H       18.6349489716     2.8188867790     7.6686087060
H       20.6414470618     1.8692032243     5.5403663595
C       19.8523235814     1.6986772687     6.2827249739
H       19.0118170296     1.2101937471     5.7742951338
H       20.2463366657     0.9957608632     7.0250858317
H       21.3963399575     3.9418635019     6.9212879109
H       21.0211243834     3.0906582976     8.4257119252
H       20.2739529633     4.6614126515     8.0879444520
Si       16.4571270227     3.3630164470     4.3568679240
O       16.3828487457     4.9488946181     4.7283217895
O       17.9387465951     3.0042662033     3.7564631055
O       15.3565597771     2.9946025076     3.2000623375
O       16.1537800522     2.5141337281     5.7182954069
Si       16.5903361428     6.5500589332     4.4120727866
Si       13.9065086338     2.6018624945     2.5255205539
Si       18.7786738722     2.4738551545     2.4381149147
Si       15.7935065572     1.0666105164     6.4201353572
H       17.9647425624     6.7926663218     3.8736659253
H       15.6071688282     6.9532375640     3.3484622864
H       16.4171642137     7.4131613961     5.6458450627
H       12.8052378629     3.3602090460     3.1684616415
H       13.8593595527     2.9252216711     1.0654359974
H       18.3594970768     3.2856005845     1.2618619044
H       13.6325414797     1.1428838836     2.7089901789
H       18.4424673980     1.0428912563     2.1693759230
H       16.5232972326     0.8034479896     7.7138878575
H       14.3192287599     0.9430703913     6.6952668616
H       20.2823561581     2.5866196285     2.5841092163
H       16.1853885520     0.0098595292     5.4542824744
32
# Point -1 Energy = 0.0
C       20.6215787631     3.6857635329     7.5832900266
H       18.9905271352     3.6475790355     6.1752204292
C       19.4392328623     2.9800821407     6.9214840647
H       18.6625167356     2.7871071427     7.6727715786
H       20.6131808357     1.8328623017     5.4950347586
C       19.8376994580     1.6652369354     6.2524984823
H       18.9842707411     1.1834078776     5.7594704443
H       20.2428227266     0.9571011990     6.9837255269
H       21.4025312165     3.9080056945     6.8467402302
H       21.0679185608     3.0613658438     8.3631384996
H       20.3132484466     4.6307105279     8.0418646507
Si       16.4452131802     3.3858988583     4.3757468118
O       16.3492984584     4.9739165485     4.7330259374
O       17.9396705400     3.0397064577     3.8013004702
O       15.3660138864     2.9951824576     3.2066974164
O       16.1292252338     2.5440300957     5.7387830922
Si       16.5473152812     6.5741253401     4.4057709854
Si       13.9314261630     2.5806203516     2.5131026130
Si       18.8094705962     2.5057059056     2.5043002459
Si       15.7700867378     1.0987789343     6.4460444295
H       17.9284051083     6.8255228482     3.8887286055
H       15.5787230353     6.9583305563     3.3220431268
H       16.3447664900     7.4460319190     5.6287541360
H       12.8131046863     3.3330590533     3.1323785798
H       13.9039445450     2.8904226616     1.0497723973
H       18.4017076445     3.3032320781     1.3148275341
H       13.6706572164     1.1206332079     2.7059331825
H       18.4931118183     1.0690970465     2.2424597399
H       16.4798876690     0.8529888750     7.7543197194
H       14.2924252279     0.9623714388     6.6969430540
H       20.3090795781     2.6359937204     2.6753506934
H       16.1889200223     0.0384314139     5.4956438977
32
# Point 0 Energy = 0
C       20.6477110000     3.6549790000     7.5266840000
H       18.9761800000     3.6157410000     6.1694560000
C       19.4467280000     2.9484220000     6.9016430000
H       18.6922510000     2.7558520000     7.6754250000
H       20.5840390000     1.7980300000     5.4478400000
C       19.8234060000     1.6330100000     6.2209870000
H       18.9571360000     1.1573250000     5.7446630000
H       20.2404540000     0.9200090000     6.9405780000
H       21.4074060000     3.8754920000     6.7676150000
H       21.1161610000     3.0334640000     8.2953550000
H       20.3536290000     4.6012450000     7.9917750000
Si       16.4325060000     3.4077350000     4.3962220000
O       16.3148940000     4.9974300000     4.7394840000
O       17.9393640000     3.0735620000     3.8486780000
O       15.3769370000     2.9960700000     3.2133680000
O       16.1030250000     2.5730330000     5.7606000000
Si       16.5037570000     6.5966350000     4.4017980000
Si       13.9593780000     2.5607940000     2.4984440000
Si       18.8391290000     2.5361430000     2.5740860000
Si       15.7443760000     1.1302530000     6.4733110000
H       17.8913405600     6.8573308000     3.9070238400
H       15.5508605600     6.9622108000     3.2979838400
H       16.2712205600     7.4764908000     5.6136238400
H       12.8237502400     3.3071035200     3.0923555200
H       13.9544302400     2.8581435200     1.0324755200
H       18.4443303200     3.3198514400     1.3715668800
H       13.7106302400     1.1000235200     2.6995155200
H       18.5418503200     1.0943714400     2.3191668800
H       16.4331100800     0.9018602400     7.7959848800
H       14.2637500800     0.9809802400     6.6993448800
H       20.3340103200     2.6832114400     2.7708868800
H       16.1902300800     0.0665002400     5.5392248800
32
# Point 1 Energy = 0.0
C       20.6740536255     3.6255497604     7.4661090821
H       18.9619250378     3.5843912687     6.1627735630
C       19.4548650067     2.9178640725     6.8801364326
H       18.7241467321     2.7252116300     7.6764343137
H       20.5540766651     1.7647291091     5.3989775090
C       19.8094950701     1.6020297601     6.1882855611
H       18.9305561568     1.1319433445     5.7299432535
H       20.2392265623     0.8845415342     6.8957378704
H       21.4107035874     3.8443871787     6.6840799361
H       21.1655111764     3.0070759208     8.2223281453
H       20.3948412780     4.5731244423     7.9375812477
Si       16.4191004653     3.4284116129     4.4181918004
O       16.2797338936     5.0193178917     4.7476294045