32
# Point -15 Energy = 0.0
C       20.6165058028     3.8457210015     7.4242598107
H       19.2619688003     3.7772651882     7.5837620115
C       19.4727641894     2.9275373705     6.8926665227
H       18.6804270421     2.1883615930     6.7088337020
H       20.2597795117     2.2909801257     5.4568482167
C       19.7635113999     1.6411338608     6.1870049692
H       18.9101731993     1.5556442996     5.5054380884
H       20.3282972357     0.7432045578     6.4599416111
H       21.5123692610     4.2535931888     6.9444872509
H       20.8131793337     2.9439320997     8.0136672158
H       20.2529645963     4.3258116191     8.3389443422
Si       16.4507673399     3.3938085202     4.3981634575
O       16.3587593321     4.9891685095     4.6949705687
O       17.9540962617     3.0251631245     3.8534714620
O       15.3909478294     2.9615782901     3.2345502503
O       16.1237581449     2.6060793829     5.7826017499
Si       16.5657395546     6.5809803828     4.3104270951
Si       13.9600540464     2.5224175138     2.5375449709
Si       18.8412589713     2.4385628591     2.5872585234
Si       15.7505211683     1.1840575506     6.5448803606
H       17.9532570193     6.8087422591     3.8011810044
H       15.6109125425     6.9251781604     3.2014831459
H       16.3503545342     7.4970743113     5.4975174587
H       12.8378972987     3.2999601494     3.1158552574
H       13.9515403429     2.7776393363     1.0639982338
H       18.4486427274     3.1928540162     1.3663467488
H       13.6953231300     1.0715585381     2.7824614403
H       18.5239420165     0.9946210590     2.3774542836
H       16.4433817199     0.9866401877     7.8683307582
H       14.2691177665     1.0610959349     6.7811198432
H       20.3380258132     2.5733473465     2.7737321033
H       16.1777426682     0.0895896628     5.6379629029
32
# Point -14 Energy = 0.0
C       20.6253314777     3.8286072098     7.4209645771
H       19.2501919459     3.8291353164     7.5111306133
C       19.4688455509     2.9290983413     6.8914203817
H       18.6648785635     2.1889974313     6.7730959865
H       20.2880393893     2.2532082316     5.4557701506
C       19.7744049085     1.6351103606     6.2014558908
H       18.9190626169     1.5090678523     5.5285073172
H       20.3396454318     0.7503335580     6.5137694257
H       21.5222871890     4.2130061802     6.9239146125
H       20.8294322595     2.9456155606     8.0356594290
H       20.2617120585     4.3590490798     8.3074363148
Si       16.4472481611     3.3954585586     4.3964338179
O       16.3531148555     4.9903063370     4.6972151585
O       17.9509303401     3.0298062350     3.8513417314
O       15.3878490616     2.9649383733     3.2312670080
O       16.1202409472     2.6037455002     5.7791445473
Si       16.5584795889     6.5829231967     4.3166706361
Si       13.9579707557     2.5260182172     2.5327976828
Si       18.8391254210     2.4474053487     2.5842162988
Si       15.7483247964     1.1797701456     6.5373460700
H       17.9459638421     6.8135392758     3.8085054222
H       15.6037160642     6.9289031130     3.2082224299
H       16.3416815117     7.4959223775     5.5059407780
H       12.8346916692     3.3008828788     3.1125858213
H       13.9496662095     2.7848576432     1.0598590795
H       18.4461941399     3.2042365614     1.3649134561
H       13.6946755240     1.0742505030     2.7739996692
H       18.5235239928     1.0035904224     2.3706044450
H       16.4409299121     0.9797501631     7.8606763034
H       14.2669903244     1.0545264989     6.7728384292
H       20.3357337481     2.5833123418     2.7714641565
H       16.1770983430     0.0879291870     5.6279977197
32
# Point -13 Energy = 0.0
C       20.6333265914     3.8099446287     7.4230943605
H       19.2338265134     3.8808041205     7.4228509372
C       19.4655575102     2.9294982316     6.8926912536
H       18.6488326934     2.1956784613     6.8405237193
H       20.3098785152     2.2255116644     5.4486620372
C       19.7810702069     1.6339896659     6.2053505475
H       18.9214784518     1.4749151340     5.5446818464
H       20.3460498273     0.7598481290     6.5468956475
H       21.5312817691     4.1704519125     6.9099668513
H       20.8442808260     2.9463457700     8.0624322018
H       20.2703762413     4.3891763380     8.2788398742
Si       16.4450978958     3.3959063479     4.3963200700
O       16.3491392401     4.9903444912     4.7005660531
O       17.9491804222     3.0327264965     3.8513211752
O       15.3863075743     2.9669965525     3.2294699393
O       16.1175647321     2.6007090942     5.7774524622
Si       16.5533577426     6.5835920141     4.3235880905
Si       13.9575157596     2.5284473896     2.5293144060
Si       18.8385829946     2.4539320506     2.5836920017
Si       15.7464473449     1.1751096245     6.5319137733
H       17.9409869201     6.8165772140     3.8167865272
H       15.5990143951     6.9312424150     3.2152964362
H       16.3350671925     7.4939029533     5.5146991981
H       12.8331546152     3.3010718514     3.1100580894
H       13.9498457966     2.7904578811     1.0569112980
H       18.4458173211     3.2130224954     1.3656754178
H       13.6952553615     1.0759159218     2.7671758439
H       18.5244107894     1.0102640501     2.3666334869
H       16.4384218299     0.9727247250     7.8553512943
H       14.2650959773     1.0480072833     6.7663221988
H       20.3350168055     2.5906625541     2.7720488441
H       16.1767407437     0.0855245384     5.6205794777
32
# Point -12 Energy = 0.0
C       20.6389615009     3.7931313315     7.4259750064
H       19.2252809045     3.9191008592     7.3332226572
C       19.4624308667     2.9301526077     6.8929903661
H       18.6339145517     2.2114251397     6.9096586461
H       20.3344807972     2.1935728560     5.4453549319
C       19.7879784595     1.6316875922     6.2112912985
H       18.9265842237     1.4399247787     5.5624225042
H       20.3496700982     0.7694211224     6.5853015307
H       21.5349463509     4.1330194771     6.8960661405
H       20.8606370551     2.9487337694     8.0861777655
H       20.2790924756     4.4155958521     8.2505017900
Si       16.4427181812     3.3965966543     4.3957064289
O       16.3449095133     4.9905927393     4.7035010291
O       17.9471306541     3.0359779393     3.8505652603
O       15.3843770986     2.9693101100     3.2273197645
O       16.1149081196     2.5978421629     5.7752613078
Si       16.5478537074     6.5844830859     4.3301302018
Si       13.9565848209     2.5311090052     2.5256773369
Si       18.8375686155     2.4608870078     2.5822850124
Si       15.7447699076     1.1705838814     6.5259710560
H       17.9355367996     6.8199152723     3.8245008207
H       15.5937452769     6.9338126655     3.2221613906
H       16.3282145117     7.4920349982     5.5231463774
H       12.8311990682     3.3014144818     3.1075731407
H       13.9493105038     2.7963551033     1.0538335312
H       18.4447480685     3.2222705593     1.3656555774
H       13.6954606979     1.0778045314     2.7601710174
H       18.5248565979     1.0173761529     2.3617643082
H       16.4363262557     0.9658029577     7.8493932812
H       14.2634459405     1.0415517326     6.7595079120
H       20.3338488684     2.5984930720     2.7715330052
H       16.1764901088     0.0833225013     5.6125449631
32
# Point -11 Energy = 0.0
C       20.6437075944     3.7748734361     7.4305282926
H       19.2221788632     3.9545462623     7.2435477582
C       19.4583502888     2.9309554270     6.8930448864
H       18.6182578149     2.2307090563     6.9792187098
H       20.3631267295     2.1639965650     5.4439829737
C       19.7983518555     1.6306571785     6.2172310550
H       18.9375256051     1.4044362793     5.5786655943
H       20.3573131575     0.7819704731     6.6248727334
H       21.5374498818     4.0942035236     6.8841019939
H       20.8757986343     2.9488413295     8.1100472565
H       20.2882045025     4.4389452284     8.2239305608
Si       16.4394763386     3.3973785691     4.3947270112
O       16.3399357552     4.9909727145     4.7058785429
O       17.9442010537     3.0391378016     3.8495205171
O       15.3815753184     2.9716617007     3.2248337675
O       16.1112988976     2.5952569729     5.7727883809
Si       16.5417381339     6.5854418921     4.3359300550
Si       13.9547630333     2.5338397676     2.5217270885
Si       18.8356547189     2.4675303885     2.5806800006
Si       15.7420131788     1.1664622975     6.5199070526
H       17.9295032171     6.8231506338     3.8314765620
H       15.5879148612     6.9363943600     3.2282243128
H       16.3207970199     7.4903913301     5.5307362481
H       12.8284016011     3.3019826286     3.1046575290
H       13.9479351181     2.8021471826     1.0504140784
H       18.4428640133     3.2310926370     1.3653412245
H       13.6946568236     1.0798141686     2.7530193555
H       18.5242946125     1.0241790442     2.3568621880
H       16.4331081807     0.9593874170     7.8433503482
H       14.2607024070     1.0356454372     6.7525546054
H       20.3317877894     2.6059156365     2.7708351429
H       16.1750936002     0.0813846607     5.6045295344
32
# Point -10 Energy = 0.0
C       20.6481057773     3.7584043788     7.4360469638
H       19.2137680301     3.9815328924     7.1464210071
C       19.4556915175     2.9319320664     6.8933833079
H       18.6058358556     2.2558531932     7.0493579090
H       20.3876239412     2.1319197585     5.4416116069
C       19.8038789794     1.6292833532     6.2214412461
H       18.9422484032     1.3730170609     5.5951724491
H       20.3565831641     0.7924535682     6.6610142550
H       21.5379392347     4.0587919196     6.8725485373
H       20.8927247370     2.9512159308     8.1334896066
H       20.2977068735     4.4614445234     8.1975841459
Si       16.4374066777     3.3980149069     4.3942739867
O       16.3359703910     4.9911819211     4.7088100339
O       17.9424398840     3.0423361644     3.8488828071
O       15.3799013427     2.9737620819     3.2229565584
O       16.1090700546     2.5924714643     5.7708493848
Si       16.5364124756     6.5862498797     4.3422886142
Si       13.9540644092     2.5361648925     2.5184953210
Si       18.8348717351     2.4743350481     2.5794117013
Si       15.7408674820     1.1620968367     6.5143855753
H       17.9241885446     6.8264023726     3.8389085192
H       15.5827429359     6.9387272579     3.2349304567
H       16.3141603242     7.4885501708     5.5389082440
H       12.8266854131     3.3020020174     3.1025551335
H       13.9475306886     2.8075511999     1.0477239094
H       18.4419217812     3.2400430531     1.3654094499
H       13.6951673489     1.0813926215     2.7465868035
H       18.5250163378     1.0311183967     2.3523037474
H       16.4316335093     0.9527912641     7.8377866804
H       14.2596060478     1.0293196526     6.7462563814
H       20.3308554792     2.6136708564     2.7703580929
H       16.1753612239     0.0792712960     5.5970129243
32
# Point -9 Energy = 0.0
C       20.6518847608     3.7429993214     7.4427480679
H       19.2026455990     3.9992757368     7.0435939696
C       19.4537503352     2.9331635975     6.8938621467
H       18.5964623793     2.2867264526     7.1196515774
H       20.4103565217     2.0985471924     5.4394645730
C       19.8070954838     1.6280212213     6.2245880716
H       18.9443737350     1.3443968685     5.6114898072
H       20.3510923982     0.8024359527     6.6953095421
H       21.5363094712     4.0259837325     6.8617854473
H       20.9107296223     2.9546368792     8.1563154582
H       20.3074420540     4.4821984079     8.1721659006
Si       16.4359067156     3.3986351652     4.3940898765
O       16.3324900570     4.9913701699     4.7119598201
O       17.9412409810     3.0455936128     3.8484570489
O       15.3787643039     2.9757436547     3.2214184028
O       16.1075332691     2.5896983423     5.7692152913
Si       16.5314530834     6.5870283662     4.3488009214
Si       13.9538950554     2.5382622867     2.5156894628
Si       18.8346198028     2.4812123135     2.5783386532
Si       15.7405426073     1.1577557495     6.5092340898
H       17.9191973311     6.8296913861     3.8464223975
H       15.5778587197     6.9409329508     3.2418290078
H       16.3078951391     7.4867016353     5.5472083241
H       12.8254818762     3.3017403444     3.1009031494
H       13.9475624376     2.8126758521     1.0454571153
H       18.4414004770     3.2489973891     1.3656704286
H       13.6963107013     1.0827429456     2.7406416783
H       18.5263484995     1.0381119973     2.3480061987
H       16.4310607170     0.9463072142     7.8325608997
H       14.2593525872     1.0229353848     6.7404020629
H       20.3304538789     2.6215964980     2.7699992665
H       16.1764699995     0.0771833785     5.5898867029
32
# Point -8 Energy = 0.0
C       20.6549901986     3.7286989976     7.4505003067
H       19.1886100218     4.0064123692     6.9359096643
C       19.4523986749     2.9346793949     6.8944465377
H       18.5905723934     2.3230559786     7.1896004755
H       20.4317449164     2.0639974444     5.4378919114
C       19.8086175592     1.6269043591     6.2269421282
H       18.9446522497     1.3181911863     5.6276003845
H       20.3417401665     0.8122370174     6.7282521952
H       21.5324814447     3.9959816614     6.8516581254
H       20.9297817462     2.9590523451     8.1783081392
H       20.3171223001     4.5012286948     8.1478325276
Si       16.4348672695     3.3993019691     4.3941232216
O       16.3294139215     4.9916048002     4.7152623569
O       17.9404904954     3.0489404892     3.8482007893
O       15.3780517265     2.9776779781     3.2201669662
O       16.1065592359     2.5870181473     5.7678407585
Si       16.5268101866     6.5878379954     4.3553883924
Si       13.9541372213     2.5402233743     2.5132549590
Si       18.8347793239     2.4881651295     2.5774265220
Si       15.7408797572     1.1535325924     6.5044183124
H       17.9144860486     6.8330486460     3.8539429632
H       15.5732233153     6.9430798442     3.2488341500
H       16.3019638697     7.4849209552     5.5555495565
H       12.8246853312     3.3013147524     3.0996360486
H       13.9479232962     2.8175998613     1.0435563397
H       18.4411994084     3.2579552315     1.3660812629
H       13.6979412634     1.0839631210     2.7351410328
H       18.5281455887     1.0451663103     2.3439463628
H       16.4312220060     0.9400277767     7.8276437152
H       14.2597800466     1.0166152273     6.7349526208
H       20.3304650896     2.6296699027     2.7697292067
H       16.1782445266     0.0751984475     5.5831274268
32
# Point -7 Energy = 0.0
C       20.6573189074     3.7155689977     7.4590905111
H       19.1715851934     4.0015672094     6.8248038376
C       19.4514848446     2.9364467405     6.8951003693
H       18.5885031505     2.3644844642     7.2586995549
H       20.4522721201     2.0285071457     5.4372388431
C       19.8091564381     1.6259689137     6.2287594456
H       18.9439781153     1.2939285043     5.6435286025
H       20.3295866635     0.8222444872     6.7602721790
H       21.5263017033     3.9690186376     6.8419088911
H       20.9498402907     2.9645103912     8.1992183533
H       20.3263805257     4.5186431074     8.1246005026
Si       16.4341684126     3.4000653887     4.3943150503
O       16.3266696398     4.9919407583     4.7186514287
O       17.9400611318     3.0523778551     3.8480666127
O       15.3776384732     2.9796426972     3.2191375361
O       16.1059934771     2.5844968358     5.7666684518
Si       16.5224637725     6.5887263436     4.3619794616
Si       13.9546569612     2.5421668277     2.5111189625
Si       18.8352140054     2.4951613957     2.5766359006
Si       15.7416746238     1.1495074773     6.4998845610
H       17.9100456329     6.8364766936     3.8614068991
H       15.5688353180     6.9452403751     3.2558659951
H       16.2963664572     7.4832679271     5.5638554798
H       12.8241817345     3.3008814821     3.0986703334
H       13.9484978894     2.8224358740     1.0419470909
H       18.4412145156     3.2668916254     1.3665962921
H       13.6998780978     1.0851804375     2.7300164072
H       18.5302277967     1.0522574766     2.3400886703
H       16.4318974624     0.9340173160     7.8229874486
H       14.2606784009     1.0104861019     6.7298449464
H       20.3307558424     2.6378135172     2.7695181521
H       16.1804530021     0.0733789954     5.5766885894
32
# Point -6 Energy = 0.0
C       20.6587449721     3.7036841873     7.4682430505
H       19.1515711309     3.9835588506     6.7123352594
C       19.4508422049     2.9383750768     6.8957945059
H       18.5904840142     2.4105819680     7.3264218054
H       20.4724219382     1.9924379348     5.4377789233
C       19.8094597450     1.6252509921     6.2302412624
H       18.9432990171     1.2710880786     5.6593272505
H       20.3157972345     0.8328666469     6.7916574782
H       21.5175727941     3.9453225556     6.8322046239
H       20.9708646608     2.9711442712     8.2187696322
H       20.3348025660     4.5346078787     8.1023586090
Si       16.4336891015     3.4009577973     4.3946040699
O       16.3241992071     4.9924156499     4.7220633695
O       17.9398231444     3.0558749669     3.8480090359
O       15.3773983123     2.9817127786     3.2182578658
O       16.1056664416     2.5821815247     5.7656348392
Si       16.5184262676     6.5897230131     4.3685111019
Si       13.9553172243     2.5442258839     2.5091945297
Si       18.8357843165     2.5021318806     2.5759306775
Si       15.7426899493     1.1457428615     6.4955668996
H       17.9059041845     6.8399471435     3.8687652329
H       15.5647336844     6.9474827673     3.2628509360
H       16.2911399764     7.4817829337     5.5720603267
H       12.8238594663     3.3006214562     3.0979068578
H       13.9491763758     2.8273160630     1.0405416743
H       18.4413512358     3.2757527454     1.3671742815
H       13.7019210052     1.0865384911     2.7251795086
H       18.5323978283     1.0593282643     2.3363949766
H       16.4328268986     0.9283108614     7.8185339478
H       14.2618021245     1.0046721185     6.7249978945
H       20.3311905620     2.6458962561     2.7693454905
H       16.1828230156     0.0717681028     5.5705094429
32
# Point -5 Energy = 0.0
C       20.6591540892     3.6930955463     7.4776745751
H       19.1286205910     3.9516487609     6.6011166706
C       19.4503058663     2.9403369288     6.8965146570
H       18.5966449394     2.4608585627     7.3922204474
H       20.4925766865     1.9562915911     5.4396124966
C       19.8102123962     1.6248042537     6.2314701457
H       18.9434710503     1.2491920386     5.6750415805
H       20.3015332934     0.8444780325     6.8224404351
H       21.5060975542     3.9250755997     6.8222133740
H       20.9928185934     2.9791067718     8.2366791584
H       20.3419785004     4.5492860914     8.0809459180
Si       16.4333213525     3.4019890768     4.3949327046
O       16.3219648236     4.9930457401     4.7254366341
O       17.9396604120     3.0593700816     3.8479919536
O       15.3772203046     2.9839455115     3.2174559430
O       16.1054118409     2.5800995326     5.7646795016
Si       16.5147400828     6.5908352380     4.3749219214
Si       13.9559965040     2.5465230937     2.5073901964
Si       18.8363665652     2.5089705217     2.5752877649
Si       15.7436813216     1.1422836362     6.4914022602
H       17.9021233017     6.8434014615     3.8759754304
H       15.5609934385     6.9498572388     3.2697133297
H       16.2863514517     7.4804862482     5.5800984664
H       12.8236239505     3.3007115612     3.0972373180
H       13.9498717043     2.8323609220     1.0392476627
H       18.4415395970     3.2844492825     1.3677850500
H       13.7038767534     1.0881714717     2.7205376923
H       18.5344675051     1.0662858041     2.3328401526
H       16.4337367304     0.9229231064     7.8142305481
H       14.2628966385     0.9992879146     6.7203279748
H       20.3316497473     2.6537423298     2.7692088938
H       16.1850730139     0.0703880496     5.5645345031
32
# Point -4 Energy = 0.0
C       20.6584848661     3.6837957193     7.4871614716
H       19.1028245541     3.9057981314     6.4941664211
C       19.4497408280     2.9422019836     6.8972678547
H       18.6070503066     2.5147732471     7.4555485073
H       20.5128737177     1.9206935512     5.4425466678
C       19.8118894290     1.6247240946     6.2323366103
H       18.9450503162     1.2279460868     5.6906500385
H       20.2877664384     0.8573443832     6.8522824365
H       21.4917319277     3.9083897960     6.8116969584
H       21.0156793214     2.9884828526     8.2526863513
H       20.3475644046     4.5627727915     8.0602670720
Si       16.4329915556     3.4031423485     4.3952547365
O       16.3199573347     4.9938225450     4.7287111094
O       17.9394939559     3.0627758085     3.8479962723
O       15.3770322236     2.9863612151     3.2166710950
O       16.1050964241     2.5782586444     5.7637575621
Si       16.5114723071     6.5920442471     4.3811427415
Si       13.9566150753     2.5491354373     2.5056251105
Si       18.8368794987     2.5155404770     2.5747065515
Si       15.7444398126     1.1391582068     6.4873509665
H       17.8987900730     6.8467562186     3.8829889497
H       15.5577160755     6.9523785791     3.2763652927
H       16.2820865555     7.4793789031     5.5878905500
H       12.8234183049     3.3012834912     3.0965567493
H       13.9505417379     2.8376365500     1.0379814867
H       18.4417529314     3.2928528217     1.3684152533
H       13.7055977303     1.0901682882     2.7160171584
H       18.5362961149     1.0730038187     2.3294295704
H       16.4343859967     0.9178622374     7.8100509582
H       14.2637424173     0.9944286374     6.7157724254
H       20.3320555851     2.6611507559     2.7691312059
H       16.1869627798     0.0692401318     5.5587392252
32
# Point -3 Energy = 0.0
C       20.6567689770     3.6756829843     7.4966070233
H       19.0743240727     3.8468616767     6.3946822779
C       19.4490698412     2.9438798481     6.8980872818
H       18.6217439408     2.5717547035     7.5159011746
H       20.5330699131     1.8863514537     5.4459995880
C       19.8146090203     1.6251767185     6.2324779665
H       18.9480900569     1.2073927731     5.7059820044
H       20.2750732727     0.8715542484     6.8803987193
H       21.4744380270     3.8952905405     6.8006016929
H       21.0394451179     2.9991886051     8.2665854506
H       20.3513518265     4.5750344186     8.0404201394
Si       16.4326798934     3.4043723495     4.3955422802
O       16.3182003313     4.9947119740     4.7318261947
O       17.9393037526     3.0659893784     3.8480263823
O       15.3768222585     2.9889243485     3.2158649580
O       16.1046499017     2.5766500322     5.7628519791
Si       16.5087022912     6.5933043257     4.3870852399
Si       13.9571599777     2.5520572274     2.5038447287
Si       18.8373094114     2.5216860857     2.5742169848
Si       15.7448374696     1.1363819389     6.4834178494
H       17.8960012055     6.8499131439     3.8897361786
H       15.5550117908     6.9550093975     3.2826947461
H       16.2784303421     7.4784463478     5.5953275237
H       12.8232418706     3.3023787183     3.0957767771
H       13.9512089406     2.8431091172     1.0366824091
H       18.4420232710     3.3007969733     1.3690725913
H       13.7070218424     1.0925341723     2.7115873908
H       18.5378295263     1.0793301886     2.3262158886
H       16.4346161928     0.9131478119     7.8060166166
H       14.2642023974     0.9901599337     6.7113135405
H       20.3323958309     2.6679233340     2.7691653139
H       16.1883480362     0.0683072305     5.5531564678
32
# Point -2 Energy = 0.0
C       20.6541661367     3.6685132012     7.5060991467
H       19.0433702098     3.7767305943     6.3057637934
C       19.4482892876     2.9453661186     6.8990334083
H       18.6407844881     2.6312403663     7.5728581270
H       20.5524665634     1.8540016941     5.4489672205
C       19.8180345792     1.6264284547     6.2312510044
H       18.9520120354     1.1880310098     5.7206254116
H       20.2634717424     0.8869803605     6.9055576743
H       21.4543404938     3.8856801842     6.7891394444
H       21.0641275923     3.0108535657     8.2782675906
H       20.3533491801     4.5858564989     8.0218108156
Si       16.4324279864     3.4056077335     4.3957889685
O       16.3167422171     4.9956572164     4.7347158557
O       17.9391387620     3.0689073582     3.8481127963
O       15.3766490533     2.9915288683     3.2150283033
O       16.1040832588     2.5752543740     5.7619817017
Si       16.5064969626     6.5945458344     4.3926283481
Si       13.9576984567     2.5551673512     2.5020319828
Si       18.8377235104     2.5272500411     2.5738835751
Si       15.7448614094     1.1339633664     6.4796685246
H       17.8938347818     6.8527736345     3.8961093529
H       15.5529694189     6.9576476785     3.2885512376
H       16.2754355844     7.4776654582     5.6022528578
H       12.8231571342     3.3039073110     3.0948346219
H       13.9519684775     2.8486043622     1.0353220315
H       18.4424448957     3.3080842239     1.3697862153
H       13.7082011115     1.0951564562     2.7072803523
H       18.5391277990     1.0850997780     2.3233110271
H       16.4343897215     0.9088309022     7.8022132379
H       14.2642580819     0.9865103201     6.7069979631
H       20.3327358622     2.6738980227     2.7693951671
H       16.1892238059     0.0675596604     5.5478976027
32
# Point -1 Energy = 0.0
C       20.6509896471     3.6618427863     7.5159478594
H       19.0104118664     3.6983783119     6.2300750349
C       19.4474680871     2.9467859909     6.9001887159
H       18.6642570744     2.6927322454     7.6261057406
H       20.5699306350     1.8243521412     5.4500891603
C       19.8213600382     1.6288677010     6.2277631471
H       18.9555975654     1.1708619157     5.7338591859
H       20.2523398852     0.9032884959     6.9261826661
H       21.4317873019     3.8792706159     6.7778488760
H       21.0897230552     3.0227010347     8.2877741020
H       20.3538733196     4.5948088042     8.0052195061
Si       16.4323300156     3.4067593347     4.3960076707
O       16.3156337533     4.9965871061     4.7373012368
O       17.9391099486     3.0714455324     3.8483086493
O       15.3766345712     2.9939930432     3.2141816009
O       16.1034896818     2.5740516890     5.7612028247
Si       16.5048735923     6.5956841676     4.3976052496
Si       13.9583736019     2.5582090547     2.5002113539
Si       18.8382654510     2.5320970734     2.5738021869
Si       15.7446287892     1.1319131358     6.4762359371
H       17.8923097272     6.8552584853     3.9019465329
H       15.5516141445     6.9601235490     3.2937330415
H       16.2730797943     7.4770154717     5.6084470856
H       12.8232798473     3.3056195470     3.0936964665
H       13.9529787097     2.8537824465     1.0339072382
H       18.4431608881     3.3145020937     1.3706013861
H       13.7093106725     1.0977827635     2.7031998215
H       18.5403731393     1.0901545761     2.3208881854
H       16.4338090983     0.9050136137     7.7987972213
H       14.2640263700     0.9834676441     6.7029459938
H       20.3332131098     2.6789866492     2.7699298438
H       16.1897472186     0.0669649802     5.5431618390
32
# Point 0 Energy = 0
C       20.6477110000     3.6549790000     7.5266840000
H       18.9761800000     3.6157410000     6.1694560000
C       19.4467280000     2.9484220000     6.9016430000
H       18.6922510000     2.7558520000     7.6754250000
H       20.5840390000     1.7980300000     5.4478400000
C       19.8234060000     1.6330100000     6.2209870000
H       18.9571360000     1.1573250000     5.7446630000
H       20.2404540000     0.9200090000     6.9405780000
H       21.4074060000     3.8754920000     6.7676150000
H       21.1161610000     3.0334640000     8.2953550000
H       20.3536290000     4.6012450000     7.9917750000
Si       16.4325060000     3.4077350000     4.3962220000
O       16.3148940000     4.9974300000     4.7394840000
O       17.9393640000     3.0735620000     3.8486780000
O       15.3769370000     2.9960700000     3.2133680000
O       16.1030250000     2.5730330000     5.7606000000
Si       16.5037570000     6.5966350000     4.4017980000
Si       13.9593780000     2.5607940000     2.4984440000
Si       18.8391290000     2.5361430000     2.5740860000
Si       15.7443760000     1.1302530000     6.4733110000
H       17.8913405600     6.8573308000     3.9070238400
H       15.5508605600     6.9622108000     3.2979838400
H       16.2712205600     7.4764908000     5.6136238400
H       12.8237502400     3.3071035200     3.0923555200
H       13.9544302400     2.8581435200     1.0324755200
H       18.4443303200     3.3198514400     1.3715668800
H       13.7106302400     1.1000235200     2.6995155200
H       18.5418503200     1.0943714400     2.3191668800
H       16.4331100800     0.9018602400     7.7959848800
H       14.2637500800     0.9809802400     6.6993448800
H       20.3340103200     2.6832114400     2.7708868800
H       16.1902300800     0.0665002400     5.5392248800
32
# Point 1 Energy = 0.0
C       20.6447883480     3.6471523474     7.5388645441
H       18.9413972062     3.5328797978     6.1244883817
C       19.4461787295     2.9505803154     6.9034744002
H       18.7248418422     2.8202012780     7.7207082860
H       20.5935463214     1.7755128078     5.4409288758
C       19.8230917010     1.6393650867     6.2100943115
H       18.9551031710     1.1487322997     5.7520666757
H       20.2266144434     0.9367480215     6.9474689715
H       21.3818872440     3.8736556557     6.7593980633
H       21.1432812142     3.0417736142     8.3014124740
H       20.3534213081     4.6045283554     7.9825675997
Si       16.4330516175     3.4084588670     4.3964581193
O       16.3145070442     4.9981275952     4.7411786689
O       17.9400233941     3.0752460346     3.8492797670