32
# Point -15 Energy = 0.0
C       20.7207541704     3.6179972198     7.4097272237
H       19.1316828253     3.4434798721     6.2843182024
C       19.4849811323     2.9688502297     6.7889287569
H       18.5718827808     2.7069375033     7.7860706930
H       20.1596431436     1.7526335089     5.7193718622
C       19.8275075355     1.7009020790     6.0259927663
H       19.1878982005     1.3080981175     5.7347512929
H       20.6995207877     0.2033100376     7.6122729615
H       21.2590094998     3.8069121149     6.8511316732
H       21.0992192134     3.1321399539     8.0485408200
H       20.2651442679     5.0012270647     8.1094172094
Si       16.4306977183     3.4222191409     4.3620080626
O       16.3166295943     5.0099659598     4.7163825175
O       17.9289749590     3.0926166468     3.7904502388
O       15.3577605192     3.0166587433     3.1924240327
O       16.1213523498     2.5791781027     5.7264697687
Si       16.4994707256     6.6110718485     4.3852872972
Si       13.9303935655     2.5844757336     2.4958598458
Si       18.8108429338     2.5632876107     2.5000564660
Si       15.7744254060     1.1322218442     6.4355268534
H       17.8794563398     6.8758303763     3.8718003759
H       15.5302335502     6.9823873520     3.2977149574
H       16.2840591088     7.4837112102     5.6055304788
H       12.8030077756     3.3263757218     3.1106993354
H       13.9036908845     2.8903745202     1.0318757197
H       18.3977981999     3.3537103991     1.3078644385
H       13.6856094035     1.1223408909     2.6919794208
H       18.5108132535     1.1228097298     2.2408846446
H       16.4826109330     0.8965683748     7.7467681350
H       14.2973678314     0.9803476407     6.6824863983
H       20.3082317260     2.7104473360     2.6756195059
H       16.2073102647     0.0742151163     5.4889534055
32
# Point -14 Energy = 0.0
C       20.7159433951     3.6205354422     7.4176244964
H       19.1207844326     3.4551355775     6.2770146554
C       19.4824032463     2.9676032363     6.7964439959
H       18.5794192932     2.7105920591     7.7784013212
H       20.1895484585     1.7541685410     5.7023479473
C       19.8272924045     1.6963647818     6.0388291016
H       19.1722708560     1.2969481313     5.7365868458
H       20.6697279616     0.2500622532     7.5659846341
H       21.2686276650     3.8122292700     6.8454872457
H       21.1003323999     3.1258513762     8.0653394440
H       20.2715625905     4.9748855258     8.1015019224
Si       16.4307429291     3.4213314677     4.3642476636
O       16.3164134738     5.0092120430     4.7178680690
O       17.9296114028     3.0914293961     3.7943016244
O       15.3589732816     3.0153445298     3.1937632119
O       16.1200517447     2.5788550202     5.7287191761
Si       16.4996390375     6.6101915556     4.3863179277
Si       13.9322632303     2.5829370354     2.4959604132
Si       18.8126959732     2.5615553904     2.5049643556
Si       15.7723539819     1.1321789236     6.4380360043
H       17.8801414586     6.8746861331     3.8740840067
H       15.5314895336     6.9811078892     3.2976425811
H       16.2830618651     7.4833216034     5.6059994600
H       12.8043044421     3.3251281296     3.1093915404
H       13.9070209310     2.8882528916     1.0318294235
H       18.4008658403     3.3515179741     1.3120635069
H       13.6872309485     1.1208913324     2.6924233616
H       18.5128678913     1.1209852629     2.2460850806
H       16.4792387676     0.8970261612     7.7500579092
H       14.2950482990     0.9804687232     6.6835911536
H       20.3099244190     2.7087211488     2.6819558836
H       16.2061284458     0.0737831943     5.4923013974
32
# Point -13 Energy = 0.0
C       20.7111242865     3.6230636478     7.4255078894
H       19.1099617647     3.4667675720     6.2696598171
C       19.4798293738     2.9663396851     6.8039591129
H       18.5870267682     2.7141892175     7.7707728045
H       20.2192385030     1.7559164919     5.6851717152
C       19.8270694582     1.6918285853     6.0516888736
H       19.1566670394     1.2859516982     5.7382560397
H       20.6398212571     0.2969569162     7.5199033809
H       21.2782852715     3.8174411982     6.8398517476
H       21.1014465772     3.1195198539     8.0820893700
H       20.2779058004     4.9484985477     8.0935945539
Si       16.4307986621     3.4204329264     4.3664936978
O       16.3162113243     5.0084465581     4.7193624692
O       17.9302555766     3.0902309454     3.7981576102
O       15.3601951127     3.0140225078     3.1951111026
O       16.1187624122     2.5785193239     5.7309725506
Si       16.4998235320     6.6092997753     4.3873601352
Si       13.9341415204     2.5813931931     2.4960718309
Si       18.8145532847     2.5598133423     2.5098761528
Si       15.7702925579     1.1321228559     6.4405463684
H       17.8808411817     6.8735297774     3.8763783575
H       15.5327617892     6.9798195450     3.2975849362
H       16.2820842674     7.4829186831     5.6064803748
H       12.8056131031     3.3238754342     3.1080968428
H       13.9103579642     2.8861284752     1.0317961978
H       18.4039377883     3.3493178730     1.3162697280
H       13.6888590044     1.1194367970     2.6928758075
H       18.5149243349     1.1191518840     2.2512877022
H       16.4758773404     0.8974680614     7.7533460665
H       14.2927402942     0.9805777234     6.6846985862
H       20.3116203925     2.7069835404     2.6882942235
H       16.2049530572     0.0733393640     5.4956493144
32
# Point -12 Energy = 0.0
C       20.7062968559     3.6255816931     7.4333772943
H       19.0992148824     3.4783756245     6.2622538609
C       19.4772595276     2.9650595582     6.8114740922
H       18.5947049410     2.7177292104     7.7631853678
H       20.2487098326     1.7578779633     5.6678427127
C       19.8268385995     1.6872935548     6.0645720357
H       19.1410891596     1.2751097368     5.7397585214
H       20.6098000026     0.3439950742     7.4740312749
H       21.2879822693     3.8225475711     6.8342255897
H       21.1025620895     3.1131456626     8.0987904412
H       20.2841741322     4.9220659023     8.0856956089
Si       16.4308649846     3.4195234355     4.3687460510
O       16.3160232488     5.0076694556     4.7208654952
O       17.9309075561     3.0890211205     3.8020181354
O       15.3614260883     3.0126925471     3.1964675862
O       16.1174843657     2.5781710396     5.7332298363
Si       16.5000243645     6.6083964305     4.3884135899
Si       13.9360285085     2.5798440744     2.4961939736
Si       18.8164149608     2.5580611686     2.5147918459
Si       15.7682410906     1.1320537274     6.4430579846
H       17.8815556884     6.8723611487     3.8786831092
H       15.5340505028     6.9785221975     3.2975416392
H       16.2811264686     7.4825024690     5.6069728360
H       12.8069338342     3.3226175872     3.1068150453
H       13.9137020961     2.8840010343     1.0317758868
H       18.4070141826     3.3471097271     1.3204830196
H       13.6904935985     1.1179771723     2.6933367282
H       18.5169826414     1.1173092838     2.2564925879
H       16.4725265759     0.8978942320     7.7566326858
H       14.2904437583     0.9806747956     6.6858087128
H       20.3133197449     2.7052341750     2.6946345391
H       16.2037840481     0.0728836271     5.4989972721
32
# Point -11 Energy = 0.0
C       20.7014611073     3.6280894509     7.4412326054
H       19.0885438429     3.4899595175     6.2547969581
C       19.4746937127     2.9637628531     6.8189889215
H       18.6024535401     2.7212122806     7.7556392374
H       20.2779589832     1.7600533766     5.6503605033
C       19.8265997247     1.6827597691     6.0774785469
H       19.1255396840     1.2644231236     5.7410939392
H       20.5796635869     0.3911777768     7.4283703675
H       21.2977186135     3.8275480725     6.8286091999
H       21.1036792701     3.1067291018     8.1154425138
H       20.2903678140     4.8955873706     8.0778056103
Si       16.4309419604     3.4186029195     4.3710046061
O       16.3158493460     5.0068806926     4.7223769169
O       17.9315674151     3.0877997527     3.8058831398
O       15.3626662836     3.0113545199     3.1978325410
O       16.1162176129     2.5778102028     5.7354909754
Si       16.5002416862     6.6074814500     4.3894779517
Si       13.9379242680     2.5782895466     2.4963267109
Si       18.8182810941     2.5562985745     2.5197114272
Si       15.7661995306     1.1319716357     6.4455708925
H       17.8822851540     6.8711800920     3.8809979343
H       15.5353558571     6.9772157271     3.2975122937
H       16.2801886145     7.4820729894     5.6074764436
H       12.8082667103     3.3213545408     3.1055459415
H       13.9170534415     2.8818703284     1.0317683290
H       18.4100951636     3.3448931674     1.3247033006
H       13.6921347589     1.1165123461     2.6938060916
H       18.5190428691     1.1154571558     2.2616998233
H       16.4691863903     0.8983048449     7.7599178484
H       14.2881586267     0.9807601047     6.6869215488
H       20.3150225741     2.7034727213     2.7009768500
H       16.2026213637     0.0724159946     5.5023453904
32
# Point -10 Energy = 0.0
C       20.6966170366     3.6305868112     7.4490737196
H       19.0779486999     3.5015190480     6.2472892785
C       19.4721319251     2.9624495827     6.8265035923
H       18.6102722869     2.7246386832     7.7481346408
H       20.3069824749     1.7624429683     5.6327246682
C       19.8263527228     1.6782273224     6.0904083733
H       19.1100211390     1.2538926896     5.7422619441
H       20.5494114613     0.4385060685     7.3829226809
H       21.3074942637     3.8324423999     6.8230030238
H       21.1047984410     3.1002704965     8.1320454578
H       20.2964870670     4.8690627440     8.0699250989
Si       16.4310296499     3.4176713096     4.3732692430
O       16.3156897097     5.0060802332     4.7238964973
O       17.9322352245     3.0865666800     3.8097525639
O       15.3639157723     3.0100083013     3.1992058414
O       16.1149621562     2.5774368586     5.7377559087
Si       16.5004756431     6.6065547687     4.3905528699
Si       13.9398288727     2.5767294767     2.4964699075
Si       18.8201517768     2.5545252689     2.5246348927
Si       15.7641678223     1.1318766900     6.4480851332
H       17.8830297492     6.8699864583     3.8833224969
H       15.5366780319     6.9759000166     3.2974964903
H       16.2792708432     7.4816302817     5.6079907840
H       12.8096118055     3.3200862472     3.1042893159
H       13.9204121182     2.8797361129     1.0317733576
H       18.4131808731     3.3426678252     1.3289304919
H       13.6937825143     1.1150422065     2.6942838637
H       18.5211050771     1.1135951968     2.2669095009
H       16.4658566914     0.8987000870     7.7632016383
H       14.2858848281     0.9808338264     6.6880371083
H       20.3167289773     2.7016988537     2.7073211822
H       16.2014649453     0.0719364869     5.5056937941
32
# Point -9 Energy = 0.0
C       20.6917646311     3.6330736823     7.4569005371
H       19.0674295029     3.5130540277     6.2397309901
C       19.4695741526     2.9611197774     6.8340181002
H       18.6181608956     2.7280086856     7.7406718077
H       20.3357768171     1.7650467852     5.6149348077
C       19.8260974757     1.6736963248     6.1033614874
H       19.0945361110     1.2435192191     5.7432621920
H       20.5190431413     0.4859809825     7.3376901984
H       21.3173091834     3.8372302657     6.8174075256
H       21.1059199118     3.0937701980     8.1485991573
H       20.3025321051     4.8424918252     8.0620546347
Si       16.4311281095     3.4167285432     4.3755398390
O       16.3155444279     5.0052680488     4.7254239923
O       17.9329110525     3.0853217467     3.8136263498
O       15.3651746271     3.0086537688     3.2005873587
O       16.1137179920     2.5770510623     5.7400245754
Si       16.5007263748     6.6056163278     4.3916379834
Si       13.9417423967     2.5751637311     2.4966234232
Si       18.8220271013     2.5527409652     2.5295622433
Si       15.7621459041     1.1317690111     6.4506007487
H       17.8837896395     6.8687801048     3.8856564525
H       15.5380172027     6.9745749513     3.2974938065
H       16.2783732840     7.4811743922     5.6085154300
H       12.8109691929     3.3188126582     3.1030449443
H       13.9237782470     2.8775981383     1.0317908005
H       18.4162714548     3.3404333327     1.3331645164
H       13.6954368947     1.1135666413     2.6947700088
H       18.5231693260     1.1117231066     2.2721217208
H       16.4625373786     0.8990801615     7.7664841425
H       14.2836222854     0.9808961475     6.6891554042
H       20.3184390509     2.6999122527     2.7136675686
H       16.2003147303     0.0714451344     5.5090426128
32
# Point -8 Energy = 0.0
C       20.6869038692     3.6355499924     7.4647129616
H       19.0569862969     3.5245642837     6.2321222594
C       19.4670203733     2.9597734853     6.8415324449
H       18.6261190727     2.7313225690     7.7332509700
H       20.3643385127     1.7678646798     5.5969905427
C       19.8258338579     1.6691669037     6.1163378696
H       19.0790872470     1.2333034470     5.7440943448
H       20.4885582089     0.5336035339     7.2926748562
H       21.3271633401     3.8419113988     6.8118231882
H       21.1070439795     3.0872285858     8.1651035110
H       20.3085031345     4.8158744298     8.0541947967
Si       16.4312373916     3.4157745650     4.3778162690
O       16.3154135828     5.0044441186     4.7269591510
O       17.9335949644     3.0840648048     3.8175044405
O       15.3664429191     3.0072908024     3.2019769608
O       16.1124851108     2.5766528795     5.7422969132
Si       16.5009940147     6.6046660753     4.3927329201
Si       13.9436649150     2.5735921754     2.4967871131
Si       18.8239071594     2.5509453818     2.5344934844
Si       15.7601337082     1.1316487320     6.4531177828
H       17.8845649840     6.8675608958     3.8879994481
H       15.5393735401     6.9732404190     3.2975038065
H       16.2774960563     7.4807053771     5.6090499411
H       12.8123389444     3.3175337252     3.1018125932
H       13.9271519520     2.8754561507     1.0318204805
H       18.4193670539     3.3381893229     1.3374052992
H       13.6970979316     1.1120855378     2.6952644896
H       18.5252356779     1.1098405896     2.2773365911
H       16.4592283427     0.8994452881     7.7697654511
H       14.2813709149     0.9809472657     6.6902764483
H       20.3201528907     2.6981126064     2.7200160496
H       16.1991706528     0.0709419779     5.5123919816
32
# Point -7 Energy = 0.0
C       20.6820347200     3.6380156904     7.4725109004
H       19.0466191225     3.5360496593     6.2244632513
C       19.4644705562     2.9584107733     6.8490466310
H       18.6341465167     2.7345806284     7.7258723622
H       20.3926640628     1.7708963066     5.5788915152
C       19.8255617367     1.6646392045     6.1293375079
H       19.0636772553     1.2232460570     5.7447580725
H       20.4579563140     0.5813747130     7.2478785340
H       21.3370567041     3.8464855458     6.8062505142
H       21.1081709277     3.0806460680     8.1815584329
H       20.3144003534     4.7892103872     8.0463461839
Si       16.4313575443     3.4148093271     4.3800984054
O       16.3152972500     5.0036084293     4.7285017154
O       17.9342870224     3.0827957140     3.8213867810
O       15.3677207181     3.0059192850     3.2033745123
O       16.1112634972     2.5762423864     5.7445728589
Si       16.5012786885     6.6037039660     4.3938372976
Si       13.9455965027     2.5720146739     2.4969608276
Si       18.8257920432     2.5491382425     2.5394286268
Si       15.7581311607     1.1315159979     6.4556362809
H       17.8853559351     6.8663287028     3.8903511223
H       15.5407472095     6.9718963102     3.2975260416
H       16.2766392692     7.4802233020     5.6095938629
H       12.8137211310     3.3162493984     3.1005920200
H       13.9305333600     2.8733098908     1.0318622149
H       18.4224678169     3.3359354308     1.3416527678
H       13.6987656577     1.1105987828     2.6957672674
H       18.5273041967     1.1079473548     2.2825542285
H       16.4559294660     0.8997957032     7.7730456575
H       14.2791306267     0.9809873898     6.6914002514
H       20.3218705912     2.6962996105     2.7263666731
H       16.1980326436     0.0704270683     5.5157420411
32
# Point -6 Energy = 0.0
C       20.6771571425     3.6404707471     7.4802942645
H       19.0363280149     3.5475100138     6.2167541291
C       19.4619246604     2.9570317280     6.8565606680
H       18.6422429182     2.7377831734     7.7185362220
H       20.4207499715     1.7741411183     5.5606373899
C       19.8252809715     1.6601133919     6.1423603988
H       19.0483089052     1.2133476801     5.7452530544
H       20.4272371765     0.6292954784     7.2033030454
H       21.3469892487     3.8509524723     6.8006900266
H       21.1093010265     3.0740230832     8.1979638525
H       20.3202239514     4.7624995412     8.0385094161
Si       16.4314886110     3.4138327888     4.3823861181
O       16.3151954980     5.0027609757     4.7300514210
O       17.9349872853     3.0815143421     3.8252733179
O       15.3690080922     3.0045391022     3.2047798750
O       16.1100531291     2.5758196703     5.7468523479
Si       16.5015805136     6.6027299620     4.3949507230
Si       13.9475372359     2.5704310899     2.4971444124
Si       18.8276818441     2.5473192777     2.5443676866
Si       15.7561381819     1.1313709667     6.4581562902
H       17.8861626373     6.8650834054     3.8927111057
H       15.5421383696     6.9705425181     3.2975600497
H       16.2758030197     7.4797282429     5.6101467275
H       12.8151158219     3.3149596265     3.0993829733
H       13.9339226013     2.8711590941     1.0319158163
H       18.4255738918     3.3336712935     1.3459068530
H       13.7004401079     1.1091062623     2.6962783022
H       18.5293749482     1.1060431164     2.2877747581
H       16.4526406221     0.9001316605     7.7763248586
H       14.2769013251     0.9810167395     6.6925268236
H       20.3235922463     2.6944729701     2.7327194952
H       16.1969006304     0.0699004677     5.5190929377
32
# Point -5 Energy = 0.0
C       20.6722710852     3.6429151562     7.4880629696
H       19.0261130041     3.5589452234     6.2089950547
C       19.4593826346     2.9556364566     6.8640745703
H       18.6504079594     2.7409305292     7.7112427904
H       20.4485927508     1.7775983627     5.5422278544
C       19.8249914142     1.6555896503     6.1554065471
H       19.0329850273     1.2036088926     5.7455789811
H       20.3964005875     0.6773667503     7.1589501289
H       21.3569609493     3.8553119639     6.7951422689
H       21.1104345312     3.0673601012     8.2143197157
H       20.3259741095     4.7357417516     8.0306851340
Si       16.4316306306     3.4128449173     4.3846792754
O       16.3151083878     5.0019017610     4.7316079966
O       17.9356958086     3.0802205661     3.8291640002
O       15.3703051080     3.0031501425     3.2061929075
O       16.1088539782     2.5753848293     5.7491353150
Si       16.5018995987     6.6017440326     4.3960727930
Si       13.9494871908     2.5688412851     2.4973377085
Si       18.8295766537     2.5454882243     2.5493106857
Si       15.7541546856     1.1312138087     6.4606778598
H       17.8869852270     6.8638248914     3.8950790208
H       15.5435471725     6.9691789385     3.2976053559
H       16.2749873928     7.4792202858     5.6107080538
H       12.8165230852     3.3136643567     3.0981851922
H       13.9373198091     2.8690034906     1.0319810921
H       18.4286854278     3.3313965512     1.3501674885
H       13.7021213190     1.1076078611     2.6967975525
H       18.5314480003     1.1041275946     2.2929983140
H       16.4493616764     0.9004534310     7.7796031551
H       14.2746829079     0.9810355453     6.6936561741
H       20.3253179485     2.6926324001     2.7390745806
H       16.1957745380     0.0693622489     5.5224448237
32
# Point -4 Energy = 0.0
C       20.6673764861     3.6453489348     7.4958169354
H       19.0159741145     3.5703551814     6.2011861887
C       19.4568444174     2.9542250872     6.8715883583
H       18.6586413142     2.7440230362     7.7039923122
H       20.4761889256     1.7812670799     5.5236626206
C       19.8246929091     1.6510681853     6.1684759669
H       19.0177085132     1.1940302154     5.7457355562
H       20.3654464111     0.7255894034     7.1148214380
H       21.3669717831     3.8595638278     6.7896078061
H       21.1115716829     3.0606576235     8.2306259845
H       20.3316509997     4.7089368947     8.0228740003
Si       16.4317836366     3.4118456879     4.3869777435
O       16.3150359724     5.0010307970     4.7331711649
O       17.9364126442     3.0789142720     3.8330587792
O       15.3716118301     3.0017522972     3.2076134661
O       16.1076660096     2.5749379728     5.7514216940
Si       16.5022360428     6.6007461552     4.3972030944
Si       13.9514464444     2.5672451200     2.4975405529
Si       18.8314765629     2.5436448272     2.5542576520
Si       15.7521805801     1.1310447072     6.4632010410
H       17.8878238311     6.8625530575     3.8974544826
H       15.5449737623     6.9678054704     3.2976614725
H       16.2741924598     7.4786995273     5.6112773472
H       12.8179429872     3.3123635338     3.0969984074
H       13.9407251201     2.8668428048     1.0320578450
H       18.4318025752     3.3291108474     1.3544346115
H       13.7038093299     1.1061034628     2.6973249759
H       18.5335234233     1.1022005164     2.2982250400
H       16.4460924854     0.9007613033     7.7828806513
H       14.2724752671     0.9810440482     6.6947883113
H       20.3270477895     2.6907776262     2.7454320025
H       16.1946542890     0.0688124958     5.5257978576
32
# Point -3 Energy = 0.0
C       20.6624732719     3.6477721251     7.5035560865
H       19.0059113642     3.5817397983     6.1933276902
C       19.4543099366     2.9527977699     6.8791020579
H       18.6669426477     2.7470610511     7.6967850365
H       20.5035350379     1.7851461001     5.5049414249
C       19.8243852926     1.6465492240     6.1815686812
H       19.0024823147     1.1846121122     5.7457224976
H       20.3343745855     0.7739642610     7.0709185323
H       21.3770217289     3.8637078935     6.7840872250
H       21.1127127070     3.0539161850     8.2468826384
H       20.3372547851     4.6820848642     8.0150767000
Si       16.4319476577     3.4108350841     4.3892813870
O       16.3149782965     5.0001481038     4.7347406421
O       17.9371378400     3.0775953558     3.8369576088
O       15.3729283212     3.0003454608     3.2090414042
O       16.1064891814     2.5744792216     5.7537114184
Si       16.5025899345     6.5997363147     4.3983412043
Si       13.9534150742     2.5656424531     2.4977527781
Si       18.8333816623     2.5417888394     2.5592086200
Si       15.7502157676     1.1308638580     6.4657258872
H       17.8886785667     6.8612678096     3.8998370989
H       15.5464182750     6.9664220156     3.2977278996
H       16.2734182780     7.4781660745     5.6118541006
H       12.8193755926     3.3110571003     3.0958223404
H       13.9441386738     2.8646767555     1.0321458732
H       18.4349254852     3.3268138297     1.3587081632
H       13.7055041822     1.1045929497     2.6978605289
H       18.5356012900     1.1002616157     2.3034550888
H       16.4428328976     0.9010555840     7.7861574556
H       14.2702782890     0.9810424998     6.6959232428
H       20.3287818593     2.6889083860     2.7517918436
H       16.1935398033     0.0682513040     5.5291522037
32
# Point -2 Energy = 0.0
C       20.6575613576     3.6501847939     7.5112803525
H       18.9959247656     3.5930990021     6.1854197169
C       19.4517791091     2.9513546773     6.8866157008
H       18.6753116164     2.7500449468     7.6896212168
H       20.5306276525     1.7892340426     5.4860640288
C       19.8240683932     1.6420330161     6.1946847226
H       18.9873094435     1.1753549891     5.7455395397
H       20.3031851245     0.8224920876     7.0272428672
H       21.3871107662     3.8677440142     6.7785811350
H       21.1138578135     3.0471363539     8.2630896739
H       20.3427856193     4.6551855718     8.0072939414
Si       16.4321227167     3.4098130977     4.3915900690
O       16.3149353957     4.9992537106     4.7363161391
O       17.9378714402     3.0762637238     3.8408604458
O       15.3742546422     2.9989295308     3.2104765734
O       16.1053234453     2.5740087079     5.7560044211
Si       16.5029613516     6.5987145043     4.3994866903
Si       13.9553931580     2.5640331413     2.4979742127
Si       18.8352920423     2.5399200227     2.5641636305
Si       15.7482601445     1.1306714698     6.4682524540
H       17.8895495405     6.8599690635     3.9022264704
H       15.5478808373     6.9650284789     3.2978041251
H       16.2726648895     7.4776200449     5.6124377944
H       12.8208209640     3.3097449959     3.0946567045
H       13.9475606130     2.8625050561     1.0322449706
H       18.4380543100     3.3245051509     1.3629880888
H       13.7072059200     1.1030762024     2.6984041669
H       18.5376816757     1.0983106346     2.3086886232
H       16.4395827528     0.9013365970     7.7894336801
H       14.2680918537     0.9810311618     6.6970609759
H       20.3305202468     2.6870244296     2.7581541957
H       16.1924309990     0.0676787800     5.5325080329
32
# Point -1 Energy = 0.0
C       20.6526406469     3.6525870341     7.5189896678
H       18.9860143243     3.6044327383     6.1774624253
C       19.4492518409     2.9498960044     6.8941293251
H       18.6837478680     2.7529751130     7.6825011112
H       20.5574633607     1.7935293139     5.4670302189
C       19.8237420318     1.6375198342     6.2078241330
H       18.9721929700     1.1662591937     5.7451864342
H       20.2718781167     0.8711735853     6.9837957882
H       21.3972388754     3.8716720671     6.7730901682
H       21.1150071969     3.0403187326     8.2792471050
H       20.3482436472     4.6282389476     7.9995264563
Si       16.4323088313     3.4087797292     4.3939036517
O       16.3149072966     4.9983476554     4.7378973610
O       17.9386134848     3.0749192929     3.8447672502
O       15.3755908518     2.9975044080     3.2119188227
O       16.1041687458     2.5735265751     5.7583006348
Si       16.5033503602     6.5976807253     4.4006391115
Si       13.9573807744     2.5624170398     2.4982046813
Si       18.8372077924     2.5380381490     2.5691227310
Si       15.7463136016     1.1304677636     6.4707807994
H       17.8904368476     6.8586567451     3.9046221920
H       15.5493615662     6.9636247684     3.2978896256
H       16.2719323208     7.4770615668     5.6130278971
H       12.8222791622     3.3084271573     3.0935012043
H       13.9509910833     2.8603274143     1.0323549267
H       18.4411892023     3.3221844691     1.3672743377
H       13.7089145902     1.1015531003     2.6989558446
H       18.5397646586     1.0963473234     2.3139258155
H       16.4363418829     0.9016046839     7.7927094408
H       14.2659158362     0.9810103056     6.6982015167
H       20.3322630394     2.6851255210     2.7645191603
H       16.1913277925     0.0670950421     5.5358655219
32
# Point 0 Energy = 0
C       20.6477110000     3.6549790000     7.5266840000
H       18.9761800000     3.6157410000     6.1694560000
C       19.4467280000     2.9484220000     6.9016430000
H       18.6922510000     2.7558520000     7.6754250000
H       20.5840390000     1.7980300000     5.4478400000
C       19.8234060000     1.6330100000     6.2209870000
H       18.9571360000     1.1573250000     5.7446630000
H       20.2404540000     0.9200090000     6.9405780000
H       21.4074060000     3.8754920000     6.7676150000
H       21.1161610000     3.0334640000     8.2953550000
H       20.3536290000     4.6012450000     7.9917750000
Si       16.4325060000     3.4077350000     4.3962220000
O       16.3148940000     4.9974300000     4.7394840000
O       17.9393640000     3.0735620000     3.8486780000
O       15.3769370000     2.9960700000     3.2133680000
O       16.1030250000     2.5730330000     5.7606000000
Si       16.5037570000     6.5966350000     4.4017980000
Si       13.9593780000     2.5607940000     2.4984440000
Si       18.8391290000     2.5361430000     2.5740860000
Si       15.7443760000     1.1302530000     6.4733110000
H       17.8913405600     6.8573308000     3.9070238400
H       15.5508605600     6.9622108000     3.2979838400
H       16.2712205600     7.4764908000     5.6136238400
H       12.8237502400     3.3071035200     3.0923555200
H       13.9544302400     2.8581435200     1.0324755200
H       18.4443303200     3.3198514400     1.3715668800
H       13.7106302400     1.1000235200     2.6995155200
H       18.5418503200     1.0943714400     2.3191668800
H       16.4331100800     0.9018602400     7.7959848800
H       14.2637500800     0.9809802400     6.6993448800
H       20.3340103200     2.6832114400     2.7708868800
H       16.1902300800     0.0665002400     5.5392248800
32
# Point 1 Energy = 0.0
C       20.6427723213     3.6573608068     7.5343632590
H       18.9664218192     3.6270237021     6.1614005665
C       19.4442075007     2.9469328521     6.9091567574
H       18.7008206893     2.7586759639     7.6683931422
H       20.6103509590     1.8027344819     5.4284930453
C       19.8230601335     1.6285037771     6.2341733734
H       18.9421416078     1.1485528599     5.7439690253
H       20.2089128014     0.9689991279     6.8975909965
H       21.4176121343     3.8792036811     6.7621562587
H       21.1173194061     3.0265727787     8.3114133607
H       20.3589418098     4.5742036474     7.9840403426
Si       16.4327142498     3.4066789042     4.3985449740
O       16.3148955426     4.9965007744     4.7410757633
O       17.9401230342     3.0721917586     3.8525926520