32
# Point -15 Energy = 0.0
C       20.6507136197     3.6135525598     7.4443339287
H       18.9587598227     3.6108573926     6.1120498997
C       19.4267943147     2.9327453230     6.8352385605
H       18.6834089519     2.7522864530     7.6233046386
H       20.5277059935     1.7572669904     5.3720460423
C       19.7683025885     1.6086612065     6.1501694548
H       18.8837490669     1.1462931135     5.6877814547
H       20.1739875736     0.8813519532     6.8614672446
H       21.4027078397     3.8216321252     6.6747893554
H       21.1165236540     2.9843747765     8.2082635400
H       20.3776553503     4.5652193570     7.9101183129
Si       16.3837955743     3.4445078959     4.3640257050
O       16.3811346963     5.0224705343     4.6952674161
O       17.8528722209     3.1887019219     3.7459267517
O       15.2893187461     2.9872555395     3.2839888622
O       16.0153772778     2.6170050498     5.7054449622
Si       16.3447920448     6.6399229141     4.5102319865
Si       14.0714407238     2.6663478050     2.2865119110
Si       18.8616871079     2.3125827448     2.8176597186
Si       15.8024428723     1.2326581993     6.5493206135
H       17.9954102636     6.7881930449     3.9688458804
H       15.6481032868     7.1012913285     3.4337687579
H       16.4360779867     7.4411456922     5.7017660045
H       12.8084244282     2.9539816087     2.9787697492
H       14.0579956484     2.5709320260     1.1002732436
H       18.4741869733     3.5020069342     1.4471015348
H       13.9585934668     0.9412530702     2.9690157330
H       18.6822381703     1.2403904093     2.4178813860
H       16.3520413991     0.9934393210     7.7881820065
H       14.1747928376     1.1236146783     6.6979253786
H       20.2572175280     2.9071031925     2.8181023774
H       16.0497285717     0.1242568386     5.5675929494
32
# Point -14 Energy = 0.0
C       20.6522000181     3.6188268478     7.4525934376
H       18.9614991508     3.6118644892     6.1187366986
C       19.4304523034     2.9349959788     6.8425379844
H       18.6865456795     2.7530210326     7.6297132173
H       20.5349304079     1.7622193457     5.3799621903
C       19.7756330612     1.6117817242     6.1578069412
H       18.8927350857     1.1475778336     5.6945596349
H       20.1828808770     0.8858740854     6.8696716629
H       21.4044579058     3.8284572641     6.6836862860
H       21.1188820947     2.9906825962     8.2168477867
H       20.3767877656     4.5698897468     7.9182988681
Si       16.3886662781     3.4399698023     4.3691789609
O       16.3768502444     5.0189432126     4.7013185893
O       17.8607519083     3.1803282273     3.7557621515
O       15.2972390754     2.9844181404     3.2820172502
O       16.0235691850     2.6116217167     5.7121446421
Si       16.3477539495     6.6358681977     4.5010770178
Si       14.0634499965     2.6737777558     2.2966591029
Si       18.8574794448     2.3162645589     2.8008098020
Si       15.8042547833     1.2216732381     6.5468727148
H       17.9807007233     6.7992618603     3.9633310379
H       15.6332374165     7.0860473651     3.4196642221
H       16.4144698063     7.4468108555     5.6938519715
H       12.8053259136     2.9970486796     2.9841066018
H       14.0487208280     2.6063213361     1.0881052360
H       18.4718603614     3.4783426572     1.4391943842
H       13.9288924839     0.9573078980     2.9296595466
H       18.6635019733     1.2208269644     2.4053860725
H       16.3638773988     0.9827320456     7.7911244363
H       14.1865565562     1.1067273459     6.7021811381
H       20.2669284938     2.8764816023     2.8140278965
H       16.0668894299     0.1173375959     5.5662778771
32
# Point -13 Energy = 0.0
C       20.6532644451     3.6238212413     7.4607309846
H       18.9639776896     3.6127644207     6.1251129153
C       19.4337071504     2.9370872448     6.8495666188
H       18.6891796955     2.7536414545     7.6357630032
H       20.5418099155     1.7669553387     5.3877112999
C       19.7825229955     1.6147357157     6.1651893350
H       18.9012979037     1.1487840412     5.7009761178
H       20.1911874766     0.8901858631     6.8776536383
H       21.4058863886     3.8349551974     6.6925503426
H       21.1206772485     2.9966578455     8.2253507388
H       20.3755274884     4.5742894152     7.9263435069
Si       16.3934704141     3.4355821912     4.3737314334
O       16.3725775083     5.0155137532     4.7067708091
O       17.8685826177     3.1720105887     3.7651513133
O       15.3051652028     2.9818745116     3.2793663759
O       16.0315045714     2.6064087512     5.7181948509
Si       16.3518706401     6.6318231773     4.4918617472
Si       14.0552336657     2.6791844718     2.3076554167
Si       18.8538788034     2.3216590171     2.7837553563
Si       15.8053319947     1.2110431901     6.5437687217
H       17.9670827710     6.8091088412     3.9576829430
H       15.6197168190     7.0711688140     3.4058642941
H       16.3942407411     7.4517735688     5.6857948594
H       12.8034714492     3.0378838219     2.9911701795
H       14.0392190623     2.6399008704     1.0774832957
H       18.4692969178     3.4563398850     1.4314516485
H       13.9007435401     0.9734649074     2.8937075428
H       18.6460627203     1.2027715119     2.3935945086
H       16.3747677105     0.9724709555     7.7934829725
H       14.1975788778     1.0905600700     6.7053662583
H       20.2759522097     2.8481559722     2.8097788550
H       16.0831939660     0.1107253512     5.5645834768
32
# Point -12 Energy = 0.0
C       20.6539422581     3.6285087327     7.4686829177
H       18.9662001824     3.6135592414     6.1311528720
C       19.4365679443     2.9390129227     6.8562888976
H       18.6913343285     2.7541552825     7.6414348760
H       20.5483006933     1.7714474714     5.3952348410
C       19.7889428773     1.6175094956     6.1722750482
H       18.9093892003     1.1499130580     5.7070096436
H       20.1988811203     0.8942662498     6.8853632903
H       21.4070153903     3.8410851070     6.7013011566
H       21.1219506063     3.0022653572     8.2336988616
H       20.3739369869     4.5783971130     7.9341936008
Si       16.3981695685     3.4313913444     4.3777154018
O       16.3683135605     5.0122312069     4.7116532428
O       17.8763053882     3.1637677943     3.7740942118
O       15.3130286947     2.9796883323     3.2760938285
O       16.0391595916     2.6014188611     5.7236372410
Si       16.3571479050     6.6278408815     4.4826658222
Si       14.0468520355     2.6825258610     2.3194402472
Si       18.8508399313     2.3287622253     2.7665546880
Si       15.8056475140     1.2008318530     6.5400598140
H       17.9545899934     6.8178084467     3.9519807414
H       15.6075311039     7.0567912672     3.3924677766
H       16.3754524046     7.4560969417     5.6776965302
H       12.8027274027     3.0762886335     2.9996423304
H       14.0296130901     2.6715073054     1.0683253218
H       18.4665663169     3.4360112075     1.4239211819
H       13.8742207385     0.9894647955     2.8611585937
H       18.6299512544     1.1862083965     2.3825564636
H       16.3847037992     0.9627105247     7.7953024364
H       14.2078263854     1.0752055868     6.7075764386
H       20.2843016186     2.8221695437     2.8054187875
H       16.0985707149     0.1044609598     5.5625682552
32
# Point -11 Energy = 0.0
C       20.6542720703     3.6328648142     7.4763848489
H       18.9681729364     3.6142509801     6.1368318120
C       19.4390467599     2.9407676995     6.8626700727
H       18.6930366940     2.7545709746     7.6467114703
H       20.5543616049     1.7756687626     5.4024744697
C       19.7948666809     1.6200898427     6.1790235531
H       18.9169639096     1.1509654793     5.7126411048
H       20.2059405082     0.8980954818     6.8927517337
H       21.4078694413     3.8468087016     6.7098566822
H       21.1227482961     3.0074734023     8.2418177547
H       20.3720816156     4.5821943324     7.9417896125
Si       16.4027248816     3.4274398868     4.3811666713
O       16.3640541698     5.0091417839     4.7159983114
O       17.8838605258     3.1556155841     3.7825927752
O       15.3207594906     2.9779176914     3.2722618636
O       16.0465121022     2.5967015947     5.7285176351
Si       16.3635847477     6.6239696388     4.4735698506
Si       14.0383689816     2.6837703907     2.3319515452
Si       18.8483141022     2.3375632647     2.7492701630
Si       15.8051771187     1.1911008893     6.5358030526
H       17.9432462609     6.8254345155     3.9463040915
H       15.5966608740     7.0430447996     3.3795742247
H       16.3581575681     7.4598425881     5.6696602557
H       12.8029498075     3.1120907561     3.0091936541
H       14.0200286093     2.7009876381     1.0605393231
H       18.4637365573     3.4173631636     1.4166552445
H       13.8494008556     1.0050616974     2.8319814286
H       18.6151928503     1.1711194695     2.3723160979
H       16.3936821563     0.9535038105     7.7966320517
H       14.2172693898     1.0607524371     6.7089141753
H       20.2919878155     2.7985479909     2.8010145472
H       16.1129512178     0.0985819381     5.5602952832
32
# Point -10 Energy = 0.0
C       20.6542952982     3.6368677343     7.4837721125
H       18.9699036636     3.6148416858     6.1421259848
C       19.4411584390     2.9423472606     6.8686763950
H       18.6943173376     2.7548978623     7.6515772201
H       20.5599544460     1.7795931032     5.4093723740
C       19.8002719793     1.6224642233     6.1853955869
H       18.9239804975     1.1519412936     5.7178535497
H       20.2123493507     0.9016553538     6.8997713613
H       21.4084751763     3.8520906048     6.7181337942
H       21.1231205549     3.0122540099     8.2496327078
H       20.3700289331     4.5856654823     7.9490715306
Si       16.4070972967     3.4237665097     4.3841240917
O       16.3597937465     5.0062885012     4.7198412740
O       17.8911880587     3.1475666471     3.7906507034
O       15.3282864205     2.9766146812     3.2679366498
O       16.0535417611     2.5923030058     5.7328854638
Si       16.3711732194     6.6202525221     4.4646546281
Si       14.0298517826     2.6828972426     2.3451259084
Si       18.8462498492     2.3480440463     2.7319678266
Si       15.8038995090     1.1819094349     6.5310608738
H       17.9330655019     6.8320596195     3.9407325623
H       15.5870780683     7.0300528170     3.3672832020
H       16.3423994483     7.4630696650     5.6617898456
H       12.8039856752     3.1451433843     3.0194878563
H       14.0105939434     2.7282011555     1.0540240999
H       18.4608744596     3.4003967017     1.4097099650
H       13.8263625366     1.0200260837     2.8061160827
H       18.6018065465     1.1574841149     2.3629112826
H       16.4017042937     0.9449022004     7.7975250245
H       14.2258821040     1.0472844055     6.7094878742
H       20.2990201606     2.7772983429     2.7966358682
H       16.1262705419     0.0931223045     5.5578316602
32
# Point -9 Energy = 0.0
C       20.6540556669     3.6404987216     7.4907802093
H       18.9714012993     3.6153334767     6.1470127156
C       19.4429203360     2.9437483924     6.8742752779
H       18.6952098445     2.7551461170     7.6560183767
H       20.5650441365     1.7831956122     5.4158716149
C       19.8051400029     1.6246210159     6.1913533431
H       18.9304011913     1.1528400203     5.7226321696
H       20.2180963627     0.9049294940     6.9063761132
H       21.4088609666     3.8568987128     6.7260488813
H       21.1231211467     3.0165832410     8.2570692400
H       20.3678479884     4.5887980248     7.9559792855
Si       16.4112478139     3.4204057521     4.3866290548
O       16.3555253052     5.0037108734     4.7232197838
O       17.8982281837     3.1396306714     3.7982732783
O       15.3355377386     2.9758250780     3.2631874969
O       16.0602301170     2.5882653637     5.7367931765
Si       16.3798983424     6.6167268852     4.4560003531
Si       14.0213708897     2.6798964153     2.3588986391
Si       18.8445937098     2.3601792340     2.7147169585
Si       15.8017964527     1.1733137401     6.5259005354
H       17.9240516071     6.8377544766     3.9353450234
H       15.5787464236     7.0179309966     3.3556935408
H       16.3282111183     7.4658339592     5.6541887546
H       12.8056747437     3.1753242067     3.0301860435
H       14.0014398363     2.7530216342     1.0486701724
H       18.4580459675     3.3851075205     1.4031446683
H       13.8051853969     1.0341472936     2.7834754869
H       18.5898044140     1.1452791732     2.3543733061
H       16.4087767100     0.9369551769     7.7980380832
H       14.2336428107     1.0348800127     6.7094109169
H       20.3054062951     2.7584082329     2.7923549030
H       16.1384677821     0.0881124751     5.5552479574
32
# Point -8 Energy = 0.0
C       20.6535986803     3.6437421695     7.4973452208
H       18.9726757988     3.6157285898     6.1514704499
C       19.4443520282     2.9449690718     6.8794354323
H       18.6957504194     2.7553267040     7.6600229908
H       20.5695988554     1.7864529838     5.4219164535
C       19.8094556443     1.6265497252     6.1968606432
H       18.9361921591     1.1536608553     5.7269642682
H       20.2231751908     0.9079036161     6.9125217230
H       21.4090565133     3.8612045118     6.7335184157
H       21.1228067321     3.0204414082     8.2640536057
H       20.3656085852     4.5915825701     7.9624531324
Si       16.4151377394     3.4173878350     4.3887249742
O       16.3512404423     5.0014446461     4.7261734160
O       17.9049216931     3.1318144355     3.8054671669
O       15.3424416614     2.9755881072     3.2580860721
O       16.0665606856     2.5846269114     5.7402956264
Si       16.3897381173     6.6134239930     4.4476858377
Si       14.0129996322     2.6747687687     2.3732037666
Si       18.8432909623     2.3739362295     2.6975895692
Si       15.7988529186     1.1653668432     6.5203935189
H       17.9161984600     6.8425874262     3.9302190299
H       15.5716220396     7.0067863267     3.3449026077
H       16.3156150480     7.4681870404     5.6469591717
H       12.8078516763     3.2025338379     3.0409508954
H       13.9926993692     2.7753397245     1.0443609669
H       18.4553162300     3.3714862953     1.3970211147
H       13.7859490435     1.0472356975     2.7639471881
H       18.5791908241     1.1344787588     2.3467269941
H       16.4149108320     0.9297100979     7.7982309847
H       14.2405340201     1.0236120647     6.7088006913
H       20.3111520633     2.7418455446     2.7882457841
H       16.1494865349     0.0835792103     5.5526176479
32
# Point -7 Energy = 0.0
C       20.6529710617     3.6465857780     7.5034041827
H       18.9737379148     3.6160294240     6.1554787684
C       19.4454749961     2.9460085361     6.8841269684
H       18.6959774418     2.7554513208     7.6635808557
H       20.5735901142     1.7893438104     5.4274526571
C       19.8132074100     1.6282411796     6.2018830815
H       18.9413236321     1.1544028176     5.7308392102
H       20.2275842755     0.9105657418     6.9181659344
H       21.4090924052     3.8649833475     6.7404594870
H       21.1222362010     3.0238132395     8.2705132552
H       20.3633805338     4.5940129283     7.9684339858
Si       16.4187289255     3.4147385465     4.3904567522
O       16.3469293259     4.9995215722     4.7287431707
O       17.9112103741     3.1241219329     3.8122402157
O       15.3489268981     2.9759362865     3.2527056159
O       16.0725190102     2.5814216675     5.7434494396
Si       16.4006636108     6.6103687504     4.4397877192
Si       14.0048138535     2.6675260047     2.3879740355
Si       18.8422863388     2.3892752148     2.6806598427
Si       15.7950571959     1.1581182781     6.5146148969
H       17.9094900891     6.8466239675     3.9254302048
H       15.5656540296     6.9967162562     3.3350055825
H       16.3046227743     7.4701754919     5.6402011002
H       12.8103487118     3.2266938200     3.0514506446
H       13.9845079743     2.7950654401     1.0409742510
H       18.4527494671     3.3595188068     1.3914026998
H       13.7687320300     1.0591244902     2.7473952070
H       18.5699617767     1.1250539831     2.3399912317
H       16.4201229279     0.9232119964     7.7981659877
H       14.2465426115     1.0135472625     6.7077775978
H       20.3162613528     2.7275585000     2.7843842473
H       16.1592753361     0.0795456079     5.5500165308
32
# Point -6 Energy = 0.0
C       20.6522201740     3.6490206480     7.5088954068
H       18.9745989554     3.6162385749     6.1590183700
C       19.4463122769     2.9468673300     6.8883214591
H       18.6959310037     2.7555323213     7.6666834097
H       20.5769927693     1.7918488728     5.4324277762
C       19.8163873176     1.6296877028     6.2063881404
H       18.9457699704     1.1550648881     5.7342483491
H       20.2313266505     0.9129063867     6.9232686838
H       21.4089996488     3.8682146398     6.7467902877
H       21.1214699766     3.0266879810     8.2763772383
H       20.3612329024     4.5960861156     7.9738637003
Si       16.4219839935     3.4124791709     4.3918702397
O       16.3425806958     4.9979692286     4.7309709540
O       17.9170373724     3.1165545194     3.8186012390
O       15.3549231617     2.9768953431     3.2471201675
O       16.0780927024     2.5786792730     5.7463123723
Si       16.4126391154     6.6075795282     4.4323796843
Si       13.9968914798     2.6581905837     2.4031408643
Si       18.8415246985     2.4061492427     2.6640035353
Si       15.7904009944     1.1516138157     6.5086426719
H       17.9039009321     6.8499263628     3.9210516275
H       15.5607852367     6.9878079569     3.3260947574
H       16.2952347017     7.4718402374     5.6340114370
H       12.8129987354     3.2477442949     3.0613627868
H       13.9770035069     2.8121306578     1.0383837977
H       18.4504086378     3.3491860033     1.3863536732
H       13.7536107687     1.0696711113     2.7336620501
H       18.5621043427     1.1169726043     2.3341798352
H       16.4244339938     0.9175033980     7.7979073000
H       14.2516599563     1.0047458749     6.7064640455
H       20.3207358754     2.7154761973     2.7808473430
H       16.1677880529     0.0760311350     5.5475221569
32
# Point -5 Energy = 0.0
C       20.6513934292     3.6510413280     7.5137587504
H       18.9752705285     3.6163588564     6.1620710232
C       19.4468880970     2.9475473287     6.8919919651
H       18.6956524351     2.7555826254     7.6693236002
H       20.5797849745     1.7939513884     5.4367913921
C       19.8189907418     1.6308832544     6.2103452757
H       18.9495096704     1.1556461344     5.7371849370
H       20.2344096835     0.9149187030     6.9277922464
H       21.4088091788     3.8708820385     6.7524305444
H       21.1205693040     3.0290594399     8.2815765476
H       20.3592332769     4.5978023191     7.9786852917
Si       16.4248665370     3.4106264593     4.3930116967
O       16.3381818715     4.9968108721     4.7328990469
O       17.9223475154     3.1091110757     3.8245598042
O       15.3603616525     2.9784841958     3.2414038112
O       16.0832714613     2.5764248801     5.7489426691
Si       16.4256223751     6.6050680849     4.4255317167
Si       13.9893120216     2.6467955738     2.4186342797
Si       18.8409516482     2.4245043710     2.6476973414
Si       15.7848795238     1.1458952413     6.5025571000
H       17.8993962052     6.8525533030     3.9171532351
H       15.5569529962     6.9801377043     3.3182588630
H       16.2874400309     7.4732159719     5.6284830654
H       12.8156387197     3.2656414707     3.0703774449
H       13.9703263266     2.8264915205     1.0364612348
H       18.4483549446     3.3404640292     1.3819384227
H       13.7406584244     1.0787582942     2.7225708935
H       18.5555962605     1.1101986362     2.3293026917
H       16.4278696132     0.9126241595     7.7975205090
H       14.2558820163     0.9972614749     6.7049834531
H       20.3245749101     2.7055095713     2.7777132404
H       16.1749842261     0.0730516942     5.5452132667
32
# Point -4 Energy = 0.0
C       20.6505376954     3.6526458138     7.5179358319
H       18.9757642763     3.6163933096     6.1646194898
C       19.4472274895     2.9480517358     6.8951130269
H       18.6951838246     2.7556156172     7.6714957146
H       20.5819480782     1.7956372117     5.4404953344
C       19.8210162168     1.6318235369     6.2137259743
H       18.9525253183     1.1561458177     5.7396440201
H       20.2368447667     0.9165985785     6.9317013510
H       21.4085513573     3.8729735197     6.7573018950
H       21.1195955328     3.0309259695     8.2860444005
H       20.3574470411     4.5991648209     7.9828431009
Si       16.4273413016     3.4091926368     4.3939272650
O       16.3337187665     4.9960653345     4.7345695710
O       17.9270875918     3.1017881759     3.8301260211
O       15.3651755067     2.9807149971     3.2356299570
O       16.0880470717     2.5746790810     5.7513984307
Si       16.4395648680     6.6028395805     4.4193093829
Si       13.9821560153     2.6333844351     2.4343828391
Si       18.8405141027     2.4442798328     2.6318182407
Si       15.7784915508     1.1410001660     6.4964400094
H       17.8959323649     6.8545596350     3.9138012520
H       15.5540899242     6.9737703782     3.3115824343
H       16.2812168075     7.4743307088     5.6237039746
H       12.8181134555     3.2803550175     3.0782003095
H       13.9646193282     2.8381306354     1.0350780220
H       18.4466472183     3.3333242538     1.3782208675
H       13.7299438199     1.0862947435     2.7139279493
H       18.5504057086     1.1046919518     2.3253670619
H       16.4304597916     0.9086113268     7.7970720033
H       14.2592094169     0.9911407396     6.7034592682
H       20.3277750349     2.6975527218     2.7750611125
H       16.1808293575     0.0706197167     5.5431692489
32
# Point -3 Energy = 0.0
C       20.6496987119     3.6538355057     7.5213701986
H       18.9760916040     3.6163451983     6.1666474303
C       19.4473559055     2.9483850573     6.8976606278
H       18.6945675442     2.7556450336     7.6731951879
H       20.5834664740     1.7968949846     5.4434938729
C       19.8224651992     1.6325060655     6.2165037908
H       18.9548034958     1.1565634773     5.7416223292
H       20.2386469661     0.9179446895     6.9349632656
H       21.4082554723     3.8744814245     6.7613282132
H       21.1186094088     3.0322904012     8.2897164662
H       20.3559366861     4.6001798896     7.9862829063
Si       16.4293743413     3.4081854389     4.3946624630
O       16.3291759105     4.9957469518     4.7360239625
O       17.9312065900     3.0945802565     3.8353103422
O       15.3693002064     2.9835932243     3.2298706667
O       16.0924133807     2.5734578742     5.7537370052
Si       16.4544121370     6.6008926787     4.4137731711
Si       13.9755044149     2.6180107381     2.4503135475
Si       18.8401607797     2.4654082397     2.6164428416
Si       15.7712394343     1.1369618703     6.4903741282
H       17.8934576502     6.8559961481     3.9110576598
H       15.5521247131     6.9687590811     3.3061452224
H       16.2765320828     7.4752054462     5.6197564245
H       12.8202794742     3.2918655418     3.0845550966
H       13.9600278642     2.8470589729     1.0341074898
H       18.4453412266     3.3277333242     1.3752639827
H       13.7215303833     1.0922154416     2.7075250116
H       18.5464912632     1.1004079125     2.3223789380
H       16.4322387695     0.9054990131     7.7966283980
H       14.2616474928     0.9864233111     6.7020140215
H       20.3303298718     2.6914845309     2.7729710690
H       16.1852951456     0.0687442771     5.5414696295
32
# Point -2 Energy = 0.0
C       20.6489205234     3.6546151270     7.5240074562
H       18.9762634125     3.6162179911     6.1681392989
C       19.4472988263     2.9485530547     6.8996121407
H       18.6938457840     2.7556848464     7.6744183964
H       20.5843274145     1.7977162361     5.4457438911
C       19.8233418059     1.6329302042     6.2186543698
H       18.9563346464     1.1568989924     5.7431181703
H       20.2398346434     0.9189585120     6.9375478629
H       21.4079492460     3.8754024456     6.7644358901
H       21.1176703836     3.0331599314     8.2925310451
H       20.3547611587     4.6008566433     7.9889519957
Si       16.4309331521     3.4076081746     4.3952617130
O       16.3245364756     4.9958655264     4.7373024679
O       17.9346558965     3.0874797799     3.8401233824
O       15.3726739508     2.9871178114     3.2241960365
O       16.0963662583     2.5727726629     5.7560144136
Si       16.4701041604     6.5992197265     4.4089778976
Si       13.9694379446     2.6007378182     2.4663517849
Si       18.8398426281     2.4878158134     2.6016467372
Si       15.7631291437     1.1338091792     6.4844424323
H       17.8919126920     6.8569094162     3.9089797215
H       15.5509829140     6.9651448718     3.3020216646
H       16.2733421755     7.4758539569     5.6167161704
H       12.8220090458     3.3001622810     3.0891854771
H       13.9566995038     2.8533173891     1.0334268703
H       18.4444889515     3.3236532569     1.3731294684
H       13.7154751650     1.0964815940     2.7031421586
H       18.5438020311     1.0972970502     2.3203443509
H       16.4332448190     0.9033182955     7.7962559733
H       14.2632063102     0.9831417115     6.7007684266
H       20.3322298651     2.6871704801     2.7715240946
H       16.1883596722     0.0674312200     5.5401936010
32
# Point -1 Energy = 0.0
C       20.6482449409     3.6549926140     7.5257953694
H       18.9762898373     3.6160153335     6.1690802389
C       19.4470813864     2.9485626806     6.9009462659
H       18.6930601075     2.7557491426     7.6751624492
H       20.5845208011     1.7980954345     5.4472050481
C       19.8236525344     1.6330971689     6.2201554639
H       18.9571129135     1.1571526209     5.7441313257
H       20.2404290616     0.9196442934     6.9394276739
H       21.4076583620     3.8757375686     6.7665540809
H       21.1168359553     3.0335459713     8.2944292111
H       20.3539752543     4.6012068943     7.9907992082
Si       16.4319867873     3.4074598083     4.3957679117
O       16.3197823115     4.9964263176     4.7384436715
O       17.9373894613     3.0804773875     3.8445757664
O       15.3752379897     2.9912813109     3.2186736455
O       16.0999035434     2.5726302821     5.7582848195
Si       16.4865757529     6.5978070064     4.4049721936
Si       13.9640364287     2.5816383654     2.4824212504
Si       18.8395131943     2.5114226427     2.5875038885
Si       15.7541702616     1.1315663621     6.4787275250
H       17.8912311754     6.8573416923     3.9076195745
H       15.5505876904     6.9629566076     3.2992804173
H       16.2715930198     7.4762826983     5.6146517648
H       12.8231941303     3.3052411578     3.0918564636
H       13.9547835784     2.8569777220     1.0329192525
H       18.4441378729     3.3210415648     1.3718775534
H       13.7118279484     1.0990802232     2.7005505719
H       18.5422779458     1.0953048164     2.3192705412
H       16.4335200296     0.9020971291     7.7960201367
H       14.2639006649     0.9813213070     6.6998405373
H       20.3334621116     2.6844645807     2.7708019428
H       16.1900075474     0.0666832951     5.5394195967
32
# Point 0 Energy = 0
C       20.6477110000     3.6549790000     7.5266840000
H       18.9761800000     3.6157410000     6.1694560000
C       19.4467280000     2.9484220000     6.9016430000
H       18.6922510000     2.7558520000     7.6754250000
H       20.5840390000     1.7980300000     5.4478400000
C       19.8234060000     1.6330100000     6.2209870000
H       18.9571360000     1.1573250000     5.7446630000
H       20.2404540000     0.9200090000     6.9405780000
H       21.4074060000     3.8754920000     6.7676150000
H       21.1161610000     3.0334640000     8.2953550000
H       20.3536290000     4.6012450000     7.9917750000
Si       16.4325060000     3.4077350000     4.3962220000
O       16.3148940000     4.9974300000     4.7394840000
O       17.9393640000     3.0735620000     3.8486780000
O       15.3769370000     2.9960700000     3.2133680000
O       16.1030250000     2.5730330000     5.7606000000
Si       16.5037570000     6.5966350000     4.4017980000
Si       13.9593780000     2.5607940000     2.4984440000
Si       18.8391290000     2.5361430000     2.5740860000
Si       15.7443760000     1.1302530000     6.4733110000
H       17.8913405600     6.8573308000     3.9070238400
H       15.5508605600     6.9622108000     3.2979838400
H       16.2712205600     7.4764908000     5.6136238400
H       12.8237502400     3.3071035200     3.0923555200
H       13.9544302400     2.8581435200     1.0324755200
H       18.4443303200     3.3198514400     1.3715668800
H       13.7106302400     1.1000235200     2.6995155200
H       18.5418503200     1.0943714400     2.3191668800
H       16.4331100800     0.9018602400     7.7959848800
H       14.2637500800     0.9809802400     6.6993448800
H       20.3340103200     2.6832114400     2.7708868800
H       16.1902300800     0.0665002400     5.5392248800
32
# Point 1 Energy = 0.0
C       20.6473550649     3.6545891521     7.5266245089
H       18.9759418634     3.6153993575     6.1692521944
C       19.4462626266     2.9481406522     6.9016826248
H       18.6914584364     2.7560074989     7.6752033450
H       20.5828771152     1.7975215139     5.4476129703
C       19.8226134997     1.6326743255     6.2211297687
H       18.9564058274     1.1574177178     5.7447146511
H       20.2399367419     0.9200630664     6.9409753420
H       21.4072126310     3.8746763499     6.7675526160
H       21.1156982797     3.0329342898     8.2952539528
H       20.3537675354     4.6009883827     7.9918304694
Si       16.4324628372     3.4084240869     4.3966628667
O       16.3098499825     4.9988724676     4.7404579406
O       17.9405385332     3.0667214368     3.8524400037