32
# Point -15 Energy = 0.0
C       20.7136771383     3.5399380089     7.4883893043
H       19.3920347479     3.6241950172     6.0453486943
C       19.3879025624     2.8642685197     6.8268824708
H       19.0073161883     2.6085636644     7.8139161185
H       20.8446586437     1.3980908372     6.3063135921
C       19.7659363887     1.5899105763     6.1624406733
H       18.7109669464     1.4895189698     6.2761273226
H       20.6524038461     0.9232528750     6.2911477243
H       20.7786867484     4.4802918302     6.9349661727
H       20.3599582476     2.9521706376     8.3094280932
H       20.9722311570     4.6204993967     7.6463496260
Si       16.4189321719     3.3988055569     4.3772578158
O       16.3124211932     4.9852047620     4.7348956096
O       17.9234244561     3.0612886517     3.8148441121
O       15.3545386841     3.0027729726     3.1979642377
O       16.0957721678     2.5549824323     5.7354329101
Si       16.5069975505     6.5875260761     4.4097694906
Si       13.9293823305     2.5805118222     2.4890678747
Si       18.8085893381     2.5325197656     2.5302833310
Si       15.7356414424     1.1059625774     6.4384508899
H       17.8921778587     6.8455322478     3.9077898596
H       15.5481037870     6.9670682401     3.3159101391
H       16.2868862633     7.4574796700     5.6309237200
H       12.8016996827     3.3270562098     3.0974415313
H       13.9158151444     2.8907772121     1.0258442543
H       18.4104367302     3.3279325958     1.3376988591
H       13.6750552795     1.1192701685     2.6790968587
H       18.5036283917     1.0937519840     2.2650419986
H       16.4316946868     0.8630673163     7.7543275469
H       14.2552434378     0.9623187392     6.6734897230
H       20.3065633969     2.6699149539     2.7182839418
H       16.1692039916     0.0488577128     5.4920408642
32
# Point -14 Energy = 0.0
C       20.7114803375     3.5458382997     7.4908839773
H       19.3634515249     3.6303107539     6.0516099235
C       19.3936724831     2.8687003388     6.8315473743
H       18.9852352746     2.6170446143     7.8091372849
H       20.8585594608     1.4252161776     6.2555546947
C       19.7705438504     1.5921468075     6.1643720899
H       18.7165632323     1.4393646101     6.2430555958
H       20.6379640081     0.9101709955     6.3261490138
H       20.7792807082     4.4589255830     6.8934554662
H       20.3807964474     2.9544899767     8.3209868036
H       20.9436304735     4.6269226951     7.6715766790
Si       16.4211000779     3.3999991441     4.3792052635
O       16.3147396711     4.9866417348     4.7360756959
O       17.9254060291     3.0620152934     3.8172635522
O       15.3567206737     3.0035605917     3.1999695641
O       16.0975470305     2.5568148300     5.7378233451
Si       16.5096112200     6.5886956289     4.4102035262
Si       13.9316337473     2.5812003212     2.4910798762
Si       18.8108674383     2.5323519802     2.5330223220
Si       15.7370347014     1.1083192992     6.4414704401
H       17.8949175409     6.8462482809     3.9082805340
H       15.5509441720     6.9678835094     3.3160224751
H       16.2894931304     7.4593043671     5.6308965109
H       12.8039788247     3.3282294171     3.0989230755
H       13.9183236851     2.8907518978     1.0277019720
H       18.4129377998     3.3272964087     1.3399770907
H       13.6770244641     1.1200926958     2.6817840058
H       18.5056274842     1.0935552216     2.2684287353
H       16.4329104563     0.8659252606     7.7575578071
H       14.2566240115     0.9650073695     6.6763726105
H       20.3087675151     2.6696364412     2.7211402284
H       16.1705931259     0.0506414543     5.4956378266
32
# Point -13 Energy = 0.0
C       20.7088945678     3.5526856057     7.4944177720
H       19.3349467363     3.6358746975     6.0591106081
C       19.3991607116     2.8739043175     6.8372558503
H       18.9631950567     2.6264210988     7.8046686820
H       20.8682167263     1.4426729019     6.1871964577
C       19.7749619605     1.5949766581     6.1677483919
H       18.7256448687     1.3879364181     6.1982570914
H       20.6241421159     0.9035338844     6.3710763674
H       20.7819285864     4.4367997011     6.8550963527
H       20.3999175902     2.9580758253     8.3325800931
H       20.9127061991     4.6336236200     7.6973957601
Si       16.4233335746     3.4013269498     4.3816442158
O       16.3169799141     4.9882735962     4.7374319818
O       17.9275580726     3.0628560071     3.8204684377
O       15.3591700715     3.0042000762     3.2023794471
O       16.0992274885     2.5590189506     5.7408138052
Si       16.5121062517     6.5900091276     4.4105420795
Si       13.9342843431     2.5815264660     2.4933592851
Si       18.8135422535     2.5321067918     2.5367827616
Si       15.7383078750     1.1111601106     6.4453066935
H       17.8976007024     6.8470919307     3.9088393166
H       15.5538118632     6.9685822494     3.3158216893
H       16.2917458456     7.4614901837     5.6305756844
H       12.8065226155     3.3290905868     3.1003593569
H       13.9214365386     2.8900876297     1.0297673502
H       18.4159731585     3.3263353326     1.3430666369
H       13.6794462867     1.1205749044     2.6849749313
H       18.5081450729     1.0932144594     2.2730610066
H       16.4338187322     0.8695542368     7.7617562501
H       14.2578568040     0.9681403849     6.6798727383
H       20.3113317420     2.6694008811     2.7252212469
H       16.1720662745     0.0527564160     5.5003170189
32
# Point -12 Energy = 0.0
C       20.7065053146     3.5588644683     7.4978549096
H       19.3069126038     3.6397929533     6.0669719572
C       19.4047627305     2.8785571586     6.8429515194
H       18.9417423919     2.6352406460     7.7994971843
H       20.8728526738     1.4610777224     6.1136203123
C       19.7793402170     1.5971802992     6.1711758166
H       18.7373178579     1.3459964395     6.1505742569
H       20.6100238401     0.9011420591     6.4219823588
H       20.7870009680     4.4125720096     6.8189550295
H       20.4181679316     2.9611368167     8.3431715517
H       20.8802690894     4.6387770122     7.7229044479
Si       16.4256510907     3.4023259146     4.3841619602
O       16.3193939640     4.9895698227     4.7389208115
O       17.9297631546     3.0633103641     3.8237051382
O       15.3616539161     3.0046029264     3.2048821863
O       16.1009820080     2.5608666448     5.7438626057
Si       16.5148490347     6.5909869523     4.4110607027
Si       13.9369302882     2.5817112054     2.4957535214
Si       18.8162120124     2.5314722293     2.5405374731
Si       15.7395984846     1.1136403390     6.4491619402
H       17.9005324759     6.8475456684     3.9095534044
H       15.5569202278     6.9690292194     3.3158368588
H       16.2943204878     7.4633116173     5.6304678545
H       12.8091151304     3.3298474724     3.1019622970
H       13.9245239681     2.8893297723     1.0319586265
H       18.4190151488     3.3250433892     1.3461863518
H       13.6817937684     1.1209230795     2.6882395594
H       18.5105780059     1.0925089937     2.2776480538
H       16.4347640549     0.8727444027     7.7659483530
H       14.2591055778     0.9709801565     6.6834228393
H       20.3139023346     2.6686940061     2.7292649097
H       16.1734798476     0.0545202390     5.5049705684
32
# Point -11 Energy = 0.0
C       20.7045390895     3.5643151430     7.5007377286
H       19.2795148427     3.6420825942     6.0748273091
C       19.4106784067     2.8825990028     6.8482266828
H       18.9211404901     2.6434250555     7.7932602152
H       20.8727801596     1.4834406316     6.0421009032
C       19.7838843608     1.5987361741     6.1741779661
H       18.7505619195     1.3136709065     6.1050089744
H       20.5940733798     0.8999668978     6.4735000692
H       20.7946176118     4.3864158402     6.7846967490
H       20.4361743769     2.9636077558     8.3525274312
H       20.8466603819     4.6421576785     7.7477237086
Si       16.4280786627     3.4029905089     4.3865716602
O       16.3219950000     4.9905051504     4.7404404477
O       17.9320183111     3.0634344412     3.8266715476
O       15.3641299400     3.0047974957     3.2073409655
O       16.1029449548     2.5622781009     5.7467629610
Si       16.5177947832     6.5916245035     4.4117235746
Si       13.9394924149     2.5817854714     2.4981982322
Si       18.8188016866     2.5305874884     2.5438998977
Si       15.7411201060     1.1156372101     6.4527819996
H       17.9036293631     6.8476609523     3.9103087356
H       15.5601440319     6.9692520165     3.3161133931
H       16.2972323890     7.4646991671     5.6305947127
H       12.8116999130     3.3304757136     3.1037783216
H       13.9274037979     2.8885809839     1.0342272091
H       18.4218923432     3.3236095859     1.3490146074
H       13.6840336167     1.1211528079     2.6914584279
H       18.5128667689     1.0915839369     2.2817525486
H       16.4360518528     0.8753239454     7.7698226883
H       14.2606024971     0.9733588512     6.6868587473
H       20.3164135415     2.6676796638     2.7327933081
H       16.1750096062     0.0558663251     5.5092636368
32
# Point -10 Energy = 0.0
C       20.6975974863     3.5679951701     7.5030947817
H       19.2481214518     3.6418814939     6.0819469622
C       19.4118956899     2.8850152462     6.8523135040
H       18.8958916748     2.6497937022     7.7849018116
H       20.8638781973     1.5079565242     5.9735586801
C       19.7840464264     1.5987689198     6.1759787360
H       18.7604691802     1.2868211107     6.0608178798
H       20.5708392065     0.8974874576     6.5228416579
H       20.8680483426     4.3722012265     6.7810463967
H       20.5135033436     2.9805780960     8.3879151726
H       20.8027608069     4.6430559350     7.7714780770
Si       16.4268660781     3.4025562074     4.3866282138
O       16.3207475641     4.9902461400     4.7399709675
O       17.9308885396     3.0626566558     3.8278525898
O       15.3634926236     3.0041612668     3.2068811192
O       16.1007040110     2.5622276603     5.7469502403
Si       16.5169805712     6.5911590502     4.4108968788
Si       13.9392644911     2.5811630518     2.4969953632
Si       18.8185835379     2.5291632435     2.5457265104
Si       15.7381799990     1.1159772778     6.4531562687
H       17.9031757008     6.8468504297     3.9102448934
H       15.5600725595     6.9686219339     3.3145810733
H       16.2958235718     7.4646608834     5.6293611354
H       12.8112058465     3.3302116358     3.1016493394
H       13.9281198616     2.8875133251     1.0329228690
H       18.4224553181     3.3219313249     1.3503395703
H       13.6834494612     1.1206274281     2.6905408411
H       18.5125114390     1.0901769275     2.2838156030
H       16.4323122720     0.8759298332     7.7706913465
H       14.2575409329     0.9739690434     6.6863668343
H       20.3160295887     2.6661287643     2.7354740365
H       16.1725248257     0.0558150351     5.5102260063
32
# Point -9 Energy = 0.0
C       20.6888700169     3.5738247762     7.5069794876
H       19.2158235093     3.6421154030     6.0903939181
C       19.4117764350     2.8890742520     6.8576176937
H       18.8694954875     2.6578202680     7.7769296115
H       20.8501674800     1.5367012903     5.9103508897
C       19.7835838206     1.6004028320     6.1794717454
H       18.7708612431     1.2658272981     6.0206404460
H       20.5441318454     0.8967032949     6.5724148122
H       20.9599533463     4.3428452777     6.7770797005
H       20.6060173707     2.9873094235     8.4094428821
H       20.7466355764     4.6458355230     7.7936963505
Si       16.4250668230     3.4024286100     4.3867230957
O       16.3182327333     4.9902990342     4.7393100024
O       17.9294972338     3.0626400497     3.8296746251
O       15.3628470502     3.0033225501     3.2061115588
O       16.0976589243     2.5625330816     5.7471529895
Si       16.5144684432     6.5910338872     4.4097609803
Si       13.9394402916     2.5797600925     2.4950029303
Si       18.8187669788     2.5286547791     2.5485910116
Si       15.7346723218     1.1166319273     6.4535821773
H       17.9011218328     6.8468003047     3.9103595475
H       15.5585829809     6.9678698510     3.3123378601
H       16.2919598735     7.4650316722     5.6276303708
H       12.8106318292     3.3288483872     3.0982201127
H       13.9296796916     2.8854863138     1.0307893686
H       18.4235927427     3.3208888506     1.3524605657
H       13.6837020543     1.1192562620     2.6889127446
H       18.5131534583     1.0895486492     2.2869740406
H       16.4275954923     0.8772476047     7.7718985252
H       14.2538748342     0.9744087679     6.6853903609
H       20.3159279278     2.6660349916     2.7397355469
H       16.1701909510     0.0561166945     5.5115294082
32
# Point -8 Energy = 0.0
C       20.6817585597     3.5812717477     7.5110966273
H       19.1853773740     3.6424537083     6.0995348536
C       19.4133010029     2.8944459848     6.8634747800
H       18.8453291409     2.6672684308     7.7689314129
H       20.8340690258     1.5679767353     5.8505905915
C       19.7849761792     1.6032268797     6.1838679329
H       18.7841301116     1.2489349176     5.9837193669
H       20.5165641039     0.8970721172     6.6209459425
H       21.0315388237     4.3016068764     6.7648492614
H       20.6797937920     2.9860575489     8.4135811371
H       20.6933230531     4.6477966692     7.8161453936
Si       16.4245793116     3.4027304038     4.3876028541
O       16.3167830119     4.9908099655     4.7392259112
O       17.9294199776     3.0632459800     3.8321752796
O       15.3634645217     3.0025614550     3.2062919011
O       16.0962136172     2.5633954628     5.7482875827
Si       16.5127030170     6.5913561773     4.4089622961
Si       13.9408831778     2.5780827484     2.4941655250
Si       18.8202288967     2.5287529296     2.5521189688
Si       15.7330940061     1.1178755101     6.4551742021
H       17.8997171018     6.8473770914     3.9106355557
H       15.5576625038     6.9672438555     3.3104786661
H       16.2888113240     7.4659766555     5.6261379618
H       12.8112543249     3.3270911347     3.0959579713
H       13.9323024203     2.8829824348     1.0297714923
H       18.4257465392     3.3202182180     1.3551775628
H       13.6855018559     1.1175919934     2.6886665461
H       18.5153040064     1.0894368998     2.2910248451
H       16.4249840608     0.8794584913     7.7742326328
H       14.2521884311     0.9752041817     6.6857503136
H       20.3170982446     2.6668418868     2.7444888696
H       16.1698790827     0.0569569085     5.5141011224
32
# Point -7 Energy = 0.0
C       20.6757083530     3.5894317454     7.5148802843
H       19.1562307784     3.6422261637     6.1088162223
C       19.4158468815     2.9003878514     6.8692850487
H       18.8227530245     2.6773635779     7.7603102910
H       20.8148580436     1.6001381555     5.7931879516
C       19.7875118759     1.6065160770     6.1884844590
H       18.7995491940     1.2345495753     5.9489970358
H       20.4875307489     0.8979145340     6.6677088444
H       21.0918500376     4.2550810910     6.7517737960
H       20.7436688885     2.9837034482     8.4096972737
H       20.6435014321     4.6480078692     7.8388607785
Si       16.4247873332     3.4031849836     4.3887594136
O       16.3159269873     4.9914818782     4.7393444886
O       17.9300023411     3.0641123713     3.8347943262
O       15.3646752378     3.0017930819     3.2068975345
O       16.0956993667     2.5644536627     5.7497815251
Si       16.5113482766     6.5918387318     4.4082566595
Si       13.9428748526     2.5762304007     2.4939457202
Si       18.8222482260     2.5291246539     2.5556913798
Si       15.7326603388     1.1193201468     6.4572454087
H       17.8986403884     6.8482135608     3.9108279611
H       15.5569909102     6.9666320386     3.3088056346
H       16.2861375215     7.4671263772     5.6247161753
H       12.8124299635     3.3250877729     3.0944058055
H       13.9352737703     2.8802239599     1.0293571586
H       18.4282464384     3.3197205764     1.3579435493
H       13.6880053848     1.1157406260     2.6891473988
H       18.5181115838     1.0895575943     2.2952340970
H       16.4236929231     0.8820039622     7.7769760483
H       14.2516878923     0.9760780118     6.6867714260
H       20.3188347429     2.6680690774     2.7491027476
H       16.1706968626     0.0579884431     5.5171589163
32
# Point -6 Energy = 0.0
C       20.6703658009     3.5980348501     7.5182004432
H       19.1280744239     3.6412261262     6.1180652432
C       19.4190571728     2.9066740769     6.8748800485
H       18.8013804191     2.6878656017     7.7508925697
H       20.7922070949     1.6322896716     5.7377890844
C       19.7908483416     1.6100495350     6.1931512105
H       18.8168002684     1.2218209005     5.9160059118
H       20.4568284014     0.8991573589     6.7125656332
H       21.1458150439     4.2053709332     6.7409199062
H       20.8023365353     2.9826092458     8.4011064532
H       20.5964804343     4.6464091252     7.8616581930
Si       16.4253872283     3.4037091001     4.3899905527
O       16.3153928690     4.9922235701     4.7395080846
O       17.9309421579     3.0651362067     3.8373446300
O       15.3661857253     3.0009940667     3.2076967401
O       16.0957696566     2.5655927195     5.7514029537
Si       16.5101761287     6.5923950340     4.4075362786
Si       13.9451235016     2.5742345602     2.4940756256
Si       18.8245317319     2.5296831031     2.5591200553
Si       15.7329784253     1.1208391608     6.4595158997
H       17.8976782643     6.8492045237     3.9108593992
H       15.5563673754     6.9660027110     3.3072058396
H       16.2837106892     7.4683640248     5.6232792034
H       12.8138744744     3.3228791479     3.0932988837
H       13.9383338017     2.8772852723     1.0292869495
H       18.4308380929     3.3193532822     1.3605866412
H       13.6908827567     1.1137343412     2.6900406421
H       18.5212530245     1.0898390109     2.2993665596
H       16.4233014417     0.8847023615     7.7798536632
H       14.2519728424     0.9769323043     6.6881450495
H       20.3208444404     2.6695882618     2.7534179592
H       16.1722420352     0.0591018121     5.5203990527
32
# Point -5 Energy = 0.0
C       20.6655584098     3.6069748316     7.5210120286
H       19.1007708776     3.6393676947     6.1272004611
C       19.4227602725     2.9132160158     6.8801959244
H       18.7810214273     2.6986779990     7.7406136514
H       20.7660121628     1.6638111283     5.6842900380
C       19.7948393468     1.6137374419     6.1978205928
H       18.8357755869     1.2101992080     5.8844838201
H       20.4244501413     0.9008719756     6.7554901840
H       21.1957260812     4.1533996645     6.7336775399
H       20.8580129735     2.9837419191     8.3891708821
H       20.5517374288     4.6430574646     7.8843603465
Si       16.4262367138     3.4042776507     4.3912108934
O       16.3150517889     4.9930063528     4.7396509988
O       17.9320991429     3.0662833718     3.8397509393
O       15.3678609457     3.0001660959     3.2085884952
O       16.0962599368     2.5667735066     5.7530526349
Si       16.5090779896     6.5929983869     4.4067581175
Si       13.9474964285     2.5721215376     2.4944347953
Si       18.8269460937     2.5304012568     2.5623311651
Si       15.7338613554     1.1223883224     6.4618642497
H       17.8967298799     6.8503147704     3.9107035137
H       15.5556979953     6.9653536789     3.3056317036
H       16.2814195698     7.4696494318     5.6217934026
H       12.8154571084     3.3204958580     3.0925156563
H       13.9413674270     2.8742117316     1.0294440671
H       18.4334082892     3.3191089916     1.3630393068
H       13.6939838209     1.1115998418     2.6912044027
H       18.5245822305     1.0902609504     2.3033267121
H       16.4236072991     0.8874849266     7.7827478528
H       14.2528524593     0.9777358255     6.6897335867
H       20.3229937219     2.6713537596     2.7573770157
H       16.1743256947     0.0602604088     5.5236903815
32
# Point -4 Energy = 0.0
C       20.6611999216     3.6161925678     7.5232898762
H       19.0742628512     3.6366004551     6.1361666702
C       19.4268689314     2.9199659787     6.8851988768
H       18.7615781201     2.7097469379     7.7294412369
H       20.7362810579     1.6942240791     5.6327078373
C       19.7994216779     1.6175286134     6.2024792624
H       18.8564585055     1.1992864257     5.8542629532
H       20.3904639874     0.9031601156     6.7964714435
H       21.2426829810     4.0997234714     6.7307572722
H       20.9118106228     2.9875681583     8.3745584431
H       20.5089383057     4.6380087848     7.9068165684
Si       16.4272620310     3.4048843161     4.3923794810
O       16.3148403993     4.9938218634     4.7397443260
O       17.9333993718     3.0675403709     3.8419755774
O       15.3696288795     2.9993201055     3.2095243694
O       16.0970846841     2.5679817372     5.7546819698
Si       16.5080038136     6.5936413534     4.4059065105
Si       13.9499212400     2.5699186700     2.4949657377
Si       18.8294186462     2.5312688099     2.5652861451
Si       15.7352099122     1.1239507573     6.4642292407
H       17.8957492049     6.8515301258     3.9103520556
H       15.5549399131     6.9646932615     3.3040665555
H       16.2792156883     7.4709673736     5.6202492258
H       12.8171085432     3.3179691324     3.0920001001
H       13.9443104622     2.8710420461     1.0297731568
H       18.4358950802     3.3189895965     1.3652674510
H       13.6972244862     1.1093650297     2.6925687987
H       18.5280168278     1.0908175655     2.3070635184
H       16.4245042034     0.8903193230     7.7855984545
H       14.2542254342     0.9784812267     6.6914688644
H       20.3252102584     2.6733423395     2.7609484036
H       16.1768445579     0.0614514081     5.5269649778
32
# Point -3 Energy = 0.0
C       20.6572477102     3.6256432999     7.5250140002
H       19.0485343338     3.6328860798     6.1449175577
C       19.4313373934     2.9268900076     6.8898649993
H       18.7429987541     2.7210327226     7.7173537637
H       20.7030874048     1.7231421149     5.5831293139
C       19.8045704914     1.6213846606     6.2071245089
H       18.8788767318     1.1887740177     5.8252308752
H       20.3549666642     0.9061240303     6.8354938893
H       21.2872026564     4.0447594282     6.7325430964
H       20.9643047441     2.9943382881     8.3576496942
H       20.4678665112     4.6312996172     7.9288974394
Si       16.4284217497     3.4055296519     4.3934747251
O       16.3147277250     4.9946692542     4.7397758842
O       17.9347995263     3.0689006184     3.8439956099
O       15.3714459773     2.9984708206     3.2104797840
O       16.0981961472     2.5692123764     5.7562644577
Si       16.5069335462     6.5943235536     4.4049787883
Si       13.9523518358     2.5676546352     2.4956406078
Si       18.8319031983     2.5322805292     2.5679590740
Si       15.7369662480     1.1255199130     6.4665757693
H       17.8947182296     6.8528435408     3.9098044302
H       15.5540761098     6.9640340040     3.3025093605
H       16.2770842031     7.4723118973     5.6186492368
H       12.8187873230     3.3153318879     3.0917283693
H       13.9471196119     2.8678134253     1.0302479725
H       18.4382581716     3.3189994665     1.3672495091
H       13.7005487489     1.1070593019     2.6940972636
H       18.5315010867     1.0915073176     2.3105423915
H       16.4259320634     0.8931866033     7.7883694394
H       14.2560327672     0.9791708247     6.6933142811
H       20.3274487535     2.6755373314     2.7641077449
H       16.1797341820     0.0626707798     5.5301815225
32
# Point -2 Energy = 0.0
C       20.6536832289     3.6352858549     7.5261659414
H       19.0235932891     3.6281911896     6.1534102097
C       19.4361422181     2.9339589297     6.8941738223
H       18.7252569394     2.7325005913     7.7043332477
H       20.6665481108     1.7502475367     5.5356843499
C       19.8102801238     1.6252716425     6.2117568136
H       18.9030823037     1.1784115936     5.7973132098
H       20.3180639133     0.9098597044     6.8725357790
H       21.3294931099     3.9888610156     6.7392375004
H       21.0157872389     3.0041948434     8.3386939523
H       20.4283702013     4.6229449148     7.9504878057
Si       16.4296912746     3.4062169145     4.3944844577
O       16.3147002341     4.9955506926     4.7397419278
O       17.9362719514     3.0703599027     3.8457945819
O       15.3732830140     2.9976346191     3.2114421570
O       16.0995664337     2.5704641388     5.7577843566
Si       16.5058637034     6.5950474122     4.4039790748
Si       13.9547549484     2.5653590602     2.4964469196
Si       18.8343664987     2.5334325804     2.5703290207
Si       15.7390940474     1.1270934921     6.4688813713
H       17.8936344072     6.8542504906     3.9090636850
H       15.5531037300     6.9633903009     3.3009676303
H       16.2750293919     7.4736808376     5.6170025953
H       12.8204660582     3.3126184002     3.0916938088
H       13.9497612173     2.8645628548     1.0308574182
H       18.4404675462     3.3191433953     1.3689691486
H       13.7039140017     1.1047131051     2.6957702513
H       18.5349917951     1.0923297984     2.3137354894
H       16.4278551921     0.8960731886     7.7910361186
H       14.2582375084     0.9798112500     6.6952491397
H       20.3296772478     2.6779237493     2.7668323557
H       16.1829497212     0.0639180003     5.5333112196
32
# Point -1 Energy = 0.0
C       20.6505024423     3.6450787817     7.5267281086
H       18.9994634003     3.6224853559     6.1616032173
C       19.4412730460     2.9411452193     6.8981060878
H       18.7083414420     2.7441176457     7.6903626755
H       20.6268099113     1.7752796023     5.4905299653
C       19.8165551366     1.6291572452     6.2163773262
H       18.9291425058     1.1679889576     5.7704645360
H       20.2798605550     0.9144579077     6.9075719504
H       21.3695862462     3.9323441023     6.7509272652
H       21.0663918127     3.0172207606     8.3178772950
H       20.3903284445     4.6129372807     7.9714811751
Si       16.4310556343     3.4069504450     4.3954015716
O       16.3147545955     4.9964696152     4.7396433765
O       17.9377978371     3.0719147730     3.8473592099
O       15.3751187498     2.9968285841     3.2124055302
O       16.1011790869     2.5717373412     5.7592317028
Si       16.5048006431     6.5958165263     4.4029153532
Si       13.9571042981     2.5630620973     2.4973808598
Si       18.8367823519     2.5347213226     2.5723772165
Si       15.7415693152     1.1286710571     6.4711303374
H       17.8925043646     6.8557473409     3.9081347877
H       15.5520282803     6.9627773814     3.2994538905
H       16.2730670927     7.4750737019     5.6153223167
H       12.8221252175     3.3098637996     3.0918996896
H       13.9522066213     2.8613272995     1.0315989865
H       18.4424986531     3.3194259679     1.3704124657
H       13.7072848053     1.1023574646     2.6975777258
H       18.5384523557     1.0932846800     2.3166180331
H       16.4302520122     0.8989678021     7.7935797057
H       14.2608153366     0.9804111813     6.6972615234
H       20.3318711087     2.6804867715     2.7690996673
H       16.1864572975     0.0651939884     5.5363318077
32
# Point 0 Energy = 0
C       20.6477110000     3.6549790000     7.5266840000
H       18.9761800000     3.6157410000     6.1694560000
C       19.4467280000     2.9484220000     6.9016430000
H       18.6922510000     2.7558520000     7.6754250000
H       20.5840390000     1.7980300000     5.4478400000
C       19.8234060000     1.6330100000     6.2209870000
H       18.9571360000     1.1573250000     5.7446630000
H       20.2404540000     0.9200090000     6.9405780000
H       21.4074060000     3.8754920000     6.7676150000
H       21.1161610000     3.0334640000     8.2953550000
H       20.3536290000     4.6012450000     7.9917750000
Si       16.4325060000     3.4077350000     4.3962220000
O       16.3148940000     4.9974300000     4.7394840000
O       17.9393640000     3.0735620000     3.8486780000
O       15.3769370000     2.9960700000     3.2133680000
O       16.1030250000     2.5730330000     5.7606000000
Si       16.5037570000     6.5966350000     4.4017980000
Si       13.9593780000     2.5607940000     2.4984440000
Si       18.8391290000     2.5361430000     2.5740860000
Si       15.7443760000     1.1302530000     6.4733110000
H       17.8913405600     6.8573308000     3.9070238400
H       15.5508605600     6.9622108000     3.2979838400
H       16.2712205600     7.4764908000     5.6136238400
H       12.8237502400     3.3071035200     3.0923555200
H       13.9544302400     2.8581435200     1.0324755200
H       18.4443303200     3.3198514400     1.3715668800
H       13.7106302400     1.1000235200     2.6995155200
H       18.5418503200     1.0943714400     2.3191668800
H       16.4331100800     0.9018602400     7.7959848800
H       14.2637500800     0.9809802400     6.6993448800
H       20.3340103200     2.6832114400     2.7708868800
H       16.1902300800     0.0665002400     5.5392248800
32
# Point 1 Energy = 0.0
C       20.6453211840     3.6649451010     7.5260159949
H       18.9537829223     3.6079295564     6.1769291699
C       19.4525115663     2.9557624106     6.9047665610
H       18.6769935513     2.7676716029     7.6595049319
H       20.5384066833     1.8183379940     5.4077962260
C       19.8308433817     1.6367981424     6.2255860416
H       18.9871454095     1.1462602646     5.7199098586
H       20.1999273129     0.9266063078     6.9715303244
H       21.4428067468     3.8185615601     6.7892352203
H       21.1650825370     3.0529538272     8.2712649926
H       20.3181620093     4.5878123721     8.0112686962
Si       16.4340385076     3.4085752100     4.3969439581
O       16.3151266688     4.9984357542     4.7392698851
O       17.9409619607     3.0752982989     3.8497410363