                  Welcome to Q-Chem
     A Quantum Leap Into The Future Of Chemistry


 Q-Chem 5.2 (devel), Q-Chem, Inc., Pleasanton, CA (2019)

 Yihan Shao,  Zhengting Gan,  E. Epifanovsky,  A. T. B. Gilbert,  M. Wormit,  
 J. Kussmann,  A. W. Lange,  A. Behn,  Jia Deng,  Xintian Feng,  D. Ghosh,  
 M. Goldey,  P. R. Horn,  L. D. Jacobson,  I. Kaliman,  T. Kus,  A. Landau,  
 Jie Liu,  E. I. Proynov,  R. M. Richard,  R. P. Steele,  E. J. Sundstrom,  
 H. L. Woodcock III,  P. M. Zimmerman,  D. Zuev,  B. Alam,  B. Albrecht,  
 E. Alguire,  S. A. Baeppler,  D. Barton,  Z. Benda,  Y. A. Bernard,  
 E. J. Berquist,  K. B. Bravaya,  H. Burton,  K. Carter-Fenk,  D. Casanova,  
 Chun-Min Chang,  Yunqing Chen,  A. Chien,  K. D. Closser,  M. P. Coons,  
 S. Coriani,  S. Dasgupta,  A. L. Dempwolff,  M. Diedenhofen,  Hainam Do,  
 R. G. Edgar,  Po-Tung Fang,  S. Faraji,  S. Fatehi,  Qingguo Feng,  
 J. Fosso-Tande,  J. Gayvert,  Qinghui Ge,  A. Ghysels,  G. Gidofalvi,  
 J. Gomes,  J. Gonthier,  A. Gunina,  D. Hait,  M. W. D. Hanson-Heine,  
 P. H. P. Harbach,  A. W. Hauser,  M. F. Herbst,  J. E. Herr,  
 E. G. Hohenstein,  Z. C. Holden,  Kerwin Hui,  B. C. Huynh,  T.-C. Jagau,  
 Hyunjun Ji,  B. Kaduk,  K. Khistyaev,  Jaehoon Kim,  P. Klunzinger,  K. Koh,  
 D. Kosenkov,  L. Koulias,  T. Kowalczyk,  C. M. Krauter,  A. Kunitsa,  
 Ka Un Lao,  A. Laurent,  K. V. Lawler,  Joonho Lee,  D. Lefrancois,  
 S. Lehtola,  D. S. Levine,  Yi-Pei Li,  You-Sheng Lin,  Fenglai Liu,  
 Kuan-Yu Liu,  E. Livshits,  M. Loipersberger,  A. Luenser,  P. Manohar,  
 E. Mansoor,  S. F. Manzer,  Shan-Ping Mao,  Yuezhi Mao,  N. Mardirossian,  
 A. V. Marenich,  T. Markovich,  L. A. Martinez-Martinez,  S. A. Maurer,  
 N. J. Mayhall,  S. C. McKenzie,  J.-M. Mewes,  P. Morgante,  A. F. Morrison,  
 J. W. Mullinax,  K. Nanda,  T. S. Nguyen-Beck,  R. Olivares-Amaya,  
 J. A. Parkhill,  S. K. Paul,  Zheng Pei,  T. M. Perrine,  F. Plasser,  
 P. Pokhilko,  S. Prager,  A. Prociuk,  E. Ramos,  B. Rana,  D. R. Rehn,  
 F. Rob,  M. Scheurer,  M. Schneider,  N. Sergueev,  S. M. Sharada,  
 S. Sharma,  D. W. Small,  T. Stauch,  C. J. Stein,  T. Stein,  Yu-Chuan Su,  
 S. P. Veccham,  A. J. W. Thom,  A. Tkatchenko,  T. Tsuchimochi,  
 N. M. Tubman,  L. Vogt,  M. L. Vidal,  O. Vydrov,  M. A. Watson,  J. Wenzel,  
 M. de Wergifosse,  T. A. Wesolowski,  A. White,  J. Witte,  A. Yamada,  
 Jun Yang,  K. Yao,  S. Yeganeh,  S. R. Yost,  Zhi-Qiang You,  A. Zech,  
 Igor Ying Zhang,  Xing Zhang,  Yan Zhao,  Ying Zhu,  B. R. Brooks,  
 G. K. L. Chan,  C. J. Cramer,  M. S. Gordon,  W. J. Hehre,  A. Klamt,  
 M. W. Schmidt,  C. D. Sherrill,  D. G. Truhlar,  A. Aspuru-Guzik,  R. Baer,  
 A. T. Bell,  N. A. Besley,  Jeng-Da Chai,  A. E. DePrince, III,  
 R. A. DiStasio Jr.,  A. Dreuw,  B. D. Dunietz,  T. R. Furlani,  
 Chao-Ping Hsu,  Yousung Jung,  Jing Kong,  D. S. Lambrecht,  WanZhen Liang,  
 C. Ochsenfeld,  V. A. Rassolov,  L. V. Slipchenko,  J. E. Subotnik,  
 T. Van Voorhis,  J. M. Herbert,  A. I. Krylov,  P. M. W. Gill,  M. Head-Gordon

 Contributors to earlier versions of Q-Chem not listed above: 
 R. D. Adamson,  B. Austin,  J. Baker,  G. J. O. Beran,  K. Brandhorst,  
 S. T. Brown,  E. F. C. Byrd,  A. K. Chakraborty,  C.-L. Cheng,  
 Siu Hung Chien,  D. M. Chipman,  D. L. Crittenden,  H. Dachsel,  
 R. J. Doerksen,  A. D. Dutoi,  L. Fusti-Molnar,  W. A. Goddard III,  
 A. Golubeva-Zadorozhnaya,  S. R. Gwaltney,  G. Hawkins,  A. Heyden,  
 S. Hirata,  G. Kedziora,  F. J. Keil,  C. Kelley,  Jihan Kim,  R. A. King,  
 R. Z. Khaliullin,  P. P. Korambath,  W. Kurlancheek,  A. M. Lee,  M. S. Lee,  
 S. V. Levchenko,  Ching Yeh Lin,  D. Liotard,  R. C. Lochan,  I. Lotan,  
 P. E. Maslen,  N. Nair,  D. P. O'Neill,  D. Neuhauser,  E. Neuscamman,  
 C. M. Oana,  R. Olson,  B. Peters,  R. Peverati,  P. A. Pieniazek,  
 Y. M. Rhee,  J. Ritchie,  M. A. Rohrdanz,  E. Rosta,  N. J. Russ,  
 H. F. Schaefer III,  N. E. Schultz,  N. Shenvi,  A. C. Simmonett,  A. Sodt,  
 D. Stuck,  K. S. Thanthiriwatte,  V. Vanovschi,  Tao Wang,  A. Warshel,  
 C. F. Williams,  Q. Wu,  X. Xu,  W. Zhang

 Please cite Q-Chem as follows:
 Y. Shao et al., Mol. Phys. 113, 184-215 (2015)
 DOI: 10.1080/00268976.2014.952696

 Q-Chem 5.2.2 for Intel X86 EM64T Linux

 Parts of Q-Chem use Armadillo 9.800.1 (Horizon Scraper).
 http://arma.sourceforge.net/

 Q-Chem begins on Sun Apr 12 06:17:35 2020  

Host: cn0913
0

     Scratch files written to /tmp/ypli/6721341.srvc1/qchem233154//
Warning:  Did not find "$end" marker in "$molecule" section

Checking the input file for inconsistencies... 	...done.

--------------------------------------------------------------
User input:
--------------------------------------------------------------
$rem
   JOBTYPE  sp
   EXCHANGE   omegaB97X-D
   BASIS   6-311+G(2df,2pd)
   max_scf_cycles   250
   geom_opt_max_cycles   1500
   basis2 6-31G*
   scf_algorithm rca_diis
   SYM_IGNORE  TRUE
   print_input   true
   geom_opt_dmax   80
   pop_mulliken false
   XC_GRID 000075000302
$end

$molecule
0 1
C       1.2462257752     0.1296110150     0.2505721067
C       -0.0000000859     -0.1408869533     -0.5839777705
H       1.1351909216     -0.8164728840     0.7972652586
H       1.4311207342     0.9339836860     0.9555226689
H       2.1275345803     -0.1485114621     -0.3282754522
C       -1.2462258228     0.1296112904     0.2505719521
H       0.0000004523     -0.9014628218     -1.3651455175
H       -0.0000004246     0.8451288365     -1.0600006495
H       -1.1351913989     -0.8164726689     0.7972652087
H       -2.1275347061     -0.1485114686     -0.3282753399
H       -1.4311200858     0.9339840968     0.9555225535
--------------------------------------------------------------
 ----------------------------------------------------------------
             Standard Nuclear Orientation (Angstroms)
    I     Atom           X                Y                Z
 ----------------------------------------------------------------
    1      C       1.2462257752     0.1296110150     0.2505721067
    2      C      -0.0000000859    -0.1408869533    -0.5839777705
    3      H       1.1351909216    -0.8164728840     0.7972652586
    4      H       1.4311207342     0.9339836860     0.9555226689
    5      H       2.1275345803    -0.1485114621    -0.3282754522
    6      C      -1.2462258228     0.1296112904     0.2505719521
    7      H       0.0000004523    -0.9014628218    -1.3651455175
    8      H      -0.0000004246     0.8451288365    -1.0600006495
    9      H      -1.1351913989    -0.8164726689     0.7972652087
   10      H      -2.1275347061    -0.1485114686    -0.3282753399
   11      H      -1.4311200858     0.9339840968     0.9555225535
 ----------------------------------------------------------------
 Nuclear Repulsion Energy =          83.39695296 hartrees
 There are       13 alpha and       13 beta electrons
 Requested basis set is 6-311+G(2df,2pd)
 There are 72 shells and 214 basis functions

 Total QAlloc Memory Limit   2000 MB
 Mega-Array Size       188 MB
 MEM_STATIC part       192 MB

                       Distance Matrix (Angstroms)
             C (  1)   C (  2)   H (  3)   H (  4)   H (  5)   C (  6)
   C (  2)  1.524048
   H (  3)  1.098306  1.911258
   H (  4)  1.085429  2.360829  1.782335
   H (  5)  1.090469  2.142859  1.642486  1.817945
   C (  6)  2.492452  1.524048  2.620133  2.883081  3.434338
   H (  7)  2.286205  1.090275  2.443747  3.286711  2.483634  2.286206
   H (  8)  1.944903  1.094909  2.738433  2.473527  2.459502  1.944902
   H (  9)  2.620133  1.911258  2.270382  3.110482  3.515451  1.098306
   H ( 10)  3.434338  2.142859  3.515451  3.934967  4.255069  1.090469
   H ( 11)  2.883080  2.360829  3.110482  2.862241  3.934966  1.085429
             H (  7)   H (  8)   H (  9)   H ( 10)
   H (  8)  1.773047
   H (  9)  2.443748  2.738433
   H ( 10)  2.483635  2.459501  1.642486
   H ( 11)  3.286711  2.473526  1.782335  1.817946
 
 A cutoff of  1.0D-09 yielded   2536 shell pairs
 There are     22562 function pairs (     27737 Cartesian)
 Smallest overlap matrix eigenvalue = 9.72E-05

 Scale SEOQF with 1.000000e-01/1.000000e-01/1.000000e-01

 Standard Electronic Orientation quadrupole field applied
 Nucleus-field energy     =     0.0000000006 hartrees
 Requested basis set is 6-31G(d)
 There are 28 shells and 58 basis functions
 A cutoff of  1.0D-09 yielded    402 shell pairs
 There are      1773 function pairs (      1968 Cartesian)
 Smallest overlap matrix eigenvalue = 6.12E-03
 Guess from superposition of atomic densities
 Warning:  Energy on first SCF cycle will be non-variational
 SAD guess density has 26.000000 electrons
 Long-range K will be added via erf
 Coulomb attenuation parameter = 0.2 bohr**(-1)
 A restricted hybrid HF-DFT SCF calculation will be
 performed using Relaxed Constraint Minimization + Pulay DIIS
 Exchange:     0.2220 Hartree-Fock + 1.0000 wB97X-D + LR-HF
 Correlation:  1.0000 wB97X-D
 Using Euler-Maclaurin-Lebedev (75,302) quadrature formula
 Dispersion:   Grimme D
 SCF converges when DIIS error is below 1.0E-04
 using 3 threads for integral computing
 -------------------------------------------------------
 OpenMP Integral computing Module                
 Release: version 1.0, May 2013, Q-Chem Inc. Pittsburgh 
 -------------------------------------------------------
 using 3 threads for integral computing
 -------------------------------------------------------
 OpenMP Integral computing Module                
 Release: version 1.0, May 2013, Q-Chem Inc. Pittsburgh 
 -------------------------------------------------------
 ---------------------------------------
  Cycle       Energy         DIIS Error
 ---------------------------------------
    1    -119.6857898460      1.02E-01
    2    -118.9937210496      9.18E-03
    3    -119.0156445597      2.58E-03
    4    -119.0300641286      1.79E-03
    5    -119.0308475752      2.82E-04 Done RCA. Switching to DIIS
    6    -119.0314253074      2.07E-04
    7    -119.0314440653      3.71E-06 Convergence criterion met
 ---------------------------------------
 SCF time:  CPU 23.12 s  wall 7.86 s
 SCF   energy in the small basis set = -119.03144407
 Total energy in the small basis set = -119.03144407
 ----------------------------------------------------
  Cycle       Energy    
 ----------------------------------------------------
    1     -16.5424949731     -1.65E+01
 Long-range K will be added via erf
 Coulomb attenuation parameter = 0.2 bohr**(-1)
 A restricted hybrid HF-DFT SCF calculation will be
 performed using Relaxed Constraint Minimization + Pulay DIIS
 Exchange:     0.2220 Hartree-Fock + 1.0000 wB97X-D + LR-HF
 Correlation:  1.0000 wB97X-D
 Using Euler-Maclaurin-Lebedev (75,302) quadrature formula
 Dispersion:   Grimme D
 SCF converges when DIIS error is below 1.0E-05
 Basis2 calculation detected. Using small basis as guess for larger.
 SCFMinFind is unable to tell whether the solution found is close.
 Resetting ReadMinima to 0 and attempting to follow guess.
 SCFMinFind following SCF Guess.
 using 3 threads for integral computing
 -------------------------------------------------------
 OpenMP Integral computing Module                
 Release: version 1.0, May 2013, Q-Chem Inc. Pittsburgh 
 -------------------------------------------------------
 using 3 threads for integral computing
 -------------------------------------------------------
 OpenMP Integral computing Module                
 Release: version 1.0, May 2013, Q-Chem Inc. Pittsburgh 
 -------------------------------------------------------
 ---------------------------------------
  Cycle       Energy         DIIS Error
 ---------------------------------------
    1    -119.0527925053      4.22E-03
    2    -119.0749617061      6.45E-04 Done RCA. Switching to DIIS
    3    -119.0758824179      4.63E-04
    4    -119.0770601265      4.66E-05
    5    -119.0770763570      9.81E-06 Convergence criterion met
 ---------------------------------------
 SCF time:  CPU 60.23 s  wall 20.28 s
 SCF   energy in the final basis set = -119.07707636
 Total energy in the final basis set = -119.07707636
 
 --------------------------------------------------------------
 
                    Orbital Energies (a.u.)
 --------------------------------------------------------------
 
 Alpha MOs
 -- Occupied --
-10.2790 -10.2659 -10.2659  -0.8932  -0.7809  -0.6782  -0.5570  -0.5270
 -0.5073  -0.4598  -0.4372  -0.4088  -0.3445
 -- Virtual --
  0.0675   0.0853   0.0878   0.0968   0.1221   0.1252   0.1302   0.1346
  0.1424   0.1693   0.1730   0.1883   0.2221   0.2336   0.2405   0.2687
  0.2860   0.2896   0.3085   0.3272   0.3281   0.3349   0.4471   0.4623
  0.4759   0.4863   0.5127   0.5131   0.5549   0.5727   0.5984   0.6008
  0.6194   0.6253   0.6504   0.6590   0.6693   0.6853   0.7017   0.7192
  0.7246   0.7450   0.8056   0.8447   0.8839   0.8898   0.9333   0.9470
  1.0008   1.0294   1.0647   1.1227   1.1386   1.1490   1.1552   1.2146
  1.2365   1.2372   1.2933   1.2984   1.3120   1.3543   1.3693   1.3845
  1.3869   1.4137   1.4315   1.4398   1.4541   1.4634   1.4829   1.5238
  1.5374   1.5406   1.5907   1.6203   1.6235   1.6509   1.7366   1.7432
  1.7449   2.3795   2.4165   2.4894   2.5045   2.5437   2.5607   2.5795
  2.6393   2.6661   2.7858   2.7949   2.8611   2.8810   2.9231   2.9260
  2.9729   2.9864   3.0152   3.0251   3.0594   3.0782   3.0831   3.1397
  3.1532   3.1669   3.1697   3.1892   3.2681   3.2822   3.2853   3.3183
  3.3204   3.3386   3.3657   3.4086   3.4290   3.4340   3.4613   3.4652
  3.4708   3.5005   3.5026   3.5193   3.5432   3.5713   3.5968   3.6186
  3.6557   3.6570   3.6616   3.6821   3.6927   3.7558   3.7560   3.8067
  3.8551   3.9007   3.9396   3.9564   3.9621   3.9986   4.0486   4.0688
  4.1061   4.1380   4.1655   4.1836   4.1852   4.2146   4.2214   4.2341
  4.2604   4.2969   4.3080   4.3712   4.3750   4.3973   4.4486   4.4629
  4.5381   4.5702   4.5860   4.6569   4.7508   4.7534   4.8287   4.8876
  4.9124   4.9676   4.9687   4.9950   5.0513   5.0864   5.0981   5.1483
  5.1677   5.1769   5.1956   5.2520   5.2597   5.3030   5.3470   5.4326
  5.4624   5.4676   5.5387   5.5497   5.5732   5.7247   5.7284   5.8465
  6.0525   6.3871   6.3963   6.4122   6.4630   6.5035  25.1853  25.4304
 25.4371
 --------------------------------------------------------------
 
 -----------------------------------------------------------------
                    Cartesian Multipole Moments
 -----------------------------------------------------------------
    Charge (ESU x 10^10)
                -0.0000
    Dipole Moment (Debye)
         X      -0.0000      Y      -0.0584      Z      -0.1219
       Tot       0.1352
    Quadrupole Moments (Debye-Ang)
        XX     -22.4872     XY       0.0000     YY     -21.1481
        XZ      -0.0000     YZ       1.7659     ZZ     -22.2344
    Octopole Moments (Debye-Ang^2)
       XXX       0.0000    XXY       0.1704    XYY      -0.0000
       YYY      -1.1703    XXZ      -0.8517    XYZ       0.0000
       YYZ       0.3820    XZZ       0.0000    YZZ      -0.4454
       ZZZ      -0.6298
    Hexadecapole Moments (Debye-Ang^3)
      XXXX    -199.5232   XXXY       0.0000   XXYY     -40.9793
      XYYY       0.0000   YYYY     -45.7640   XXXZ      -0.0000
      XXYZ       2.8738   XYYZ      -0.0000   YYYZ      -1.8673
      XXZZ     -44.5782   XYZZ       0.0000   YYZZ     -17.1729
      XZZZ      -0.0000   YZZZ       1.1704   ZZZZ     -71.4012
 -----------------------------------------------------------------
Archival summary:
1\1\cn0913\SP\ProcedureUnspecified\BasisUnspecified\38\r0852400\SunApr1206:18:062020SunApr1206:18:062020\0\\#,ProcedureUnspecified,BasisUnspecified,\\0,1\C\H,1,1.09027\H,1,1.09491,2,108.465\C,1,1.52405,2,121.075,3,107.309,0\H,4,1.08543,1,128.789,2,-170.768,0\H,4,1.09047,1,108.961,2,-26.3337,0\H,4,1.09831,1,92.1212,2,72.0781,0\C,1,1.52405,2,121.075,3,-107.309,0\H,8,1.08543,1,128.789,2,170.768,0\H,8,1.09047,1,108.961,2,26.3337,0\H,8,1.09831,1,92.1212,2,-72.0781,0\\\@

 Total job time:  31.52s(wall), 87.51s(cpu) 
 Sun Apr 12 06:18:06 2020

        *************************************************************
        *                                                           *
        *  Thank you very much for using Q-Chem.  Have a nice day.  *
        *                                                           *
        *************************************************************


