                  Welcome to Q-Chem
     A Quantum Leap Into The Future Of Chemistry


 Q-Chem 5.2 (devel), Q-Chem, Inc., Pleasanton, CA (2019)

 Yihan Shao,  Zhengting Gan,  E. Epifanovsky,  A. T. B. Gilbert,  M. Wormit,  
 J. Kussmann,  A. W. Lange,  A. Behn,  Jia Deng,  Xintian Feng,  D. Ghosh,  
 M. Goldey,  P. R. Horn,  L. D. Jacobson,  I. Kaliman,  T. Kus,  A. Landau,  
 Jie Liu,  E. I. Proynov,  R. M. Richard,  R. P. Steele,  E. J. Sundstrom,  
 H. L. Woodcock III,  P. M. Zimmerman,  D. Zuev,  B. Alam,  B. Albrecht,  
 E. Alguire,  S. A. Baeppler,  D. Barton,  Z. Benda,  Y. A. Bernard,  
 E. J. Berquist,  K. B. Bravaya,  H. Burton,  K. Carter-Fenk,  D. Casanova,  
 Chun-Min Chang,  Yunqing Chen,  A. Chien,  K. D. Closser,  M. P. Coons,  
 S. Coriani,  S. Dasgupta,  A. L. Dempwolff,  M. Diedenhofen,  Hainam Do,  
 R. G. Edgar,  Po-Tung Fang,  S. Faraji,  S. Fatehi,  Qingguo Feng,  
 J. Fosso-Tande,  J. Gayvert,  Qinghui Ge,  A. Ghysels,  G. Gidofalvi,  
 J. Gomes,  J. Gonthier,  A. Gunina,  D. Hait,  M. W. D. Hanson-Heine,  
 P. H. P. Harbach,  A. W. Hauser,  M. F. Herbst,  J. E. Herr,  
 E. G. Hohenstein,  Z. C. Holden,  Kerwin Hui,  B. C. Huynh,  T.-C. Jagau,  
 Hyunjun Ji,  B. Kaduk,  K. Khistyaev,  Jaehoon Kim,  P. Klunzinger,  K. Koh,  
 D. Kosenkov,  L. Koulias,  T. Kowalczyk,  C. M. Krauter,  A. Kunitsa,  
 Ka Un Lao,  A. Laurent,  K. V. Lawler,  Joonho Lee,  D. Lefrancois,  
 S. Lehtola,  D. S. Levine,  Yi-Pei Li,  You-Sheng Lin,  Fenglai Liu,  
 Kuan-Yu Liu,  E. Livshits,  M. Loipersberger,  A. Luenser,  P. Manohar,  
 E. Mansoor,  S. F. Manzer,  Shan-Ping Mao,  Yuezhi Mao,  N. Mardirossian,  
 A. V. Marenich,  T. Markovich,  L. A. Martinez-Martinez,  S. A. Maurer,  
 N. J. Mayhall,  S. C. McKenzie,  J.-M. Mewes,  P. Morgante,  A. F. Morrison,  
 J. W. Mullinax,  K. Nanda,  T. S. Nguyen-Beck,  R. Olivares-Amaya,  
 J. A. Parkhill,  S. K. Paul,  Zheng Pei,  T. M. Perrine,  F. Plasser,  
 P. Pokhilko,  S. Prager,  A. Prociuk,  E. Ramos,  B. Rana,  D. R. Rehn,  
 F. Rob,  M. Scheurer,  M. Schneider,  N. Sergueev,  S. M. Sharada,  
 S. Sharma,  D. W. Small,  T. Stauch,  C. J. Stein,  T. Stein,  Yu-Chuan Su,  
 S. P. Veccham,  A. J. W. Thom,  A. Tkatchenko,  T. Tsuchimochi,  
 N. M. Tubman,  L. Vogt,  M. L. Vidal,  O. Vydrov,  M. A. Watson,  J. Wenzel,  
 M. de Wergifosse,  T. A. Wesolowski,  A. White,  J. Witte,  A. Yamada,  
 Jun Yang,  K. Yao,  S. Yeganeh,  S. R. Yost,  Zhi-Qiang You,  A. Zech,  
 Igor Ying Zhang,  Xing Zhang,  Yan Zhao,  Ying Zhu,  B. R. Brooks,  
 G. K. L. Chan,  C. J. Cramer,  M. S. Gordon,  W. J. Hehre,  A. Klamt,  
 M. W. Schmidt,  C. D. Sherrill,  D. G. Truhlar,  A. Aspuru-Guzik,  R. Baer,  
 A. T. Bell,  N. A. Besley,  Jeng-Da Chai,  A. E. DePrince, III,  
 R. A. DiStasio Jr.,  A. Dreuw,  B. D. Dunietz,  T. R. Furlani,  
 Chao-Ping Hsu,  Yousung Jung,  Jing Kong,  D. S. Lambrecht,  WanZhen Liang,  
 C. Ochsenfeld,  V. A. Rassolov,  L. V. Slipchenko,  J. E. Subotnik,  
 T. Van Voorhis,  J. M. Herbert,  A. I. Krylov,  P. M. W. Gill,  M. Head-Gordon

 Contributors to earlier versions of Q-Chem not listed above: 
 R. D. Adamson,  B. Austin,  J. Baker,  G. J. O. Beran,  K. Brandhorst,  
 S. T. Brown,  E. F. C. Byrd,  A. K. Chakraborty,  C.-L. Cheng,  
 Siu Hung Chien,  D. M. Chipman,  D. L. Crittenden,  H. Dachsel,  
 R. J. Doerksen,  A. D. Dutoi,  L. Fusti-Molnar,  W. A. Goddard III,  
 A. Golubeva-Zadorozhnaya,  S. R. Gwaltney,  G. Hawkins,  A. Heyden,  
 S. Hirata,  G. Kedziora,  F. J. Keil,  C. Kelley,  Jihan Kim,  R. A. King,  
 R. Z. Khaliullin,  P. P. Korambath,  W. Kurlancheek,  A. M. Lee,  M. S. Lee,  
 S. V. Levchenko,  Ching Yeh Lin,  D. Liotard,  R. C. Lochan,  I. Lotan,  
 P. E. Maslen,  N. Nair,  D. P. O'Neill,  D. Neuhauser,  E. Neuscamman,  
 C. M. Oana,  R. Olson,  B. Peters,  R. Peverati,  P. A. Pieniazek,  
 Y. M. Rhee,  J. Ritchie,  M. A. Rohrdanz,  E. Rosta,  N. J. Russ,  
 H. F. Schaefer III,  N. E. Schultz,  N. Shenvi,  A. C. Simmonett,  A. Sodt,  
 D. Stuck,  K. S. Thanthiriwatte,  V. Vanovschi,  Tao Wang,  A. Warshel,  
 C. F. Williams,  Q. Wu,  X. Xu,  W. Zhang

 Please cite Q-Chem as follows:
 Y. Shao et al., Mol. Phys. 113, 184-215 (2015)
 DOI: 10.1080/00268976.2014.952696

 Q-Chem 5.2.2 for Intel X86 EM64T Linux

 Parts of Q-Chem use Armadillo 9.800.1 (Horizon Scraper).
 http://arma.sourceforge.net/

 Q-Chem begins on Sun Apr 12 04:59:18 2020  

Host: cn0913
0

     Scratch files written to /tmp/ypli/6721341.srvc1/qchem218752//
Warning:  Did not find "$end" marker in "$molecule" section

Checking the input file for inconsistencies... 	...done.

--------------------------------------------------------------
User input:
--------------------------------------------------------------
$rem
   JOBTYPE  sp
   EXCHANGE   omegaB97X-D
   BASIS   6-311+G(2df,2pd)
   max_scf_cycles   250
   geom_opt_max_cycles   1500
   basis2 6-31G*
   scf_algorithm rca_diis
   SYM_IGNORE  TRUE
   print_input   true
   geom_opt_dmax   80
   pop_mulliken false
   XC_GRID 000075000302
$end

$molecule
0 1
C       1.2600424812     -0.1345032960     0.2611698376
C       0.0000001444     0.0000030516     -0.5855423517
H       1.5940099044     -1.1728750031     0.2866811211
H       1.0810209092     0.1789731575     1.2924980692
H       2.0773511117     0.4684646985     -0.1357682348
C       -1.2600423445     0.1345008322     0.2611710369
H       -0.0673047804     -0.8713277085     -1.2412932102
H       0.0673049310     0.8713405746     -1.2412844710
H       -1.0810155765     -0.1789635985     1.2925018016
H       -2.0773438361     -0.4684802911     -0.1357618330
H       -1.5940230049     1.1728682489     0.2866732532
--------------------------------------------------------------
 ----------------------------------------------------------------
             Standard Nuclear Orientation (Angstroms)
    I     Atom           X                Y                Z
 ----------------------------------------------------------------
    1      C       1.2600424812    -0.1345032960     0.2611698376
    2      C       0.0000001444     0.0000030516    -0.5855423517
    3      H       1.5940099044    -1.1728750031     0.2866811211
    4      H       1.0810209092     0.1789731575     1.2924980692
    5      H       2.0773511117     0.4684646985    -0.1357682348
    6      C      -1.2600423445     0.1345008322     0.2611710369
    7      H      -0.0673047804    -0.8713277085    -1.2412932102
    8      H       0.0673049310     0.8713405746    -1.2412844710
    9      H      -1.0810155765    -0.1789635985     1.2925018016
   10      H      -2.0773438361    -0.4684802911    -0.1357618330
   11      H      -1.5940230049     1.1728682489     0.2866732532
 ----------------------------------------------------------------
 Nuclear Repulsion Energy =          82.76810864 hartrees
 There are       13 alpha and       13 beta electrons
 Requested basis set is 6-311+G(2df,2pd)
 There are 72 shells and 214 basis functions

 Total QAlloc Memory Limit   2000 MB
 Mega-Array Size       188 MB
 MEM_STATIC part       192 MB

                       Distance Matrix (Angstroms)
             C (  1)   C (  2)   H (  3)   H (  4)   H (  5)   C (  6)
   C (  2)  1.524047
   H (  3)  1.091055  2.162703
   H (  4)  1.092682  2.174321  1.761340
   H (  5)  1.090469  2.176497  1.762407  1.765340
   C (  6)  2.534401  1.524047  3.139347  2.558552  3.377468
   H (  7)  2.135920  1.092592  2.277192  2.973530  2.759851  2.166036
   H (  8)  2.166036  1.092592  2.973941  2.815501  2.329112  2.135920
   H (  9)  2.558549  2.174321  3.025772  2.191465  3.526244  1.092682
   H ( 10)  3.377461  2.176497  3.762110  3.526243  4.259032  1.090469
   H ( 11)  3.139357  2.162703  3.958038  3.025784  3.762131  1.091055
             H (  7)   H (  8)   H (  9)   H ( 10)
   H (  8)  1.747859
   H (  9)  2.815510  2.973525
   H ( 10)  2.329108  2.759858  1.765340
   H ( 11)  2.973935  2.277188  1.761340  1.762406
 
 A cutoff of  1.0D-09 yielded   2533 shell pairs
 There are     22515 function pairs (     27693 Cartesian)
 Smallest overlap matrix eigenvalue = 8.06E-05

 Scale SEOQF with 1.000000e-01/1.000000e-01/1.000000e-01

 Standard Electronic Orientation quadrupole field applied
 Nucleus-field energy     =     0.0000000006 hartrees
 Requested basis set is 6-31G(d)
 There are 28 shells and 58 basis functions
 A cutoff of  1.0D-09 yielded    402 shell pairs
 There are      1773 function pairs (      1968 Cartesian)
 Smallest overlap matrix eigenvalue = 6.30E-03
 Guess from superposition of atomic densities
 Warning:  Energy on first SCF cycle will be non-variational
 SAD guess density has 26.000000 electrons
 Long-range K will be added via erf
 Coulomb attenuation parameter = 0.2 bohr**(-1)
 A restricted hybrid HF-DFT SCF calculation will be
 performed using Relaxed Constraint Minimization + Pulay DIIS
 Exchange:     0.2220 Hartree-Fock + 1.0000 wB97X-D + LR-HF
 Correlation:  1.0000 wB97X-D
 Using Euler-Maclaurin-Lebedev (75,302) quadrature formula
 Dispersion:   Grimme D
 SCF converges when DIIS error is below 1.0E-04
 using 3 threads for integral computing
 -------------------------------------------------------
 OpenMP Integral computing Module                
 Release: version 1.0, May 2013, Q-Chem Inc. Pittsburgh 
 -------------------------------------------------------
 using 3 threads for integral computing
 -------------------------------------------------------
 OpenMP Integral computing Module                
 Release: version 1.0, May 2013, Q-Chem Inc. Pittsburgh 
 -------------------------------------------------------
 ---------------------------------------
  Cycle       Energy         DIIS Error
 ---------------------------------------
    1    -119.6272129230      1.00E-01
    2    -119.0571684877      9.07E-03
    3    -119.0784366603      2.44E-03
    4    -119.0925063965      1.68E-03
    5    -119.0931970778      2.63E-04 Done RCA. Switching to DIIS
    6    -119.0937051343      1.95E-04
    7    -119.0937216094      4.27E-06 Convergence criterion met
 ---------------------------------------
 SCF time:  CPU 23.38 s  wall 7.94 s
 SCF   energy in the small basis set = -119.09372161
 Total energy in the small basis set = -119.09372161
 ----------------------------------------------------
  Cycle       Energy    
 ----------------------------------------------------
    1     -16.5458063516     -1.65E+01
 Long-range K will be added via erf
 Coulomb attenuation parameter = 0.2 bohr**(-1)
 A restricted hybrid HF-DFT SCF calculation will be
 performed using Relaxed Constraint Minimization + Pulay DIIS
 Exchange:     0.2220 Hartree-Fock + 1.0000 wB97X-D + LR-HF
 Correlation:  1.0000 wB97X-D
 Using Euler-Maclaurin-Lebedev (75,302) quadrature formula
 Dispersion:   Grimme D
 SCF converges when DIIS error is below 1.0E-05
 Basis2 calculation detected. Using small basis as guess for larger.
 SCFMinFind is unable to tell whether the solution found is close.
 Resetting ReadMinima to 0 and attempting to follow guess.
 SCFMinFind following SCF Guess.
 using 3 threads for integral computing
 -------------------------------------------------------
 OpenMP Integral computing Module                
 Release: version 1.0, May 2013, Q-Chem Inc. Pittsburgh 
 -------------------------------------------------------
 using 3 threads for integral computing
 -------------------------------------------------------
 OpenMP Integral computing Module                
 Release: version 1.0, May 2013, Q-Chem Inc. Pittsburgh 
 -------------------------------------------------------
 ---------------------------------------
  Cycle       Energy         DIIS Error
 ---------------------------------------
    1    -119.1131576832      4.21E-03
    2    -119.1351480391      6.02E-04 Done RCA. Switching to DIIS
    3    -119.1359797305      4.25E-04
    4    -119.1369684951      4.53E-05
    5    -119.1369832103      1.01E-05
    6    -119.1369839071      3.96E-06 Convergence criterion met
 ---------------------------------------
 SCF time:  CPU 68.55 s  wall 23.07 s
 SCF   energy in the final basis set = -119.13698391
 Total energy in the final basis set = -119.13698391
 
 --------------------------------------------------------------
 
                    Orbital Energies (a.u.)
 --------------------------------------------------------------
 
 Alpha MOs
 -- Occupied --
-10.2718 -10.2637 -10.2637  -0.8810  -0.7764  -0.6776  -0.5444  -0.5268
 -0.4771  -0.4700  -0.4209  -0.4137  -0.3991
 -- Virtual --
  0.0714   0.0876   0.0914   0.1029   0.1216   0.1304   0.1315   0.1344
  0.1451   0.1637   0.1754   0.1894   0.2039   0.2448   0.2628   0.2652
  0.2939   0.3096   0.3216   0.3227   0.3314   0.3576   0.4583   0.4847
  0.4895   0.4928   0.5137   0.5220   0.5231   0.5397   0.5621   0.5829
  0.6163   0.6231   0.6299   0.6413   0.6422   0.6573   0.6948   0.7114
  0.7335   0.7555   0.8231   0.8839   0.8980   0.9452   0.9553   0.9941
  1.0220   1.0382   1.0636   1.0757   1.1180   1.1740   1.2100   1.2102
  1.2313   1.2579   1.2655   1.2818   1.2899   1.3168   1.3361   1.3663
  1.3665   1.3778   1.4091   1.4464   1.4535   1.4597   1.4835   1.5129
  1.5346   1.5401   1.5696   1.5840   1.6304   1.6453   1.6644   1.6794
  1.7001   2.2881   2.3451   2.4253   2.5267   2.5488   2.5844   2.6685
  2.6938   2.7019   2.8031   2.8069   2.8336   2.8346   2.9310   2.9330
  2.9686   2.9815   3.0053   3.0236   3.0505   3.0809   3.1042   3.1414
  3.1474   3.1511   3.1646   3.1707   3.1973   3.2462   3.2568   3.2836
  3.2991   3.3006   3.3410   3.3464   3.3720   3.3911   3.3957   3.4123
  3.4666   3.5024   3.5100   3.5400   3.5720   3.5938   3.6120   3.6404
  3.6508   3.6842   3.6852   3.7105   3.7396   3.7636   3.7882   3.8372
  3.8450   3.9041   3.9256   3.9617   3.9769   4.0110   4.0199   4.0589
  4.0794   4.1345   4.1443   4.1467   4.1539   4.1862   4.2200   4.2359
  4.2492   4.2786   4.2952   4.3106   4.3401   4.4071   4.4371   4.4418
  4.4639   4.4893   4.6020   4.6216   4.6600   4.8019   4.8336   4.8745
  4.9287   4.9368   4.9869   4.9869   5.0261   5.0540   5.0684   5.1433
  5.1612   5.1707   5.2290   5.2458   5.2580   5.2884   5.3107   5.3756
  5.3811   5.3855   5.4376   5.4385   5.5280   5.5696   5.5977   5.7364
  5.9776   6.3258   6.3720   6.4045   6.4262   6.5101  25.0804  25.4028
 25.4630
 --------------------------------------------------------------
 
 -----------------------------------------------------------------
                    Cartesian Multipole Moments
 -----------------------------------------------------------------
    Charge (ESU x 10^10)
                 0.0000
    Dipole Moment (Debye)
         X      -0.0000      Y       0.0000      Z      -0.0896
       Tot       0.0896
    Quadrupole Moments (Debye-Ang)
        XX     -22.3482     XY       0.0876     YY     -21.2364
        XZ       0.0000     YZ       0.0000     ZZ     -21.8427
    Octopole Moments (Debye-Ang^2)
       XXX       0.0000    XXY       0.0000    XYY      -0.0000
       YYY      -0.0000    XXZ      -1.2714    XYZ      -0.3004
       YYZ      -0.9992    XZZ       0.0000    YZZ       0.0000
       ZZZ       0.6438
    Hexadecapole Moments (Debye-Ang^3)
      XXXX    -203.5802   XXXY      11.1113   XXYY     -39.5448
      XYYY       6.4146   YYYY     -44.5425   XXXZ       0.0000
      XXYZ       0.0000   XYYZ       0.0000   YYYZ       0.0000
      XXZZ     -46.7274   XYZZ       3.5705   YYZZ     -19.2057
      XZZZ       0.0000   YZZZ       0.0001   ZZZZ     -69.8550
 -----------------------------------------------------------------
Archival summary:
1\1\cn0913\SP\ProcedureUnspecified\BasisUnspecified\38\r0852400\SunApr1204:59:522020SunApr1204:59:522020\0\\#,ProcedureUnspecified,BasisUnspecified,\\0,1\C\H,1,1.09259\H,1,1.09259,2,106.235\C,1,1.52405,2,108.3,3,-118.909,0\H,4,1.09047,1,111.632,2,99.9779,0\H,4,1.09105,1,110.491,2,-19.9462,0\H,4,1.09268,1,111.321,2,-139.348,0\C,1,1.52405,2,110.664,3,117.344,0\H,8,1.09047,1,111.632,2,-16.0896,0\H,8,1.09105,1,110.491,2,-136.014,0\H,8,1.09268,1,111.321,2,104.585,0\\\@

 Total job time:  34.39s(wall), 96.08s(cpu) 
 Sun Apr 12 04:59:52 2020

        *************************************************************
        *                                                           *
        *  Thank you very much for using Q-Chem.  Have a nice day.  *
        *                                                           *
        *************************************************************


