                  Welcome to Q-Chem
     A Quantum Leap Into The Future Of Chemistry


 Q-Chem 5.2 (devel), Q-Chem, Inc., Pleasanton, CA (2019)

 Yihan Shao,  Zhengting Gan,  E. Epifanovsky,  A. T. B. Gilbert,  M. Wormit,  
 J. Kussmann,  A. W. Lange,  A. Behn,  Jia Deng,  Xintian Feng,  D. Ghosh,  
 M. Goldey,  P. R. Horn,  L. D. Jacobson,  I. Kaliman,  T. Kus,  A. Landau,  
 Jie Liu,  E. I. Proynov,  R. M. Richard,  R. P. Steele,  E. J. Sundstrom,  
 H. L. Woodcock III,  P. M. Zimmerman,  D. Zuev,  B. Alam,  B. Albrecht,  
 E. Alguire,  S. A. Baeppler,  D. Barton,  Z. Benda,  Y. A. Bernard,  
 E. J. Berquist,  K. B. Bravaya,  H. Burton,  K. Carter-Fenk,  D. Casanova,  
 Chun-Min Chang,  Yunqing Chen,  A. Chien,  K. D. Closser,  M. P. Coons,  
 S. Coriani,  S. Dasgupta,  A. L. Dempwolff,  M. Diedenhofen,  Hainam Do,  
 R. G. Edgar,  Po-Tung Fang,  S. Faraji,  S. Fatehi,  Qingguo Feng,  
 J. Fosso-Tande,  J. Gayvert,  Qinghui Ge,  A. Ghysels,  G. Gidofalvi,  
 J. Gomes,  J. Gonthier,  A. Gunina,  D. Hait,  M. W. D. Hanson-Heine,  
 P. H. P. Harbach,  A. W. Hauser,  M. F. Herbst,  J. E. Herr,  
 E. G. Hohenstein,  Z. C. Holden,  Kerwin Hui,  B. C. Huynh,  T.-C. Jagau,  
 Hyunjun Ji,  B. Kaduk,  K. Khistyaev,  Jaehoon Kim,  P. Klunzinger,  K. Koh,  
 D. Kosenkov,  L. Koulias,  T. Kowalczyk,  C. M. Krauter,  A. Kunitsa,  
 Ka Un Lao,  A. Laurent,  K. V. Lawler,  Joonho Lee,  D. Lefrancois,  
 S. Lehtola,  D. S. Levine,  Yi-Pei Li,  You-Sheng Lin,  Fenglai Liu,  
 Kuan-Yu Liu,  E. Livshits,  M. Loipersberger,  A. Luenser,  P. Manohar,  
 E. Mansoor,  S. F. Manzer,  Shan-Ping Mao,  Yuezhi Mao,  N. Mardirossian,  
 A. V. Marenich,  T. Markovich,  L. A. Martinez-Martinez,  S. A. Maurer,  
 N. J. Mayhall,  S. C. McKenzie,  J.-M. Mewes,  P. Morgante,  A. F. Morrison,  
 J. W. Mullinax,  K. Nanda,  T. S. Nguyen-Beck,  R. Olivares-Amaya,  
 J. A. Parkhill,  S. K. Paul,  Zheng Pei,  T. M. Perrine,  F. Plasser,  
 P. Pokhilko,  S. Prager,  A. Prociuk,  E. Ramos,  B. Rana,  D. R. Rehn,  
 F. Rob,  M. Scheurer,  M. Schneider,  N. Sergueev,  S. M. Sharada,  
 S. Sharma,  D. W. Small,  T. Stauch,  C. J. Stein,  T. Stein,  Yu-Chuan Su,  
 S. P. Veccham,  A. J. W. Thom,  A. Tkatchenko,  T. Tsuchimochi,  
 N. M. Tubman,  L. Vogt,  M. L. Vidal,  O. Vydrov,  M. A. Watson,  J. Wenzel,  
 M. de Wergifosse,  T. A. Wesolowski,  A. White,  J. Witte,  A. Yamada,  
 Jun Yang,  K. Yao,  S. Yeganeh,  S. R. Yost,  Zhi-Qiang You,  A. Zech,  
 Igor Ying Zhang,  Xing Zhang,  Yan Zhao,  Ying Zhu,  B. R. Brooks,  
 G. K. L. Chan,  C. J. Cramer,  M. S. Gordon,  W. J. Hehre,  A. Klamt,  
 M. W. Schmidt,  C. D. Sherrill,  D. G. Truhlar,  A. Aspuru-Guzik,  R. Baer,  
 A. T. Bell,  N. A. Besley,  Jeng-Da Chai,  A. E. DePrince, III,  
 R. A. DiStasio Jr.,  A. Dreuw,  B. D. Dunietz,  T. R. Furlani,  
 Chao-Ping Hsu,  Yousung Jung,  Jing Kong,  D. S. Lambrecht,  WanZhen Liang,  
 C. Ochsenfeld,  V. A. Rassolov,  L. V. Slipchenko,  J. E. Subotnik,  
 T. Van Voorhis,  J. M. Herbert,  A. I. Krylov,  P. M. W. Gill,  M. Head-Gordon

 Contributors to earlier versions of Q-Chem not listed above: 
 R. D. Adamson,  B. Austin,  J. Baker,  G. J. O. Beran,  K. Brandhorst,  
 S. T. Brown,  E. F. C. Byrd,  A. K. Chakraborty,  C.-L. Cheng,  
 Siu Hung Chien,  D. M. Chipman,  D. L. Crittenden,  H. Dachsel,  
 R. J. Doerksen,  A. D. Dutoi,  L. Fusti-Molnar,  W. A. Goddard III,  
 A. Golubeva-Zadorozhnaya,  S. R. Gwaltney,  G. Hawkins,  A. Heyden,  
 S. Hirata,  G. Kedziora,  F. J. Keil,  C. Kelley,  Jihan Kim,  R. A. King,  
 R. Z. Khaliullin,  P. P. Korambath,  W. Kurlancheek,  A. M. Lee,  M. S. Lee,  
 S. V. Levchenko,  Ching Yeh Lin,  D. Liotard,  R. C. Lochan,  I. Lotan,  
 P. E. Maslen,  N. Nair,  D. P. O'Neill,  D. Neuhauser,  E. Neuscamman,  
 C. M. Oana,  R. Olson,  B. Peters,  R. Peverati,  P. A. Pieniazek,  
 Y. M. Rhee,  J. Ritchie,  M. A. Rohrdanz,  E. Rosta,  N. J. Russ,  
 H. F. Schaefer III,  N. E. Schultz,  N. Shenvi,  A. C. Simmonett,  A. Sodt,  
 D. Stuck,  K. S. Thanthiriwatte,  V. Vanovschi,  Tao Wang,  A. Warshel,  
 C. F. Williams,  Q. Wu,  X. Xu,  W. Zhang

 Please cite Q-Chem as follows:
 Y. Shao et al., Mol. Phys. 113, 184-215 (2015)
 DOI: 10.1080/00268976.2014.952696

 Q-Chem 5.2.2 for Intel X86 EM64T Linux

 Parts of Q-Chem use Armadillo 9.800.1 (Horizon Scraper).
 http://arma.sourceforge.net/

 Q-Chem begins on Sun Apr 12 05:29:14 2020  

Host: cn0913
0

     Scratch files written to /tmp/ypli/6721341.srvc1/qchem224596//
Warning:  Did not find "$end" marker in "$molecule" section

Checking the input file for inconsistencies... 	...done.

--------------------------------------------------------------
User input:
--------------------------------------------------------------
$rem
   JOBTYPE  sp
   EXCHANGE   omegaB97X-D
   BASIS   6-311+G(2df,2pd)
   max_scf_cycles   250
   geom_opt_max_cycles   1500
   basis2 6-31G*
   scf_algorithm rca_diis
   SYM_IGNORE  TRUE
   print_input   true
   geom_opt_dmax   80
   pop_mulliken false
   XC_GRID 000075000302
$end

$molecule
0 1
C       1.3961693198     -0.0000004667     0.2626782448
C       -0.0000000863     0.0000019354     -0.3856746071
H       1.6046025603     -0.8844100127     0.8667393607
H       1.6046065972     0.8844078562     0.8667397600
H       2.1035609613     -0.0000027081     -0.5698530549
C       -1.3961695516     0.0000004031     0.2626780365
H       0.0000005053     -0.8592914958     -1.0629452727
H       -0.0000002415     0.8592967543     -1.0629435246
H       -1.6046016605     -0.8844071584     0.8667424188
H       -2.1035613727     -0.0000051410     -0.5698529247
H       -1.6046070919     0.8844106997     0.8667365822
--------------------------------------------------------------
 ----------------------------------------------------------------
             Standard Nuclear Orientation (Angstroms)
    I     Atom           X                Y                Z
 ----------------------------------------------------------------
    1      C       1.3961693198    -0.0000004667     0.2626782448
    2      C      -0.0000000863     0.0000019354    -0.3856746071
    3      H       1.6046025603    -0.8844100127     0.8667393607
    4      H       1.6046065972     0.8844078562     0.8667397600
    5      H       2.1035609613    -0.0000027081    -0.5698530549
    6      C      -1.3961695516     0.0000004031     0.2626780365
    7      H       0.0000005053    -0.8592914958    -1.0629452727
    8      H      -0.0000002415     0.8592967543    -1.0629435246
    9      H      -1.6046016605    -0.8844071584     0.8667424188
   10      H      -2.1035613727    -0.0000051410    -0.5698529247
   11      H      -1.6046070919     0.8844106997     0.8667365822
 ----------------------------------------------------------------
 Nuclear Repulsion Energy =          81.15062456 hartrees
 There are       13 alpha and       13 beta electrons
 Requested basis set is 6-311+G(2df,2pd)
 There are 72 shells and 214 basis functions

 Total QAlloc Memory Limit   2000 MB
 Mega-Array Size       188 MB
 MEM_STATIC part       192 MB

                       Distance Matrix (Angstroms)
             C (  1)   C (  2)   H (  3)   H (  4)   H (  5)   C (  6)
   C (  2)  1.539367
   H (  3)  1.091107  2.219341
   H (  4)  1.091107  2.219342  1.768818
   H (  5)  1.092479  2.111609  1.759242  1.759243
   C (  6)  2.792339  1.539367  3.186174  3.186177  3.597391
   H (  7)  2.108304  1.094112  2.509793  3.055967  2.325185  2.108305
   H (  8)  2.108306  1.094112  3.055968  2.509795  2.325189  2.108305
   H (  9)  3.186172  2.219341  3.209204  3.664386  4.073874  1.091107
   H ( 10)  3.597391  2.111609  4.073874  4.073880  4.207122  1.092479
   H ( 11)  3.186178  2.219341  3.664390  3.209214  4.073879  1.091107
             H (  7)   H (  8)   H (  9)   H ( 10)
   H (  8)  1.718588
   H (  9)  2.509796  3.055967
   H ( 10)  2.325185  2.325190  1.759242
   H ( 11)  3.055967  2.509793  1.768818  1.759243
 
 A cutoff of  1.0D-09 yielded   2490 shell pairs
 There are     22234 function pairs (     27355 Cartesian)
 Smallest overlap matrix eigenvalue = 8.66E-05

 Scale SEOQF with 1.000000e-01/1.000000e-01/1.000000e-01

 Standard Electronic Orientation quadrupole field applied
 Nucleus-field energy     =     0.0000000010 hartrees
 Requested basis set is 6-31G(d)
 There are 28 shells and 58 basis functions
 A cutoff of  1.0D-09 yielded    398 shell pairs
 There are      1769 function pairs (      1964 Cartesian)
 Smallest overlap matrix eigenvalue = 7.25E-03
 Guess from superposition of atomic densities
 Warning:  Energy on first SCF cycle will be non-variational
 SAD guess density has 26.000000 electrons
 Long-range K will be added via erf
 Coulomb attenuation parameter = 0.2 bohr**(-1)
 A restricted hybrid HF-DFT SCF calculation will be
 performed using Relaxed Constraint Minimization + Pulay DIIS
 Exchange:     0.2220 Hartree-Fock + 1.0000 wB97X-D + LR-HF
 Correlation:  1.0000 wB97X-D
 Using Euler-Maclaurin-Lebedev (75,302) quadrature formula
 Dispersion:   Grimme D
 SCF converges when DIIS error is below 1.0E-04
 using 3 threads for integral computing
 -------------------------------------------------------
 OpenMP Integral computing Module                
 Release: version 1.0, May 2013, Q-Chem Inc. Pittsburgh 
 -------------------------------------------------------
 using 3 threads for integral computing
 -------------------------------------------------------
 OpenMP Integral computing Module                
 Release: version 1.0, May 2013, Q-Chem Inc. Pittsburgh 
 -------------------------------------------------------
 ---------------------------------------
  Cycle       Energy         DIIS Error
 ---------------------------------------
    1    -119.5761053969      9.91E-02
    2    -119.0583239616      8.67E-03
    3    -119.0783345633      2.55E-03
    4    -119.0908088212      1.75E-03
    5    -119.0915733910      2.94E-04 Done RCA. Switching to DIIS
    6    -119.0921195990      2.19E-04
    7    -119.0921404542      4.14E-06 Convergence criterion met
 ---------------------------------------
 SCF time:  CPU 23.06 s  wall 7.84 s
 SCF   energy in the small basis set = -119.09214045
 Total energy in the small basis set = -119.09214045
 ----------------------------------------------------
  Cycle       Energy    
 ----------------------------------------------------
    1     -16.5240706384     -1.65E+01
 Long-range K will be added via erf
 Coulomb attenuation parameter = 0.2 bohr**(-1)
 A restricted hybrid HF-DFT SCF calculation will be
 performed using Relaxed Constraint Minimization + Pulay DIIS
 Exchange:     0.2220 Hartree-Fock + 1.0000 wB97X-D + LR-HF
 Correlation:  1.0000 wB97X-D
 Using Euler-Maclaurin-Lebedev (75,302) quadrature formula
 Dispersion:   Grimme D
 SCF converges when DIIS error is below 1.0E-05
 Basis2 calculation detected. Using small basis as guess for larger.
 SCFMinFind is unable to tell whether the solution found is close.
 Resetting ReadMinima to 0 and attempting to follow guess.
 SCFMinFind following SCF Guess.
 using 3 threads for integral computing
 -------------------------------------------------------
 OpenMP Integral computing Module                
 Release: version 1.0, May 2013, Q-Chem Inc. Pittsburgh 
 -------------------------------------------------------
 using 3 threads for integral computing
 -------------------------------------------------------
 OpenMP Integral computing Module                
 Release: version 1.0, May 2013, Q-Chem Inc. Pittsburgh 
 -------------------------------------------------------
 ---------------------------------------
  Cycle       Energy         DIIS Error
 ---------------------------------------
    1    -119.1113923771      4.21E-03
    2    -119.1333937768      5.79E-04 Done RCA. Switching to DIIS
    3    -119.1342258420      3.94E-04
    4    -119.1350788209      4.62E-05
    5    -119.1350935705      1.24E-05
    6    -119.1350945172      4.17E-06 Convergence criterion met
 ---------------------------------------
 SCF time:  CPU 67.24 s  wall 22.64 s
 SCF   energy in the final basis set = -119.13509452
 Total energy in the final basis set = -119.13509452
 
 --------------------------------------------------------------
 
                    Orbital Energies (a.u.)
 --------------------------------------------------------------
 
 Alpha MOs
 -- Occupied --
-10.2764 -10.2688 -10.2688  -0.8740  -0.7866  -0.6737  -0.5396  -0.5128
 -0.4934  -0.4719  -0.4263  -0.4026  -0.4018
 -- Virtual --
  0.0660   0.0868   0.0939   0.0992   0.1171   0.1290   0.1325   0.1507
  0.1527   0.1742   0.1828   0.1982   0.2340   0.2355   0.2439   0.2572
  0.2698   0.2855   0.2908   0.3078   0.3263   0.3616   0.4607   0.4640
  0.4826   0.5030   0.5210   0.5305   0.5416   0.5736   0.5772   0.5938
  0.6004   0.6059   0.6373   0.6474   0.6476   0.6631   0.6984   0.7209
  0.7338   0.7743   0.8140   0.8420   0.8581   0.8682   0.9175   0.9645
  0.9744   1.0231   1.0429   1.1319   1.1508   1.1539   1.1635   1.2011
  1.2342   1.2614   1.2695   1.2767   1.2861   1.2892   1.3158   1.3204
  1.3735   1.3767   1.3794   1.4549   1.4598   1.4745   1.4758   1.4797
  1.5118   1.5674   1.6022   1.6410   1.6588   1.6610   1.6815   1.6865
  1.7775   2.3867   2.4734   2.4855   2.4867   2.5240   2.5531   2.5854
  2.6369   2.6825   2.7772   2.8274   2.8531   2.8953   2.9303   2.9385
  2.9530   2.9814   3.0011   3.0026   3.0498   3.0851   3.0929   3.1071
  3.1375   3.1391   3.1522   3.1782   3.1910   3.1914   3.2128   3.2835
  3.3018   3.3223   3.3270   3.3387   3.3568   3.3701   3.3720   3.4096
  3.4569   3.4704   3.5026   3.5620   3.5633   3.6018   3.6026   3.6208
  3.6356   3.6421   3.6572   3.7318   3.7322   3.7752   3.8135   3.8774
  3.8873   3.8892   3.9052   3.9504   3.9692   3.9819   3.9961   4.0433
  4.0915   4.1243   4.1284   4.1520   4.1572   4.1704   4.1710   4.1776
  4.2238   4.2883   4.2954   4.3430   4.3711   4.4213   4.4435   4.4665
  4.4831   4.4858   4.5715   4.5873   4.7795   4.7954   4.8459   4.8651
  4.9149   4.9294   4.9794   4.9797   5.0020   5.0480   5.0557   5.0958
  5.1340   5.1466   5.2296   5.2508   5.2987   5.3120   5.3128   5.3289
  5.3501   5.3829   5.4408   5.4621   5.5857   5.5897   5.6319   5.8138
  5.9257   6.3730   6.3732   6.3948   6.3982   6.4662  25.2104  25.4081
 25.4380
 --------------------------------------------------------------
 
 -----------------------------------------------------------------
                    Cartesian Multipole Moments
 -----------------------------------------------------------------
    Charge (ESU x 10^10)
                 0.0000
    Dipole Moment (Debye)
         X       0.0000      Y      -0.0000      Z      -0.1524
       Tot       0.1524
    Quadrupole Moments (Debye-Ang)
        XX     -21.9755     XY      -0.0000     YY     -21.4233
        XZ       0.0000     YZ       0.0000     ZZ     -21.7776
    Octopole Moments (Debye-Ang^2)
       XXX       0.0000    XXY      -0.0000    XYY       0.0000
       YYY      -0.0000    XXZ      -2.0546    XYZ      -0.0000
       YYZ      -0.1785    XZZ       0.0000    YZZ      -0.0000
       ZZZ      -3.0780
    Hexadecapole Moments (Debye-Ang^3)
      XXXX    -242.5361   XXXY       0.0000   XXYY     -46.8626
      XYYY       0.0000   YYYY     -44.0888   XXXZ       0.0000
      XXYZ       0.0000   XYYZ      -0.0000   YYYZ       0.0000
      XXZZ     -47.9881   XYZZ       0.0000   YYZZ     -15.8698
      XZZZ      -0.0000   YZZZ       0.0000   ZZZZ     -62.5724
 -----------------------------------------------------------------
Archival summary:
1\1\cn0913\SP\ProcedureUnspecified\BasisUnspecified\38\r0852400\SunApr1205:29:482020SunApr1205:29:482020\0\\#,ProcedureUnspecified,BasisUnspecified,\\0,1\C\H,1,1.09411\H,1,1.09411,2,103.512\C,1,1.53937,2,105.113,3,110.038,0\H,4,1.09111,1,113.981,2,63.0434,0\H,4,1.09111,1,113.981,2,-171.925,0\H,4,1.09248,1,105.445,2,-54.4405,0\C,1,1.53937,2,105.113,3,-110.038,0\H,8,1.09111,1,113.981,2,-63.0432,0\H,8,1.09111,1,113.981,2,171.925,0\H,8,1.09248,1,105.445,2,54.4407,0\\\@

 Total job time:  33.73s(wall), 94.33s(cpu) 
 Sun Apr 12 05:29:48 2020

        *************************************************************
        *                                                           *
        *  Thank you very much for using Q-Chem.  Have a nice day.  *
        *                                                           *
        *************************************************************


