                  Welcome to Q-Chem
     A Quantum Leap Into The Future Of Chemistry


 Q-Chem 5.2 (devel), Q-Chem, Inc., Pleasanton, CA (2019)

 Yihan Shao,  Zhengting Gan,  E. Epifanovsky,  A. T. B. Gilbert,  M. Wormit,  
 J. Kussmann,  A. W. Lange,  A. Behn,  Jia Deng,  Xintian Feng,  D. Ghosh,  
 M. Goldey,  P. R. Horn,  L. D. Jacobson,  I. Kaliman,  T. Kus,  A. Landau,  
 Jie Liu,  E. I. Proynov,  R. M. Richard,  R. P. Steele,  E. J. Sundstrom,  
 H. L. Woodcock III,  P. M. Zimmerman,  D. Zuev,  B. Alam,  B. Albrecht,  
 E. Alguire,  S. A. Baeppler,  D. Barton,  Z. Benda,  Y. A. Bernard,  
 E. J. Berquist,  K. B. Bravaya,  H. Burton,  K. Carter-Fenk,  D. Casanova,  
 Chun-Min Chang,  Yunqing Chen,  A. Chien,  K. D. Closser,  M. P. Coons,  
 S. Coriani,  S. Dasgupta,  A. L. Dempwolff,  M. Diedenhofen,  Hainam Do,  
 R. G. Edgar,  Po-Tung Fang,  S. Faraji,  S. Fatehi,  Qingguo Feng,  
 J. Fosso-Tande,  J. Gayvert,  Qinghui Ge,  A. Ghysels,  G. Gidofalvi,  
 J. Gomes,  J. Gonthier,  A. Gunina,  D. Hait,  M. W. D. Hanson-Heine,  
 P. H. P. Harbach,  A. W. Hauser,  M. F. Herbst,  J. E. Herr,  
 E. G. Hohenstein,  Z. C. Holden,  Kerwin Hui,  B. C. Huynh,  T.-C. Jagau,  
 Hyunjun Ji,  B. Kaduk,  K. Khistyaev,  Jaehoon Kim,  P. Klunzinger,  K. Koh,  
 D. Kosenkov,  L. Koulias,  T. Kowalczyk,  C. M. Krauter,  A. Kunitsa,  
 Ka Un Lao,  A. Laurent,  K. V. Lawler,  Joonho Lee,  D. Lefrancois,  
 S. Lehtola,  D. S. Levine,  Yi-Pei Li,  You-Sheng Lin,  Fenglai Liu,  
 Kuan-Yu Liu,  E. Livshits,  M. Loipersberger,  A. Luenser,  P. Manohar,  
 E. Mansoor,  S. F. Manzer,  Shan-Ping Mao,  Yuezhi Mao,  N. Mardirossian,  
 A. V. Marenich,  T. Markovich,  L. A. Martinez-Martinez,  S. A. Maurer,  
 N. J. Mayhall,  S. C. McKenzie,  J.-M. Mewes,  P. Morgante,  A. F. Morrison,  
 J. W. Mullinax,  K. Nanda,  T. S. Nguyen-Beck,  R. Olivares-Amaya,  
 J. A. Parkhill,  S. K. Paul,  Zheng Pei,  T. M. Perrine,  F. Plasser,  
 P. Pokhilko,  S. Prager,  A. Prociuk,  E. Ramos,  B. Rana,  D. R. Rehn,  
 F. Rob,  M. Scheurer,  M. Schneider,  N. Sergueev,  S. M. Sharada,  
 S. Sharma,  D. W. Small,  T. Stauch,  C. J. Stein,  T. Stein,  Yu-Chuan Su,  
 S. P. Veccham,  A. J. W. Thom,  A. Tkatchenko,  T. Tsuchimochi,  
 N. M. Tubman,  L. Vogt,  M. L. Vidal,  O. Vydrov,  M. A. Watson,  J. Wenzel,  
 M. de Wergifosse,  T. A. Wesolowski,  A. White,  J. Witte,  A. Yamada,  
 Jun Yang,  K. Yao,  S. Yeganeh,  S. R. Yost,  Zhi-Qiang You,  A. Zech,  
 Igor Ying Zhang,  Xing Zhang,  Yan Zhao,  Ying Zhu,  B. R. Brooks,  
 G. K. L. Chan,  C. J. Cramer,  M. S. Gordon,  W. J. Hehre,  A. Klamt,  
 M. W. Schmidt,  C. D. Sherrill,  D. G. Truhlar,  A. Aspuru-Guzik,  R. Baer,  
 A. T. Bell,  N. A. Besley,  Jeng-Da Chai,  A. E. DePrince, III,  
 R. A. DiStasio Jr.,  A. Dreuw,  B. D. Dunietz,  T. R. Furlani,  
 Chao-Ping Hsu,  Yousung Jung,  Jing Kong,  D. S. Lambrecht,  WanZhen Liang,  
 C. Ochsenfeld,  V. A. Rassolov,  L. V. Slipchenko,  J. E. Subotnik,  
 T. Van Voorhis,  J. M. Herbert,  A. I. Krylov,  P. M. W. Gill,  M. Head-Gordon

 Contributors to earlier versions of Q-Chem not listed above: 
 R. D. Adamson,  B. Austin,  J. Baker,  G. J. O. Beran,  K. Brandhorst,  
 S. T. Brown,  E. F. C. Byrd,  A. K. Chakraborty,  C.-L. Cheng,  
 Siu Hung Chien,  D. M. Chipman,  D. L. Crittenden,  H. Dachsel,  
 R. J. Doerksen,  A. D. Dutoi,  L. Fusti-Molnar,  W. A. Goddard III,  
 A. Golubeva-Zadorozhnaya,  S. R. Gwaltney,  G. Hawkins,  A. Heyden,  
 S. Hirata,  G. Kedziora,  F. J. Keil,  C. Kelley,  Jihan Kim,  R. A. King,  
 R. Z. Khaliullin,  P. P. Korambath,  W. Kurlancheek,  A. M. Lee,  M. S. Lee,  
 S. V. Levchenko,  Ching Yeh Lin,  D. Liotard,  R. C. Lochan,  I. Lotan,  
 P. E. Maslen,  N. Nair,  D. P. O'Neill,  D. Neuhauser,  E. Neuscamman,  
 C. M. Oana,  R. Olson,  B. Peters,  R. Peverati,  P. A. Pieniazek,  
 Y. M. Rhee,  J. Ritchie,  M. A. Rohrdanz,  E. Rosta,  N. J. Russ,  
 H. F. Schaefer III,  N. E. Schultz,  N. Shenvi,  A. C. Simmonett,  A. Sodt,  
 D. Stuck,  K. S. Thanthiriwatte,  V. Vanovschi,  Tao Wang,  A. Warshel,  
 C. F. Williams,  Q. Wu,  X. Xu,  W. Zhang

 Please cite Q-Chem as follows:
 Y. Shao et al., Mol. Phys. 113, 184-215 (2015)
 DOI: 10.1080/00268976.2014.952696

 Q-Chem 5.2.2 for Intel X86 EM64T Linux

 Parts of Q-Chem use Armadillo 9.800.1 (Horizon Scraper).
 http://arma.sourceforge.net/

 Q-Chem begins on Sun Apr 12 05:20:42 2020  

Host: cn0913
0

     Scratch files written to /tmp/ypli/6721341.srvc1/qchem223100//
Warning:  Did not find "$end" marker in "$molecule" section

Checking the input file for inconsistencies... 	...done.

--------------------------------------------------------------
User input:
--------------------------------------------------------------
$rem
   JOBTYPE  sp
   EXCHANGE   omegaB97X-D
   BASIS   6-311+G(2df,2pd)
   max_scf_cycles   250
   geom_opt_max_cycles   1500
   basis2 6-31G*
   scf_algorithm rca_diis
   SYM_IGNORE  TRUE
   print_input   true
   geom_opt_dmax   80
   pop_mulliken false
   XC_GRID 000075000302
$end

$molecule
0 1
C       1.2649814127     -0.1420677551     0.1908518673
C       -0.0000008000     0.4605602453     -0.4086325124
H       1.0626793074     -0.2980606082     1.2545510354
H       2.1575463375     0.4782788660     0.1123336286
H       1.4910029125     -1.1151587817     -0.2463521235
C       -1.2649806054     -0.1420743552     0.1908509311
H       0.0000002565     0.1399531170     -1.4526583193
H       -0.0000038488     1.5535385923     -0.4204213965
H       -1.0626690063     -0.2981060899     1.2545422130
H       -1.4910173485     -1.1151481764     -0.2463839065
H       -2.1575386782     0.4782856120     0.1123636017
--------------------------------------------------------------
 ----------------------------------------------------------------
             Standard Nuclear Orientation (Angstroms)
    I     Atom           X                Y                Z
 ----------------------------------------------------------------
    1      C       1.2649814127    -0.1420677551     0.1908518673
    2      C      -0.0000008000     0.4605602453    -0.4086325124
    3      H       1.0626793074    -0.2980606082     1.2545510354
    4      H       2.1575463375     0.4782788660     0.1123336286
    5      H       1.4910029125    -1.1151587817    -0.2463521235
    6      C      -1.2649806054    -0.1420743552     0.1908509311
    7      H       0.0000002565     0.1399531170    -1.4526583193
    8      H      -0.0000038488     1.5535385923    -0.4204213965
    9      H      -1.0626690063    -0.2981060899     1.2545422130
   10      H      -1.4910173485    -1.1151481764    -0.2463839065
   11      H      -2.1575386782     0.4782856120     0.1123636017
 ----------------------------------------------------------------
 Nuclear Repulsion Energy =          82.88787016 hartrees
 There are       13 alpha and       13 beta electrons
 Requested basis set is 6-311+G(2df,2pd)
 There are 72 shells and 214 basis functions

 Total QAlloc Memory Limit   2000 MB
 Mega-Array Size       188 MB
 MEM_STATIC part       192 MB

                       Distance Matrix (Angstroms)
             C (  1)   C (  2)   H (  3)   H (  4)   H (  5)   C (  6)
   C (  2)  1.524048
   H (  3)  1.093945  2.114468
   H (  4)  1.089801  2.219624  1.762412
   H (  5)  1.090477  2.175389  1.761766  1.764080
   C (  6)  2.529962  1.524048  2.563940  3.479180  2.955247
   H (  7)  2.093045  1.092144  2.941110  2.686758  2.292067  2.093045
   H (  8)  2.202027  1.093042  2.713530  2.468812  3.061919  2.202027
   H (  9)  2.563931  2.114471  2.125348  3.503884  3.072702  1.093945
   H ( 10)  2.955265  2.175388  3.072752  3.997462  2.982020  1.090477
   H ( 11)  3.479173  2.219622  3.503871  4.315085  3.997449  1.089801
             H (  7)   H (  8)   H (  9)   H ( 10)
   H (  8)  1.750353
   H (  9)  2.941105  2.713549
   H ( 10)  2.292054  3.061911  1.761766
   H ( 11)  2.686771  2.468802  1.762412  1.764081
 
 A cutoff of  1.0D-09 yielded   2537 shell pairs
 There are     22557 function pairs (     27736 Cartesian)
 Smallest overlap matrix eigenvalue = 8.61E-05

 Scale SEOQF with 1.000000e-01/1.000000e-01/1.000000e-01

 Standard Electronic Orientation quadrupole field applied
 Nucleus-field energy     =     0.0000000010 hartrees
 Requested basis set is 6-31G(d)
 There are 28 shells and 58 basis functions
 A cutoff of  1.0D-09 yielded    402 shell pairs
 There are      1773 function pairs (      1968 Cartesian)
 Smallest overlap matrix eigenvalue = 6.59E-03
 Guess from superposition of atomic densities
 Warning:  Energy on first SCF cycle will be non-variational
 SAD guess density has 26.000000 electrons
 Long-range K will be added via erf
 Coulomb attenuation parameter = 0.2 bohr**(-1)
 A restricted hybrid HF-DFT SCF calculation will be
 performed using Relaxed Constraint Minimization + Pulay DIIS
 Exchange:     0.2220 Hartree-Fock + 1.0000 wB97X-D + LR-HF
 Correlation:  1.0000 wB97X-D
 Using Euler-Maclaurin-Lebedev (75,302) quadrature formula
 Dispersion:   Grimme D
 SCF converges when DIIS error is below 1.0E-04
 using 3 threads for integral computing
 -------------------------------------------------------
 OpenMP Integral computing Module                
 Release: version 1.0, May 2013, Q-Chem Inc. Pittsburgh 
 -------------------------------------------------------
 using 3 threads for integral computing
 -------------------------------------------------------
 OpenMP Integral computing Module                
 Release: version 1.0, May 2013, Q-Chem Inc. Pittsburgh 
 -------------------------------------------------------
 ---------------------------------------
  Cycle       Energy         DIIS Error
 ---------------------------------------
    1    -119.6312751176      1.01E-01
    2    -119.0584372677      8.99E-03
    3    -119.0794499969      2.47E-03
    4    -119.0932338095      1.70E-03
    5    -119.0939394895      2.67E-04 Done RCA. Switching to DIIS
    6    -119.0944569814      1.99E-04
    7    -119.0944741106      4.38E-06 Convergence criterion met
 ---------------------------------------
 SCF time:  CPU 25.19 s  wall 8.67 s
 SCF   energy in the small basis set = -119.09447411
 Total energy in the small basis set = -119.09447411
 ----------------------------------------------------
  Cycle       Energy    
 ----------------------------------------------------
    1     -16.5428081604     -1.65E+01
 Long-range K will be added via erf
 Coulomb attenuation parameter = 0.2 bohr**(-1)
 A restricted hybrid HF-DFT SCF calculation will be
 performed using Relaxed Constraint Minimization + Pulay DIIS
 Exchange:     0.2220 Hartree-Fock + 1.0000 wB97X-D + LR-HF
 Correlation:  1.0000 wB97X-D
 Using Euler-Maclaurin-Lebedev (75,302) quadrature formula
 Dispersion:   Grimme D
 SCF converges when DIIS error is below 1.0E-05
 Basis2 calculation detected. Using small basis as guess for larger.
 SCFMinFind is unable to tell whether the solution found is close.
 Resetting ReadMinima to 0 and attempting to follow guess.
 SCFMinFind following SCF Guess.
 using 3 threads for integral computing
 -------------------------------------------------------
 OpenMP Integral computing Module                
 Release: version 1.0, May 2013, Q-Chem Inc. Pittsburgh 
 -------------------------------------------------------
 using 3 threads for integral computing
 -------------------------------------------------------
 OpenMP Integral computing Module                
 Release: version 1.0, May 2013, Q-Chem Inc. Pittsburgh 
 -------------------------------------------------------
 ---------------------------------------
  Cycle       Energy         DIIS Error
 ---------------------------------------
    1    -119.1139394174      4.21E-03
    2    -119.1359814102      6.02E-04 Done RCA. Switching to DIIS
    3    -119.1368190787      4.23E-04
    4    -119.1378020077      4.55E-05
    5    -119.1378168122      1.06E-05
    6    -119.1378175441      4.11E-06 Convergence criterion met
 ---------------------------------------
 SCF time:  CPU 72.07 s  wall 24.31 s
 SCF   energy in the final basis set = -119.13781754
 Total energy in the final basis set = -119.13781754
 
 --------------------------------------------------------------
 
                    Orbital Energies (a.u.)
 --------------------------------------------------------------
 
 Alpha MOs
 -- Occupied --
-10.2731 -10.2653 -10.2653  -0.8829  -0.7763  -0.6784  -0.5471  -0.5310
 -0.4756  -0.4623  -0.4255  -0.4172  -0.3994
 -- Virtual --
  0.0713   0.0863   0.0915   0.0989   0.1242   0.1302   0.1332   0.1350
  0.1462   0.1673   0.1733   0.1905   0.2074   0.2356   0.2554   0.2753
  0.2874   0.3011   0.3167   0.3179   0.3293   0.3568   0.4519   0.4719
  0.4868   0.4957   0.5052   0.5153   0.5456   0.5483   0.5899   0.5953
  0.6068   0.6145   0.6332   0.6349   0.6535   0.6616   0.7028   0.7120
  0.7327   0.7559   0.8533   0.8561   0.9031   0.9074   0.9338   0.9554
  0.9910   1.0109   1.0493   1.1179   1.1479   1.1949   1.2085   1.2332
  1.2443   1.2467   1.2522   1.2822   1.2983   1.3126   1.3401   1.3617
  1.3822   1.4093   1.4189   1.4340   1.4444   1.4597   1.4715   1.5005
  1.5163   1.5492   1.5678   1.6078   1.6234   1.6334   1.6702   1.7197
  1.7350   2.3570   2.3904   2.4260   2.4886   2.5555   2.6361   2.6366
  2.6603   2.7194   2.7758   2.7915   2.8094   2.8816   2.9205   2.9315
  2.9731   2.9804   3.0203   3.0278   3.0596   3.0632   3.0853   3.1126
  3.1282   3.1450   3.1668   3.1950   3.2098   3.2119   3.2681   3.2775
  3.3216   3.3221   3.3434   3.3704   3.3844   3.4085   3.4419   3.4524
  3.4731   3.4769   3.5044   3.5110   3.5308   3.5812   3.6013   3.6020
  3.6354   3.7037   3.7040   3.7301   3.7419   3.7426   3.8173   3.8851
  3.8887   3.9008   3.9158   3.9525   4.0312   4.0393   4.0730   4.0928
  4.1139   4.1184   4.1262   4.1385   4.1429   4.1967   4.2031   4.2269
  4.2394   4.2638   4.2770   4.3334   4.3692   4.3719   4.4378   4.4773
  4.4841   4.5348   4.5364   4.5752   4.7734   4.7959   4.8260   4.9028
  4.9094   4.9456   4.9513   4.9670   5.0429   5.0519   5.0705   5.0720
  5.1564   5.2118   5.2180   5.2482   5.2548   5.3093   5.3503   5.3743
  5.3798   5.3882   5.4439   5.5056   5.5635   5.5647   5.6038   5.7411
  5.9592   6.3610   6.3853   6.3883   6.4111   6.5081  25.1291  25.4280
 25.4484
 --------------------------------------------------------------
 
 -----------------------------------------------------------------
                    Cartesian Multipole Moments
 -----------------------------------------------------------------
    Charge (ESU x 10^10)
                -0.0000
    Dipole Moment (Debye)
         X      -0.0000      Y       0.0240      Z      -0.0946
       Tot       0.0976
    Quadrupole Moments (Debye-Ang)
        XX     -21.9639     XY      -0.0000     YY     -21.4485
        XZ      -0.0000     YZ       0.3989     ZZ     -21.9836
    Octopole Moments (Debye-Ang^2)
       XXX       0.0000    XXY       0.5062    XYY      -0.0000
       YYY      -1.6338    XXZ      -0.9775    XYZ      -0.0000
       YYZ      -1.0614    XZZ      -0.0000    YZZ      -1.3578
       ZZZ      -0.1698
    Hexadecapole Moments (Debye-Ang^3)
      XXXX    -198.3448   XXXY      -0.0002   XXYY     -41.6441
      XYYY      -0.0003   YYYY     -54.8630   XXXZ      -0.0002
      XXYZ       2.9166   XYYZ      -0.0000   YYYZ       7.1388
      XXZZ     -45.4372   XYZZ      -0.0000   YYZZ     -20.0785
      XZZZ      -0.0000   YZZZ       6.7735   ZZZZ     -56.7247
 -----------------------------------------------------------------
Archival summary:
1\1\cn0913\SP\ProcedureUnspecified\BasisUnspecified\38\r0852400\SunApr1205:21:192020SunApr1205:21:192020\0\\#,ProcedureUnspecified,BasisUnspecified,\\0,1\C\H,1,1.09214\H,1,1.09304,2,106.453\C,1,1.52405,2,105.067,3,-120.733,0\H,4,1.0898,1,115.238,2,89.173,0\H,4,1.09048,1,111.542,2,-34.4484,0\H,4,1.09395,1,106.581,2,-151.52,0\C,1,1.52405,2,105.067,3,120.733,0\H,8,1.0898,1,115.238,2,-89.1752,0\H,8,1.09048,1,111.542,2,34.4461,0\H,8,1.09394,1,106.581,2,151.517,0\\\@

 Total job time:  36.21s(wall), 101.29s(cpu) 
 Sun Apr 12 05:21:19 2020

        *************************************************************
        *                                                           *
        *  Thank you very much for using Q-Chem.  Have a nice day.  *
        *                                                           *
        *************************************************************


