                  Welcome to Q-Chem
     A Quantum Leap Into The Future Of Chemistry


 Q-Chem 5.2 (devel), Q-Chem, Inc., Pleasanton, CA (2019)

 Yihan Shao,  Zhengting Gan,  E. Epifanovsky,  A. T. B. Gilbert,  M. Wormit,  
 J. Kussmann,  A. W. Lange,  A. Behn,  Jia Deng,  Xintian Feng,  D. Ghosh,  
 M. Goldey,  P. R. Horn,  L. D. Jacobson,  I. Kaliman,  T. Kus,  A. Landau,  
 Jie Liu,  E. I. Proynov,  R. M. Richard,  R. P. Steele,  E. J. Sundstrom,  
 H. L. Woodcock III,  P. M. Zimmerman,  D. Zuev,  B. Alam,  B. Albrecht,  
 E. Alguire,  S. A. Baeppler,  D. Barton,  Z. Benda,  Y. A. Bernard,  
 E. J. Berquist,  K. B. Bravaya,  H. Burton,  K. Carter-Fenk,  D. Casanova,  
 Chun-Min Chang,  Yunqing Chen,  A. Chien,  K. D. Closser,  M. P. Coons,  
 S. Coriani,  S. Dasgupta,  A. L. Dempwolff,  M. Diedenhofen,  Hainam Do,  
 R. G. Edgar,  Po-Tung Fang,  S. Faraji,  S. Fatehi,  Qingguo Feng,  
 J. Fosso-Tande,  J. Gayvert,  Qinghui Ge,  A. Ghysels,  G. Gidofalvi,  
 J. Gomes,  J. Gonthier,  A. Gunina,  D. Hait,  M. W. D. Hanson-Heine,  
 P. H. P. Harbach,  A. W. Hauser,  M. F. Herbst,  J. E. Herr,  
 E. G. Hohenstein,  Z. C. Holden,  Kerwin Hui,  B. C. Huynh,  T.-C. Jagau,  
 Hyunjun Ji,  B. Kaduk,  K. Khistyaev,  Jaehoon Kim,  P. Klunzinger,  K. Koh,  
 D. Kosenkov,  L. Koulias,  T. Kowalczyk,  C. M. Krauter,  A. Kunitsa,  
 Ka Un Lao,  A. Laurent,  K. V. Lawler,  Joonho Lee,  D. Lefrancois,  
 S. Lehtola,  D. S. Levine,  Yi-Pei Li,  You-Sheng Lin,  Fenglai Liu,  
 Kuan-Yu Liu,  E. Livshits,  M. Loipersberger,  A. Luenser,  P. Manohar,  
 E. Mansoor,  S. F. Manzer,  Shan-Ping Mao,  Yuezhi Mao,  N. Mardirossian,  
 A. V. Marenich,  T. Markovich,  L. A. Martinez-Martinez,  S. A. Maurer,  
 N. J. Mayhall,  S. C. McKenzie,  J.-M. Mewes,  P. Morgante,  A. F. Morrison,  
 J. W. Mullinax,  K. Nanda,  T. S. Nguyen-Beck,  R. Olivares-Amaya,  
 J. A. Parkhill,  S. K. Paul,  Zheng Pei,  T. M. Perrine,  F. Plasser,  
 P. Pokhilko,  S. Prager,  A. Prociuk,  E. Ramos,  B. Rana,  D. R. Rehn,  
 F. Rob,  M. Scheurer,  M. Schneider,  N. Sergueev,  S. M. Sharada,  
 S. Sharma,  D. W. Small,  T. Stauch,  C. J. Stein,  T. Stein,  Yu-Chuan Su,  
 S. P. Veccham,  A. J. W. Thom,  A. Tkatchenko,  T. Tsuchimochi,  
 N. M. Tubman,  L. Vogt,  M. L. Vidal,  O. Vydrov,  M. A. Watson,  J. Wenzel,  
 M. de Wergifosse,  T. A. Wesolowski,  A. White,  J. Witte,  A. Yamada,  
 Jun Yang,  K. Yao,  S. Yeganeh,  S. R. Yost,  Zhi-Qiang You,  A. Zech,  
 Igor Ying Zhang,  Xing Zhang,  Yan Zhao,  Ying Zhu,  B. R. Brooks,  
 G. K. L. Chan,  C. J. Cramer,  M. S. Gordon,  W. J. Hehre,  A. Klamt,  
 M. W. Schmidt,  C. D. Sherrill,  D. G. Truhlar,  A. Aspuru-Guzik,  R. Baer,  
 A. T. Bell,  N. A. Besley,  Jeng-Da Chai,  A. E. DePrince, III,  
 R. A. DiStasio Jr.,  A. Dreuw,  B. D. Dunietz,  T. R. Furlani,  
 Chao-Ping Hsu,  Yousung Jung,  Jing Kong,  D. S. Lambrecht,  WanZhen Liang,  
 C. Ochsenfeld,  V. A. Rassolov,  L. V. Slipchenko,  J. E. Subotnik,  
 T. Van Voorhis,  J. M. Herbert,  A. I. Krylov,  P. M. W. Gill,  M. Head-Gordon

 Contributors to earlier versions of Q-Chem not listed above: 
 R. D. Adamson,  B. Austin,  J. Baker,  G. J. O. Beran,  K. Brandhorst,  
 S. T. Brown,  E. F. C. Byrd,  A. K. Chakraborty,  C.-L. Cheng,  
 Siu Hung Chien,  D. M. Chipman,  D. L. Crittenden,  H. Dachsel,  
 R. J. Doerksen,  A. D. Dutoi,  L. Fusti-Molnar,  W. A. Goddard III,  
 A. Golubeva-Zadorozhnaya,  S. R. Gwaltney,  G. Hawkins,  A. Heyden,  
 S. Hirata,  G. Kedziora,  F. J. Keil,  C. Kelley,  Jihan Kim,  R. A. King,  
 R. Z. Khaliullin,  P. P. Korambath,  W. Kurlancheek,  A. M. Lee,  M. S. Lee,  
 S. V. Levchenko,  Ching Yeh Lin,  D. Liotard,  R. C. Lochan,  I. Lotan,  
 P. E. Maslen,  N. Nair,  D. P. O'Neill,  D. Neuhauser,  E. Neuscamman,  
 C. M. Oana,  R. Olson,  B. Peters,  R. Peverati,  P. A. Pieniazek,  
 Y. M. Rhee,  J. Ritchie,  M. A. Rohrdanz,  E. Rosta,  N. J. Russ,  
 H. F. Schaefer III,  N. E. Schultz,  N. Shenvi,  A. C. Simmonett,  A. Sodt,  
 D. Stuck,  K. S. Thanthiriwatte,  V. Vanovschi,  Tao Wang,  A. Warshel,  
 C. F. Williams,  Q. Wu,  X. Xu,  W. Zhang

 Please cite Q-Chem as follows:
 Y. Shao et al., Mol. Phys. 113, 184-215 (2015)
 DOI: 10.1080/00268976.2014.952696

 Q-Chem 5.2.2 for Intel X86 EM64T Linux

 Parts of Q-Chem use Armadillo 9.800.1 (Horizon Scraper).
 http://arma.sourceforge.net/

 Q-Chem begins on Sun Apr 12 07:14:23 2020  

Host: cn0913
0

     Scratch files written to /tmp/ypli/6721341.srvc1/qchem243710//
Warning:  Did not find "$end" marker in "$molecule" section

Checking the input file for inconsistencies... 	...done.

--------------------------------------------------------------
User input:
--------------------------------------------------------------
$rem
   JOBTYPE  sp
   EXCHANGE   omegaB97X-D
   BASIS   6-311+G(2df,2pd)
   max_scf_cycles   250
   geom_opt_max_cycles   1500
   basis2 6-31G*
   scf_algorithm rca_diis
   SYM_IGNORE  TRUE
   print_input   true
   geom_opt_dmax   80
   pop_mulliken false
   XC_GRID 000075000302
$end

$molecule
0 1
C       1.2699574616     0.0000000103     0.2666010012
C       0.0000002794     0.0000000473     -0.5828338432
H       1.3044620239     -0.8445301811     0.8828593736
H       1.3044620586     0.8445302320     0.8828593821
H       2.1342171545     -0.0000000061     -0.3332762352
C       -1.2699567967     0.0000000878     0.2666005365
H       0.0000003454     -0.8723561072     -1.2371047710
H       0.0000003146     0.8723560845     -1.2371047055
H       -1.3044617933     -0.8445336620     0.8828616276
H       -2.1342193578     0.0000007535     -0.3332786800
H       -1.3044617508     0.8445334070     0.8828613327
--------------------------------------------------------------
 ----------------------------------------------------------------
             Standard Nuclear Orientation (Angstroms)
    I     Atom           X                Y                Z
 ----------------------------------------------------------------
    1      C       1.2699574616     0.0000000103     0.2666010012
    2      C       0.0000002794     0.0000000473    -0.5828338432
    3      H       1.3044620239    -0.8445301811     0.8828593736
    4      H       1.3044620586     0.8445302320     0.8828593821
    5      H       2.1342171545    -0.0000000061    -0.3332762352
    6      C      -1.2699567967     0.0000000878     0.2666005365
    7      H       0.0000003454    -0.8723561072    -1.2371047710
    8      H       0.0000003146     0.8723560845    -1.2371047055
    9      H      -1.3044617933    -0.8445336620     0.8828616276
   10      H      -2.1342193578     0.0000007535    -0.3332786800
   11      H      -1.3044617508     0.8445334070     0.8828613327
 ----------------------------------------------------------------
 Nuclear Repulsion Energy =          83.65984833 hartrees
 There are       13 alpha and       13 beta electrons
 Requested basis set is 6-311+G(2df,2pd)
 There are 72 shells and 214 basis functions

 Total QAlloc Memory Limit   2000 MB
 Mega-Array Size       188 MB
 MEM_STATIC part       192 MB

                       Distance Matrix (Angstroms)
             C (  1)   C (  2)   H (  3)   H (  4)   H (  5)   C (  6)
   C (  2)  1.527852
   H (  3)  1.046038  2.136143
   H (  4)  1.046038  2.136143  1.689060
   H (  5)  1.052044  2.148758  1.697266  1.697266
   C (  6)  2.539914  1.527851  2.778604  2.778604  3.456624
   H (  7)  2.152888  1.090447  2.489306  3.023833  2.476448  2.152888
   H (  8)  2.152888  1.090447  3.023833  2.489306  2.476448  2.152888
   H (  9)  2.778606  2.136146  2.608924  3.107961  3.743894  1.046043
   H ( 10)  3.456628  2.148760  3.743896  3.743895  4.268437  1.052048
   H ( 11)  2.778605  2.136146  3.107961  2.608924  3.743894  1.046042
             H (  7)   H (  8)   H (  9)   H ( 10)
   H (  8)  1.744712
   H (  9)  2.489308  3.023837
   H ( 10)  2.476449  2.476449  1.697272
   H ( 11)  3.023837  2.489307  1.689067  1.697271
 
 A cutoff of  1.0D-09 yielded   2534 shell pairs
 There are     22592 function pairs (     27779 Cartesian)
 Smallest overlap matrix eigenvalue = 8.89E-05

 Scale SEOQF with 1.000000e-01/1.000000e-01/1.000000e-01

 Standard Electronic Orientation quadrupole field applied
 Nucleus-field energy     =     0.0000000006 hartrees
 Requested basis set is 6-31G(d)
 There are 28 shells and 58 basis functions
 A cutoff of  1.0D-09 yielded    402 shell pairs
 There are      1773 function pairs (      1968 Cartesian)
 Smallest overlap matrix eigenvalue = 6.65E-03
 Guess from superposition of atomic densities
 Warning:  Energy on first SCF cycle will be non-variational
 SAD guess density has 26.000000 electrons
 Long-range K will be added via erf
 Coulomb attenuation parameter = 0.2 bohr**(-1)
 A restricted hybrid HF-DFT SCF calculation will be
 performed using Relaxed Constraint Minimization + Pulay DIIS
 Exchange:     0.2220 Hartree-Fock + 1.0000 wB97X-D + LR-HF
 Correlation:  1.0000 wB97X-D
 Using Euler-Maclaurin-Lebedev (75,302) quadrature formula
 Dispersion:   Grimme D
 SCF converges when DIIS error is below 1.0E-04
 using 3 threads for integral computing
 -------------------------------------------------------
 OpenMP Integral computing Module                
 Release: version 1.0, May 2013, Q-Chem Inc. Pittsburgh 
 -------------------------------------------------------
 using 3 threads for integral computing
 -------------------------------------------------------
 OpenMP Integral computing Module                
 Release: version 1.0, May 2013, Q-Chem Inc. Pittsburgh 
 -------------------------------------------------------
 ---------------------------------------
  Cycle       Energy         DIIS Error
 ---------------------------------------
    1    -119.7579551275      1.05E-01
    2    -119.0515121212      9.86E-03
    3    -119.0768931988      2.88E-03
    4    -119.0921857808      1.97E-03
    5    -119.0931391573      3.58E-04 Done RCA. Switching to DIIS
    6    -119.0937908930      2.61E-04
    7    -119.0938197713      5.08E-06 Convergence criterion met
 ---------------------------------------
 SCF time:  CPU 23.48 s  wall 8.01 s
 SCF   energy in the small basis set = -119.09381977
 Total energy in the small basis set = -119.09381977
 ----------------------------------------------------
  Cycle       Energy    
 ----------------------------------------------------
    1     -16.6286297258     -1.66E+01
 Long-range K will be added via erf
 Coulomb attenuation parameter = 0.2 bohr**(-1)
 A restricted hybrid HF-DFT SCF calculation will be
 performed using Relaxed Constraint Minimization + Pulay DIIS
 Exchange:     0.2220 Hartree-Fock + 1.0000 wB97X-D + LR-HF
 Correlation:  1.0000 wB97X-D
 Using Euler-Maclaurin-Lebedev (75,302) quadrature formula
 Dispersion:   Grimme D
 SCF converges when DIIS error is below 1.0E-05
 Basis2 calculation detected. Using small basis as guess for larger.
 SCFMinFind is unable to tell whether the solution found is close.
 Resetting ReadMinima to 0 and attempting to follow guess.
 SCFMinFind following SCF Guess.
 using 3 threads for integral computing
 -------------------------------------------------------
 OpenMP Integral computing Module                
 Release: version 1.0, May 2013, Q-Chem Inc. Pittsburgh 
 -------------------------------------------------------
 using 3 threads for integral computing
 -------------------------------------------------------
 OpenMP Integral computing Module                
 Release: version 1.0, May 2013, Q-Chem Inc. Pittsburgh 
 -------------------------------------------------------
 ---------------------------------------
  Cycle       Energy         DIIS Error
 ---------------------------------------
    1    -119.1144809164      4.22E-03
    2    -119.1367019781      6.14E-04 Done RCA. Switching to DIIS
    3    -119.1376128570      4.16E-04
    4    -119.1385414428      4.54E-05
    5    -119.1385553360      1.17E-05
    6    -119.1385561745      4.08E-06 Convergence criterion met
 ---------------------------------------
 SCF time:  CPU 70.52 s  wall 23.76 s
 SCF   energy in the final basis set = -119.13855617
 Total energy in the final basis set = -119.13855617
 
 --------------------------------------------------------------
 
                    Orbital Energies (a.u.)
 --------------------------------------------------------------
 
 Alpha MOs
 -- Occupied --
-10.2714 -10.2498 -10.2498  -0.8835  -0.7878  -0.6842  -0.5490  -0.5282
 -0.4882  -0.4729  -0.4194  -0.4190  -0.4106
 -- Virtual --
  0.0696   0.0862   0.0913   0.0995   0.1254   0.1302   0.1333   0.1435
  0.1448   0.1726   0.1738   0.1922   0.2428   0.2490   0.2568   0.2660
  0.2890   0.2922   0.3108   0.3163   0.3378   0.3575   0.4559   0.4677
  0.4688   0.5116   0.5140   0.5194   0.5465   0.5681   0.5923   0.6003
  0.6295   0.6316   0.6512   0.6557   0.6610   0.6625   0.7262   0.7410
  0.7494   0.7690   0.8317   0.8655   0.8775   0.8783   0.8847   0.9772
  1.0227   1.0601   1.0669   1.1530   1.1541   1.1905   1.1970   1.2249
  1.2433   1.2446   1.2799   1.2875   1.2948   1.2970   1.3338   1.3864
  1.3954   1.4015   1.4140   1.4570   1.4676   1.4876   1.4908   1.4969
  1.5368   1.5968   1.6256   1.6274   1.6564   1.6767   1.7085   1.7337
  1.7647   2.3489   2.4504   2.4640   2.4648   2.5462   2.5578   2.5781
  2.6160   2.7015   2.8203   2.8569   2.8573   2.9206   2.9376   2.9595
  2.9674   2.9764   3.0105   3.0448   3.0841   3.0897   3.1114   3.1119
  3.1435   3.1523   3.1810   3.2137   3.2205   3.2356   3.2813   3.3315
  3.3368   3.3694   3.3740   3.3847   3.3940   3.3959   3.4171   3.4578
  3.4809   3.4952   3.5233   3.5263   3.5703   3.6006   3.6358   3.6404
  3.6499   3.6836   3.7339   3.7427   3.7793   3.7797   3.8892   3.9043
  3.9564   3.9584   3.9647   3.9770   3.9849   4.0035   4.0807   4.0868
  4.1115   4.1389   4.1522   4.1681   4.1738   4.1993   4.2117   4.2398
  4.2618   4.2976   4.3047   4.3960   4.4342   4.4585   4.4640   4.4669
  4.4833   4.6326   4.6425   4.6443   4.7467   4.8957   4.8964   4.9377
  5.0187   5.0369   5.0414   5.0696   5.1314   5.1666   5.1716   5.1931
  5.2275   5.3616   5.3722   5.3793   5.4266   5.4412   5.4905   5.5002
  5.5092   5.5317   5.5425   5.5537   5.6249   5.6532   5.6839   5.8009
  5.9674   6.4629   6.4921   6.4961   6.5031   6.5114  25.2116  25.5906
 25.6010
 --------------------------------------------------------------
 
 -----------------------------------------------------------------
                    Cartesian Multipole Moments
 -----------------------------------------------------------------
    Charge (ESU x 10^10)
                 0.0000
    Dipole Moment (Debye)
         X       0.0000      Y       0.0000      Z      -0.0184
       Tot       0.0184
    Quadrupole Moments (Debye-Ang)
        XX     -21.8274     XY      -0.0000     YY     -21.1657
        XZ       0.0000     YZ      -0.0000     ZZ     -21.6333
    Octopole Moments (Debye-Ang^2)
       XXX       0.0001    XXY       0.0000    XYY       0.0000
       YYY      -0.0000    XXZ      -1.2793    XYZ       0.0000
       YYZ       0.4207    XZZ       0.0000    YZZ      -0.0000
       ZZZ      -0.1557
    Hexadecapole Moments (Debye-Ang^3)
      XXXX    -197.4837   XXXY      -0.0000   XXYY     -40.9408
      XYYY       0.0000   YYYY     -42.0178   XXXZ       0.0000
      XXYZ      -0.0000   XYYZ      -0.0000   YYYZ       0.0000
      XXZZ     -44.2113   XYZZ       0.0000   YYZZ     -16.6086
      XZZZ       0.0000   YZZZ       0.0000   ZZZZ     -70.1177
 -----------------------------------------------------------------
Archival summary:
1\1\cn0913\SP\ProcedureUnspecified\BasisUnspecified\38\r0852400\SunApr1207:14:582020SunApr1207:14:582020\0\\#,ProcedureUnspecified,BasisUnspecified,\\0,1\C\H,1,1.09045\H,1,1.09045,2,106.26\C,1,1.52785,2,109.486,3,-118.151,0\H,4,1.04604,1,110.791,2,-62.2169,0\H,4,1.04604,1,110.791,2,178.338,0\H,4,1.05205,1,111.458,2,58.0603,0\C,1,1.52785,2,109.486,3,118.151,0\H,8,1.04604,1,110.791,2,-178.338,0\H,8,1.04604,1,110.791,2,62.2169,0\H,8,1.05204,1,111.458,2,-58.0603,0\\\@

 Total job time:  35.22s(wall), 98.24s(cpu) 
 Sun Apr 12 07:14:58 2020

        *************************************************************
        *                                                           *
        *  Thank you very much for using Q-Chem.  Have a nice day.  *
        *                                                           *
        *************************************************************


