                  Welcome to Q-Chem
     A Quantum Leap Into The Future Of Chemistry


 Q-Chem 5.2 (devel), Q-Chem, Inc., Pleasanton, CA (2019)

 Yihan Shao,  Zhengting Gan,  E. Epifanovsky,  A. T. B. Gilbert,  M. Wormit,  
 J. Kussmann,  A. W. Lange,  A. Behn,  Jia Deng,  Xintian Feng,  D. Ghosh,  
 M. Goldey,  P. R. Horn,  L. D. Jacobson,  I. Kaliman,  T. Kus,  A. Landau,  
 Jie Liu,  E. I. Proynov,  R. M. Richard,  R. P. Steele,  E. J. Sundstrom,  
 H. L. Woodcock III,  P. M. Zimmerman,  D. Zuev,  B. Alam,  B. Albrecht,  
 E. Alguire,  S. A. Baeppler,  D. Barton,  Z. Benda,  Y. A. Bernard,  
 E. J. Berquist,  K. B. Bravaya,  H. Burton,  K. Carter-Fenk,  D. Casanova,  
 Chun-Min Chang,  Yunqing Chen,  A. Chien,  K. D. Closser,  M. P. Coons,  
 S. Coriani,  S. Dasgupta,  A. L. Dempwolff,  M. Diedenhofen,  Hainam Do,  
 R. G. Edgar,  Po-Tung Fang,  S. Faraji,  S. Fatehi,  Qingguo Feng,  
 J. Fosso-Tande,  J. Gayvert,  Qinghui Ge,  A. Ghysels,  G. Gidofalvi,  
 J. Gomes,  J. Gonthier,  A. Gunina,  D. Hait,  M. W. D. Hanson-Heine,  
 P. H. P. Harbach,  A. W. Hauser,  M. F. Herbst,  J. E. Herr,  
 E. G. Hohenstein,  Z. C. Holden,  Kerwin Hui,  B. C. Huynh,  T.-C. Jagau,  
 Hyunjun Ji,  B. Kaduk,  K. Khistyaev,  Jaehoon Kim,  P. Klunzinger,  K. Koh,  
 D. Kosenkov,  L. Koulias,  T. Kowalczyk,  C. M. Krauter,  A. Kunitsa,  
 Ka Un Lao,  A. Laurent,  K. V. Lawler,  Joonho Lee,  D. Lefrancois,  
 S. Lehtola,  D. S. Levine,  Yi-Pei Li,  You-Sheng Lin,  Fenglai Liu,  
 Kuan-Yu Liu,  E. Livshits,  M. Loipersberger,  A. Luenser,  P. Manohar,  
 E. Mansoor,  S. F. Manzer,  Shan-Ping Mao,  Yuezhi Mao,  N. Mardirossian,  
 A. V. Marenich,  T. Markovich,  L. A. Martinez-Martinez,  S. A. Maurer,  
 N. J. Mayhall,  S. C. McKenzie,  J.-M. Mewes,  P. Morgante,  A. F. Morrison,  
 J. W. Mullinax,  K. Nanda,  T. S. Nguyen-Beck,  R. Olivares-Amaya,  
 J. A. Parkhill,  S. K. Paul,  Zheng Pei,  T. M. Perrine,  F. Plasser,  
 P. Pokhilko,  S. Prager,  A. Prociuk,  E. Ramos,  B. Rana,  D. R. Rehn,  
 F. Rob,  M. Scheurer,  M. Schneider,  N. Sergueev,  S. M. Sharada,  
 S. Sharma,  D. W. Small,  T. Stauch,  C. J. Stein,  T. Stein,  Yu-Chuan Su,  
 S. P. Veccham,  A. J. W. Thom,  A. Tkatchenko,  T. Tsuchimochi,  
 N. M. Tubman,  L. Vogt,  M. L. Vidal,  O. Vydrov,  M. A. Watson,  J. Wenzel,  
 M. de Wergifosse,  T. A. Wesolowski,  A. White,  J. Witte,  A. Yamada,  
 Jun Yang,  K. Yao,  S. Yeganeh,  S. R. Yost,  Zhi-Qiang You,  A. Zech,  
 Igor Ying Zhang,  Xing Zhang,  Yan Zhao,  Ying Zhu,  B. R. Brooks,  
 G. K. L. Chan,  C. J. Cramer,  M. S. Gordon,  W. J. Hehre,  A. Klamt,  
 M. W. Schmidt,  C. D. Sherrill,  D. G. Truhlar,  A. Aspuru-Guzik,  R. Baer,  
 A. T. Bell,  N. A. Besley,  Jeng-Da Chai,  A. E. DePrince, III,  
 R. A. DiStasio Jr.,  A. Dreuw,  B. D. Dunietz,  T. R. Furlani,  
 Chao-Ping Hsu,  Yousung Jung,  Jing Kong,  D. S. Lambrecht,  WanZhen Liang,  
 C. Ochsenfeld,  V. A. Rassolov,  L. V. Slipchenko,  J. E. Subotnik,  
 T. Van Voorhis,  J. M. Herbert,  A. I. Krylov,  P. M. W. Gill,  M. Head-Gordon

 Contributors to earlier versions of Q-Chem not listed above: 
 R. D. Adamson,  B. Austin,  J. Baker,  G. J. O. Beran,  K. Brandhorst,  
 S. T. Brown,  E. F. C. Byrd,  A. K. Chakraborty,  C.-L. Cheng,  
 Siu Hung Chien,  D. M. Chipman,  D. L. Crittenden,  H. Dachsel,  
 R. J. Doerksen,  A. D. Dutoi,  L. Fusti-Molnar,  W. A. Goddard III,  
 A. Golubeva-Zadorozhnaya,  S. R. Gwaltney,  G. Hawkins,  A. Heyden,  
 S. Hirata,  G. Kedziora,  F. J. Keil,  C. Kelley,  Jihan Kim,  R. A. King,  
 R. Z. Khaliullin,  P. P. Korambath,  W. Kurlancheek,  A. M. Lee,  M. S. Lee,  
 S. V. Levchenko,  Ching Yeh Lin,  D. Liotard,  R. C. Lochan,  I. Lotan,  
 P. E. Maslen,  N. Nair,  D. P. O'Neill,  D. Neuhauser,  E. Neuscamman,  
 C. M. Oana,  R. Olson,  B. Peters,  R. Peverati,  P. A. Pieniazek,  
 Y. M. Rhee,  J. Ritchie,  M. A. Rohrdanz,  E. Rosta,  N. J. Russ,  
 H. F. Schaefer III,  N. E. Schultz,  N. Shenvi,  A. C. Simmonett,  A. Sodt,  
 D. Stuck,  K. S. Thanthiriwatte,  V. Vanovschi,  Tao Wang,  A. Warshel,  
 C. F. Williams,  Q. Wu,  X. Xu,  W. Zhang

 Please cite Q-Chem as follows:
 Y. Shao et al., Mol. Phys. 113, 184-215 (2015)
 DOI: 10.1080/00268976.2014.952696

 Q-Chem 5.2.2 for Intel X86 EM64T Linux

 Parts of Q-Chem use Armadillo 9.800.1 (Horizon Scraper).
 http://arma.sourceforge.net/

 Q-Chem begins on Sun Apr 12 06:41:09 2020  

Host: cn0913
0

     Scratch files written to /tmp/ypli/6721341.srvc1/qchem237277//
Warning:  Did not find "$end" marker in "$molecule" section

Checking the input file for inconsistencies... 	...done.

--------------------------------------------------------------
User input:
--------------------------------------------------------------
$rem
   JOBTYPE  sp
   EXCHANGE   omegaB97X-D
   BASIS   6-311+G(2df,2pd)
   max_scf_cycles   250
   geom_opt_max_cycles   1500
   basis2 6-31G*
   scf_algorithm rca_diis
   SYM_IGNORE  TRUE
   print_input   true
   geom_opt_dmax   80
   pop_mulliken false
   XC_GRID 000075000302
$end

$molecule
0 1
C       1.3126061469     0.0000000915     0.3693131831
C       0.0000012564     0.0000001936     -0.5150378587
H       1.0801610629     -0.9418025652     0.8585875261
H       1.0801612824     0.9418027621     0.8585876287
H       1.9890946541     0.0000001481     -0.4790707889
C       -1.3126032725     -0.0000000034     0.3693122230
H       0.0000008274     -0.8707657553     -1.1793775053
H       0.0000015030     0.8707659227     -1.1793778341
H       -1.0801641341     -0.9418033225     0.8585882745
H       -1.9890966564     0.0000001317     -0.4790681944
H       -1.0801627306     0.9418030625     0.8585883650
--------------------------------------------------------------
 ----------------------------------------------------------------
             Standard Nuclear Orientation (Angstroms)
    I     Atom           X                Y                Z
 ----------------------------------------------------------------
    1      C       1.3126061469     0.0000000915     0.3693131831
    2      C       0.0000012564     0.0000001936    -0.5150378587
    3      H       1.0801610629    -0.9418025652     0.8585875261
    4      H       1.0801612824     0.9418027621     0.8585876287
    5      H       1.9890946541     0.0000001481    -0.4790707889
    6      C      -1.3126032725    -0.0000000034     0.3693122230
    7      H       0.0000008274    -0.8707657553    -1.1793775053
    8      H       0.0000015030     0.8707659227    -1.1793778341
    9      H      -1.0801641341    -0.9418033225     0.8585882745
   10      H      -1.9890966564     0.0000001317    -0.4790681944
   11      H      -1.0801627306     0.9418030625     0.8585883650
 ----------------------------------------------------------------
 Nuclear Repulsion Energy =          82.88284635 hartrees
 There are       13 alpha and       13 beta electrons
 Requested basis set is 6-311+G(2df,2pd)
 There are 72 shells and 214 basis functions

 Total QAlloc Memory Limit   2000 MB
 Mega-Array Size       188 MB
 MEM_STATIC part       192 MB

                       Distance Matrix (Angstroms)
             C (  1)   C (  2)   H (  3)   H (  4)   H (  5)   C (  6)
   C (  2)  1.582722
   H (  3)  1.086468  1.985091
   H (  4)  1.086468  1.985091  1.883605
   H (  5)  1.085077  1.989419  1.871492  1.871492
   C (  6)  2.625209  1.582721  2.617576  2.617576  3.408953
   H (  7)  2.208984  1.095254  2.307616  2.933505  2.281481  2.208982
   H (  8)  2.208983  1.095254  2.933505  2.307617  2.281481  2.208983
   H (  9)  2.617582  1.985094  2.160325  2.866178  3.478027  1.086468
   H ( 10)  3.408958  1.989423  3.478025  3.478025  3.978191  1.085077
   H ( 11)  2.617580  1.985093  2.866177  2.160324  3.478026  1.086468
             H (  7)   H (  8)   H (  9)   H ( 10)
   H (  8)  1.741532
   H (  9)  2.307619  2.933508
   H ( 10)  2.281485  2.281486  1.871491
   H ( 11)  2.933507  2.307619  1.883606  1.871491
 
 A cutoff of  1.0D-09 yielded   2560 shell pairs
 There are     22756 function pairs (     27987 Cartesian)
 Smallest overlap matrix eigenvalue = 1.02E-04

 Scale SEOQF with 1.000000e-01/1.000000e-01/1.000000e-01

 Standard Electronic Orientation quadrupole field applied
 Nucleus-field energy     =     0.0000000005 hartrees
 Requested basis set is 6-31G(d)
 There are 28 shells and 58 basis functions
 A cutoff of  1.0D-09 yielded    403 shell pairs
 There are      1774 function pairs (      1969 Cartesian)
 Smallest overlap matrix eigenvalue = 6.55E-03
 Guess from superposition of atomic densities
 Warning:  Energy on first SCF cycle will be non-variational
 SAD guess density has 26.000000 electrons
 Long-range K will be added via erf
 Coulomb attenuation parameter = 0.2 bohr**(-1)
 A restricted hybrid HF-DFT SCF calculation will be
 performed using Relaxed Constraint Minimization + Pulay DIIS
 Exchange:     0.2220 Hartree-Fock + 1.0000 wB97X-D + LR-HF
 Correlation:  1.0000 wB97X-D
 Using Euler-Maclaurin-Lebedev (75,302) quadrature formula
 Dispersion:   Grimme D
 SCF converges when DIIS error is below 1.0E-04
 using 3 threads for integral computing
 -------------------------------------------------------
 OpenMP Integral computing Module                
 Release: version 1.0, May 2013, Q-Chem Inc. Pittsburgh 
 -------------------------------------------------------
 using 3 threads for integral computing
 -------------------------------------------------------
 OpenMP Integral computing Module                
 Release: version 1.0, May 2013, Q-Chem Inc. Pittsburgh 
 -------------------------------------------------------
 ---------------------------------------
  Cycle       Energy         DIIS Error
 ---------------------------------------
    1    -119.5906682518      9.90E-02
    2    -119.0023314460      9.04E-03
    3    -119.0249593951      2.93E-03
    4    -119.0376639306      2.01E-03
    5    -119.0386943339      3.95E-04 Done RCA. Switching to DIIS
    6    -119.0393735560      2.87E-04
    7    -119.0394087704      7.31E-06 Convergence criterion met
 ---------------------------------------
 SCF time:  CPU 23.01 s  wall 7.81 s
 SCF   energy in the small basis set = -119.03940877
 Total energy in the small basis set = -119.03940877
 ----------------------------------------------------
  Cycle       Energy    
 ----------------------------------------------------
    1     -16.5189934860     -1.65E+01
 Long-range K will be added via erf
 Coulomb attenuation parameter = 0.2 bohr**(-1)
 A restricted hybrid HF-DFT SCF calculation will be
 performed using Relaxed Constraint Minimization + Pulay DIIS
 Exchange:     0.2220 Hartree-Fock + 1.0000 wB97X-D + LR-HF
 Correlation:  1.0000 wB97X-D
 Using Euler-Maclaurin-Lebedev (75,302) quadrature formula
 Dispersion:   Grimme D
 SCF converges when DIIS error is below 1.0E-05
 Basis2 calculation detected. Using small basis as guess for larger.
 SCFMinFind is unable to tell whether the solution found is close.
 Resetting ReadMinima to 0 and attempting to follow guess.
 SCFMinFind following SCF Guess.
 using 3 threads for integral computing
 -------------------------------------------------------
 OpenMP Integral computing Module                
 Release: version 1.0, May 2013, Q-Chem Inc. Pittsburgh 
 -------------------------------------------------------
 using 3 threads for integral computing
 -------------------------------------------------------
 OpenMP Integral computing Module                
 Release: version 1.0, May 2013, Q-Chem Inc. Pittsburgh 
 -------------------------------------------------------
 ---------------------------------------
  Cycle       Energy         DIIS Error
 ---------------------------------------
    1    -119.0606619827      4.23E-03
    2    -119.0824373613      7.00E-04 Done RCA. Switching to DIIS
    3    -119.0834813768      5.11E-04
    4    -119.0849112314      5.44E-05
    5    -119.0849282951      2.28E-05
    6    -119.0849313414      4.07E-06 Convergence criterion met
 ---------------------------------------
 SCF time:  CPU 71.96 s  wall 24.22 s
 SCF   energy in the final basis set = -119.08493134
 Total energy in the final basis set = -119.08493134
 
 --------------------------------------------------------------
 
                    Orbital Energies (a.u.)
 --------------------------------------------------------------
 
 Alpha MOs
 -- Occupied --
-10.2760 -10.2703 -10.2703  -0.8888  -0.7802  -0.6615  -0.5683  -0.5310
 -0.4895  -0.4850  -0.4150  -0.3985  -0.3787
 -- Virtual --
  0.0667   0.0900   0.0910   0.0932   0.1190   0.1278   0.1304   0.1309
  0.1427   0.1683   0.1701   0.1906   0.2069   0.2267   0.2559   0.2689
  0.2737   0.2752   0.2875   0.2971   0.3330   0.3390   0.4412   0.4507
  0.4657   0.4983   0.5023   0.5086   0.5401   0.5669   0.5862   0.6072
  0.6089   0.6096   0.6138   0.6456   0.6465   0.6476   0.7007   0.7230
  0.7232   0.7636   0.8077   0.8234   0.8602   0.8893   0.9356   0.9498
  1.0012   1.0019   1.0211   1.0817   1.1266   1.1920   1.1948   1.2179
  1.2266   1.2658   1.2770   1.2845   1.3060   1.3144   1.3651   1.3655
  1.3801   1.3839   1.3956   1.4362   1.4531   1.4563   1.4762   1.4936
  1.4942   1.5339   1.5387   1.5488   1.5680   1.6315   1.6537   1.7141
  1.7211   2.4857   2.5080   2.5407   2.5646   2.6333   2.6528   2.6846
  2.7303   2.7410   2.7618   2.7746   2.8166   2.8172   2.8496   2.8940
  2.9155   2.9326   2.9577   2.9710   2.9841   2.9935   3.0293   3.0846
  3.0979   3.1080   3.1432   3.2017   3.2080   3.2260   3.2524   3.2599
  3.3045   3.3220   3.3431   3.3572   3.3744   3.3806   3.4131   3.4378
  3.4389   3.4583   3.5162   3.5376   3.5505   3.5650   3.5701   3.5785
  3.6294   3.6443   3.6821   3.7162   3.7182   3.7630   3.8104   3.8314
  3.8605   3.8912   3.9066   3.9270   3.9367   3.9614   3.9916   4.0120
  4.0661   4.0941   4.1411   4.1428   4.1598   4.1809   4.2147   4.2624
  4.3122   4.3181   4.3347   4.3907   4.4489   4.4575   4.4716   4.5185
  4.5532   4.5996   4.6157   4.6614   4.7030   4.8177   4.8384   4.8685
  4.8896   4.8951   4.9393   4.9761   4.9915   4.9988   5.0136   5.0674
  5.0758   5.1026   5.1335   5.1434   5.1777   5.2511   5.3824   5.4185
  5.4600   5.5205   5.6523   5.6745   5.7512   5.7843   5.9965   6.1094
  6.1142   6.2727   6.2992   6.3362   6.3408   6.4560  25.1199  25.4338
 25.4421
 --------------------------------------------------------------
 
 -----------------------------------------------------------------
                    Cartesian Multipole Moments
 -----------------------------------------------------------------
    Charge (ESU x 10^10)
                 0.0000
    Dipole Moment (Debye)
         X      -0.0000      Y      -0.0000      Z      -0.5252
       Tot       0.5252
    Quadrupole Moments (Debye-Ang)
        XX     -24.7707     XY       0.0000     YY     -20.8062
        XZ      -0.0000     YZ      -0.0000     ZZ     -22.4710
    Octopole Moments (Debye-Ang^2)
       XXX      -0.0001    XXY      -0.0000    XYY      -0.0000
       YYY      -0.0000    XXZ      -6.7868    XYZ       0.0000
       YYZ      -0.3571    XZZ      -0.0000    YZZ      -0.0000
       ZZZ      -5.6585
    Hexadecapole Moments (Debye-Ang^3)
      XXXX    -213.2877   XXXY       0.0000   XXYY     -42.4087
      XYYY      -0.0000   YYYY     -44.3095   XXXZ      -0.0001
      XXYZ      -0.0000   XYYZ      -0.0000   YYYZ      -0.0000
      XXZZ     -46.1856   XYZZ       0.0000   YYZZ     -18.0019
      XZZZ      -0.0000   YZZZ      -0.0000   ZZZZ     -75.1230
 -----------------------------------------------------------------
Archival summary:
1\1\cn0913\SP\ProcedureUnspecified\BasisUnspecified\38\r0852400\SunApr1206:41:452020SunApr1206:41:452020\0\\#,ProcedureUnspecified,BasisUnspecified,\\0,1\C\H,1,1.09525\H,1,1.09525,2,105.317\C,1,1.58272,2,109.811,3,118.176,0\H,4,1.08508,1,94.599,2,-57.6772,0\H,4,1.08647,1,94.2552,2,61.9518,0\H,4,1.08647,1,94.2551,2,-177.306,0\C,1,1.58272,2,109.811,3,-118.176,0\H,8,1.08508,1,94.5987,2,57.6773,0\H,8,1.08647,1,94.2549,2,-61.9518,0\H,8,1.08647,1,94.2549,2,177.306,0\\\@

 Total job time:  35.49s(wall), 99.22s(cpu) 
 Sun Apr 12 06:41:45 2020

        *************************************************************
        *                                                           *
        *  Thank you very much for using Q-Chem.  Have a nice day.  *
        *                                                           *
        *************************************************************


