                  Welcome to Q-Chem
     A Quantum Leap Into The Future Of Chemistry


 Q-Chem 5.2 (devel), Q-Chem, Inc., Pleasanton, CA (2019)

 Yihan Shao,  Zhengting Gan,  E. Epifanovsky,  A. T. B. Gilbert,  M. Wormit,  
 J. Kussmann,  A. W. Lange,  A. Behn,  Jia Deng,  Xintian Feng,  D. Ghosh,  
 M. Goldey,  P. R. Horn,  L. D. Jacobson,  I. Kaliman,  T. Kus,  A. Landau,  
 Jie Liu,  E. I. Proynov,  R. M. Richard,  R. P. Steele,  E. J. Sundstrom,  
 H. L. Woodcock III,  P. M. Zimmerman,  D. Zuev,  B. Alam,  B. Albrecht,  
 E. Alguire,  S. A. Baeppler,  D. Barton,  Z. Benda,  Y. A. Bernard,  
 E. J. Berquist,  K. B. Bravaya,  H. Burton,  K. Carter-Fenk,  D. Casanova,  
 Chun-Min Chang,  Yunqing Chen,  A. Chien,  K. D. Closser,  M. P. Coons,  
 S. Coriani,  S. Dasgupta,  A. L. Dempwolff,  M. Diedenhofen,  Hainam Do,  
 R. G. Edgar,  Po-Tung Fang,  S. Faraji,  S. Fatehi,  Qingguo Feng,  
 J. Fosso-Tande,  J. Gayvert,  Qinghui Ge,  A. Ghysels,  G. Gidofalvi,  
 J. Gomes,  J. Gonthier,  A. Gunina,  D. Hait,  M. W. D. Hanson-Heine,  
 P. H. P. Harbach,  A. W. Hauser,  M. F. Herbst,  J. E. Herr,  
 E. G. Hohenstein,  Z. C. Holden,  Kerwin Hui,  B. C. Huynh,  T.-C. Jagau,  
 Hyunjun Ji,  B. Kaduk,  K. Khistyaev,  Jaehoon Kim,  P. Klunzinger,  K. Koh,  
 D. Kosenkov,  L. Koulias,  T. Kowalczyk,  C. M. Krauter,  A. Kunitsa,  
 Ka Un Lao,  A. Laurent,  K. V. Lawler,  Joonho Lee,  D. Lefrancois,  
 S. Lehtola,  D. S. Levine,  Yi-Pei Li,  You-Sheng Lin,  Fenglai Liu,  
 Kuan-Yu Liu,  E. Livshits,  M. Loipersberger,  A. Luenser,  P. Manohar,  
 E. Mansoor,  S. F. Manzer,  Shan-Ping Mao,  Yuezhi Mao,  N. Mardirossian,  
 A. V. Marenich,  T. Markovich,  L. A. Martinez-Martinez,  S. A. Maurer,  
 N. J. Mayhall,  S. C. McKenzie,  J.-M. Mewes,  P. Morgante,  A. F. Morrison,  
 J. W. Mullinax,  K. Nanda,  T. S. Nguyen-Beck,  R. Olivares-Amaya,  
 J. A. Parkhill,  S. K. Paul,  Zheng Pei,  T. M. Perrine,  F. Plasser,  
 P. Pokhilko,  S. Prager,  A. Prociuk,  E. Ramos,  B. Rana,  D. R. Rehn,  
 F. Rob,  M. Scheurer,  M. Schneider,  N. Sergueev,  S. M. Sharada,  
 S. Sharma,  D. W. Small,  T. Stauch,  C. J. Stein,  T. Stein,  Yu-Chuan Su,  
 S. P. Veccham,  A. J. W. Thom,  A. Tkatchenko,  T. Tsuchimochi,  
 N. M. Tubman,  L. Vogt,  M. L. Vidal,  O. Vydrov,  M. A. Watson,  J. Wenzel,  
 M. de Wergifosse,  T. A. Wesolowski,  A. White,  J. Witte,  A. Yamada,  
 Jun Yang,  K. Yao,  S. Yeganeh,  S. R. Yost,  Zhi-Qiang You,  A. Zech,  
 Igor Ying Zhang,  Xing Zhang,  Yan Zhao,  Ying Zhu,  B. R. Brooks,  
 G. K. L. Chan,  C. J. Cramer,  M. S. Gordon,  W. J. Hehre,  A. Klamt,  
 M. W. Schmidt,  C. D. Sherrill,  D. G. Truhlar,  A. Aspuru-Guzik,  R. Baer,  
 A. T. Bell,  N. A. Besley,  Jeng-Da Chai,  A. E. DePrince, III,  
 R. A. DiStasio Jr.,  A. Dreuw,  B. D. Dunietz,  T. R. Furlani,  
 Chao-Ping Hsu,  Yousung Jung,  Jing Kong,  D. S. Lambrecht,  WanZhen Liang,  
 C. Ochsenfeld,  V. A. Rassolov,  L. V. Slipchenko,  J. E. Subotnik,  
 T. Van Voorhis,  J. M. Herbert,  A. I. Krylov,  P. M. W. Gill,  M. Head-Gordon

 Contributors to earlier versions of Q-Chem not listed above: 
 R. D. Adamson,  B. Austin,  J. Baker,  G. J. O. Beran,  K. Brandhorst,  
 S. T. Brown,  E. F. C. Byrd,  A. K. Chakraborty,  C.-L. Cheng,  
 Siu Hung Chien,  D. M. Chipman,  D. L. Crittenden,  H. Dachsel,  
 R. J. Doerksen,  A. D. Dutoi,  L. Fusti-Molnar,  W. A. Goddard III,  
 A. Golubeva-Zadorozhnaya,  S. R. Gwaltney,  G. Hawkins,  A. Heyden,  
 S. Hirata,  G. Kedziora,  F. J. Keil,  C. Kelley,  Jihan Kim,  R. A. King,  
 R. Z. Khaliullin,  P. P. Korambath,  W. Kurlancheek,  A. M. Lee,  M. S. Lee,  
 S. V. Levchenko,  Ching Yeh Lin,  D. Liotard,  R. C. Lochan,  I. Lotan,  
 P. E. Maslen,  N. Nair,  D. P. O'Neill,  D. Neuhauser,  E. Neuscamman,  
 C. M. Oana,  R. Olson,  B. Peters,  R. Peverati,  P. A. Pieniazek,  
 Y. M. Rhee,  J. Ritchie,  M. A. Rohrdanz,  E. Rosta,  N. J. Russ,  
 H. F. Schaefer III,  N. E. Schultz,  N. Shenvi,  A. C. Simmonett,  A. Sodt,  
 D. Stuck,  K. S. Thanthiriwatte,  V. Vanovschi,  Tao Wang,  A. Warshel,  
 C. F. Williams,  Q. Wu,  X. Xu,  W. Zhang

 Please cite Q-Chem as follows:
 Y. Shao et al., Mol. Phys. 113, 184-215 (2015)
 DOI: 10.1080/00268976.2014.952696

 Q-Chem 5.2.2 for Intel X86 EM64T Linux

 Parts of Q-Chem use Armadillo 9.800.1 (Horizon Scraper).
 http://arma.sourceforge.net/

 Q-Chem begins on Sun Apr 12 13:21:33 2020  

Host: cn0909
0

     Scratch files written to /tmp/ypli/6724609.srvc1/qchem71126//
Warning:  Did not find "$end" marker in "$molecule" section

Checking the input file for inconsistencies... 	...done.

--------------------------------------------------------------
User input:
--------------------------------------------------------------
$rem
   JOBTYPE  sp
   EXCHANGE   omegaB97X-D
   BASIS   6-311+G(2df,2pd)
   max_scf_cycles   250
   geom_opt_max_cycles   1500
   basis2 6-31G*
   scf_algorithm rca_diis
   SYM_IGNORE  TRUE
   print_input   true
   geom_opt_dmax   80
   pop_mulliken false
   XC_GRID 000075000302
$end

$molecule
0 1
C       1.0353351770     0.7305646068     0.2551250917
C       0.0000050910     -0.0000166364     -0.5916730788
H       1.7971731443     1.2453561393     -0.3421577630
H       1.5460535190     0.0033356223     0.8816731100
H       0.5693603536     1.4614487445     0.9167961031
C       -1.0353395608     -0.7305533446     0.2551453420
H       0.3816870804     -0.7881177030     -1.2451054679
H       -0.3816639052     0.7880492990     -1.2451541172
H       -1.5459752497     -0.0033055276     0.8817407115
H       -0.5693925657     -1.4614910914     0.9167765915
H       -1.7972431446     -1.2452694429     -0.3421215040
--------------------------------------------------------------
 ----------------------------------------------------------------
             Standard Nuclear Orientation (Angstroms)
    I     Atom           X                Y                Z
 ----------------------------------------------------------------
    1      C       1.0353351770     0.7305646068     0.2551250917
    2      C       0.0000050910    -0.0000166364    -0.5916730788
    3      H       1.7971731443     1.2453561393    -0.3421577630
    4      H       1.5460535190     0.0033356223     0.8816731100
    5      H       0.5693603536     1.4614487445     0.9167961031
    6      C      -1.0353395608    -0.7305533446     0.2551453420
    7      H       0.3816870804    -0.7881177030    -1.2451054679
    8      H      -0.3816639052     0.7880492990    -1.2451541172
    9      H      -1.5459752497    -0.0033055276     0.8817407115
   10      H      -0.5693925657    -1.4614910914     0.9167765915
   11      H      -1.7972431446    -1.2452694429    -0.3421215040
 ----------------------------------------------------------------
 Nuclear Repulsion Energy =          82.77994187 hartrees
 There are       13 alpha and       13 beta electrons
 Requested basis set is 6-311+G(2df,2pd)
 There are 72 shells and 214 basis functions

 Total QAlloc Memory Limit   2000 MB
 Mega-Array Size       188 MB
 MEM_STATIC part       192 MB

                       Distance Matrix (Angstroms)
             C (  1)   C (  2)   H (  3)   H (  4)   H (  5)   C (  6)
   C (  2)  1.524049
   H (  3)  1.096428  2.200687
   H (  4)  1.087317  2.135656  1.761658
   H (  5)  1.090474  2.176126  1.771775  1.755351
   C (  6)  2.534277  1.524049  3.504871  2.755852  2.796018
   H (  7)  2.232564  1.092592  2.637031  2.550556  3.125634  2.064469
   H (  8)  2.064468  1.092592  2.402470  2.975780  2.456001  2.232565
   H (  9)  2.755790  2.135653  3.772761  3.092036  2.573204  1.087318
   H ( 10)  2.796076  2.176130  3.809537  2.573337  3.136931  1.090474
   H ( 11)  3.504871  2.200689  4.372990  3.772840  3.809463  1.096429
             H (  7)   H (  8)   H (  9)   H ( 10)
   H (  8)  1.751287
   H (  9)  2.975783  2.550597
   H ( 10)  2.455956  3.125639  1.755348
   H ( 11)  2.402520  2.636990  1.761661  1.771777
 
 A cutoff of  1.0D-09 yielded   2535 shell pairs
 There are     22589 function pairs (     27770 Cartesian)
 Smallest overlap matrix eigenvalue = 9.24E-05

 Scale SEOQF with 1.000000e-01/1.000000e-01/1.000000e-01

 Standard Electronic Orientation quadrupole field applied
 Nucleus-field energy     =     0.0000000010 hartrees
 Requested basis set is 6-31G(d)
 There are 28 shells and 58 basis functions
 A cutoff of  1.0D-09 yielded    402 shell pairs
 There are      1773 function pairs (      1968 Cartesian)
 Smallest overlap matrix eigenvalue = 6.97E-03
 Guess from superposition of atomic densities
 Warning:  Energy on first SCF cycle will be non-variational
 SAD guess density has 26.000000 electrons
 Long-range K will be added via erf
 Coulomb attenuation parameter = 0.2 bohr**(-1)
 A restricted hybrid HF-DFT SCF calculation will be
 performed using Relaxed Constraint Minimization + Pulay DIIS
 Exchange:     0.2220 Hartree-Fock + 1.0000 wB97X-D + LR-HF
 Correlation:  1.0000 wB97X-D
 Using Euler-Maclaurin-Lebedev (75,302) quadrature formula
 Dispersion:   Grimme D
 SCF converges when DIIS error is below 1.0E-04
 using 3 threads for integral computing
 -------------------------------------------------------
 OpenMP Integral computing Module                
 Release: version 1.0, May 2013, Q-Chem Inc. Pittsburgh 
 -------------------------------------------------------
 using 3 threads for integral computing
 -------------------------------------------------------
 OpenMP Integral computing Module                
 Release: version 1.0, May 2013, Q-Chem Inc. Pittsburgh 
 -------------------------------------------------------
 ---------------------------------------
  Cycle       Energy         DIIS Error
 ---------------------------------------
    1    -119.6230582257      1.00E-01
    2    -119.0616936296      8.98E-03
    3    -119.0827139227      2.47E-03
    4    -119.0965221874      1.69E-03
    5    -119.0972267459      2.69E-04 Done RCA. Switching to DIIS
    6    -119.0977431294      1.99E-04
    7    -119.0977602601      4.62E-06 Convergence criterion met
 ---------------------------------------
 SCF time:  CPU 27.71 s  wall 9.55 s
 SCF   energy in the small basis set = -119.09776026
 Total energy in the small basis set = -119.09776026
 ----------------------------------------------------
  Cycle       Energy    
 ----------------------------------------------------
    1     -16.5392296330     -1.65E+01
 Long-range K will be added via erf
 Coulomb attenuation parameter = 0.2 bohr**(-1)
 A restricted hybrid HF-DFT SCF calculation will be
 performed using Relaxed Constraint Minimization + Pulay DIIS
 Exchange:     0.2220 Hartree-Fock + 1.0000 wB97X-D + LR-HF
 Correlation:  1.0000 wB97X-D
 Using Euler-Maclaurin-Lebedev (75,302) quadrature formula
 Dispersion:   Grimme D
 SCF converges when DIIS error is below 1.0E-05
 Basis2 calculation detected. Using small basis as guess for larger.
 SCFMinFind is unable to tell whether the solution found is close.
 Resetting ReadMinima to 0 and attempting to follow guess.
 SCFMinFind following SCF Guess.
 using 3 threads for integral computing
 -------------------------------------------------------
 OpenMP Integral computing Module                
 Release: version 1.0, May 2013, Q-Chem Inc. Pittsburgh 
 -------------------------------------------------------
 using 3 threads for integral computing
 -------------------------------------------------------
 OpenMP Integral computing Module                
 Release: version 1.0, May 2013, Q-Chem Inc. Pittsburgh 
 -------------------------------------------------------
 ---------------------------------------
  Cycle       Energy         DIIS Error
 ---------------------------------------
    1    -119.1169775531      4.21E-03
    2    -119.1390263837      6.00E-04 Done RCA. Switching to DIIS
    3    -119.1398641457      4.21E-04
    4    -119.1408349312      4.57E-05
    5    -119.1408497761      1.04E-05
    6    -119.1408504853      4.00E-06 Convergence criterion met
 ---------------------------------------
 SCF time:  CPU 82.20 s  wall 27.79 s
 SCF   energy in the final basis set = -119.14085049
 Total energy in the final basis set = -119.14085049
 
 --------------------------------------------------------------
 
                    Orbital Energies (a.u.)
 --------------------------------------------------------------
 
 Alpha MOs
 -- Occupied --
-10.2739 -10.2659 -10.2659  -0.8822  -0.7776  -0.6780  -0.5473  -0.5253
 -0.4828  -0.4645  -0.4275  -0.4148  -0.3981
 -- Virtual --
  0.0693   0.0856   0.0910   0.0990   0.1250   0.1296   0.1329   0.1426
  0.1440   0.1711   0.1718   0.1915   0.2309   0.2379   0.2462   0.2609
  0.2813   0.2835   0.3106   0.3159   0.3313   0.3493   0.4584   0.4696
  0.4703   0.5084   0.5118   0.5184   0.5500   0.5599   0.5844   0.5880
  0.6250   0.6265   0.6346   0.6425   0.6457   0.6745   0.7108   0.7195
  0.7266   0.7670   0.8174   0.8538   0.8575   0.8836   0.8939   0.9610
  1.0064   1.0498   1.0551   1.1276   1.1360   1.1599   1.1983   1.2121
  1.2174   1.2377   1.2754   1.2903   1.2937   1.3077   1.3291   1.3694
  1.3786   1.3981   1.4033   1.4431   1.4534   1.4694   1.4784   1.4822
  1.5234   1.5751   1.6091   1.6322   1.6409   1.6448   1.6857   1.6865
  1.7493   2.3825   2.4666   2.4712   2.5127   2.5393   2.5615   2.6033
  2.6353   2.7140   2.8042   2.8161   2.8372   2.9142   2.9246   2.9261
  2.9275   2.9709   2.9987   3.0343   3.0527   3.0604   3.0777   3.1016
  3.1234   3.1257   3.1757   3.1910   3.2354   3.2386   3.2864   3.3040
  3.3269   3.3301   3.3425   3.3468   3.3845   3.3927   3.3935   3.4201
  3.4647   3.4950   3.5255   3.5268   3.5601   3.5771   3.6019   3.6202
  3.6216   3.6701   3.6973   3.6998   3.7636   3.7808   3.8390   3.8687
  3.9200   3.9341   3.9400   3.9573   3.9929   3.9977   4.0522   4.0571
  4.0855   4.1096   4.1123   4.1321   4.1507   4.1637   4.1917   4.2133
  4.2280   4.2502   4.2562   4.3515   4.3697   4.4062   4.4160   4.4328
  4.4531   4.5698   4.6185   4.6491   4.6602   4.7935   4.8247   4.8874
  4.9438   4.9608   4.9706   4.9818   5.0424   5.0634   5.0694   5.0827
  5.1512   5.2333   5.2467   5.2809   5.3216   5.3326   5.3344   5.3483
  5.3650   5.4174   5.4645   5.4738   5.5286   5.5984   5.6464   5.7473
  5.9693   6.3855   6.3855   6.3959   6.4085   6.4709  25.2014  25.4354
 25.4543
 --------------------------------------------------------------
 
 -----------------------------------------------------------------
                    Cartesian Multipole Moments
 -----------------------------------------------------------------
    Charge (ESU x 10^10)
                 0.0000
    Dipole Moment (Debye)
         X       0.0000      Y      -0.0000      Z      -0.0586
       Tot       0.0586
    Quadrupole Moments (Debye-Ang)
        XX     -22.1864     XY      -0.1481     YY     -21.2661
        XZ       0.0000     YZ      -0.0000     ZZ     -21.9465
    Octopole Moments (Debye-Ang^2)
       XXX      -0.0001    XXY      -0.0000    XYY       0.0001
       YYY       0.0000    XXZ      -0.8243    XYZ      -1.0577
       YYZ      -0.1770    XZZ      -0.0000    YZZ       0.0001
       ZZZ      -0.1298
    Hexadecapole Moments (Debye-Ang^3)
      XXXX    -150.8640   XXXY     -36.1486   XXYY     -40.3136
      XYYY     -37.6149   YYYY     -97.9038   XXXZ       0.0010
      XXYZ      -0.0000   XYYZ       0.0000   YYYZ      -0.0001
      XXZZ     -36.7555   XYZZ     -13.0896   YYZZ     -25.9120
      XZZZ       0.0006   YZZZ      -0.0000   ZZZZ     -72.3211
 -----------------------------------------------------------------
Archival summary:
1\1\cn0909\SP\ProcedureUnspecified\BasisUnspecified\38\r0852400\SunApr1213:22:142020SunApr1213:22:142020\0\\#,ProcedureUnspecified,BasisUnspecified,\\0,1\C\H,1,1.09259\H,1,1.09259,2,106.535\C,1,1.52405,2,116.152,3,-113.95,0\H,4,1.08732,1,108.58,2,-58.6828,0\H,4,1.09047,1,111.602,2,-176.896,0\H,4,1.09643,1,113.23,2,60.6904,0\C,1,1.52405,2,102.936,3,122.679,0\H,8,1.08732,1,108.581,2,-174.658,0\H,8,1.09047,1,111.601,2,67.1277,0\H,8,1.09643,1,113.23,2,-55.285,0\\\@

 Total job time:  41.43s(wall), 114.88s(cpu) 
 Sun Apr 12 13:22:14 2020

        *************************************************************
        *                                                           *
        *  Thank you very much for using Q-Chem.  Have a nice day.  *
        *                                                           *
        *************************************************************


