                  Welcome to Q-Chem
     A Quantum Leap Into The Future Of Chemistry


 Q-Chem 5.2 (devel), Q-Chem, Inc., Pleasanton, CA (2019)

 Yihan Shao,  Zhengting Gan,  E. Epifanovsky,  A. T. B. Gilbert,  M. Wormit,  
 J. Kussmann,  A. W. Lange,  A. Behn,  Jia Deng,  Xintian Feng,  D. Ghosh,  
 M. Goldey,  P. R. Horn,  L. D. Jacobson,  I. Kaliman,  T. Kus,  A. Landau,  
 Jie Liu,  E. I. Proynov,  R. M. Richard,  R. P. Steele,  E. J. Sundstrom,  
 H. L. Woodcock III,  P. M. Zimmerman,  D. Zuev,  B. Alam,  B. Albrecht,  
 E. Alguire,  S. A. Baeppler,  D. Barton,  Z. Benda,  Y. A. Bernard,  
 E. J. Berquist,  K. B. Bravaya,  H. Burton,  K. Carter-Fenk,  D. Casanova,  
 Chun-Min Chang,  Yunqing Chen,  A. Chien,  K. D. Closser,  M. P. Coons,  
 S. Coriani,  S. Dasgupta,  A. L. Dempwolff,  M. Diedenhofen,  Hainam Do,  
 R. G. Edgar,  Po-Tung Fang,  S. Faraji,  S. Fatehi,  Qingguo Feng,  
 J. Fosso-Tande,  J. Gayvert,  Qinghui Ge,  A. Ghysels,  G. Gidofalvi,  
 J. Gomes,  J. Gonthier,  A. Gunina,  D. Hait,  M. W. D. Hanson-Heine,  
 P. H. P. Harbach,  A. W. Hauser,  M. F. Herbst,  J. E. Herr,  
 E. G. Hohenstein,  Z. C. Holden,  Kerwin Hui,  B. C. Huynh,  T.-C. Jagau,  
 Hyunjun Ji,  B. Kaduk,  K. Khistyaev,  Jaehoon Kim,  P. Klunzinger,  K. Koh,  
 D. Kosenkov,  L. Koulias,  T. Kowalczyk,  C. M. Krauter,  A. Kunitsa,  
 Ka Un Lao,  A. Laurent,  K. V. Lawler,  Joonho Lee,  D. Lefrancois,  
 S. Lehtola,  D. S. Levine,  Yi-Pei Li,  You-Sheng Lin,  Fenglai Liu,  
 Kuan-Yu Liu,  E. Livshits,  M. Loipersberger,  A. Luenser,  P. Manohar,  
 E. Mansoor,  S. F. Manzer,  Shan-Ping Mao,  Yuezhi Mao,  N. Mardirossian,  
 A. V. Marenich,  T. Markovich,  L. A. Martinez-Martinez,  S. A. Maurer,  
 N. J. Mayhall,  S. C. McKenzie,  J.-M. Mewes,  P. Morgante,  A. F. Morrison,  
 J. W. Mullinax,  K. Nanda,  T. S. Nguyen-Beck,  R. Olivares-Amaya,  
 J. A. Parkhill,  S. K. Paul,  Zheng Pei,  T. M. Perrine,  F. Plasser,  
 P. Pokhilko,  S. Prager,  A. Prociuk,  E. Ramos,  B. Rana,  D. R. Rehn,  
 F. Rob,  M. Scheurer,  M. Schneider,  N. Sergueev,  S. M. Sharada,  
 S. Sharma,  D. W. Small,  T. Stauch,  C. J. Stein,  T. Stein,  Yu-Chuan Su,  
 S. P. Veccham,  A. J. W. Thom,  A. Tkatchenko,  T. Tsuchimochi,  
 N. M. Tubman,  L. Vogt,  M. L. Vidal,  O. Vydrov,  M. A. Watson,  J. Wenzel,  
 M. de Wergifosse,  T. A. Wesolowski,  A. White,  J. Witte,  A. Yamada,  
 Jun Yang,  K. Yao,  S. Yeganeh,  S. R. Yost,  Zhi-Qiang You,  A. Zech,  
 Igor Ying Zhang,  Xing Zhang,  Yan Zhao,  Ying Zhu,  B. R. Brooks,  
 G. K. L. Chan,  C. J. Cramer,  M. S. Gordon,  W. J. Hehre,  A. Klamt,  
 M. W. Schmidt,  C. D. Sherrill,  D. G. Truhlar,  A. Aspuru-Guzik,  R. Baer,  
 A. T. Bell,  N. A. Besley,  Jeng-Da Chai,  A. E. DePrince, III,  
 R. A. DiStasio Jr.,  A. Dreuw,  B. D. Dunietz,  T. R. Furlani,  
 Chao-Ping Hsu,  Yousung Jung,  Jing Kong,  D. S. Lambrecht,  WanZhen Liang,  
 C. Ochsenfeld,  V. A. Rassolov,  L. V. Slipchenko,  J. E. Subotnik,  
 T. Van Voorhis,  J. M. Herbert,  A. I. Krylov,  P. M. W. Gill,  M. Head-Gordon

 Contributors to earlier versions of Q-Chem not listed above: 
 R. D. Adamson,  B. Austin,  J. Baker,  G. J. O. Beran,  K. Brandhorst,  
 S. T. Brown,  E. F. C. Byrd,  A. K. Chakraborty,  C.-L. Cheng,  
 Siu Hung Chien,  D. M. Chipman,  D. L. Crittenden,  H. Dachsel,  
 R. J. Doerksen,  A. D. Dutoi,  L. Fusti-Molnar,  W. A. Goddard III,  
 A. Golubeva-Zadorozhnaya,  S. R. Gwaltney,  G. Hawkins,  A. Heyden,  
 S. Hirata,  G. Kedziora,  F. J. Keil,  C. Kelley,  Jihan Kim,  R. A. King,  
 R. Z. Khaliullin,  P. P. Korambath,  W. Kurlancheek,  A. M. Lee,  M. S. Lee,  
 S. V. Levchenko,  Ching Yeh Lin,  D. Liotard,  R. C. Lochan,  I. Lotan,  
 P. E. Maslen,  N. Nair,  D. P. O'Neill,  D. Neuhauser,  E. Neuscamman,  
 C. M. Oana,  R. Olson,  B. Peters,  R. Peverati,  P. A. Pieniazek,  
 Y. M. Rhee,  J. Ritchie,  M. A. Rohrdanz,  E. Rosta,  N. J. Russ,  
 H. F. Schaefer III,  N. E. Schultz,  N. Shenvi,  A. C. Simmonett,  A. Sodt,  
 D. Stuck,  K. S. Thanthiriwatte,  V. Vanovschi,  Tao Wang,  A. Warshel,  
 C. F. Williams,  Q. Wu,  X. Xu,  W. Zhang

 Please cite Q-Chem as follows:
 Y. Shao et al., Mol. Phys. 113, 184-215 (2015)
 DOI: 10.1080/00268976.2014.952696

 Q-Chem 5.2.2 for Intel X86 EM64T Linux

 Parts of Q-Chem use Armadillo 9.800.1 (Horizon Scraper).
 http://arma.sourceforge.net/

 Q-Chem begins on Sun Apr 12 06:28:31 2020  

Host: cn0913
0

     Scratch files written to /tmp/ypli/6721341.srvc1/qchem235169//
Warning:  Did not find "$end" marker in "$molecule" section

Checking the input file for inconsistencies... 	...done.

--------------------------------------------------------------
User input:
--------------------------------------------------------------
$rem
   JOBTYPE  sp
   EXCHANGE   omegaB97X-D
   BASIS   6-311+G(2df,2pd)
   max_scf_cycles   250
   geom_opt_max_cycles   1500
   basis2 6-31G*
   scf_algorithm rca_diis
   SYM_IGNORE  TRUE
   print_input   true
   geom_opt_dmax   80
   pop_mulliken false
   XC_GRID 000075000302
$end

$molecule
0 1
C       1.2373387099     -0.0000000038     0.2098345538
C       -0.1000909436     0.0000000011     -0.5810354669
H       1.3128202252     -0.8481769318     0.8977850116
H       1.3128202159     0.8481769244     0.8977850120
H       2.1631414561     0.0000000036     -0.3684721665
C       -1.3019737239     -0.0000000196     0.3069356989
H       0.0775218536     -0.8590730667     -1.2323447226
H       0.0775217616     0.8590730518     -1.2323447780
H       -1.3097637996     -0.9108366595     0.9038487435
H       -2.1595719847     0.0000007136     -0.3647956610
H       -1.3097638311     0.9108366530     0.9038487941
--------------------------------------------------------------
 ----------------------------------------------------------------
             Standard Nuclear Orientation (Angstroms)
    I     Atom           X                Y                Z
 ----------------------------------------------------------------
    1      C       1.2373387099    -0.0000000038     0.2098345538
    2      C      -0.1000909436     0.0000000011    -0.5810354669
    3      H       1.3128202252    -0.8481769318     0.8977850116
    4      H       1.3128202159     0.8481769244     0.8977850120
    5      H       2.1631414561     0.0000000036    -0.3684721665
    6      C      -1.3019737239    -0.0000000196     0.3069356989
    7      H       0.0775218536    -0.8590730667    -1.2323447226
    8      H       0.0775217616     0.8590730518    -1.2323447780
    9      H      -1.3097637996    -0.9108366595     0.9038487435
   10      H      -2.1595719847     0.0000007136    -0.3647956610
   11      H      -1.3097638311     0.9108366530     0.9038487941
 ----------------------------------------------------------------
 Nuclear Repulsion Energy =          82.78679389 hartrees
 There are       13 alpha and       13 beta electrons
 Requested basis set is 6-311+G(2df,2pd)
 There are 72 shells and 214 basis functions

 Total QAlloc Memory Limit   2000 MB
 Mega-Array Size       188 MB
 MEM_STATIC part       192 MB

                       Distance Matrix (Angstroms)
             C (  1)   C (  2)   H (  3)   H (  4)   H (  5)   C (  6)
   C (  2)  1.553768
   H (  3)  1.094704  2.214189
   H (  4)  1.094704  2.214189  1.696354
   H (  5)  1.091581  2.273192  1.745239  1.745239
   C (  6)  2.541168  1.494328  2.811700  2.811700  3.530326
   H (  7)  2.040358  1.092592  2.462424  2.996351  2.415386  2.238392
   H (  8)  2.040359  1.092592  2.996351  2.462424  2.415386  2.238392
   H (  9)  2.792671  2.120805  2.623339  3.157865  3.809133  1.089031
   H ( 10)  3.445171  2.070802  3.790913  3.790913  4.322715  1.089357
   H ( 11)  2.792671  2.120805  3.157865  2.623339  3.809133  1.089031
             H (  7)   H (  8)   H (  9)   H ( 10)
   H (  8)  1.718146
   H (  9)  2.547658  3.101687
   H ( 10)  2.548576  2.548575  1.777992
   H ( 11)  3.101687  2.547658  1.821673  1.777992
 
 A cutoff of  1.0D-09 yielded   2537 shell pairs
 There are     22597 function pairs (     27781 Cartesian)
 Smallest overlap matrix eigenvalue = 9.05E-05

 Scale SEOQF with 1.000000e-01/1.000000e-01/1.000000e-01

 Standard Electronic Orientation quadrupole field applied
 Nucleus-field energy     =     0.0000000006 hartrees
 Requested basis set is 6-31G(d)
 There are 28 shells and 58 basis functions
 A cutoff of  1.0D-09 yielded    402 shell pairs
 There are      1773 function pairs (      1968 Cartesian)
 Smallest overlap matrix eigenvalue = 6.82E-03
 Guess from superposition of atomic densities
 Warning:  Energy on first SCF cycle will be non-variational
 SAD guess density has 26.000000 electrons
 Long-range K will be added via erf
 Coulomb attenuation parameter = 0.2 bohr**(-1)
 A restricted hybrid HF-DFT SCF calculation will be
 performed using Relaxed Constraint Minimization + Pulay DIIS
 Exchange:     0.2220 Hartree-Fock + 1.0000 wB97X-D + LR-HF
 Correlation:  1.0000 wB97X-D
 Using Euler-Maclaurin-Lebedev (75,302) quadrature formula
 Dispersion:   Grimme D
 SCF converges when DIIS error is below 1.0E-04
 using 3 threads for integral computing
 -------------------------------------------------------
 OpenMP Integral computing Module                
 Release: version 1.0, May 2013, Q-Chem Inc. Pittsburgh 
 -------------------------------------------------------
 using 3 threads for integral computing
 -------------------------------------------------------
 OpenMP Integral computing Module                
 Release: version 1.0, May 2013, Q-Chem Inc. Pittsburgh 
 -------------------------------------------------------
 ---------------------------------------
  Cycle       Energy         DIIS Error
 ---------------------------------------
    1    -119.6319950570      1.01E-01
    2    -119.0539985545      9.01E-03
    3    -119.0751374474      2.49E-03
    4    -119.0890164325      1.70E-03
    5    -119.0897312293      2.72E-04 Done RCA. Switching to DIIS
    6    -119.0902546277      2.01E-04
    7    -119.0902721013      5.10E-06 Convergence criterion met
 ---------------------------------------
 SCF time:  CPU 23.17 s  wall 7.86 s
 SCF   energy in the small basis set = -119.09027210
 Total energy in the small basis set = -119.09027210
 ----------------------------------------------------
  Cycle       Energy    
 ----------------------------------------------------
    1     -16.5401285147     -1.65E+01
 Long-range K will be added via erf
 Coulomb attenuation parameter = 0.2 bohr**(-1)
 A restricted hybrid HF-DFT SCF calculation will be
 performed using Relaxed Constraint Minimization + Pulay DIIS
 Exchange:     0.2220 Hartree-Fock + 1.0000 wB97X-D + LR-HF
 Correlation:  1.0000 wB97X-D
 Using Euler-Maclaurin-Lebedev (75,302) quadrature formula
 Dispersion:   Grimme D
 SCF converges when DIIS error is below 1.0E-05
 Basis2 calculation detected. Using small basis as guess for larger.
 SCFMinFind is unable to tell whether the solution found is close.
 Resetting ReadMinima to 0 and attempting to follow guess.
 SCFMinFind following SCF Guess.
 using 3 threads for integral computing
 -------------------------------------------------------
 OpenMP Integral computing Module                
 Release: version 1.0, May 2013, Q-Chem Inc. Pittsburgh 
 -------------------------------------------------------
 using 3 threads for integral computing
 -------------------------------------------------------
 OpenMP Integral computing Module                
 Release: version 1.0, May 2013, Q-Chem Inc. Pittsburgh 
 -------------------------------------------------------
 ---------------------------------------
  Cycle       Energy         DIIS Error
 ---------------------------------------
    1    -119.1097836068      4.21E-03
    2    -119.1318374443      6.05E-04 Done RCA. Switching to DIIS
    3    -119.1326862329      4.26E-04
    4    -119.1336820082      4.54E-05
    5    -119.1336968039      9.88E-06 Convergence criterion met
 ---------------------------------------
 SCF time:  CPU 61.27 s  wall 20.62 s
 SCF   energy in the final basis set = -119.13369680
 Total energy in the final basis set = -119.13369680
 
 --------------------------------------------------------------
 
                    Orbital Energies (a.u.)
 --------------------------------------------------------------
 
 Alpha MOs
 -- Occupied --
-10.2747 -10.2692 -10.2622  -0.8835  -0.7793  -0.6790  -0.5467  -0.5244
 -0.4874  -0.4647  -0.4290  -0.4023  -0.4021
 -- Virtual --
  0.0687   0.0857   0.0908   0.0990   0.1246   0.1292   0.1327   0.1426
  0.1446   0.1661   0.1762   0.1914   0.2333   0.2369   0.2409   0.2700
  0.2802   0.2826   0.3021   0.3176   0.3291   0.3476   0.4578   0.4634
  0.4724   0.5120   0.5135   0.5221   0.5389   0.5723   0.5781   0.5906
  0.6241   0.6265   0.6402   0.6468   0.6534   0.6564   0.7111   0.7227
  0.7266   0.7672   0.8209   0.8652   0.8725   0.8730   0.8836   0.9604
  1.0036   1.0481   1.0516   1.1193   1.1413   1.1755   1.1839   1.2079
  1.2375   1.2395   1.2722   1.2877   1.2976   1.2985   1.3274   1.3741
  1.3849   1.3927   1.4089   1.4451   1.4555   1.4736   1.4852   1.5030
  1.5206   1.5907   1.5944   1.6241   1.6329   1.6351   1.6586   1.7008
  1.7273   2.3854   2.4625   2.4933   2.4954   2.5541   2.5801   2.6008
  2.6329   2.7146   2.8107   2.8218   2.8326   2.8915   2.8960   2.9271
  2.9679   2.9702   2.9980   3.0015   3.0279   3.0602   3.1010   3.1134
  3.1330   3.1333   3.1491   3.2088   3.2322   3.2604   3.2840   3.3086
  3.3196   3.3334   3.3353   3.3475   3.3848   3.3950   3.4254   3.4546
  3.4811   3.4937   3.4944   3.5358   3.5588   3.5776   3.5972   3.6122
  3.6344   3.6416   3.6686   3.6979   3.7409   3.8148   3.8226   3.8739
  3.8805   3.9086   3.9294   3.9387   3.9811   4.0021   4.0399   4.0428
  4.0684   4.1004   4.1124   4.1212   4.1622   4.1661   4.1730   4.1918
  4.2427   4.2582   4.3009   4.3796   4.4049   4.4062   4.4294   4.4638
  4.4649   4.5831   4.5834   4.6658   4.6762   4.7850   4.8128   4.8534
  4.9085   4.9426   4.9533   4.9566   5.0133   5.0405   5.0558   5.1131
  5.1346   5.2205   5.2257   5.2843   5.3258   5.3337   5.3369   5.3755
  5.4238   5.4788   5.4951   5.5455   5.5675   5.5966   5.6407   5.7484
  5.9913   6.3446   6.3916   6.4142   6.4257   6.5071  25.2009  25.4209
 25.4678
 --------------------------------------------------------------
 
 -----------------------------------------------------------------
                    Cartesian Multipole Moments
 -----------------------------------------------------------------
    Charge (ESU x 10^10)
                 0.0000
    Dipole Moment (Debye)
         X      -0.0411      Y       0.0000      Z      -0.0710
       Tot       0.0820
    Quadrupole Moments (Debye-Ang)
        XX     -22.1402     XY      -0.0000     YY     -21.4402
        XZ      -0.2584     YZ      -0.0000     ZZ     -21.9020
    Octopole Moments (Debye-Ang^2)
       XXX       2.6494    XXY       0.0000    XYY       0.1919
       YYY      -0.0000    XXZ      -1.6289    XYZ       0.0000
       YYZ       0.5743    XZZ       0.9652    YZZ      -0.0000
       ZZZ      -0.3272
    Hexadecapole Moments (Debye-Ang^3)
      XXXX    -203.6529   XXXY      -0.0000   XXYY     -42.3437
      XYYY       0.0000   YYYY     -44.0711   XXXZ       2.3770
      XXYZ      -0.0000   XYYZ      -0.2669   YYYZ      -0.0000
      XXZZ     -45.3557   XYZZ       0.0000   YYZZ     -17.1767
      XZZZ       1.0218   YZZZ      -0.0000   ZZZZ     -72.1513
 -----------------------------------------------------------------
Archival summary:
1\1\cn0913\SP\ProcedureUnspecified\BasisUnspecified\38\r0852400\SunApr1206:29:032020SunApr1206:29:032020\0\\#,ProcedureUnspecified,BasisUnspecified,\\0,1\C\H,1,1.09259\H,1,1.09259,2,103.677\C,1,1.49433,2,119.011,3,134.885,0\H,4,1.08903,1,109.357,2,53.5276,0\H,4,1.08903,1,109.357,2,178.398,0\H,4,1.08936,1,105.472,2,-64.0375,0\C,1,1.55377,2,99.4099,3,-102.175,0\H,8,1.09158,1,117.412,2,52.8441,0\H,8,1.0947,1,112.286,2,175.983,0\H,8,1.0947,1,112.286,2,-70.2949,0\\\@

 Total job time:  32.07s(wall), 88.80s(cpu) 
 Sun Apr 12 06:29:03 2020

        *************************************************************
        *                                                           *
        *  Thank you very much for using Q-Chem.  Have a nice day.  *
        *                                                           *
        *************************************************************


