                  Welcome to Q-Chem
     A Quantum Leap Into The Future Of Chemistry


 Q-Chem 5.2 (devel), Q-Chem, Inc., Pleasanton, CA (2019)

 Yihan Shao,  Zhengting Gan,  E. Epifanovsky,  A. T. B. Gilbert,  M. Wormit,  
 J. Kussmann,  A. W. Lange,  A. Behn,  Jia Deng,  Xintian Feng,  D. Ghosh,  
 M. Goldey,  P. R. Horn,  L. D. Jacobson,  I. Kaliman,  T. Kus,  A. Landau,  
 Jie Liu,  E. I. Proynov,  R. M. Richard,  R. P. Steele,  E. J. Sundstrom,  
 H. L. Woodcock III,  P. M. Zimmerman,  D. Zuev,  B. Alam,  B. Albrecht,  
 E. Alguire,  S. A. Baeppler,  D. Barton,  Z. Benda,  Y. A. Bernard,  
 E. J. Berquist,  K. B. Bravaya,  H. Burton,  K. Carter-Fenk,  D. Casanova,  
 Chun-Min Chang,  Yunqing Chen,  A. Chien,  K. D. Closser,  M. P. Coons,  
 S. Coriani,  S. Dasgupta,  A. L. Dempwolff,  M. Diedenhofen,  Hainam Do,  
 R. G. Edgar,  Po-Tung Fang,  S. Faraji,  S. Fatehi,  Qingguo Feng,  
 J. Fosso-Tande,  J. Gayvert,  Qinghui Ge,  A. Ghysels,  G. Gidofalvi,  
 J. Gomes,  J. Gonthier,  A. Gunina,  D. Hait,  M. W. D. Hanson-Heine,  
 P. H. P. Harbach,  A. W. Hauser,  M. F. Herbst,  J. E. Herr,  
 E. G. Hohenstein,  Z. C. Holden,  Kerwin Hui,  B. C. Huynh,  T.-C. Jagau,  
 Hyunjun Ji,  B. Kaduk,  K. Khistyaev,  Jaehoon Kim,  P. Klunzinger,  K. Koh,  
 D. Kosenkov,  L. Koulias,  T. Kowalczyk,  C. M. Krauter,  A. Kunitsa,  
 Ka Un Lao,  A. Laurent,  K. V. Lawler,  Joonho Lee,  D. Lefrancois,  
 S. Lehtola,  D. S. Levine,  Yi-Pei Li,  You-Sheng Lin,  Fenglai Liu,  
 Kuan-Yu Liu,  E. Livshits,  M. Loipersberger,  A. Luenser,  P. Manohar,  
 E. Mansoor,  S. F. Manzer,  Shan-Ping Mao,  Yuezhi Mao,  N. Mardirossian,  
 A. V. Marenich,  T. Markovich,  L. A. Martinez-Martinez,  S. A. Maurer,  
 N. J. Mayhall,  S. C. McKenzie,  J.-M. Mewes,  P. Morgante,  A. F. Morrison,  
 J. W. Mullinax,  K. Nanda,  T. S. Nguyen-Beck,  R. Olivares-Amaya,  
 J. A. Parkhill,  S. K. Paul,  Zheng Pei,  T. M. Perrine,  F. Plasser,  
 P. Pokhilko,  S. Prager,  A. Prociuk,  E. Ramos,  B. Rana,  D. R. Rehn,  
 F. Rob,  M. Scheurer,  M. Schneider,  N. Sergueev,  S. M. Sharada,  
 S. Sharma,  D. W. Small,  T. Stauch,  C. J. Stein,  T. Stein,  Yu-Chuan Su,  
 S. P. Veccham,  A. J. W. Thom,  A. Tkatchenko,  T. Tsuchimochi,  
 N. M. Tubman,  L. Vogt,  M. L. Vidal,  O. Vydrov,  M. A. Watson,  J. Wenzel,  
 M. de Wergifosse,  T. A. Wesolowski,  A. White,  J. Witte,  A. Yamada,  
 Jun Yang,  K. Yao,  S. Yeganeh,  S. R. Yost,  Zhi-Qiang You,  A. Zech,  
 Igor Ying Zhang,  Xing Zhang,  Yan Zhao,  Ying Zhu,  B. R. Brooks,  
 G. K. L. Chan,  C. J. Cramer,  M. S. Gordon,  W. J. Hehre,  A. Klamt,  
 M. W. Schmidt,  C. D. Sherrill,  D. G. Truhlar,  A. Aspuru-Guzik,  R. Baer,  
 A. T. Bell,  N. A. Besley,  Jeng-Da Chai,  A. E. DePrince, III,  
 R. A. DiStasio Jr.,  A. Dreuw,  B. D. Dunietz,  T. R. Furlani,  
 Chao-Ping Hsu,  Yousung Jung,  Jing Kong,  D. S. Lambrecht,  WanZhen Liang,  
 C. Ochsenfeld,  V. A. Rassolov,  L. V. Slipchenko,  J. E. Subotnik,  
 T. Van Voorhis,  J. M. Herbert,  A. I. Krylov,  P. M. W. Gill,  M. Head-Gordon

 Contributors to earlier versions of Q-Chem not listed above: 
 R. D. Adamson,  B. Austin,  J. Baker,  G. J. O. Beran,  K. Brandhorst,  
 S. T. Brown,  E. F. C. Byrd,  A. K. Chakraborty,  C.-L. Cheng,  
 Siu Hung Chien,  D. M. Chipman,  D. L. Crittenden,  H. Dachsel,  
 R. J. Doerksen,  A. D. Dutoi,  L. Fusti-Molnar,  W. A. Goddard III,  
 A. Golubeva-Zadorozhnaya,  S. R. Gwaltney,  G. Hawkins,  A. Heyden,  
 S. Hirata,  G. Kedziora,  F. J. Keil,  C. Kelley,  Jihan Kim,  R. A. King,  
 R. Z. Khaliullin,  P. P. Korambath,  W. Kurlancheek,  A. M. Lee,  M. S. Lee,  
 S. V. Levchenko,  Ching Yeh Lin,  D. Liotard,  R. C. Lochan,  I. Lotan,  
 P. E. Maslen,  N. Nair,  D. P. O'Neill,  D. Neuhauser,  E. Neuscamman,  
 C. M. Oana,  R. Olson,  B. Peters,  R. Peverati,  P. A. Pieniazek,  
 Y. M. Rhee,  J. Ritchie,  M. A. Rohrdanz,  E. Rosta,  N. J. Russ,  
 H. F. Schaefer III,  N. E. Schultz,  N. Shenvi,  A. C. Simmonett,  A. Sodt,  
 D. Stuck,  K. S. Thanthiriwatte,  V. Vanovschi,  Tao Wang,  A. Warshel,  
 C. F. Williams,  Q. Wu,  X. Xu,  W. Zhang

 Please cite Q-Chem as follows:
 Y. Shao et al., Mol. Phys. 113, 184-215 (2015)
 DOI: 10.1080/00268976.2014.952696

 Q-Chem 5.2.2 for Intel X86 EM64T Linux

 Parts of Q-Chem use Armadillo 9.800.1 (Horizon Scraper).
 http://arma.sourceforge.net/

 Q-Chem begins on Sun Apr 12 13:45:46 2020  

Host: cn0909
0

     Scratch files written to /tmp/ypli/6724609.srvc1/qchem75158//
Warning:  Did not find "$end" marker in "$molecule" section

Checking the input file for inconsistencies... 	...done.

--------------------------------------------------------------
User input:
--------------------------------------------------------------
$rem
   JOBTYPE  sp
   EXCHANGE   omegaB97X-D
   BASIS   6-311+G(2df,2pd)
   max_scf_cycles   250
   geom_opt_max_cycles   1500
   basis2 6-31G*
   scf_algorithm rca_diis
   SYM_IGNORE  TRUE
   print_input   true
   geom_opt_dmax   80
   pop_mulliken false
   XC_GRID 000075000302
$end

$molecule
0 1
C       1.2606703777     -0.2208760061     0.0709471583
C       -0.0000022946     0.6194477331     -0.0942307913
H       1.6657011040     0.1134244485     1.0323090207
H       2.0482245828     -0.1238146045     -0.6738560484
H       1.0215717603     -1.2798849531     0.1733258557
C       -1.2606708904     -0.2208837655     0.0709426756
H       -0.0000013032     0.8079198406     -1.1696592768
H       -0.0000064312     1.5949866291     0.3995107660
H       -1.6656745210     0.1133571268     1.0323359521
H       -1.0215663590     -1.2798984349     0.1732515496
H       -2.0482460860     -0.1237773480     -0.6738318424
--------------------------------------------------------------
 ----------------------------------------------------------------
             Standard Nuclear Orientation (Angstroms)
    I     Atom           X                Y                Z
 ----------------------------------------------------------------
    1      C       1.2606703777    -0.2208760061     0.0709471583
    2      C      -0.0000022946     0.6194477331    -0.0942307913
    3      H       1.6657011040     0.1134244485     1.0323090207
    4      H       2.0482245828    -0.1238146045    -0.6738560484
    5      H       1.0215717603    -1.2798849531     0.1733258557
    6      C      -1.2606708904    -0.2208837655     0.0709426756
    7      H      -0.0000013032     0.8079198406    -1.1696592768
    8      H      -0.0000064312     1.5949866291     0.3995107660
    9      H      -1.6656745210     0.1133571268     1.0323359521
   10      H      -1.0215663590    -1.2798984349     0.1732515496
   11      H      -2.0482460860    -0.1237773480    -0.6738318424
 ----------------------------------------------------------------
 Nuclear Repulsion Energy =          82.95985729 hartrees
 There are       13 alpha and       13 beta electrons
 Requested basis set is 6-311+G(2df,2pd)
 There are 72 shells and 214 basis functions

 Total QAlloc Memory Limit   2000 MB
 Mega-Array Size       188 MB
 MEM_STATIC part       192 MB

                       Distance Matrix (Angstroms)
             C (  1)   C (  2)   H (  3)   H (  4)   H (  5)   C (  6)
   C (  2)  1.524048
   H (  3)  1.095456  2.073576
   H (  4)  1.088299  2.254692  1.764541
   H (  5)  1.090481  2.173169  1.758996  1.763018
   C (  6)  2.521341  1.524049  3.098329  3.393072  2.518054
   H (  7)  2.046172  1.091819  2.847025  2.304166  2.684427  2.046172
   H (  8)  2.234864  1.093369  2.317335  2.881257  3.059357  2.234864
   H (  9)  3.098302  2.073582  3.331376  4.093945  3.146477  1.095455
   H ( 10)  2.518055  2.173167  3.146543  3.387881  2.043138  1.090482
   H ( 11)  3.393089  2.254689  4.093969  4.096471  3.387926  1.088298
             H (  7)   H (  8)   H (  9)   H ( 10)
   H (  8)  1.755497
   H (  9)  2.847045  2.317357
   H ( 10)  2.684397  3.059370  1.758995
   H ( 11)  2.304173  2.881232  1.764540  1.763019
 
 A cutoff of  1.0D-09 yielded   2532 shell pairs
 There are     22594 function pairs (     27805 Cartesian)
 Smallest overlap matrix eigenvalue = 8.52E-05

 Scale SEOQF with 1.000000e-01/1.000000e-01/1.000000e-01

 Standard Electronic Orientation quadrupole field applied
 Nucleus-field energy     =     0.0000000014 hartrees
 Requested basis set is 6-31G(d)
 There are 28 shells and 58 basis functions
 A cutoff of  1.0D-09 yielded    400 shell pairs
 There are      1771 function pairs (      1966 Cartesian)
 Smallest overlap matrix eigenvalue = 6.00E-03
 Guess from superposition of atomic densities
 Warning:  Energy on first SCF cycle will be non-variational
 SAD guess density has 26.000000 electrons
 Long-range K will be added via erf
 Coulomb attenuation parameter = 0.2 bohr**(-1)
 A restricted hybrid HF-DFT SCF calculation will be
 performed using Relaxed Constraint Minimization + Pulay DIIS
 Exchange:     0.2220 Hartree-Fock + 1.0000 wB97X-D + LR-HF
 Correlation:  1.0000 wB97X-D
 Using Euler-Maclaurin-Lebedev (75,302) quadrature formula
 Dispersion:   Grimme D
 SCF converges when DIIS error is below 1.0E-04
 using 3 threads for integral computing
 -------------------------------------------------------
 OpenMP Integral computing Module                
 Release: version 1.0, May 2013, Q-Chem Inc. Pittsburgh 
 -------------------------------------------------------
 using 3 threads for integral computing
 -------------------------------------------------------
 OpenMP Integral computing Module                
 Release: version 1.0, May 2013, Q-Chem Inc. Pittsburgh 
 -------------------------------------------------------
 ---------------------------------------
  Cycle       Energy         DIIS Error
 ---------------------------------------
    1    -119.6430441975      1.01E-01
    2    -119.0429243773      9.08E-03
    3    -119.0642450020      2.46E-03
    4    -119.0783334433      1.69E-03
    5    -119.0790356608      2.65E-04 Done RCA. Switching to DIIS
    6    -119.0795520154      1.98E-04
    7    -119.0795689195      4.64E-06 Convergence criterion met
 ---------------------------------------
 SCF time:  CPU 25.78 s  wall 8.88 s
 SCF   energy in the small basis set = -119.07956892
 Total energy in the small basis set = -119.07956892
 ----------------------------------------------------
  Cycle       Energy    
 ----------------------------------------------------
    1     -16.5475557722     -1.65E+01
 Long-range K will be added via erf
 Coulomb attenuation parameter = 0.2 bohr**(-1)
 A restricted hybrid HF-DFT SCF calculation will be
 performed using Relaxed Constraint Minimization + Pulay DIIS
 Exchange:     0.2220 Hartree-Fock + 1.0000 wB97X-D + LR-HF
 Correlation:  1.0000 wB97X-D
 Using Euler-Maclaurin-Lebedev (75,302) quadrature formula
 Dispersion:   Grimme D
 SCF converges when DIIS error is below 1.0E-05
 Basis2 calculation detected. Using small basis as guess for larger.
 SCFMinFind is unable to tell whether the solution found is close.
 Resetting ReadMinima to 0 and attempting to follow guess.
 SCFMinFind following SCF Guess.
 using 3 threads for integral computing
 -------------------------------------------------------
 OpenMP Integral computing Module                
 Release: version 1.0, May 2013, Q-Chem Inc. Pittsburgh 
 -------------------------------------------------------
 using 3 threads for integral computing
 -------------------------------------------------------
 OpenMP Integral computing Module                
 Release: version 1.0, May 2013, Q-Chem Inc. Pittsburgh 
 -------------------------------------------------------
 ---------------------------------------
  Cycle       Energy         DIIS Error
 ---------------------------------------
    1    -119.0995395853      4.21E-03
    2    -119.1215204259      6.08E-04 Done RCA. Switching to DIIS
    3    -119.1223614334      4.31E-04
    4    -119.1233806212      4.52E-05
    5    -119.1233954457      1.03E-05
    6    -119.1233961688      4.17E-06 Convergence criterion met
 ---------------------------------------
 SCF time:  CPU 83.46 s  wall 28.45 s
 SCF   energy in the final basis set = -119.12339617
 Total energy in the final basis set = -119.12339617
 
 --------------------------------------------------------------
 
                    Orbital Energies (a.u.)
 --------------------------------------------------------------
 
 Alpha MOs
 -- Occupied --
-10.2722 -10.2642 -10.2641  -0.8837  -0.7762  -0.6783  -0.5465  -0.5300
 -0.4796  -0.4662  -0.4345  -0.4111  -0.3805
 -- Virtual --
  0.0711   0.0876   0.0915   0.1025   0.1211   0.1302   0.1321   0.1322
  0.1424   0.1649   0.1746   0.1874   0.2023   0.2399   0.2694   0.2759
  0.2896   0.2917   0.3165   0.3262   0.3446   0.3689   0.4520   0.4773
  0.4906   0.5030   0.5149   0.5163   0.5267   0.5393   0.5401   0.5868
  0.6222   0.6274   0.6328   0.6434   0.6517   0.6575   0.6862   0.7083
  0.7415   0.7532   0.8760   0.8878   0.9107   0.9240   0.9412   0.9651
  0.9940   1.0047   1.0519   1.0811   1.1491   1.1932   1.2075   1.2293
  1.2408   1.2480   1.2572   1.2791   1.3019   1.3222   1.3475   1.3705
  1.3933   1.3978   1.4032   1.4322   1.4388   1.4843   1.4937   1.5127
  1.5134   1.5559   1.5729   1.5779   1.6366   1.6538   1.6651   1.6832
  1.7222   2.2590   2.3804   2.4327   2.4982   2.5225   2.6164   2.6179
  2.6665   2.7297   2.7830   2.8441   2.8457   2.9097   2.9261   2.9293
  2.9440   2.9608   2.9888   3.0038   3.0627   3.1050   3.1066   3.1278
  3.1549   3.1624   3.1774   3.2053   3.2092   3.2395   3.2456   3.2641
  3.2854   3.3073   3.3247   3.3656   3.3752   3.3959   3.3992   3.4415
  3.4447   3.4503   3.5325   3.5395   3.5740   3.5937   3.5981   3.6260
  3.6343   3.6577   3.7023   3.7117   3.7681   3.7743   3.8073   3.8121
  3.8653   3.9361   3.9561   3.9599   4.0036   4.0322   4.0436   4.0677
  4.1251   4.1378   4.1463   4.1501   4.1678   4.1798   4.2073   4.2280
  4.2783   4.2828   4.2929   4.3171   4.3735   4.4148   4.4297   4.4584
  4.4711   4.5182   4.5265   4.6069   4.6984   4.8092   4.8242   4.9151
  4.9314   4.9423   4.9760   4.9799   5.0228   5.0742   5.0806   5.1305
  5.1842   5.1903   5.2375   5.2564   5.2706   5.2941   5.3342   5.3531
  5.3728   5.4171   5.4206   5.4899   5.5286   5.5455   5.6183   5.7425
  5.9706   6.3594   6.3838   6.3936   6.4278   6.5102  25.0969  25.4342
 25.4370
 --------------------------------------------------------------
 
 -----------------------------------------------------------------
                    Cartesian Multipole Moments
 -----------------------------------------------------------------
    Charge (ESU x 10^10)
                -0.0000
    Dipole Moment (Debye)
         X       0.0000      Y       0.0724      Z      -0.0590
       Tot       0.0934
    Quadrupole Moments (Debye-Ang)
        XX     -22.3883     XY      -0.0000     YY     -21.5142
        XZ      -0.0000     YZ       0.5524     ZZ     -21.6348
    Octopole Moments (Debye-Ang^2)
       XXX      -0.0000    XXY      -0.0994    XYY       0.0000
       YYY      -2.4717    XXZ      -2.4263    XYZ       0.0000
       YYZ       0.4047    XZZ       0.0000    YZZ       0.1217
       ZZZ      -1.8362
    Hexadecapole Moments (Debye-Ang^3)
      XXXX    -203.2294   XXXY      -0.0004   XXYY     -46.7418
      XYYY      -0.0002   YYYY     -66.1357   XXXZ      -0.0001
      XXYZ       1.9096   XYYZ       0.0000   YYYZ       3.8282
      XXZZ     -39.3568   XYZZ      -0.0001   YYZZ     -20.0188
      XZZZ      -0.0003   YZZZ       3.2879   ZZZZ     -44.9510
 -----------------------------------------------------------------
Archival summary:
1\1\cn0909\SP\ProcedureUnspecified\BasisUnspecified\38\r0852400\SunApr1213:46:282020SunApr1213:46:282020\0\\#,ProcedureUnspecified,BasisUnspecified,\\0,1\C\H,1,1.09182\H,1,1.09337,2,106.905\C,1,1.52405,2,101.65,3,-122.373,0\H,4,1.0883,1,118.376,2,24.2861,0\H,4,1.09048,1,111.363,2,-101.802,0\H,4,1.09546,1,103.456,2,143.405,0\C,1,1.52405,2,101.65,3,122.373,0\H,8,1.0883,1,118.375,2,-24.2898,0\H,8,1.09048,1,111.362,2,101.798,0\H,8,1.09546,1,103.456,2,-143.409,0\\\@

 Total job time:  41.37s(wall), 114.09s(cpu) 
 Sun Apr 12 13:46:28 2020

        *************************************************************
        *                                                           *
        *  Thank you very much for using Q-Chem.  Have a nice day.  *
        *                                                           *
        *************************************************************


