                  Welcome to Q-Chem
     A Quantum Leap Into The Future Of Chemistry


 Q-Chem 5.2 (devel), Q-Chem, Inc., Pleasanton, CA (2019)

 Yihan Shao,  Zhengting Gan,  E. Epifanovsky,  A. T. B. Gilbert,  M. Wormit,  
 J. Kussmann,  A. W. Lange,  A. Behn,  Jia Deng,  Xintian Feng,  D. Ghosh,  
 M. Goldey,  P. R. Horn,  L. D. Jacobson,  I. Kaliman,  T. Kus,  A. Landau,  
 Jie Liu,  E. I. Proynov,  R. M. Richard,  R. P. Steele,  E. J. Sundstrom,  
 H. L. Woodcock III,  P. M. Zimmerman,  D. Zuev,  B. Alam,  B. Albrecht,  
 E. Alguire,  S. A. Baeppler,  D. Barton,  Z. Benda,  Y. A. Bernard,  
 E. J. Berquist,  K. B. Bravaya,  H. Burton,  K. Carter-Fenk,  D. Casanova,  
 Chun-Min Chang,  Yunqing Chen,  A. Chien,  K. D. Closser,  M. P. Coons,  
 S. Coriani,  S. Dasgupta,  A. L. Dempwolff,  M. Diedenhofen,  Hainam Do,  
 R. G. Edgar,  Po-Tung Fang,  S. Faraji,  S. Fatehi,  Qingguo Feng,  
 J. Fosso-Tande,  J. Gayvert,  Qinghui Ge,  A. Ghysels,  G. Gidofalvi,  
 J. Gomes,  J. Gonthier,  A. Gunina,  D. Hait,  M. W. D. Hanson-Heine,  
 P. H. P. Harbach,  A. W. Hauser,  M. F. Herbst,  J. E. Herr,  
 E. G. Hohenstein,  Z. C. Holden,  Kerwin Hui,  B. C. Huynh,  T.-C. Jagau,  
 Hyunjun Ji,  B. Kaduk,  K. Khistyaev,  Jaehoon Kim,  P. Klunzinger,  K. Koh,  
 D. Kosenkov,  L. Koulias,  T. Kowalczyk,  C. M. Krauter,  A. Kunitsa,  
 Ka Un Lao,  A. Laurent,  K. V. Lawler,  Joonho Lee,  D. Lefrancois,  
 S. Lehtola,  D. S. Levine,  Yi-Pei Li,  You-Sheng Lin,  Fenglai Liu,  
 Kuan-Yu Liu,  E. Livshits,  M. Loipersberger,  A. Luenser,  P. Manohar,  
 E. Mansoor,  S. F. Manzer,  Shan-Ping Mao,  Yuezhi Mao,  N. Mardirossian,  
 A. V. Marenich,  T. Markovich,  L. A. Martinez-Martinez,  S. A. Maurer,  
 N. J. Mayhall,  S. C. McKenzie,  J.-M. Mewes,  P. Morgante,  A. F. Morrison,  
 J. W. Mullinax,  K. Nanda,  T. S. Nguyen-Beck,  R. Olivares-Amaya,  
 J. A. Parkhill,  S. K. Paul,  Zheng Pei,  T. M. Perrine,  F. Plasser,  
 P. Pokhilko,  S. Prager,  A. Prociuk,  E. Ramos,  B. Rana,  D. R. Rehn,  
 F. Rob,  M. Scheurer,  M. Schneider,  N. Sergueev,  S. M. Sharada,  
 S. Sharma,  D. W. Small,  T. Stauch,  C. J. Stein,  T. Stein,  Yu-Chuan Su,  
 S. P. Veccham,  A. J. W. Thom,  A. Tkatchenko,  T. Tsuchimochi,  
 N. M. Tubman,  L. Vogt,  M. L. Vidal,  O. Vydrov,  M. A. Watson,  J. Wenzel,  
 M. de Wergifosse,  T. A. Wesolowski,  A. White,  J. Witte,  A. Yamada,  
 Jun Yang,  K. Yao,  S. Yeganeh,  S. R. Yost,  Zhi-Qiang You,  A. Zech,  
 Igor Ying Zhang,  Xing Zhang,  Yan Zhao,  Ying Zhu,  B. R. Brooks,  
 G. K. L. Chan,  C. J. Cramer,  M. S. Gordon,  W. J. Hehre,  A. Klamt,  
 M. W. Schmidt,  C. D. Sherrill,  D. G. Truhlar,  A. Aspuru-Guzik,  R. Baer,  
 A. T. Bell,  N. A. Besley,  Jeng-Da Chai,  A. E. DePrince, III,  
 R. A. DiStasio Jr.,  A. Dreuw,  B. D. Dunietz,  T. R. Furlani,  
 Chao-Ping Hsu,  Yousung Jung,  Jing Kong,  D. S. Lambrecht,  WanZhen Liang,  
 C. Ochsenfeld,  V. A. Rassolov,  L. V. Slipchenko,  J. E. Subotnik,  
 T. Van Voorhis,  J. M. Herbert,  A. I. Krylov,  P. M. W. Gill,  M. Head-Gordon

 Contributors to earlier versions of Q-Chem not listed above: 
 R. D. Adamson,  B. Austin,  J. Baker,  G. J. O. Beran,  K. Brandhorst,  
 S. T. Brown,  E. F. C. Byrd,  A. K. Chakraborty,  C.-L. Cheng,  
 Siu Hung Chien,  D. M. Chipman,  D. L. Crittenden,  H. Dachsel,  
 R. J. Doerksen,  A. D. Dutoi,  L. Fusti-Molnar,  W. A. Goddard III,  
 A. Golubeva-Zadorozhnaya,  S. R. Gwaltney,  G. Hawkins,  A. Heyden,  
 S. Hirata,  G. Kedziora,  F. J. Keil,  C. Kelley,  Jihan Kim,  R. A. King,  
 R. Z. Khaliullin,  P. P. Korambath,  W. Kurlancheek,  A. M. Lee,  M. S. Lee,  
 S. V. Levchenko,  Ching Yeh Lin,  D. Liotard,  R. C. Lochan,  I. Lotan,  
 P. E. Maslen,  N. Nair,  D. P. O'Neill,  D. Neuhauser,  E. Neuscamman,  
 C. M. Oana,  R. Olson,  B. Peters,  R. Peverati,  P. A. Pieniazek,  
 Y. M. Rhee,  J. Ritchie,  M. A. Rohrdanz,  E. Rosta,  N. J. Russ,  
 H. F. Schaefer III,  N. E. Schultz,  N. Shenvi,  A. C. Simmonett,  A. Sodt,  
 D. Stuck,  K. S. Thanthiriwatte,  V. Vanovschi,  Tao Wang,  A. Warshel,  
 C. F. Williams,  Q. Wu,  X. Xu,  W. Zhang

 Please cite Q-Chem as follows:
 Y. Shao et al., Mol. Phys. 113, 184-215 (2015)
 DOI: 10.1080/00268976.2014.952696

 Q-Chem 5.2.2 for Intel X86 EM64T Linux

 Parts of Q-Chem use Armadillo 9.800.1 (Horizon Scraper).
 http://arma.sourceforge.net/

 Q-Chem begins on Sun Apr 12 05:25:20 2020  

Host: cn0913
0

     Scratch files written to /tmp/ypli/6721341.srvc1/qchem223908//
Warning:  Did not find "$end" marker in "$molecule" section

Checking the input file for inconsistencies... 	...done.

--------------------------------------------------------------
User input:
--------------------------------------------------------------
$rem
   JOBTYPE  sp
   EXCHANGE   omegaB97X-D
   BASIS   6-311+G(2df,2pd)
   max_scf_cycles   250
   geom_opt_max_cycles   1500
   basis2 6-31G*
   scf_algorithm rca_diis
   SYM_IGNORE  TRUE
   print_input   true
   geom_opt_dmax   80
   pop_mulliken false
   XC_GRID 000075000302
$end

$molecule
0 1
C       1.1516673593     0.0000004971     0.2590661934
C       0.0000000661     -0.0000017107     -0.7214917565
H       1.0559206551     -0.8758920321     0.9048729840
H       1.0559170338     0.8758932855     0.9048721126
H       2.1522182713     0.0000028238     -0.1707399364
C       -1.1516671508     -0.0000002050     0.2590663223
H       -0.0000003550     -0.8802520041     -1.3668026050
H       0.0000001114     0.8802478733     -1.3668035645
H       -1.0559219614     -0.8758944157     0.9048710333
H       -2.1522180439     0.0000055880     -0.1707401209
H       -1.0559160465     0.8758909659     0.9048743565
--------------------------------------------------------------
 ----------------------------------------------------------------
             Standard Nuclear Orientation (Angstroms)
    I     Atom           X                Y                Z
 ----------------------------------------------------------------
    1      C       1.1516673593     0.0000004971     0.2590661934
    2      C       0.0000000661    -0.0000017107    -0.7214917565
    3      H       1.0559206551    -0.8758920321     0.9048729840
    4      H       1.0559170338     0.8758932855     0.9048721126
    5      H       2.1522182713     0.0000028238    -0.1707399364
    6      C      -1.1516671508    -0.0000002050     0.2590663223
    7      H      -0.0000003550    -0.8802520041    -1.3668026050
    8      H       0.0000001114     0.8802478733    -1.3668035645
    9      H      -1.0559219614    -0.8758944157     0.9048710333
   10      H      -2.1522180439     0.0000055880    -0.1707401209
   11      H      -1.0559160465     0.8758909659     0.9048743565
 ----------------------------------------------------------------
 Nuclear Repulsion Energy =          84.51916599 hartrees
 There are       13 alpha and       13 beta electrons
 Requested basis set is 6-311+G(2df,2pd)
 There are 72 shells and 214 basis functions

 Total QAlloc Memory Limit   2000 MB
 Mega-Array Size       188 MB
 MEM_STATIC part       192 MB

                       Distance Matrix (Angstroms)
             C (  1)   C (  2)   H (  3)   H (  4)   H (  5)   C (  6)
   C (  2)  1.512558
   H (  3)  1.092438  2.127725
   H (  4)  1.092438  2.127725  1.751785
   H (  5)  1.088961  2.221569  1.768051  1.768050
   C (  6)  2.303335  1.512558  2.461239  2.461236  3.331725
   H (  7)  2.178218  1.091452  2.505094  3.059332  2.614854  2.178217
   H (  8)  2.178216  1.091452  3.059332  2.505093  2.614850  2.178216
   H (  9)  2.461241  2.127725  2.111843  2.743834  3.495182  1.092438
   H ( 10)  3.331725  2.221569  3.495182  3.495175  4.304436  1.088961
   H ( 11)  2.461235  2.127725  2.743829  2.111833  3.495176  1.092438
             H (  7)   H (  8)   H (  9)   H ( 10)
   H (  8)  1.760500
   H (  9)  2.505093  3.059332
   H ( 10)  2.614854  2.614849  1.768051
   H ( 11)  3.059332  2.505095  1.751785  1.768050
 
 A cutoff of  1.0D-09 yielded   2555 shell pairs
 There are     22733 function pairs (     27960 Cartesian)
 Smallest overlap matrix eigenvalue = 7.97E-05

 Scale SEOQF with 1.000000e-01/1.000000e-01/1.000000e-01

 Standard Electronic Orientation quadrupole field applied
 Nucleus-field energy     =     0.0000000002 hartrees
 Requested basis set is 6-31G(d)
 There are 28 shells and 58 basis functions
 A cutoff of  1.0D-09 yielded    402 shell pairs
 There are      1773 function pairs (      1968 Cartesian)
 Smallest overlap matrix eigenvalue = 6.79E-03
 Guess from superposition of atomic densities
 Warning:  Energy on first SCF cycle will be non-variational
 SAD guess density has 26.000000 electrons
 Long-range K will be added via erf
 Coulomb attenuation parameter = 0.2 bohr**(-1)
 A restricted hybrid HF-DFT SCF calculation will be
 performed using Relaxed Constraint Minimization + Pulay DIIS
 Exchange:     0.2220 Hartree-Fock + 1.0000 wB97X-D + LR-HF
 Correlation:  1.0000 wB97X-D
 Using Euler-Maclaurin-Lebedev (75,302) quadrature formula
 Dispersion:   Grimme D
 SCF converges when DIIS error is below 1.0E-04
 using 3 threads for integral computing
 -------------------------------------------------------
 OpenMP Integral computing Module                
 Release: version 1.0, May 2013, Q-Chem Inc. Pittsburgh 
 -------------------------------------------------------
 using 3 threads for integral computing
 -------------------------------------------------------
 OpenMP Integral computing Module                
 Release: version 1.0, May 2013, Q-Chem Inc. Pittsburgh 
 -------------------------------------------------------
 ---------------------------------------
  Cycle       Energy         DIIS Error
 ---------------------------------------
    1    -119.7006065127      1.02E-01
    2    -119.0550470272      9.19E-03
    3    -119.0765562283      2.41E-03
    4    -119.0914372109      1.65E-03
    5    -119.0920902810      2.39E-04 Done RCA. Switching to DIIS
    6    -119.0925875670      1.76E-04
    7    -119.0926009666      5.09E-06 Convergence criterion met
 ---------------------------------------
 SCF time:  CPU 22.86 s  wall 7.75 s
 SCF   energy in the small basis set = -119.09260097
 Total energy in the small basis set = -119.09260097
 ----------------------------------------------------
  Cycle       Energy    
 ----------------------------------------------------
    1     -16.5599639763     -1.66E+01
 Long-range K will be added via erf
 Coulomb attenuation parameter = 0.2 bohr**(-1)
 A restricted hybrid HF-DFT SCF calculation will be
 performed using Relaxed Constraint Minimization + Pulay DIIS
 Exchange:     0.2220 Hartree-Fock + 1.0000 wB97X-D + LR-HF
 Correlation:  1.0000 wB97X-D
 Using Euler-Maclaurin-Lebedev (75,302) quadrature formula
 Dispersion:   Grimme D
 SCF converges when DIIS error is below 1.0E-05
 Basis2 calculation detected. Using small basis as guess for larger.
 SCFMinFind is unable to tell whether the solution found is close.
 Resetting ReadMinima to 0 and attempting to follow guess.
 SCFMinFind following SCF Guess.
 using 3 threads for integral computing
 -------------------------------------------------------
 OpenMP Integral computing Module                
 Release: version 1.0, May 2013, Q-Chem Inc. Pittsburgh 
 -------------------------------------------------------
 using 3 threads for integral computing
 -------------------------------------------------------
 OpenMP Integral computing Module                
 Release: version 1.0, May 2013, Q-Chem Inc. Pittsburgh 
 -------------------------------------------------------
 ---------------------------------------
  Cycle       Energy         DIIS Error
 ---------------------------------------
    1    -119.1121879196      4.21E-03
    2    -119.1341231115      6.08E-04 Done RCA. Switching to DIIS
    3    -119.1349182147      4.41E-04
    4    -119.1359778000      4.59E-05
    5    -119.1359927659      7.98E-06 Convergence criterion met
 ---------------------------------------
 SCF time:  CPU 61.54 s  wall 20.72 s
 SCF   energy in the final basis set = -119.13599277
 Total energy in the final basis set = -119.13599277
 
 --------------------------------------------------------------
 
                    Orbital Energies (a.u.)
 --------------------------------------------------------------
 
 Alpha MOs
 -- Occupied --
-10.2735 -10.2633 -10.2633  -0.8945  -0.7651  -0.6846  -0.5547  -0.5356
 -0.4686  -0.4505  -0.4333  -0.4156  -0.4071
 -- Virtual --
  0.0716   0.0842   0.0879   0.0987   0.1266   0.1324   0.1347   0.1377
  0.1380   0.1693   0.1700   0.1948   0.2155   0.2472   0.2619   0.2705
  0.2769   0.2908   0.3177   0.3190   0.3365   0.3529   0.4650   0.4711
  0.4737   0.4941   0.4948   0.5151   0.5406   0.5725   0.5878   0.5941
  0.6313   0.6320   0.6348   0.6512   0.6612   0.6683   0.7118   0.7236
  0.7377   0.7772   0.8198   0.8341   0.8987   0.9102   0.9127   0.9243
  1.0286   1.0525   1.0805   1.0813   1.1719   1.1823   1.2120   1.2296
  1.2310   1.2455   1.2598   1.2857   1.3040   1.3210   1.3572   1.3841
  1.4108   1.4145   1.4271   1.4324   1.4344   1.4418   1.4745   1.5021
  1.5071   1.5702   1.5893   1.6100   1.6507   1.6783   1.7373   1.7432
  1.7527   2.4449   2.4509   2.4885   2.5157   2.5224   2.5542   2.6016
  2.6674   2.7316   2.8073   2.8320   2.8638   2.9135   2.9211   2.9227
  2.9307   2.9346   2.9838   2.9984   3.0395   3.0551   3.0783   3.1173
  3.1386   3.1422   3.1804   3.2233   3.2429   3.2712   3.2962   3.3109
  3.3263   3.3362   3.3561   3.3625   3.3977   3.4084   3.4170   3.4482
  3.4690   3.4839   3.5160   3.5325   3.5863   3.5877   3.6117   3.6135
  3.6323   3.6355   3.7162   3.7606   3.8051   3.8139   3.8561   3.8755
  3.9532   3.9672   3.9729   3.9843   4.0046   4.0485   4.0617   4.0691
  4.1070   4.1307   4.1339   4.1570   4.1718   4.1869   4.1942   4.2309
  4.2422   4.3104   4.3414   4.3821   4.3851   4.4210   4.4450   4.4454
  4.4496   4.5741   4.6199   4.6336   4.6423   4.8484   4.8660   4.9198
  4.9201   4.9507   4.9693   5.0373   5.0539   5.0688   5.0781   5.0903
  5.1202   5.2735   5.2923   5.2932   5.3190   5.3668   5.3742   5.3748
  5.3982   5.4284   5.4974   5.5009   5.5895   5.6452   5.7049   5.7254
  5.9770   6.3883   6.4122   6.4362   6.4645   6.4761  25.1866  25.4495
 25.4747
 --------------------------------------------------------------
 
 -----------------------------------------------------------------
                    Cartesian Multipole Moments
 -----------------------------------------------------------------
    Charge (ESU x 10^10)
                 0.0000
    Dipole Moment (Debye)
         X      -0.0000      Y       0.0000      Z      -0.0472
       Tot       0.0472
    Quadrupole Moments (Debye-Ang)
        XX     -22.4889     XY      -0.0000     YY     -21.2933
        XZ      -0.0000     YZ      -0.0000     ZZ     -21.8019
    Octopole Moments (Debye-Ang^2)
       XXX      -0.0000    XXY       0.0000    XYY      -0.0000
       YYY       0.0000    XXZ      -0.6824    XYZ       0.0000
       YYZ       0.8436    XZZ      -0.0000    YZZ       0.0000
       ZZZ       1.0028
    Hexadecapole Moments (Debye-Ang^3)
      XXXX    -170.9794   XXXY      -0.0000   XXYY     -38.0428
      XYYY      -0.0000   YYYY     -43.7731   XXXZ       0.0000
      XXYZ      -0.0000   XYYZ       0.0000   YYYZ      -0.0000
      XXZZ     -43.0489   XYZZ      -0.0000   YYZZ     -18.0136
      XZZZ       0.0000   YZZZ      -0.0000   ZZZZ     -78.9737
 -----------------------------------------------------------------
Archival summary:
1\1\cn0913\SP\ProcedureUnspecified\BasisUnspecified\38\r0852400\SunApr1205:25:522020SunApr1205:25:522020\0\\#,ProcedureUnspecified,BasisUnspecified,\\0,1\C\H,1,1.09145\H,1,1.09145,2,107.51\C,1,1.51256,2,112.537,3,124.476,0\H,4,1.08896,1,116.341,2,-60.8303,0\H,4,1.09244,1,108.452,2,176.866,0\H,4,1.09244,1,108.451,2,61.4732,0\C,1,1.51256,2,112.538,3,-124.476,0\H,8,1.08896,1,116.341,2,60.8301,0\H,8,1.09244,1,108.452,2,-176.866,0\H,8,1.09244,1,108.452,2,-61.4733,0\\\@

 Total job time:  31.77s(wall), 88.48s(cpu) 
 Sun Apr 12 05:25:52 2020

        *************************************************************
        *                                                           *
        *  Thank you very much for using Q-Chem.  Have a nice day.  *
        *                                                           *
        *************************************************************


