                  Welcome to Q-Chem
     A Quantum Leap Into The Future Of Chemistry


 Q-Chem 5.2 (devel), Q-Chem, Inc., Pleasanton, CA (2019)

 Yihan Shao,  Zhengting Gan,  E. Epifanovsky,  A. T. B. Gilbert,  M. Wormit,  
 J. Kussmann,  A. W. Lange,  A. Behn,  Jia Deng,  Xintian Feng,  D. Ghosh,  
 M. Goldey,  P. R. Horn,  L. D. Jacobson,  I. Kaliman,  T. Kus,  A. Landau,  
 Jie Liu,  E. I. Proynov,  R. M. Richard,  R. P. Steele,  E. J. Sundstrom,  
 H. L. Woodcock III,  P. M. Zimmerman,  D. Zuev,  B. Alam,  B. Albrecht,  
 E. Alguire,  S. A. Baeppler,  D. Barton,  Z. Benda,  Y. A. Bernard,  
 E. J. Berquist,  K. B. Bravaya,  H. Burton,  K. Carter-Fenk,  D. Casanova,  
 Chun-Min Chang,  Yunqing Chen,  A. Chien,  K. D. Closser,  M. P. Coons,  
 S. Coriani,  S. Dasgupta,  A. L. Dempwolff,  M. Diedenhofen,  Hainam Do,  
 R. G. Edgar,  Po-Tung Fang,  S. Faraji,  S. Fatehi,  Qingguo Feng,  
 J. Fosso-Tande,  J. Gayvert,  Qinghui Ge,  A. Ghysels,  G. Gidofalvi,  
 J. Gomes,  J. Gonthier,  A. Gunina,  D. Hait,  M. W. D. Hanson-Heine,  
 P. H. P. Harbach,  A. W. Hauser,  M. F. Herbst,  J. E. Herr,  
 E. G. Hohenstein,  Z. C. Holden,  Kerwin Hui,  B. C. Huynh,  T.-C. Jagau,  
 Hyunjun Ji,  B. Kaduk,  K. Khistyaev,  Jaehoon Kim,  P. Klunzinger,  K. Koh,  
 D. Kosenkov,  L. Koulias,  T. Kowalczyk,  C. M. Krauter,  A. Kunitsa,  
 Ka Un Lao,  A. Laurent,  K. V. Lawler,  Joonho Lee,  D. Lefrancois,  
 S. Lehtola,  D. S. Levine,  Yi-Pei Li,  You-Sheng Lin,  Fenglai Liu,  
 Kuan-Yu Liu,  E. Livshits,  M. Loipersberger,  A. Luenser,  P. Manohar,  
 E. Mansoor,  S. F. Manzer,  Shan-Ping Mao,  Yuezhi Mao,  N. Mardirossian,  
 A. V. Marenich,  T. Markovich,  L. A. Martinez-Martinez,  S. A. Maurer,  
 N. J. Mayhall,  S. C. McKenzie,  J.-M. Mewes,  P. Morgante,  A. F. Morrison,  
 J. W. Mullinax,  K. Nanda,  T. S. Nguyen-Beck,  R. Olivares-Amaya,  
 J. A. Parkhill,  S. K. Paul,  Zheng Pei,  T. M. Perrine,  F. Plasser,  
 P. Pokhilko,  S. Prager,  A. Prociuk,  E. Ramos,  B. Rana,  D. R. Rehn,  
 F. Rob,  M. Scheurer,  M. Schneider,  N. Sergueev,  S. M. Sharada,  
 S. Sharma,  D. W. Small,  T. Stauch,  C. J. Stein,  T. Stein,  Yu-Chuan Su,  
 S. P. Veccham,  A. J. W. Thom,  A. Tkatchenko,  T. Tsuchimochi,  
 N. M. Tubman,  L. Vogt,  M. L. Vidal,  O. Vydrov,  M. A. Watson,  J. Wenzel,  
 M. de Wergifosse,  T. A. Wesolowski,  A. White,  J. Witte,  A. Yamada,  
 Jun Yang,  K. Yao,  S. Yeganeh,  S. R. Yost,  Zhi-Qiang You,  A. Zech,  
 Igor Ying Zhang,  Xing Zhang,  Yan Zhao,  Ying Zhu,  B. R. Brooks,  
 G. K. L. Chan,  C. J. Cramer,  M. S. Gordon,  W. J. Hehre,  A. Klamt,  
 M. W. Schmidt,  C. D. Sherrill,  D. G. Truhlar,  A. Aspuru-Guzik,  R. Baer,  
 A. T. Bell,  N. A. Besley,  Jeng-Da Chai,  A. E. DePrince, III,  
 R. A. DiStasio Jr.,  A. Dreuw,  B. D. Dunietz,  T. R. Furlani,  
 Chao-Ping Hsu,  Yousung Jung,  Jing Kong,  D. S. Lambrecht,  WanZhen Liang,  
 C. Ochsenfeld,  V. A. Rassolov,  L. V. Slipchenko,  J. E. Subotnik,  
 T. Van Voorhis,  J. M. Herbert,  A. I. Krylov,  P. M. W. Gill,  M. Head-Gordon

 Contributors to earlier versions of Q-Chem not listed above: 
 R. D. Adamson,  B. Austin,  J. Baker,  G. J. O. Beran,  K. Brandhorst,  
 S. T. Brown,  E. F. C. Byrd,  A. K. Chakraborty,  C.-L. Cheng,  
 Siu Hung Chien,  D. M. Chipman,  D. L. Crittenden,  H. Dachsel,  
 R. J. Doerksen,  A. D. Dutoi,  L. Fusti-Molnar,  W. A. Goddard III,  
 A. Golubeva-Zadorozhnaya,  S. R. Gwaltney,  G. Hawkins,  A. Heyden,  
 S. Hirata,  G. Kedziora,  F. J. Keil,  C. Kelley,  Jihan Kim,  R. A. King,  
 R. Z. Khaliullin,  P. P. Korambath,  W. Kurlancheek,  A. M. Lee,  M. S. Lee,  
 S. V. Levchenko,  Ching Yeh Lin,  D. Liotard,  R. C. Lochan,  I. Lotan,  
 P. E. Maslen,  N. Nair,  D. P. O'Neill,  D. Neuhauser,  E. Neuscamman,  
 C. M. Oana,  R. Olson,  B. Peters,  R. Peverati,  P. A. Pieniazek,  
 Y. M. Rhee,  J. Ritchie,  M. A. Rohrdanz,  E. Rosta,  N. J. Russ,  
 H. F. Schaefer III,  N. E. Schultz,  N. Shenvi,  A. C. Simmonett,  A. Sodt,  
 D. Stuck,  K. S. Thanthiriwatte,  V. Vanovschi,  Tao Wang,  A. Warshel,  
 C. F. Williams,  Q. Wu,  X. Xu,  W. Zhang

 Please cite Q-Chem as follows:
 Y. Shao et al., Mol. Phys. 113, 184-215 (2015)
 DOI: 10.1080/00268976.2014.952696

 Q-Chem 5.2.2 for Intel X86 EM64T Linux

 Parts of Q-Chem use Armadillo 9.800.1 (Horizon Scraper).
 http://arma.sourceforge.net/

 Q-Chem begins on Sun Apr 12 07:29:11 2020  

Host: cn0913
0

     Scratch files written to /tmp/ypli/6721341.srvc1/qchem246359//
Warning:  Did not find "$end" marker in "$molecule" section

Checking the input file for inconsistencies... 	...done.

--------------------------------------------------------------
User input:
--------------------------------------------------------------
$rem
   JOBTYPE  sp
   EXCHANGE   omegaB97X-D
   BASIS   6-311+G(2df,2pd)
   max_scf_cycles   250
   geom_opt_max_cycles   1500
   basis2 6-31G*
   scf_algorithm rca_diis
   SYM_IGNORE  TRUE
   print_input   true
   geom_opt_dmax   80
   pop_mulliken false
   XC_GRID 000075000302
$end

$molecule
0 1
C       1.2541320362     -0.0000008005     0.2724295780
C       -0.0039495204     -0.0000007605     -0.5872400398
H       1.2907650658     -0.8597327152     0.8979787359
H       1.2907651152     0.8597341492     0.8979806710
H       2.2086519514     -0.0000005502     -0.3808321791
C       -1.2801439841     -0.0000007727     0.2464075064
H       -0.0000322184     -0.8738700256     -1.2430536209
H       -0.0000322500     0.8738706749     -1.2430549622
H       -1.3197090833     -0.9014786852     0.9096497462
H       -2.1207380596     0.0000001356     -0.3388719615
H       -1.3197091134     0.9014800162     0.9096515448
--------------------------------------------------------------
 ----------------------------------------------------------------
             Standard Nuclear Orientation (Angstroms)
    I     Atom           X                Y                Z
 ----------------------------------------------------------------
    1      C       1.2541320362    -0.0000008005     0.2724295780
    2      C      -0.0039495204    -0.0000007605    -0.5872400398
    3      H       1.2907650658    -0.8597327152     0.8979787359
    4      H       1.2907651152     0.8597341492     0.8979806710
    5      H       2.2086519514    -0.0000005502    -0.3808321791
    6      C      -1.2801439841    -0.0000007727     0.2464075064
    7      H      -0.0000322184    -0.8738700256    -1.2430536209
    8      H      -0.0000322500     0.8738706749    -1.2430549622
    9      H      -1.3197090833    -0.9014786852     0.9096497462
   10      H      -2.1207380596     0.0000001356    -0.3388719615
   11      H      -1.3197091134     0.9014800162     0.9096515448
 ----------------------------------------------------------------
 Nuclear Repulsion Energy =          82.76129523 hartrees
 There are       13 alpha and       13 beta electrons
 Requested basis set is 6-311+G(2df,2pd)
 There are 72 shells and 214 basis functions

 Total QAlloc Memory Limit   2000 MB
 Mega-Array Size       188 MB
 MEM_STATIC part       192 MB

                       Distance Matrix (Angstroms)
             C (  1)   C (  2)   H (  3)   H (  4)   H (  5)   C (  6)
   C (  2)  1.523746
   H (  3)  1.063857  2.149721
   H (  4)  1.063861  2.149723  1.719467
   H (  5)  1.156659  2.222208  1.793603  1.793606
   C (  6)  2.534410  1.524349  2.788056  2.788058  3.544732
   H (  7)  2.152502  1.092591  2.500075  3.042297  2.526927  2.149611
   H (  8)  2.152504  1.092593  3.042296  2.500078  2.526928  2.149613
   H (  9)  2.800602  2.187365  2.610834  3.149061  3.863591  1.119874
   H ( 10)  3.429787  2.131310  3.729248  3.729249  4.329593  1.024280
   H ( 11)  2.800603  2.187367  3.149060  2.610834  3.863593  1.119878
             H (  7)   H (  8)   H (  9)   H ( 10)
   H (  8)  1.747741
   H (  9)  2.525162  3.086673
   H ( 10)  2.465479  2.465480  1.735834
   H ( 11)  3.086674  2.525164  1.802959  1.735835
 
 A cutoff of  1.0D-09 yielded   2533 shell pairs
 There are     22585 function pairs (     27769 Cartesian)
 Smallest overlap matrix eigenvalue = 8.68E-05

 Scale SEOQF with 1.000000e-01/1.000000e-01/1.000000e-01

 Standard Electronic Orientation quadrupole field applied
 Nucleus-field energy     =     0.0000000006 hartrees
 Requested basis set is 6-31G(d)
 There are 28 shells and 58 basis functions
 A cutoff of  1.0D-09 yielded    402 shell pairs
 There are      1773 function pairs (      1968 Cartesian)
 Smallest overlap matrix eigenvalue = 6.78E-03
 Guess from superposition of atomic densities
 Warning:  Energy on first SCF cycle will be non-variational
 SAD guess density has 26.000000 electrons
 Long-range K will be added via erf
 Coulomb attenuation parameter = 0.2 bohr**(-1)
 A restricted hybrid HF-DFT SCF calculation will be
 performed using Relaxed Constraint Minimization + Pulay DIIS
 Exchange:     0.2220 Hartree-Fock + 1.0000 wB97X-D + LR-HF
 Correlation:  1.0000 wB97X-D
 Using Euler-Maclaurin-Lebedev (75,302) quadrature formula
 Dispersion:   Grimme D
 SCF converges when DIIS error is below 1.0E-04
 using 3 threads for integral computing
 -------------------------------------------------------
 OpenMP Integral computing Module                
 Release: version 1.0, May 2013, Q-Chem Inc. Pittsburgh 
 -------------------------------------------------------
 using 3 threads for integral computing
 -------------------------------------------------------
 OpenMP Integral computing Module                
 Release: version 1.0, May 2013, Q-Chem Inc. Pittsburgh 
 -------------------------------------------------------
 ---------------------------------------
  Cycle       Energy         DIIS Error
 ---------------------------------------
    1    -119.6173985977      1.01E-01
    2    -119.0589444200      9.06E-03
    3    -119.0803453624      2.48E-03
    4    -119.0944516100      1.69E-03
    5    -119.0951588269      2.69E-04 Done RCA. Switching to DIIS
    6    -119.0956773775      1.98E-04
    7    -119.0956944858      4.69E-06 Convergence criterion met
 ---------------------------------------
 SCF time:  CPU 22.99 s  wall 7.80 s
 SCF   energy in the small basis set = -119.09569449
 Total energy in the small basis set = -119.09569449
 ----------------------------------------------------
  Cycle       Energy    
 ----------------------------------------------------
    1     -16.5423045185     -1.65E+01
 Long-range K will be added via erf
 Coulomb attenuation parameter = 0.2 bohr**(-1)
 A restricted hybrid HF-DFT SCF calculation will be
 performed using Relaxed Constraint Minimization + Pulay DIIS
 Exchange:     0.2220 Hartree-Fock + 1.0000 wB97X-D + LR-HF
 Correlation:  1.0000 wB97X-D
 Using Euler-Maclaurin-Lebedev (75,302) quadrature formula
 Dispersion:   Grimme D
 SCF converges when DIIS error is below 1.0E-05
 Basis2 calculation detected. Using small basis as guess for larger.
 SCFMinFind is unable to tell whether the solution found is close.
 Resetting ReadMinima to 0 and attempting to follow guess.
 SCFMinFind following SCF Guess.
 using 3 threads for integral computing
 -------------------------------------------------------
 OpenMP Integral computing Module                
 Release: version 1.0, May 2013, Q-Chem Inc. Pittsburgh 
 -------------------------------------------------------
 using 3 threads for integral computing
 -------------------------------------------------------
 OpenMP Integral computing Module                
 Release: version 1.0, May 2013, Q-Chem Inc. Pittsburgh 
 -------------------------------------------------------
 ---------------------------------------
  Cycle       Energy         DIIS Error
 ---------------------------------------
    1    -119.1150826371      4.21E-03
    2    -119.1371162977      5.95E-04 Done RCA. Switching to DIIS
    3    -119.1379430693      4.17E-04
    4    -119.1388952650      4.55E-05
    5    -119.1389099923      9.98E-06 Convergence criterion met
 ---------------------------------------
 SCF time:  CPU 59.45 s  wall 20.01 s
 SCF   energy in the final basis set = -119.13890999
 Total energy in the final basis set = -119.13890999
 
 --------------------------------------------------------------
 
                    Orbital Energies (a.u.)
 --------------------------------------------------------------
 
 Alpha MOs
 -- Occupied --
-10.2745 -10.2655 -10.2640  -0.8817  -0.7783  -0.6785  -0.5462  -0.5256
 -0.4819  -0.4640  -0.4218  -0.4142  -0.4074
 -- Virtual --
  0.0690   0.0858   0.0909   0.0990   0.1250   0.1299   0.1334   0.1425
  0.1431   0.1702   0.1720   0.1912   0.2293   0.2377   0.2473   0.2642
  0.2804   0.2862   0.3107   0.3132   0.3352   0.3505   0.4581   0.4656
  0.4713   0.5098   0.5132   0.5179   0.5454   0.5614   0.5784   0.5897
  0.6186   0.6280   0.6409   0.6424   0.6569   0.6618   0.7102   0.7252
  0.7314   0.7672   0.8214   0.8648   0.8679   0.8729   0.8809   0.9585
  1.0010   1.0524   1.0574   1.1324   1.1451   1.1818   1.1825   1.2134
  1.2331   1.2333   1.2687   1.2773   1.2848   1.2923   1.3267   1.3696
  1.3809   1.3881   1.4113   1.4464   1.4637   1.4711   1.4782   1.4805
  1.5222   1.5745   1.6051   1.6195   1.6427   1.6596   1.6938   1.6938
  1.7459   2.3739   2.4276   2.4810   2.5265   2.5439   2.5655   2.6038
  2.6288   2.7156   2.8219   2.8320   2.8394   2.9098   2.9238   2.9280
  2.9338   2.9422   2.9996   3.0113   3.0531   3.0749   3.0782   3.1014
  3.1323   3.1359   3.1869   3.1880   3.2047   3.2295   3.2792   3.3081
  3.3238   3.3300   3.3389   3.3583   3.3662   3.3676   3.3960   3.4495
  3.4714   3.4750   3.4847   3.5139   3.5616   3.5683   3.6065   3.6133
  3.6282   3.6685   3.6917   3.7146   3.7753   3.7910   3.8787   3.8857
  3.9393   3.9419   3.9502   3.9605   3.9672   3.9943   4.0418   4.0735
  4.0778   4.1009   4.1138   4.1378   4.1556   4.1588   4.1949   4.2016
  4.2188   4.2433   4.2620   4.3662   4.3979   4.4054   4.4119   4.4277
  4.4343   4.5730   4.5842   4.6050   4.6670   4.8033   4.8125   4.8908
  4.9233   4.9312   4.9565   4.9726   5.0314   5.0348   5.0739   5.1018
  5.1337   5.2509   5.2564   5.2588   5.3173   5.3583   5.3688   5.3796
  5.4260   5.4337   5.4715   5.5317   5.5707   5.5843   5.6443   5.7435
  5.9525   6.3188   6.3258   6.4395   6.4698   6.4852  25.2040  25.4303
 25.4466
 --------------------------------------------------------------
 
 -----------------------------------------------------------------
                    Cartesian Multipole Moments
 -----------------------------------------------------------------
    Charge (ESU x 10^10)
                 0.0000
    Dipole Moment (Debye)
         X      -0.0826      Y      -0.0000      Z      -0.0831
       Tot       0.1172
    Quadrupole Moments (Debye-Ang)
        XX     -22.1985     XY      -0.0000     YY     -21.3625
        XZ       0.1295     YZ      -0.0000     ZZ     -21.8344
    Octopole Moments (Debye-Ang^2)
       XXX      -0.4558    XXY      -0.0000    XYY      -0.0367
       YYY       0.0000    XXZ      -1.5441    XYZ       0.0000
       YYZ       0.4883    XZZ       0.1140    YZZ       0.0000
       ZZZ      -0.4016
    Hexadecapole Moments (Debye-Ang^3)
      XXXX    -202.6627   XXXY      -0.0000   XXYY     -42.2722
      XYYY       0.0000   YYYY     -44.1463   XXXZ       0.6671
      XXYZ      -0.0000   XYYZ       0.2284   YYYZ      -0.0000
      XXZZ     -45.3471   XYZZ       0.0000   YYZZ     -17.0690
      XZZZ       0.8756   YZZZ      -0.0000   ZZZZ     -72.1938
 -----------------------------------------------------------------
Archival summary:
1\1\cn0913\SP\ProcedureUnspecified\BasisUnspecified\38\r0852400\SunApr1207:29:422020SunApr1207:29:422020\0\\#,ProcedureUnspecified,BasisUnspecified,\\0,1\C\H,1,1.09259\H,1,1.09259,2,106.225\C,1,1.52375,2,109.614,3,-118.349,0\H,4,1.06386,1,111.111,2,-61.8606,0\H,4,1.06386,1,111.111,2,178.084,0\H,4,1.15666,1,111.267,2,58.112,0\C,1,1.52435,2,109.346,3,117.892,0\H,8,1.02428,1,111.998,2,-57.9598,0\H,8,1.11987,1,110.7,2,62.6638,0\H,8,1.11988,1,110.7,2,-178.583,0\\\@

 Total job time:  31.18s(wall), 86.59s(cpu) 
 Sun Apr 12 07:29:42 2020

        *************************************************************
        *                                                           *
        *  Thank you very much for using Q-Chem.  Have a nice day.  *
        *                                                           *
        *************************************************************


