                  Welcome to Q-Chem
     A Quantum Leap Into The Future Of Chemistry


 Q-Chem 5.2 (devel), Q-Chem, Inc., Pleasanton, CA (2019)

 Yihan Shao,  Zhengting Gan,  E. Epifanovsky,  A. T. B. Gilbert,  M. Wormit,  
 J. Kussmann,  A. W. Lange,  A. Behn,  Jia Deng,  Xintian Feng,  D. Ghosh,  
 M. Goldey,  P. R. Horn,  L. D. Jacobson,  I. Kaliman,  T. Kus,  A. Landau,  
 Jie Liu,  E. I. Proynov,  R. M. Richard,  R. P. Steele,  E. J. Sundstrom,  
 H. L. Woodcock III,  P. M. Zimmerman,  D. Zuev,  B. Alam,  B. Albrecht,  
 E. Alguire,  S. A. Baeppler,  D. Barton,  Z. Benda,  Y. A. Bernard,  
 E. J. Berquist,  K. B. Bravaya,  H. Burton,  K. Carter-Fenk,  D. Casanova,  
 Chun-Min Chang,  Yunqing Chen,  A. Chien,  K. D. Closser,  M. P. Coons,  
 S. Coriani,  S. Dasgupta,  A. L. Dempwolff,  M. Diedenhofen,  Hainam Do,  
 R. G. Edgar,  Po-Tung Fang,  S. Faraji,  S. Fatehi,  Qingguo Feng,  
 J. Fosso-Tande,  J. Gayvert,  Qinghui Ge,  A. Ghysels,  G. Gidofalvi,  
 J. Gomes,  J. Gonthier,  A. Gunina,  D. Hait,  M. W. D. Hanson-Heine,  
 P. H. P. Harbach,  A. W. Hauser,  M. F. Herbst,  J. E. Herr,  
 E. G. Hohenstein,  Z. C. Holden,  Kerwin Hui,  B. C. Huynh,  T.-C. Jagau,  
 Hyunjun Ji,  B. Kaduk,  K. Khistyaev,  Jaehoon Kim,  P. Klunzinger,  K. Koh,  
 D. Kosenkov,  L. Koulias,  T. Kowalczyk,  C. M. Krauter,  A. Kunitsa,  
 Ka Un Lao,  A. Laurent,  K. V. Lawler,  Joonho Lee,  D. Lefrancois,  
 S. Lehtola,  D. S. Levine,  Yi-Pei Li,  You-Sheng Lin,  Fenglai Liu,  
 Kuan-Yu Liu,  E. Livshits,  M. Loipersberger,  A. Luenser,  P. Manohar,  
 E. Mansoor,  S. F. Manzer,  Shan-Ping Mao,  Yuezhi Mao,  N. Mardirossian,  
 A. V. Marenich,  T. Markovich,  L. A. Martinez-Martinez,  S. A. Maurer,  
 N. J. Mayhall,  S. C. McKenzie,  J.-M. Mewes,  P. Morgante,  A. F. Morrison,  
 J. W. Mullinax,  K. Nanda,  T. S. Nguyen-Beck,  R. Olivares-Amaya,  
 J. A. Parkhill,  S. K. Paul,  Zheng Pei,  T. M. Perrine,  F. Plasser,  
 P. Pokhilko,  S. Prager,  A. Prociuk,  E. Ramos,  B. Rana,  D. R. Rehn,  
 F. Rob,  M. Scheurer,  M. Schneider,  N. Sergueev,  S. M. Sharada,  
 S. Sharma,  D. W. Small,  T. Stauch,  C. J. Stein,  T. Stein,  Yu-Chuan Su,  
 S. P. Veccham,  A. J. W. Thom,  A. Tkatchenko,  T. Tsuchimochi,  
 N. M. Tubman,  L. Vogt,  M. L. Vidal,  O. Vydrov,  M. A. Watson,  J. Wenzel,  
 M. de Wergifosse,  T. A. Wesolowski,  A. White,  J. Witte,  A. Yamada,  
 Jun Yang,  K. Yao,  S. Yeganeh,  S. R. Yost,  Zhi-Qiang You,  A. Zech,  
 Igor Ying Zhang,  Xing Zhang,  Yan Zhao,  Ying Zhu,  B. R. Brooks,  
 G. K. L. Chan,  C. J. Cramer,  M. S. Gordon,  W. J. Hehre,  A. Klamt,  
 M. W. Schmidt,  C. D. Sherrill,  D. G. Truhlar,  A. Aspuru-Guzik,  R. Baer,  
 A. T. Bell,  N. A. Besley,  Jeng-Da Chai,  A. E. DePrince, III,  
 R. A. DiStasio Jr.,  A. Dreuw,  B. D. Dunietz,  T. R. Furlani,  
 Chao-Ping Hsu,  Yousung Jung,  Jing Kong,  D. S. Lambrecht,  WanZhen Liang,  
 C. Ochsenfeld,  V. A. Rassolov,  L. V. Slipchenko,  J. E. Subotnik,  
 T. Van Voorhis,  J. M. Herbert,  A. I. Krylov,  P. M. W. Gill,  M. Head-Gordon

 Contributors to earlier versions of Q-Chem not listed above: 
 R. D. Adamson,  B. Austin,  J. Baker,  G. J. O. Beran,  K. Brandhorst,  
 S. T. Brown,  E. F. C. Byrd,  A. K. Chakraborty,  C.-L. Cheng,  
 Siu Hung Chien,  D. M. Chipman,  D. L. Crittenden,  H. Dachsel,  
 R. J. Doerksen,  A. D. Dutoi,  L. Fusti-Molnar,  W. A. Goddard III,  
 A. Golubeva-Zadorozhnaya,  S. R. Gwaltney,  G. Hawkins,  A. Heyden,  
 S. Hirata,  G. Kedziora,  F. J. Keil,  C. Kelley,  Jihan Kim,  R. A. King,  
 R. Z. Khaliullin,  P. P. Korambath,  W. Kurlancheek,  A. M. Lee,  M. S. Lee,  
 S. V. Levchenko,  Ching Yeh Lin,  D. Liotard,  R. C. Lochan,  I. Lotan,  
 P. E. Maslen,  N. Nair,  D. P. O'Neill,  D. Neuhauser,  E. Neuscamman,  
 C. M. Oana,  R. Olson,  B. Peters,  R. Peverati,  P. A. Pieniazek,  
 Y. M. Rhee,  J. Ritchie,  M. A. Rohrdanz,  E. Rosta,  N. J. Russ,  
 H. F. Schaefer III,  N. E. Schultz,  N. Shenvi,  A. C. Simmonett,  A. Sodt,  
 D. Stuck,  K. S. Thanthiriwatte,  V. Vanovschi,  Tao Wang,  A. Warshel,  
 C. F. Williams,  Q. Wu,  X. Xu,  W. Zhang

 Please cite Q-Chem as follows:
 Y. Shao et al., Mol. Phys. 113, 184-215 (2015)
 DOI: 10.1080/00268976.2014.952696

 Q-Chem 5.2.2 for Intel X86 EM64T Linux

 Parts of Q-Chem use Armadillo 9.800.1 (Horizon Scraper).
 http://arma.sourceforge.net/

 Q-Chem begins on Sun Apr 12 13:36:37 2020  

Host: cn0909
0

     Scratch files written to /tmp/ypli/6724609.srvc1/qchem73680//
Warning:  Did not find "$end" marker in "$molecule" section

Checking the input file for inconsistencies... 	...done.

--------------------------------------------------------------
User input:
--------------------------------------------------------------
$rem
   JOBTYPE  sp
   EXCHANGE   omegaB97X-D
   BASIS   6-311+G(2df,2pd)
   max_scf_cycles   250
   geom_opt_max_cycles   1500
   basis2 6-31G*
   scf_algorithm rca_diis
   SYM_IGNORE  TRUE
   print_input   true
   geom_opt_dmax   80
   pop_mulliken false
   XC_GRID 000075000302
$end

$molecule
0 1
C       1.2599937969     0.2273706654     0.0544508537
C       -0.0000026432     -0.6238684578     -0.0481686348
H       1.9860007899     0.1878747001     -0.7550792987
H       1.7448722690     -0.1558865316     0.9591296894
H       1.0174613930     1.2743225146     0.2394399092
C       -1.2599926674     0.2273801233     0.0544446071
H       -0.0000071241     -1.5677086607     0.5038392149
H       -0.0000008661     -0.8758390484     -1.1104730871
H       -1.9860232096     0.1878317903     -0.7550627069
H       -1.0174557771     1.2743431474     0.2393626339
H       -1.7448460219     -0.1558195766     0.9591618381
--------------------------------------------------------------
 ----------------------------------------------------------------
             Standard Nuclear Orientation (Angstroms)
    I     Atom           X                Y                Z
 ----------------------------------------------------------------
    1      C       1.2599937969     0.2273706654     0.0544508537
    2      C      -0.0000026432    -0.6238684578    -0.0481686348
    3      H       1.9860007899     0.1878747001    -0.7550792987
    4      H       1.7448722690    -0.1558865316     0.9591296894
    5      H       1.0174613930     1.2743225146     0.2394399092
    6      C      -1.2599926674     0.2273801233     0.0544446071
    7      H      -0.0000071241    -1.5677086607     0.5038392149
    8      H      -0.0000008661    -0.8758390484    -1.1104730871
    9      H      -1.9860232096     0.1878317903    -0.7550627069
   10      H      -1.0174557771     1.2743431474     0.2393626339
   11      H      -1.7448460219    -0.1558195766     0.9591618381
 ----------------------------------------------------------------
 Nuclear Repulsion Energy =          82.96242537 hartrees
 There are       13 alpha and       13 beta electrons
 Requested basis set is 6-311+G(2df,2pd)
 There are 72 shells and 214 basis functions

 Total QAlloc Memory Limit   2000 MB
 Mega-Array Size       188 MB
 MEM_STATIC part       192 MB

                       Distance Matrix (Angstroms)
             C (  1)   C (  2)   H (  3)   H (  4)   H (  5)   C (  6)
   C (  2)  1.524050
   H (  3)  1.088111  2.258951
   H (  4)  1.095645  2.068392  1.764887
   H (  5)  1.090482  2.172805  1.762812  1.758573
   C (  6)  2.519986  1.524050  3.345648  3.161418  2.513386
   H (  7)  2.238719  1.093411  2.934481  2.290226  3.030229  2.238719
   H (  8)  2.040026  1.091778  2.280788  2.801101  2.735085  2.040026
   H (  9)  3.345669  2.258945  3.972024  4.120216  3.345208  1.088111
   H ( 10)  2.513388  2.172807  3.345158  3.192817  2.034917  1.090482
   H ( 11)  3.161392  2.068396  4.120190  3.489718  3.192749  1.095645
             H (  7)   H (  8)   H (  9)   H ( 10)
   H (  8)  1.756328
   H (  9)  2.934453  2.280789
   H ( 10)  3.030249  2.735060  1.762814
   H ( 11)  2.290243  2.801125  1.764888  1.758571
 
 A cutoff of  1.0D-09 yielded   2527 shell pairs
 There are     22541 function pairs (     27739 Cartesian)
 Smallest overlap matrix eigenvalue = 8.50E-05

 Scale SEOQF with 1.000000e-01/1.000000e-01/1.000000e-01

 Standard Electronic Orientation quadrupole field applied
 Nucleus-field energy     =     0.0000000014 hartrees
 Requested basis set is 6-31G(d)
 There are 28 shells and 58 basis functions
 A cutoff of  1.0D-09 yielded    401 shell pairs
 There are      1772 function pairs (      1967 Cartesian)
 Smallest overlap matrix eigenvalue = 5.91E-03
 Guess from superposition of atomic densities
 Warning:  Energy on first SCF cycle will be non-variational
 SAD guess density has 26.000000 electrons
 Long-range K will be added via erf
 Coulomb attenuation parameter = 0.2 bohr**(-1)
 A restricted hybrid HF-DFT SCF calculation will be
 performed using Relaxed Constraint Minimization + Pulay DIIS
 Exchange:     0.2220 Hartree-Fock + 1.0000 wB97X-D + LR-HF
 Correlation:  1.0000 wB97X-D
 Using Euler-Maclaurin-Lebedev (75,302) quadrature formula
 Dispersion:   Grimme D
 SCF converges when DIIS error is below 1.0E-04
 using 3 threads for integral computing
 -------------------------------------------------------
 OpenMP Integral computing Module                
 Release: version 1.0, May 2013, Q-Chem Inc. Pittsburgh 
 -------------------------------------------------------
 using 3 threads for integral computing
 -------------------------------------------------------
 OpenMP Integral computing Module                
 Release: version 1.0, May 2013, Q-Chem Inc. Pittsburgh 
 -------------------------------------------------------
 ---------------------------------------
  Cycle       Energy         DIIS Error
 ---------------------------------------
    1    -119.6452957228      1.01E-01
    2    -119.0397556199      9.11E-03
    3    -119.0612003982      2.45E-03
    4    -119.0754223185      1.69E-03
    5    -119.0761206973      2.64E-04 Done RCA. Switching to DIIS
    6    -119.0766348438      1.97E-04
    7    -119.0766515561      4.62E-06 Convergence criterion met
 ---------------------------------------
 SCF time:  CPU 26.42 s  wall 9.22 s
 SCF   energy in the small basis set = -119.07665156
 Total energy in the small basis set = -119.07665156
 ----------------------------------------------------
  Cycle       Energy    
 ----------------------------------------------------
    1     -16.5485399428     -1.65E+01
 Long-range K will be added via erf
 Coulomb attenuation parameter = 0.2 bohr**(-1)
 A restricted hybrid HF-DFT SCF calculation will be
 performed using Relaxed Constraint Minimization + Pulay DIIS
 Exchange:     0.2220 Hartree-Fock + 1.0000 wB97X-D + LR-HF
 Correlation:  1.0000 wB97X-D
 Using Euler-Maclaurin-Lebedev (75,302) quadrature formula
 Dispersion:   Grimme D
 SCF converges when DIIS error is below 1.0E-05
 Basis2 calculation detected. Using small basis as guess for larger.
 SCFMinFind is unable to tell whether the solution found is close.
 Resetting ReadMinima to 0 and attempting to follow guess.
 SCFMinFind following SCF Guess.
 using 3 threads for integral computing
 -------------------------------------------------------
 OpenMP Integral computing Module                
 Release: version 1.0, May 2013, Q-Chem Inc. Pittsburgh 
 -------------------------------------------------------
 using 3 threads for integral computing
 -------------------------------------------------------
 OpenMP Integral computing Module                
 Release: version 1.0, May 2013, Q-Chem Inc. Pittsburgh 
 -------------------------------------------------------
 ---------------------------------------
  Cycle       Energy         DIIS Error
 ---------------------------------------
    1    -119.0967117150      4.21E-03
    2    -119.1186953937      6.11E-04 Done RCA. Switching to DIIS
    3    -119.1195391933      4.34E-04
    4    -119.1205726570      4.51E-05
    5    -119.1205875249      1.01E-05
    6    -119.1205882386      4.14E-06 Convergence criterion met
 ---------------------------------------
 SCF time:  CPU 80.26 s  wall 27.25 s
 SCF   energy in the final basis set = -119.12058824
 Total energy in the final basis set = -119.12058824
 
 --------------------------------------------------------------
 
                    Orbital Energies (a.u.)
 --------------------------------------------------------------
 
 Alpha MOs
 -- Occupied --
-10.2719 -10.2637 -10.2637  -0.8837  -0.7762  -0.6781  -0.5462  -0.5298
 -0.4826  -0.4649  -0.4347  -0.4075  -0.3804
 -- Virtual --
  0.0714   0.0879   0.0913   0.1027   0.1207   0.1301   0.1311   0.1324
  0.1418   0.1643   0.1750   0.1882   0.1993   0.2400   0.2680   0.2775
  0.2903   0.2937   0.3183   0.3211   0.3424   0.3708   0.4518   0.4771
  0.4940   0.5056   0.5140   0.5237   0.5237   0.5332   0.5405   0.5798
  0.6229   0.6247   0.6302   0.6413   0.6520   0.6618   0.6827   0.7084
  0.7400   0.7501   0.8751   0.8915   0.9282   0.9306   0.9534   0.9773
  1.0052   1.0129   1.0394   1.0538   1.1478   1.1832   1.2017   1.2191
  1.2439   1.2513   1.2640   1.2662   1.3077   1.3252   1.3537   1.3712
  1.3976   1.4008   1.4097   1.4334   1.4479   1.4825   1.4858   1.5099
  1.5165   1.5482   1.5795   1.5795   1.6348   1.6562   1.6630   1.6720
  1.7155   2.2508   2.3570   2.4345   2.4844   2.5319   2.6139   2.6396
  2.6686   2.7191   2.7959   2.8400   2.8749   2.9095   2.9224   2.9288
  2.9398   2.9693   2.9857   3.0167   3.0539   3.1125   3.1135   3.1529
  3.1584   3.1672   3.1845   3.1962   3.2010   3.2157   3.2416   3.2567
  3.2793   3.3021   3.3273   3.3545   3.3724   3.3839   3.4122   3.4299
  3.4538   3.4569   3.5318   3.5513   3.5779   3.5848   3.5951   3.6240
  3.6347   3.6655   3.7050   3.7192   3.7608   3.7660   3.7817   3.7957
  3.8763   3.9351   3.9580   3.9588   3.9837   4.0412   4.0415   4.0688
  4.1328   4.1394   4.1421   4.1531   4.1599   4.1915   4.1938   4.2422
  4.2751   4.2774   4.2996   4.3233   4.3768   4.3996   4.4454   4.4502
  4.4822   4.5163   4.5263   4.6094   4.7078   4.8241   4.8242   4.9227
  4.9291   4.9293   4.9760   4.9804   5.0249   5.0690   5.1072   5.1431
  5.1771   5.1939   5.2282   5.2492   5.2702   5.2962   5.3425   5.3699
  5.3830   5.4066   5.4076   5.4979   5.5399   5.5461   5.6056   5.7429
  5.9859   6.3507   6.3841   6.4017   6.4308   6.5125  25.0839  25.4407
 25.4408
 --------------------------------------------------------------
 
 -----------------------------------------------------------------
                    Cartesian Multipole Moments
 -----------------------------------------------------------------
    Charge (ESU x 10^10)
                -0.0000
    Dipole Moment (Debye)
         X       0.0000      Y      -0.0931      Z      -0.0588
       Tot       0.1101
    Quadrupole Moments (Debye-Ang)
        XX     -22.4940     XY       0.0000     YY     -21.5535
        XZ      -0.0000     YZ      -0.5502     ZZ     -21.5137
    Octopole Moments (Debye-Ang^2)
       XXX      -0.0000    XXY       0.0364    XYY       0.0000
       YYY       2.3507    XXZ      -2.3439    XYZ      -0.0001
       YYZ       0.5558    XZZ       0.0000    YZZ      -0.2019
       ZZZ      -2.2583
    Hexadecapole Moments (Debye-Ang^3)
      XXXX    -205.1153   XXXY       0.0004   XXYY     -46.7847
      XYYY       0.0002   YYYY     -67.4302   XXXZ      -0.0002
      XXYZ      -2.0442   XYYZ       0.0000   YYYZ      -2.8369
      XXZZ     -38.8209   XYZZ       0.0001   YYZZ     -19.6772
      XZZZ      -0.0004   YZZZ      -2.3521   ZZZZ     -44.2964
 -----------------------------------------------------------------
Archival summary:
1\1\cn0909\SP\ProcedureUnspecified\BasisUnspecified\38\r0852400\SunApr1213:37:172020SunApr1213:37:172020\0\\#,ProcedureUnspecified,BasisUnspecified,\\0,1\C\H,1,1.09178\H,1,1.09341,2,106.978\C,1,1.52405,2,101.211,3,-122.561,0\H,4,1.08811,1,118.766,2,16.1756,0\H,4,1.09048,1,111.333,2,-110.223,0\H,4,1.09565,1,103.068,2,135.265,0\C,1,1.52405,2,101.211,3,122.561,0\H,8,1.08811,1,118.767,2,-16.1715,0\H,8,1.09048,1,111.333,2,110.227,0\H,8,1.09564,1,103.067,2,-135.261,0\\\@

 Total job time:  40.24s(wall), 111.26s(cpu) 
 Sun Apr 12 13:37:17 2020

        *************************************************************
        *                                                           *
        *  Thank you very much for using Q-Chem.  Have a nice day.  *
        *                                                           *
        *************************************************************


