                  Welcome to Q-Chem
     A Quantum Leap Into The Future Of Chemistry


 Q-Chem 5.2 (devel), Q-Chem, Inc., Pleasanton, CA (2019)

 Yihan Shao,  Zhengting Gan,  E. Epifanovsky,  A. T. B. Gilbert,  M. Wormit,  
 J. Kussmann,  A. W. Lange,  A. Behn,  Jia Deng,  Xintian Feng,  D. Ghosh,  
 M. Goldey,  P. R. Horn,  L. D. Jacobson,  I. Kaliman,  T. Kus,  A. Landau,  
 Jie Liu,  E. I. Proynov,  R. M. Richard,  R. P. Steele,  E. J. Sundstrom,  
 H. L. Woodcock III,  P. M. Zimmerman,  D. Zuev,  B. Alam,  B. Albrecht,  
 E. Alguire,  S. A. Baeppler,  D. Barton,  Z. Benda,  Y. A. Bernard,  
 E. J. Berquist,  K. B. Bravaya,  H. Burton,  K. Carter-Fenk,  D. Casanova,  
 Chun-Min Chang,  Yunqing Chen,  A. Chien,  K. D. Closser,  M. P. Coons,  
 S. Coriani,  S. Dasgupta,  A. L. Dempwolff,  M. Diedenhofen,  Hainam Do,  
 R. G. Edgar,  Po-Tung Fang,  S. Faraji,  S. Fatehi,  Qingguo Feng,  
 J. Fosso-Tande,  J. Gayvert,  Qinghui Ge,  A. Ghysels,  G. Gidofalvi,  
 J. Gomes,  J. Gonthier,  A. Gunina,  D. Hait,  M. W. D. Hanson-Heine,  
 P. H. P. Harbach,  A. W. Hauser,  M. F. Herbst,  J. E. Herr,  
 E. G. Hohenstein,  Z. C. Holden,  Kerwin Hui,  B. C. Huynh,  T.-C. Jagau,  
 Hyunjun Ji,  B. Kaduk,  K. Khistyaev,  Jaehoon Kim,  P. Klunzinger,  K. Koh,  
 D. Kosenkov,  L. Koulias,  T. Kowalczyk,  C. M. Krauter,  A. Kunitsa,  
 Ka Un Lao,  A. Laurent,  K. V. Lawler,  Joonho Lee,  D. Lefrancois,  
 S. Lehtola,  D. S. Levine,  Yi-Pei Li,  You-Sheng Lin,  Fenglai Liu,  
 Kuan-Yu Liu,  E. Livshits,  M. Loipersberger,  A. Luenser,  P. Manohar,  
 E. Mansoor,  S. F. Manzer,  Shan-Ping Mao,  Yuezhi Mao,  N. Mardirossian,  
 A. V. Marenich,  T. Markovich,  L. A. Martinez-Martinez,  S. A. Maurer,  
 N. J. Mayhall,  S. C. McKenzie,  J.-M. Mewes,  P. Morgante,  A. F. Morrison,  
 J. W. Mullinax,  K. Nanda,  T. S. Nguyen-Beck,  R. Olivares-Amaya,  
 J. A. Parkhill,  S. K. Paul,  Zheng Pei,  T. M. Perrine,  F. Plasser,  
 P. Pokhilko,  S. Prager,  A. Prociuk,  E. Ramos,  B. Rana,  D. R. Rehn,  
 F. Rob,  M. Scheurer,  M. Schneider,  N. Sergueev,  S. M. Sharada,  
 S. Sharma,  D. W. Small,  T. Stauch,  C. J. Stein,  T. Stein,  Yu-Chuan Su,  
 S. P. Veccham,  A. J. W. Thom,  A. Tkatchenko,  T. Tsuchimochi,  
 N. M. Tubman,  L. Vogt,  M. L. Vidal,  O. Vydrov,  M. A. Watson,  J. Wenzel,  
 M. de Wergifosse,  T. A. Wesolowski,  A. White,  J. Witte,  A. Yamada,  
 Jun Yang,  K. Yao,  S. Yeganeh,  S. R. Yost,  Zhi-Qiang You,  A. Zech,  
 Igor Ying Zhang,  Xing Zhang,  Yan Zhao,  Ying Zhu,  B. R. Brooks,  
 G. K. L. Chan,  C. J. Cramer,  M. S. Gordon,  W. J. Hehre,  A. Klamt,  
 M. W. Schmidt,  C. D. Sherrill,  D. G. Truhlar,  A. Aspuru-Guzik,  R. Baer,  
 A. T. Bell,  N. A. Besley,  Jeng-Da Chai,  A. E. DePrince, III,  
 R. A. DiStasio Jr.,  A. Dreuw,  B. D. Dunietz,  T. R. Furlani,  
 Chao-Ping Hsu,  Yousung Jung,  Jing Kong,  D. S. Lambrecht,  WanZhen Liang,  
 C. Ochsenfeld,  V. A. Rassolov,  L. V. Slipchenko,  J. E. Subotnik,  
 T. Van Voorhis,  J. M. Herbert,  A. I. Krylov,  P. M. W. Gill,  M. Head-Gordon

 Contributors to earlier versions of Q-Chem not listed above: 
 R. D. Adamson,  B. Austin,  J. Baker,  G. J. O. Beran,  K. Brandhorst,  
 S. T. Brown,  E. F. C. Byrd,  A. K. Chakraborty,  C.-L. Cheng,  
 Siu Hung Chien,  D. M. Chipman,  D. L. Crittenden,  H. Dachsel,  
 R. J. Doerksen,  A. D. Dutoi,  L. Fusti-Molnar,  W. A. Goddard III,  
 A. Golubeva-Zadorozhnaya,  S. R. Gwaltney,  G. Hawkins,  A. Heyden,  
 S. Hirata,  G. Kedziora,  F. J. Keil,  C. Kelley,  Jihan Kim,  R. A. King,  
 R. Z. Khaliullin,  P. P. Korambath,  W. Kurlancheek,  A. M. Lee,  M. S. Lee,  
 S. V. Levchenko,  Ching Yeh Lin,  D. Liotard,  R. C. Lochan,  I. Lotan,  
 P. E. Maslen,  N. Nair,  D. P. O'Neill,  D. Neuhauser,  E. Neuscamman,  
 C. M. Oana,  R. Olson,  B. Peters,  R. Peverati,  P. A. Pieniazek,  
 Y. M. Rhee,  J. Ritchie,  M. A. Rohrdanz,  E. Rosta,  N. J. Russ,  
 H. F. Schaefer III,  N. E. Schultz,  N. Shenvi,  A. C. Simmonett,  A. Sodt,  
 D. Stuck,  K. S. Thanthiriwatte,  V. Vanovschi,  Tao Wang,  A. Warshel,  
 C. F. Williams,  Q. Wu,  X. Xu,  W. Zhang

 Please cite Q-Chem as follows:
 Y. Shao et al., Mol. Phys. 113, 184-215 (2015)
 DOI: 10.1080/00268976.2014.952696

 Q-Chem 5.2.2 for Intel X86 EM64T Linux

 Parts of Q-Chem use Armadillo 9.800.1 (Horizon Scraper).
 http://arma.sourceforge.net/

 Q-Chem begins on Sun Apr 12 13:26:23 2020  

Host: cn0909
0

     Scratch files written to /tmp/ypli/6724609.srvc1/qchem71972//
Warning:  Did not find "$end" marker in "$molecule" section

Checking the input file for inconsistencies... 	...done.

--------------------------------------------------------------
User input:
--------------------------------------------------------------
$rem
   JOBTYPE  sp
   EXCHANGE   omegaB97X-D
   BASIS   6-311+G(2df,2pd)
   max_scf_cycles   250
   geom_opt_max_cycles   1500
   basis2 6-31G*
   scf_algorithm rca_diis
   SYM_IGNORE  TRUE
   print_input   true
   geom_opt_dmax   80
   pop_mulliken false
   XC_GRID 000075000302
$end

$molecule
0 1
C       1.1481493079     -0.5361465615     0.2648609696
C       0.0000023642     0.0000121720     -0.5819040293
H       2.0805277621     -0.0819355492     -0.0659701761
H       1.2616554111     -1.6220446334     0.1797678481
H       1.0185963151     -0.2901975674     1.3193060155
C       -1.1481511596     0.5361399130     0.2648719296
H       -0.2751572173     -0.8303509441     -1.2365336903
H       0.2751665275     0.8304003338     -1.2365009273
H       -1.2617180736     1.6220284061     0.1797477989
H       -1.0185582030     0.2902255526     1.3193202051
H       -2.0805130951     0.0818695441     -0.0659209249
--------------------------------------------------------------
 ----------------------------------------------------------------
             Standard Nuclear Orientation (Angstroms)
    I     Atom           X                Y                Z
 ----------------------------------------------------------------
    1      C       1.1481493079    -0.5361465615     0.2648609696
    2      C       0.0000023642     0.0000121720    -0.5819040293
    3      H       2.0805277621    -0.0819355492    -0.0659701761
    4      H       1.2616554111    -1.6220446334     0.1797678481
    5      H       1.0185963151    -0.2901975674     1.3193060155
    6      C      -1.1481511596     0.5361399130     0.2648719296
    7      H      -0.2751572173    -0.8303509441    -1.2365336903
    8      H       0.2751665275     0.8304003338    -1.2365009273
    9      H      -1.2617180736     1.6220284061     0.1797477989
   10      H      -1.0185582030     0.2902255526     1.3193202051
   11      H      -2.0805130951     0.0818695441    -0.0659209249
 ----------------------------------------------------------------
 Nuclear Repulsion Energy =          82.77352909 hartrees
 There are       13 alpha and       13 beta electrons
 Requested basis set is 6-311+G(2df,2pd)
 There are 72 shells and 214 basis functions

 Total QAlloc Memory Limit   2000 MB
 Mega-Array Size       188 MB
 MEM_STATIC part       192 MB

                       Distance Matrix (Angstroms)
             C (  1)   C (  2)   H (  3)   H (  4)   H (  5)   C (  6)
   C (  2)  1.524047
   H (  3)  1.088617  2.145108
   H (  4)  1.095125  2.191570  1.761498
   H (  5)  1.090472  2.176317  1.757857  1.769588
   C (  6)  2.534323  1.524047  3.303913  3.236073  2.547442
   H (  7)  2.089628  1.092591  2.734885  2.234834  2.915112  2.209895
   H (  8)  2.209895  1.092592  2.337055  2.998910  2.888006  2.089627
   H (  9)  3.236113  2.191572  3.759585  4.109918  3.186697  1.095124
   H ( 10)  2.547429  2.176314  3.414948  3.186649  2.118228  1.090472
   H ( 11)  3.303880  2.145107  4.164264  3.759492  3.414933  1.088616
             H (  7)   H (  8)   H (  9)   H ( 10)
   H (  8)  1.749557
   H (  9)  2.998886  2.234827
   H ( 10)  2.888031  2.915087  1.769591
   H ( 11)  2.337047  2.734919  1.761496  1.757855
 
 A cutoff of  1.0D-09 yielded   2531 shell pairs
 There are     22563 function pairs (     27775 Cartesian)
 Smallest overlap matrix eigenvalue = 8.52E-05

 Scale SEOQF with 1.000000e-01/1.000000e-01/1.000000e-01

 Standard Electronic Orientation quadrupole field applied
 Nucleus-field energy     =     0.0000000008 hartrees
 Requested basis set is 6-31G(d)
 There are 28 shells and 58 basis functions
 A cutoff of  1.0D-09 yielded    399 shell pairs
 There are      1770 function pairs (      1965 Cartesian)
 Smallest overlap matrix eigenvalue = 6.32E-03
 Guess from superposition of atomic densities
 Warning:  Energy on first SCF cycle will be non-variational
 SAD guess density has 26.000000 electrons
 Long-range K will be added via erf
 Coulomb attenuation parameter = 0.2 bohr**(-1)
 A restricted hybrid HF-DFT SCF calculation will be
 performed using Relaxed Constraint Minimization + Pulay DIIS
 Exchange:     0.2220 Hartree-Fock + 1.0000 wB97X-D + LR-HF
 Correlation:  1.0000 wB97X-D
 Using Euler-Maclaurin-Lebedev (75,302) quadrature formula
 Dispersion:   Grimme D
 SCF converges when DIIS error is below 1.0E-04
 using 3 threads for integral computing
 -------------------------------------------------------
 OpenMP Integral computing Module                
 Release: version 1.0, May 2013, Q-Chem Inc. Pittsburgh 
 -------------------------------------------------------
 using 3 threads for integral computing
 -------------------------------------------------------
 OpenMP Integral computing Module                
 Release: version 1.0, May 2013, Q-Chem Inc. Pittsburgh 
 -------------------------------------------------------
 ---------------------------------------
  Cycle       Energy         DIIS Error
 ---------------------------------------
    1    -119.6311488473      1.01E-01
    2    -119.0523940266      9.10E-03
    3    -119.0737779583      2.44E-03
    4    -119.0879686651      1.68E-03
    5    -119.0886579890      2.61E-04 Done RCA. Switching to DIIS
    6    -119.0891660220      1.94E-04
    7    -119.0891823580      4.29E-06 Convergence criterion met
 ---------------------------------------
 SCF time:  CPU 26.13 s  wall 9.44 s
 SCF   energy in the small basis set = -119.08918236
 Total energy in the small basis set = -119.08918236
 ----------------------------------------------------
  Cycle       Energy    
 ----------------------------------------------------
    1     -16.5472163227     -1.65E+01
 Long-range K will be added via erf
 Coulomb attenuation parameter = 0.2 bohr**(-1)
 A restricted hybrid HF-DFT SCF calculation will be
 performed using Relaxed Constraint Minimization + Pulay DIIS
 Exchange:     0.2220 Hartree-Fock + 1.0000 wB97X-D + LR-HF
 Correlation:  1.0000 wB97X-D
 Using Euler-Maclaurin-Lebedev (75,302) quadrature formula
 Dispersion:   Grimme D
 SCF converges when DIIS error is below 1.0E-05
 Basis2 calculation detected. Using small basis as guess for larger.
 SCFMinFind is unable to tell whether the solution found is close.
 Resetting ReadMinima to 0 and attempting to follow guess.
 SCFMinFind following SCF Guess.
 using 3 threads for integral computing
 -------------------------------------------------------
 OpenMP Integral computing Module                
 Release: version 1.0, May 2013, Q-Chem Inc. Pittsburgh 
 -------------------------------------------------------
 using 3 threads for integral computing
 -------------------------------------------------------
 OpenMP Integral computing Module                
 Release: version 1.0, May 2013, Q-Chem Inc. Pittsburgh 
 -------------------------------------------------------
 ---------------------------------------
  Cycle       Energy         DIIS Error
 ---------------------------------------
    1    -119.1087971624      4.21E-03
    2    -119.1307807744      6.04E-04 Done RCA. Switching to DIIS
    3    -119.1316136129      4.27E-04
    4    -119.1326145545      4.53E-05
    5    -119.1326293508      1.01E-05
    6    -119.1326300515      3.94E-06 Convergence criterion met
 ---------------------------------------
 SCF time:  CPU 80.15 s  wall 27.11 s
 SCF   energy in the final basis set = -119.13263005
 Total energy in the final basis set = -119.13263005
 
 --------------------------------------------------------------
 
                    Orbital Energies (a.u.)
 --------------------------------------------------------------
 
 Alpha MOs
 -- Occupied --
-10.2715 -10.2633 -10.2633  -0.8811  -0.7766  -0.6775  -0.5444  -0.5273
 -0.4781  -0.4702  -0.4222  -0.4156  -0.3917
 -- Virtual --
  0.0721   0.0877   0.0916   0.1042   0.1212   0.1289   0.1313   0.1330
  0.1455   0.1635   0.1753   0.1886   0.1972   0.2429   0.2723   0.2756
  0.2870   0.3067   0.3148   0.3264   0.3352   0.3658   0.4553   0.4808
  0.4983   0.5002   0.5178   0.5189   0.5267   0.5279   0.5472   0.5743
  0.6201   0.6218   0.6355   0.6417   0.6460   0.6578   0.6869   0.7109
  0.7414   0.7432   0.8410   0.9007   0.9087   0.9376   0.9758   0.9935
  1.0090   1.0189   1.0274   1.0698   1.1492   1.1601   1.1995   1.2199
  1.2265   1.2425   1.2756   1.2827   1.2954   1.3280   1.3415   1.3637
  1.3798   1.3800   1.4024   1.4481   1.4554   1.4779   1.4861   1.5002
  1.5370   1.5382   1.5785   1.5828   1.6469   1.6520   1.6680   1.6835
  1.6887   2.2566   2.3466   2.4159   2.5127   2.5401   2.6086   2.6723
  2.6969   2.7038   2.7648   2.7966   2.8629   2.8736   2.9340   2.9348
  2.9702   2.9826   2.9830   3.0188   3.0419   3.0594   3.1020   3.1469
  3.1489   3.1677   3.1732   3.2007   3.2026   3.2327   3.2530   3.2545
  3.2964   3.3210   3.3328   3.3550   3.3733   3.3762   3.3968   3.4137
  3.4750   3.4952   3.5422   3.5433   3.5756   3.5841   3.6072   3.6416
  3.6728   3.6769   3.6857   3.6931   3.7209   3.7288   3.7733   3.8310
  3.8606   3.9225   3.9243   3.9544   3.9553   4.0322   4.0382   4.0789
  4.0909   4.1188   4.1210   4.1584   4.1691   4.1843   4.2086   4.2467
  4.2503   4.2724   4.3095   4.3195   4.3361   4.4130   4.4484   4.4636
  4.4730   4.5058   4.5761   4.5800   4.6960   4.8138   4.8396   4.8545
  4.9196   4.9208   4.9887   5.0106   5.0358   5.0557   5.0999   5.1397
  5.1601   5.1719   5.1848   5.2595   5.2685   5.2854   5.3336   5.3781
  5.3880   5.3991   5.4351   5.4452   5.5212   5.5713   5.5959   5.7415
  5.9872   6.3232   6.3726   6.4063   6.4281   6.5118  25.0764  25.4269
 25.4489
 --------------------------------------------------------------
 
 -----------------------------------------------------------------
                    Cartesian Multipole Moments
 -----------------------------------------------------------------
    Charge (ESU x 10^10)
                -0.0000
    Dipole Moment (Debye)
         X      -0.0000      Y      -0.0000      Z      -0.0975
       Tot       0.0975
    Quadrupole Moments (Debye-Ang)
        XX     -22.4242     XY       0.2662     YY     -21.2137
        XZ       0.0000     YZ       0.0000     ZZ     -21.8179
    Octopole Moments (Debye-Ang^2)
       XXX       0.0000    XXY      -0.0000    XYY      -0.0001
       YYY      -0.0000    XXZ      -1.2674    XYZ      -0.0977
       YYZ      -1.2439    XZZ       0.0000    YZZ      -0.0000
       ZZZ       0.7020
    Hexadecapole Moments (Debye-Ang^3)
      XXXX    -175.7353   XXXY      33.9923   XXYY     -41.7571
      XYYY      28.4715   YYYY     -68.5797   XXXZ       0.0002
      XXYZ       0.0000   XYYZ       0.0002   YYYZ      -0.0000
      XXZZ     -42.2097   XYZZ      10.9674   YYZZ     -24.1603
      XZZZ       0.0005   YZZZ       0.0002   ZZZZ     -69.3538
 -----------------------------------------------------------------
Archival summary:
1\1\cn0909\SP\ProcedureUnspecified\BasisUnspecified\38\r0852400\SunApr1213:27:032020SunApr1213:27:032020\0\\#,ProcedureUnspecified,BasisUnspecified,\\0,1\C\H,1,1.09259\H,1,1.09259,2,106.384\C,1,1.52405,2,104.788,3,-121.344,0\H,4,1.08862,1,109.245,2,106.98,0\H,4,1.09047,1,111.617,2,-134.214,0\H,4,1.09513,1,112.566,2,-12.4076,0\C,1,1.52405,2,114.237,3,115.096,0\H,8,1.08862,1,109.245,2,-9.04129,0\H,8,1.09047,1,111.617,2,109.765,0\H,8,1.09512,1,112.566,2,-128.429,0\\\@

 Total job time:  40.37s(wall), 110.97s(cpu) 
 Sun Apr 12 13:27:03 2020

        *************************************************************
        *                                                           *
        *  Thank you very much for using Q-Chem.  Have a nice day.  *
        *                                                           *
        *************************************************************


