                  Welcome to Q-Chem
     A Quantum Leap Into The Future Of Chemistry


 Q-Chem 5.2 (devel), Q-Chem, Inc., Pleasanton, CA (2019)

 Yihan Shao,  Zhengting Gan,  E. Epifanovsky,  A. T. B. Gilbert,  M. Wormit,  
 J. Kussmann,  A. W. Lange,  A. Behn,  Jia Deng,  Xintian Feng,  D. Ghosh,  
 M. Goldey,  P. R. Horn,  L. D. Jacobson,  I. Kaliman,  T. Kus,  A. Landau,  
 Jie Liu,  E. I. Proynov,  R. M. Richard,  R. P. Steele,  E. J. Sundstrom,  
 H. L. Woodcock III,  P. M. Zimmerman,  D. Zuev,  B. Alam,  B. Albrecht,  
 E. Alguire,  S. A. Baeppler,  D. Barton,  Z. Benda,  Y. A. Bernard,  
 E. J. Berquist,  K. B. Bravaya,  H. Burton,  K. Carter-Fenk,  D. Casanova,  
 Chun-Min Chang,  Yunqing Chen,  A. Chien,  K. D. Closser,  M. P. Coons,  
 S. Coriani,  S. Dasgupta,  A. L. Dempwolff,  M. Diedenhofen,  Hainam Do,  
 R. G. Edgar,  Po-Tung Fang,  S. Faraji,  S. Fatehi,  Qingguo Feng,  
 J. Fosso-Tande,  J. Gayvert,  Qinghui Ge,  A. Ghysels,  G. Gidofalvi,  
 J. Gomes,  J. Gonthier,  A. Gunina,  D. Hait,  M. W. D. Hanson-Heine,  
 P. H. P. Harbach,  A. W. Hauser,  M. F. Herbst,  J. E. Herr,  
 E. G. Hohenstein,  Z. C. Holden,  Kerwin Hui,  B. C. Huynh,  T.-C. Jagau,  
 Hyunjun Ji,  B. Kaduk,  K. Khistyaev,  Jaehoon Kim,  P. Klunzinger,  K. Koh,  
 D. Kosenkov,  L. Koulias,  T. Kowalczyk,  C. M. Krauter,  A. Kunitsa,  
 Ka Un Lao,  A. Laurent,  K. V. Lawler,  Joonho Lee,  D. Lefrancois,  
 S. Lehtola,  D. S. Levine,  Yi-Pei Li,  You-Sheng Lin,  Fenglai Liu,  
 Kuan-Yu Liu,  E. Livshits,  M. Loipersberger,  A. Luenser,  P. Manohar,  
 E. Mansoor,  S. F. Manzer,  Shan-Ping Mao,  Yuezhi Mao,  N. Mardirossian,  
 A. V. Marenich,  T. Markovich,  L. A. Martinez-Martinez,  S. A. Maurer,  
 N. J. Mayhall,  S. C. McKenzie,  J.-M. Mewes,  P. Morgante,  A. F. Morrison,  
 J. W. Mullinax,  K. Nanda,  T. S. Nguyen-Beck,  R. Olivares-Amaya,  
 J. A. Parkhill,  S. K. Paul,  Zheng Pei,  T. M. Perrine,  F. Plasser,  
 P. Pokhilko,  S. Prager,  A. Prociuk,  E. Ramos,  B. Rana,  D. R. Rehn,  
 F. Rob,  M. Scheurer,  M. Schneider,  N. Sergueev,  S. M. Sharada,  
 S. Sharma,  D. W. Small,  T. Stauch,  C. J. Stein,  T. Stein,  Yu-Chuan Su,  
 S. P. Veccham,  A. J. W. Thom,  A. Tkatchenko,  T. Tsuchimochi,  
 N. M. Tubman,  L. Vogt,  M. L. Vidal,  O. Vydrov,  M. A. Watson,  J. Wenzel,  
 M. de Wergifosse,  T. A. Wesolowski,  A. White,  J. Witte,  A. Yamada,  
 Jun Yang,  K. Yao,  S. Yeganeh,  S. R. Yost,  Zhi-Qiang You,  A. Zech,  
 Igor Ying Zhang,  Xing Zhang,  Yan Zhao,  Ying Zhu,  B. R. Brooks,  
 G. K. L. Chan,  C. J. Cramer,  M. S. Gordon,  W. J. Hehre,  A. Klamt,  
 M. W. Schmidt,  C. D. Sherrill,  D. G. Truhlar,  A. Aspuru-Guzik,  R. Baer,  
 A. T. Bell,  N. A. Besley,  Jeng-Da Chai,  A. E. DePrince, III,  
 R. A. DiStasio Jr.,  A. Dreuw,  B. D. Dunietz,  T. R. Furlani,  
 Chao-Ping Hsu,  Yousung Jung,  Jing Kong,  D. S. Lambrecht,  WanZhen Liang,  
 C. Ochsenfeld,  V. A. Rassolov,  L. V. Slipchenko,  J. E. Subotnik,  
 T. Van Voorhis,  J. M. Herbert,  A. I. Krylov,  P. M. W. Gill,  M. Head-Gordon

 Contributors to earlier versions of Q-Chem not listed above: 
 R. D. Adamson,  B. Austin,  J. Baker,  G. J. O. Beran,  K. Brandhorst,  
 S. T. Brown,  E. F. C. Byrd,  A. K. Chakraborty,  C.-L. Cheng,  
 Siu Hung Chien,  D. M. Chipman,  D. L. Crittenden,  H. Dachsel,  
 R. J. Doerksen,  A. D. Dutoi,  L. Fusti-Molnar,  W. A. Goddard III,  
 A. Golubeva-Zadorozhnaya,  S. R. Gwaltney,  G. Hawkins,  A. Heyden,  
 S. Hirata,  G. Kedziora,  F. J. Keil,  C. Kelley,  Jihan Kim,  R. A. King,  
 R. Z. Khaliullin,  P. P. Korambath,  W. Kurlancheek,  A. M. Lee,  M. S. Lee,  
 S. V. Levchenko,  Ching Yeh Lin,  D. Liotard,  R. C. Lochan,  I. Lotan,  
 P. E. Maslen,  N. Nair,  D. P. O'Neill,  D. Neuhauser,  E. Neuscamman,  
 C. M. Oana,  R. Olson,  B. Peters,  R. Peverati,  P. A. Pieniazek,  
 Y. M. Rhee,  J. Ritchie,  M. A. Rohrdanz,  E. Rosta,  N. J. Russ,  
 H. F. Schaefer III,  N. E. Schultz,  N. Shenvi,  A. C. Simmonett,  A. Sodt,  
 D. Stuck,  K. S. Thanthiriwatte,  V. Vanovschi,  Tao Wang,  A. Warshel,  
 C. F. Williams,  Q. Wu,  X. Xu,  W. Zhang

 Please cite Q-Chem as follows:
 Y. Shao et al., Mol. Phys. 113, 184-215 (2015)
 DOI: 10.1080/00268976.2014.952696

 Q-Chem 5.2.2 for Intel X86 EM64T Linux

 Parts of Q-Chem use Armadillo 9.800.1 (Horizon Scraper).
 http://arma.sourceforge.net/

 Q-Chem begins on Sun Apr 12 06:23:24 2020  

Host: cn0913
0

     Scratch files written to /tmp/ypli/6721341.srvc1/qchem234207//
Warning:  Did not find "$end" marker in "$molecule" section

Checking the input file for inconsistencies... 	...done.

--------------------------------------------------------------
User input:
--------------------------------------------------------------
$rem
   JOBTYPE  sp
   EXCHANGE   omegaB97X-D
   BASIS   6-311+G(2df,2pd)
   max_scf_cycles   250
   geom_opt_max_cycles   1500
   basis2 6-31G*
   scf_algorithm rca_diis
   SYM_IGNORE  TRUE
   print_input   true
   geom_opt_dmax   80
   pop_mulliken false
   XC_GRID 000075000302
$end

$molecule
0 1
C       1.2628273758     -0.1073809468     0.2577814022
C       -0.0000000169     0.0000001339     -0.5886565380
H       1.3329225492     -0.9243874397     0.9777727927
H       1.2748663984     0.8318402437     0.8156970148
H       2.1580614401     -0.0416281538     -0.3613751292
C       -1.2628274862     0.1073807797     0.2577813560
H       0.3326461228     -0.8234911768     -1.2250251234
H       -0.3326464817     0.8234913125     -1.2250251493
H       -1.2748661647     -0.8318402719     0.8156971931
H       -2.1580613891     0.0416287678     -0.3613754513
H       -1.3329224082     0.9243874173     0.9777726514
--------------------------------------------------------------
 ----------------------------------------------------------------
             Standard Nuclear Orientation (Angstroms)
    I     Atom           X                Y                Z
 ----------------------------------------------------------------
    1      C       1.2628273758    -0.1073809468     0.2577814022
    2      C      -0.0000000169     0.0000001339    -0.5886565380
    3      H       1.3329225492    -0.9243874397     0.9777727927
    4      H       1.2748663984     0.8318402437     0.8156970148
    5      H       2.1580614401    -0.0416281538    -0.3613751292
    6      C      -1.2628274862     0.1073807797     0.2577813560
    7      H       0.3326461228    -0.8234911768    -1.2250251234
    8      H      -0.3326464817     0.8234913125    -1.2250251493
    9      H      -1.2748661647    -0.8318402719     0.8156971931
   10      H      -2.1580613891     0.0416287678    -0.3613754513
   11      H      -1.3329224082     0.9243874173     0.9777726514
 ----------------------------------------------------------------
 Nuclear Repulsion Energy =          82.94912261 hartrees
 There are       13 alpha and       13 beta electrons
 Requested basis set is 6-311+G(2df,2pd)
 There are 72 shells and 214 basis functions

 Total QAlloc Memory Limit   2000 MB
 Mega-Array Size       188 MB
 MEM_STATIC part       192 MB

                       Distance Matrix (Angstroms)
             C (  1)   C (  2)   H (  3)   H (  4)   H (  5)   C (  6)
   C (  2)  1.524048
   H (  3)  1.091238  2.254967
   H (  4)  1.092498  2.071099  1.764646
   H (  5)  1.090469  2.170396  1.803728  1.711280
   C (  6)  2.534769  1.524048  2.884589  2.697406  3.479661
   H (  7)  1.891234  1.092592  2.421374  2.791496  2.165489  2.368707
   H (  8)  2.368708  1.092592  3.268259  2.597829  2.774518  1.891234
   H (  9)  2.697406  2.071099  2.614459  3.044498  3.714152  1.092498
   H ( 10)  3.479661  2.170396  3.861797  3.714152  4.316926  1.090469
   H ( 11)  2.884588  2.254967  3.244179  2.614459  3.861796  1.091238
             H (  7)   H (  8)   H (  9)   H ( 10)
   H (  8)  1.776279
   H (  9)  2.597829  2.791496
   H ( 10)  2.774517  2.165488  1.711281
   H ( 11)  3.268259  2.421374  1.764646  1.803728
 
 A cutoff of  1.0D-09 yielded   2533 shell pairs
 There are     22519 function pairs (     27682 Cartesian)
 Smallest overlap matrix eigenvalue = 1.20E-04

 Scale SEOQF with 1.000000e-01/1.000000e-01/1.000000e-01

 Standard Electronic Orientation quadrupole field applied
 Nucleus-field energy     =     0.0000000006 hartrees
 Requested basis set is 6-31G(d)
 There are 28 shells and 58 basis functions
 A cutoff of  1.0D-09 yielded    402 shell pairs
 There are      1773 function pairs (      1968 Cartesian)
 Smallest overlap matrix eigenvalue = 7.49E-03
 Guess from superposition of atomic densities
 Warning:  Energy on first SCF cycle will be non-variational
 SAD guess density has 26.000000 electrons
 Long-range K will be added via erf
 Coulomb attenuation parameter = 0.2 bohr**(-1)
 A restricted hybrid HF-DFT SCF calculation will be
 performed using Relaxed Constraint Minimization + Pulay DIIS
 Exchange:     0.2220 Hartree-Fock + 1.0000 wB97X-D + LR-HF
 Correlation:  1.0000 wB97X-D
 Using Euler-Maclaurin-Lebedev (75,302) quadrature formula
 Dispersion:   Grimme D
 SCF converges when DIIS error is below 1.0E-04
 using 3 threads for integral computing
 -------------------------------------------------------
 OpenMP Integral computing Module                
 Release: version 1.0, May 2013, Q-Chem Inc. Pittsburgh 
 -------------------------------------------------------
 using 3 threads for integral computing
 -------------------------------------------------------
 OpenMP Integral computing Module                
 Release: version 1.0, May 2013, Q-Chem Inc. Pittsburgh 
 -------------------------------------------------------
 ---------------------------------------
  Cycle       Energy         DIIS Error
 ---------------------------------------
    1    -119.6560192298      1.01E-01
    2    -119.0170465671      9.06E-03
    3    -119.0385573495      2.56E-03
    4    -119.0526277394      1.77E-03
    5    -119.0533974494      2.81E-04 Done RCA. Switching to DIIS
    6    -119.0539658025      2.08E-04
    7    -119.0539846516      6.37E-06 Convergence criterion met
 ---------------------------------------
 SCF time:  CPU 23.37 s  wall 7.96 s
 SCF   energy in the small basis set = -119.05398465
 Total energy in the small basis set = -119.05398465
 ----------------------------------------------------
  Cycle       Energy    
 ----------------------------------------------------
    1     -16.5395426642     -1.65E+01
 Long-range K will be added via erf
 Coulomb attenuation parameter = 0.2 bohr**(-1)
 A restricted hybrid HF-DFT SCF calculation will be
 performed using Relaxed Constraint Minimization + Pulay DIIS
 Exchange:     0.2220 Hartree-Fock + 1.0000 wB97X-D + LR-HF
 Correlation:  1.0000 wB97X-D
 Using Euler-Maclaurin-Lebedev (75,302) quadrature formula
 Dispersion:   Grimme D
 SCF converges when DIIS error is below 1.0E-05
 Basis2 calculation detected. Using small basis as guess for larger.
 SCFMinFind is unable to tell whether the solution found is close.
 Resetting ReadMinima to 0 and attempting to follow guess.
 SCFMinFind following SCF Guess.
 using 3 threads for integral computing
 -------------------------------------------------------
 OpenMP Integral computing Module                
 Release: version 1.0, May 2013, Q-Chem Inc. Pittsburgh 
 -------------------------------------------------------
 using 3 threads for integral computing
 -------------------------------------------------------
 OpenMP Integral computing Module                
 Release: version 1.0, May 2013, Q-Chem Inc. Pittsburgh 
 -------------------------------------------------------
 ---------------------------------------
  Cycle       Energy         DIIS Error
 ---------------------------------------
    1    -119.0744875744      4.21E-03
    2    -119.0966471036      6.30E-04 Done RCA. Switching to DIIS
    3    -119.0975456261      4.51E-04
    4    -119.0986637794      4.69E-05
    5    -119.0986799933      1.16E-05
    6    -119.0986809110      4.44E-06 Convergence criterion met
 ---------------------------------------
 SCF time:  CPU 71.44 s  wall 24.05 s
 SCF   energy in the final basis set = -119.09868091
 Total energy in the final basis set = -119.09868091
 
 --------------------------------------------------------------
 
                    Orbital Energies (a.u.)
 --------------------------------------------------------------
 
 Alpha MOs
 -- Occupied --
-10.2734 -10.2680 -10.2680  -0.8869  -0.7834  -0.6773  -0.5514  -0.5273
 -0.5030  -0.4717  -0.4329  -0.4047  -0.3597
 -- Virtual --
  0.0687   0.0837   0.0904   0.0990   0.1247   0.1260   0.1305   0.1425
  0.1481   0.1645   0.1784   0.1911   0.2235   0.2296   0.2353   0.2444
  0.2828   0.2866   0.3137   0.3195   0.3269   0.3412   0.4578   0.4685
  0.4792   0.5037   0.5229   0.5276   0.5491   0.5540   0.5819   0.6040
  0.6046   0.6144   0.6413   0.6437   0.6575   0.6947   0.7043   0.7132
  0.7219   0.7739   0.7927   0.8239   0.8443   0.8965   0.9251   0.9681
  0.9997   1.0375   1.0649   1.1134   1.1182   1.1585   1.1780   1.2156
  1.2172   1.2283   1.2805   1.2823   1.3150   1.3383   1.3678   1.3711
  1.3881   1.3909   1.4081   1.4242   1.4495   1.4671   1.4840   1.4998
  1.5255   1.5664   1.5977   1.6157   1.6337   1.6462   1.6682   1.7097
  1.7395   2.3939   2.4292   2.4622   2.4777   2.5373   2.5873   2.6111
  2.6799   2.7272   2.7713   2.7872   2.8246   2.8635   2.9105   2.9262
  2.9321   3.0137   3.0429   3.0462   3.0501   3.0616   3.0901   3.0907
  3.1180   3.1306   3.1582   3.1750   3.2422   3.2744   3.2960   3.3170
  3.3183   3.3438   3.3478   3.3585   3.3850   3.4206   3.4280   3.4415
  3.4699   3.4958   3.5346   3.5479   3.5645   3.5729   3.6048   3.6293
  3.6403   3.6484   3.6636   3.6869   3.7160   3.7167   3.7874   3.8388
  3.8505   3.8910   3.9134   3.9520   3.9644   3.9949   4.0359   4.0709
  4.0873   4.0996   4.1358   4.1432   4.1816   4.1954   4.2000   4.2005
  4.2402   4.2454   4.2828   4.3432   4.3615   4.4046   4.4447   4.4780
  4.4784   4.5035   4.5610   4.6540   4.7643   4.7869   4.8240   4.9003
  4.9377   4.9692   4.9939   5.0318   5.0364   5.0460   5.0954   5.1626
  5.2023   5.2056   5.2122   5.2443   5.2935   5.3177   5.3488   5.3567
  5.4045   5.4418   5.4641   5.5225   5.5585   5.5830   5.6508   5.7601
  6.0872   6.3647   6.3752   6.4050   6.4398   6.4926  25.1861  25.4327
 25.4356
 --------------------------------------------------------------
 
 -----------------------------------------------------------------
                    Cartesian Multipole Moments
 -----------------------------------------------------------------
    Charge (ESU x 10^10)
                -0.0000
    Dipole Moment (Debye)
         X       0.0000      Y       0.0000      Z      -0.0099
       Tot       0.0099
    Quadrupole Moments (Debye-Ang)
        XX     -21.9169     XY      -0.9303     YY     -21.6338
        XZ       0.0000     YZ      -0.0000     ZZ     -22.0886
    Octopole Moments (Debye-Ang^2)
       XXX       0.0000    XXY       0.0000    XYY       0.0000
       YYY      -0.0000    XXZ      -1.8806    XYZ      -0.2220
       YYZ       0.9773    XZZ      -0.0000    YZZ      -0.0000
       ZZZ       0.2234
    Hexadecapole Moments (Debye-Ang^3)
      XXXX    -202.4811   XXXY       5.7384   XXYY     -41.9930
      XYYY       5.5436   YYYY     -45.0142   XXXZ       0.0000
      XXYZ      -0.0000   XYYZ      -0.0000   YYYZ       0.0000
      XXZZ     -44.7216   XYZZ      -0.3654   YYZZ     -17.7612
      XZZZ      -0.0000   YZZZ       0.0000   ZZZZ     -72.9982
 -----------------------------------------------------------------
Archival summary:
1\1\cn0913\SP\ProcedureUnspecified\BasisUnspecified\38\r0852400\SunApr1206:23:592020SunApr1206:23:592020\0\\#,ProcedureUnspecified,BasisUnspecified,\\0,1\C\H,1,1.09259\H,1,1.09259,2,108.755\C,1,1.52405,2,91.0373,3,-132.096,0\H,4,1.09047,1,111.141,2,54.4849,0\H,4,1.09124,1,118.191,2,-76.3397,0\H,4,1.0925,1,103.426,2,164.655,0\C,1,1.52405,2,128.966,3,107.411,0\H,8,1.09047,1,111.141,2,-60.8712,0\H,8,1.09124,1,118.191,2,168.304,0\H,8,1.0925,1,103.426,2,49.2989,0\\\@

 Total job time:  35.48s(wall), 99.07s(cpu) 
 Sun Apr 12 06:23:59 2020

        *************************************************************
        *                                                           *
        *  Thank you very much for using Q-Chem.  Have a nice day.  *
        *                                                           *
        *************************************************************


