                  Welcome to Q-Chem
     A Quantum Leap Into The Future Of Chemistry


 Q-Chem 5.2 (devel), Q-Chem, Inc., Pleasanton, CA (2019)

 Yihan Shao,  Zhengting Gan,  E. Epifanovsky,  A. T. B. Gilbert,  M. Wormit,  
 J. Kussmann,  A. W. Lange,  A. Behn,  Jia Deng,  Xintian Feng,  D. Ghosh,  
 M. Goldey,  P. R. Horn,  L. D. Jacobson,  I. Kaliman,  T. Kus,  A. Landau,  
 Jie Liu,  E. I. Proynov,  R. M. Richard,  R. P. Steele,  E. J. Sundstrom,  
 H. L. Woodcock III,  P. M. Zimmerman,  D. Zuev,  B. Alam,  B. Albrecht,  
 E. Alguire,  S. A. Baeppler,  D. Barton,  Z. Benda,  Y. A. Bernard,  
 E. J. Berquist,  K. B. Bravaya,  H. Burton,  K. Carter-Fenk,  D. Casanova,  
 Chun-Min Chang,  Yunqing Chen,  A. Chien,  K. D. Closser,  M. P. Coons,  
 S. Coriani,  S. Dasgupta,  A. L. Dempwolff,  M. Diedenhofen,  Hainam Do,  
 R. G. Edgar,  Po-Tung Fang,  S. Faraji,  S. Fatehi,  Qingguo Feng,  
 J. Fosso-Tande,  J. Gayvert,  Qinghui Ge,  A. Ghysels,  G. Gidofalvi,  
 J. Gomes,  J. Gonthier,  A. Gunina,  D. Hait,  M. W. D. Hanson-Heine,  
 P. H. P. Harbach,  A. W. Hauser,  M. F. Herbst,  J. E. Herr,  
 E. G. Hohenstein,  Z. C. Holden,  Kerwin Hui,  B. C. Huynh,  T.-C. Jagau,  
 Hyunjun Ji,  B. Kaduk,  K. Khistyaev,  Jaehoon Kim,  P. Klunzinger,  K. Koh,  
 D. Kosenkov,  L. Koulias,  T. Kowalczyk,  C. M. Krauter,  A. Kunitsa,  
 Ka Un Lao,  A. Laurent,  K. V. Lawler,  Joonho Lee,  D. Lefrancois,  
 S. Lehtola,  D. S. Levine,  Yi-Pei Li,  You-Sheng Lin,  Fenglai Liu,  
 Kuan-Yu Liu,  E. Livshits,  M. Loipersberger,  A. Luenser,  P. Manohar,  
 E. Mansoor,  S. F. Manzer,  Shan-Ping Mao,  Yuezhi Mao,  N. Mardirossian,  
 A. V. Marenich,  T. Markovich,  L. A. Martinez-Martinez,  S. A. Maurer,  
 N. J. Mayhall,  S. C. McKenzie,  J.-M. Mewes,  P. Morgante,  A. F. Morrison,  
 J. W. Mullinax,  K. Nanda,  T. S. Nguyen-Beck,  R. Olivares-Amaya,  
 J. A. Parkhill,  S. K. Paul,  Zheng Pei,  T. M. Perrine,  F. Plasser,  
 P. Pokhilko,  S. Prager,  A. Prociuk,  E. Ramos,  B. Rana,  D. R. Rehn,  
 F. Rob,  M. Scheurer,  M. Schneider,  N. Sergueev,  S. M. Sharada,  
 S. Sharma,  D. W. Small,  T. Stauch,  C. J. Stein,  T. Stein,  Yu-Chuan Su,  
 S. P. Veccham,  A. J. W. Thom,  A. Tkatchenko,  T. Tsuchimochi,  
 N. M. Tubman,  L. Vogt,  M. L. Vidal,  O. Vydrov,  M. A. Watson,  J. Wenzel,  
 M. de Wergifosse,  T. A. Wesolowski,  A. White,  J. Witte,  A. Yamada,  
 Jun Yang,  K. Yao,  S. Yeganeh,  S. R. Yost,  Zhi-Qiang You,  A. Zech,  
 Igor Ying Zhang,  Xing Zhang,  Yan Zhao,  Ying Zhu,  B. R. Brooks,  
 G. K. L. Chan,  C. J. Cramer,  M. S. Gordon,  W. J. Hehre,  A. Klamt,  
 M. W. Schmidt,  C. D. Sherrill,  D. G. Truhlar,  A. Aspuru-Guzik,  R. Baer,  
 A. T. Bell,  N. A. Besley,  Jeng-Da Chai,  A. E. DePrince, III,  
 R. A. DiStasio Jr.,  A. Dreuw,  B. D. Dunietz,  T. R. Furlani,  
 Chao-Ping Hsu,  Yousung Jung,  Jing Kong,  D. S. Lambrecht,  WanZhen Liang,  
 C. Ochsenfeld,  V. A. Rassolov,  L. V. Slipchenko,  J. E. Subotnik,  
 T. Van Voorhis,  J. M. Herbert,  A. I. Krylov,  P. M. W. Gill,  M. Head-Gordon

 Contributors to earlier versions of Q-Chem not listed above: 
 R. D. Adamson,  B. Austin,  J. Baker,  G. J. O. Beran,  K. Brandhorst,  
 S. T. Brown,  E. F. C. Byrd,  A. K. Chakraborty,  C.-L. Cheng,  
 Siu Hung Chien,  D. M. Chipman,  D. L. Crittenden,  H. Dachsel,  
 R. J. Doerksen,  A. D. Dutoi,  L. Fusti-Molnar,  W. A. Goddard III,  
 A. Golubeva-Zadorozhnaya,  S. R. Gwaltney,  G. Hawkins,  A. Heyden,  
 S. Hirata,  G. Kedziora,  F. J. Keil,  C. Kelley,  Jihan Kim,  R. A. King,  
 R. Z. Khaliullin,  P. P. Korambath,  W. Kurlancheek,  A. M. Lee,  M. S. Lee,  
 S. V. Levchenko,  Ching Yeh Lin,  D. Liotard,  R. C. Lochan,  I. Lotan,  
 P. E. Maslen,  N. Nair,  D. P. O'Neill,  D. Neuhauser,  E. Neuscamman,  
 C. M. Oana,  R. Olson,  B. Peters,  R. Peverati,  P. A. Pieniazek,  
 Y. M. Rhee,  J. Ritchie,  M. A. Rohrdanz,  E. Rosta,  N. J. Russ,  
 H. F. Schaefer III,  N. E. Schultz,  N. Shenvi,  A. C. Simmonett,  A. Sodt,  
 D. Stuck,  K. S. Thanthiriwatte,  V. Vanovschi,  Tao Wang,  A. Warshel,  
 C. F. Williams,  Q. Wu,  X. Xu,  W. Zhang

 Please cite Q-Chem as follows:
 Y. Shao et al., Mol. Phys. 113, 184-215 (2015)
 DOI: 10.1080/00268976.2014.952696

 Q-Chem 5.2.2 for Intel X86 EM64T Linux

 Parts of Q-Chem use Armadillo 9.800.1 (Horizon Scraper).
 http://arma.sourceforge.net/

 Q-Chem begins on Sun Apr 12 05:56:20 2020  

Host: cn0913
0

     Scratch files written to /tmp/ypli/6721341.srvc1/qchem229401//
Warning:  Did not find "$end" marker in "$molecule" section

Checking the input file for inconsistencies... 	...done.

--------------------------------------------------------------
User input:
--------------------------------------------------------------
$rem
   JOBTYPE  sp
   EXCHANGE   omegaB97X-D
   BASIS   6-311+G(2df,2pd)
   max_scf_cycles   250
   geom_opt_max_cycles   1500
   basis2 6-31G*
   scf_algorithm rca_diis
   SYM_IGNORE  TRUE
   print_input   true
   geom_opt_dmax   80
   pop_mulliken false
   XC_GRID 000075000302
$end

$molecule
0 1
C       1.2895574388     0.0000000995     0.2264704364
C       0.0136413093     0.0000000150     -0.5874575607
H       1.2754716952     -0.8732939261     0.8824028927
H       1.2754719184     0.8732939755     0.8824030898
H       2.2278214572     -0.0000000257     -0.3274134087
C       -1.2442437090     -0.0000000567     0.2917193095
H       -0.0374314958     -0.8734184283     -1.2418951086
H       -0.0374318412     0.8734183916     -1.2418951888
H       -1.3330308885     -0.8857942342     0.9231844621
H       -2.0967953870     0.0000006620     -0.3896583613
H       -1.3330305580     0.8857941935     0.9231844565
--------------------------------------------------------------
 ----------------------------------------------------------------
             Standard Nuclear Orientation (Angstroms)
    I     Atom           X                Y                Z
 ----------------------------------------------------------------
    1      C       1.2895574388     0.0000000995     0.2264704364
    2      C       0.0136413093     0.0000000150    -0.5874575607
    3      H       1.2754716952    -0.8732939261     0.8824028927
    4      H       1.2754719184     0.8732939755     0.8824030898
    5      H       2.2278214572    -0.0000000257    -0.3274134087
    6      C      -1.2442437090    -0.0000000567     0.2917193095
    7      H      -0.0374314958    -0.8734184283    -1.2418951086
    8      H      -0.0374318412     0.8734183916    -1.2418951888
    9      H      -1.3330308885    -0.8857942342     0.9231844621
   10      H      -2.0967953870     0.0000006620    -0.3896583613
   11      H      -1.3330305580     0.8857941935     0.9231844565
 ----------------------------------------------------------------
 Nuclear Repulsion Energy =          82.75448563 hartrees
 There are       13 alpha and       13 beta electrons
 Requested basis set is 6-311+G(2df,2pd)
 There are 72 shells and 214 basis functions

 Total QAlloc Memory Limit   2000 MB
 Mega-Array Size       188 MB
 MEM_STATIC part       192 MB

                       Distance Matrix (Angstroms)
             C (  1)   C (  2)   H (  3)   H (  4)   H (  5)   C (  6)
   C (  2)  1.513420
   H (  3)  1.092286  2.124935
   H (  4)  1.092286  2.124935  1.746588
   H (  5)  1.089553  2.229398  1.770104  1.770104
   C (  6)  2.534641  1.534675  2.731394  2.731395  3.526835
   H (  7)  2.163298  1.092592  2.497270  3.047517  2.594322  2.138043
   H (  8)  2.163298  1.092592  3.047517  2.497270  2.594322  2.138043
   H (  9)  2.854472  2.209117  2.608851  3.146481  3.876635  1.091450
   H ( 10)  3.441947  2.119686  3.708500  3.708499  4.325065  1.091384
   H ( 11)  2.854472  2.209117  3.146480  2.608851  3.876634  1.091450
             H (  7)   H (  8)   H (  9)   H ( 10)
   H (  8)  1.746837
   H (  9)  2.523153  3.075870
   H ( 10)  2.393773  2.393772  1.758273
   H ( 11)  3.075870  2.523153  1.771588  1.758273
 
 A cutoff of  1.0D-09 yielded   2535 shell pairs
 There are     22587 function pairs (     27771 Cartesian)
 Smallest overlap matrix eigenvalue = 8.72E-05

 Scale SEOQF with 1.000000e-01/1.000000e-01/1.000000e-01

 Standard Electronic Orientation quadrupole field applied
 Nucleus-field energy     =     0.0000000006 hartrees
 Requested basis set is 6-31G(d)
 There are 28 shells and 58 basis functions
 A cutoff of  1.0D-09 yielded    402 shell pairs
 There are      1773 function pairs (      1968 Cartesian)
 Smallest overlap matrix eigenvalue = 6.74E-03
 Guess from superposition of atomic densities
 Warning:  Energy on first SCF cycle will be non-variational
 SAD guess density has 26.000000 electrons
 Long-range K will be added via erf
 Coulomb attenuation parameter = 0.2 bohr**(-1)
 A restricted hybrid HF-DFT SCF calculation will be
 performed using Relaxed Constraint Minimization + Pulay DIIS
 Exchange:     0.2220 Hartree-Fock + 1.0000 wB97X-D + LR-HF
 Correlation:  1.0000 wB97X-D
 Using Euler-Maclaurin-Lebedev (75,302) quadrature formula
 Dispersion:   Grimme D
 SCF converges when DIIS error is below 1.0E-04
 using 3 threads for integral computing
 -------------------------------------------------------
 OpenMP Integral computing Module                
 Release: version 1.0, May 2013, Q-Chem Inc. Pittsburgh 
 -------------------------------------------------------
 using 3 threads for integral computing
 -------------------------------------------------------
 OpenMP Integral computing Module                
 Release: version 1.0, May 2013, Q-Chem Inc. Pittsburgh 
 -------------------------------------------------------
 ---------------------------------------
  Cycle       Energy         DIIS Error
 ---------------------------------------
    1    -119.6212418237      1.00E-01
    2    -119.0647819559      9.00E-03
    3    -119.0858509735      2.47E-03
    4    -119.0996974278      1.69E-03
    5    -119.1003986938      2.68E-04 Done RCA. Switching to DIIS
    6    -119.1009119986      1.98E-04
    7    -119.1009290437      4.52E-06 Convergence criterion met
 ---------------------------------------
 SCF time:  CPU 23.52 s  wall 8.03 s
 SCF   energy in the small basis set = -119.10092904
 Total energy in the small basis set = -119.10092904
 ----------------------------------------------------
  Cycle       Energy    
 ----------------------------------------------------
    1     -16.5395807160     -1.65E+01
 Long-range K will be added via erf
 Coulomb attenuation parameter = 0.2 bohr**(-1)
 A restricted hybrid HF-DFT SCF calculation will be
 performed using Relaxed Constraint Minimization + Pulay DIIS
 Exchange:     0.2220 Hartree-Fock + 1.0000 wB97X-D + LR-HF
 Correlation:  1.0000 wB97X-D
 Using Euler-Maclaurin-Lebedev (75,302) quadrature formula
 Dispersion:   Grimme D
 SCF converges when DIIS error is below 1.0E-05
 Basis2 calculation detected. Using small basis as guess for larger.
 SCFMinFind is unable to tell whether the solution found is close.
 Resetting ReadMinima to 0 and attempting to follow guess.
 SCFMinFind following SCF Guess.
 using 3 threads for integral computing
 -------------------------------------------------------
 OpenMP Integral computing Module                
 Release: version 1.0, May 2013, Q-Chem Inc. Pittsburgh 
 -------------------------------------------------------
 using 3 threads for integral computing
 -------------------------------------------------------
 OpenMP Integral computing Module                
 Release: version 1.0, May 2013, Q-Chem Inc. Pittsburgh 
 -------------------------------------------------------
 ---------------------------------------
  Cycle       Energy         DIIS Error
 ---------------------------------------
    1    -119.1200598439      4.21E-03
    2    -119.1421076863      5.98E-04 Done RCA. Switching to DIIS
    3    -119.1429427838      4.19E-04
    4    -119.1439031660      4.56E-05
    5    -119.1439179098      1.02E-05
    6    -119.1439185990      3.90E-06 Convergence criterion met
 ---------------------------------------
 SCF time:  CPU 68.19 s  wall 22.95 s
 SCF   energy in the final basis set = -119.14391860
 Total energy in the final basis set = -119.14391860
 
 --------------------------------------------------------------
 
                    Orbital Energies (a.u.)
 --------------------------------------------------------------
 
 Alpha MOs
 -- Occupied --
-10.2745 -10.2661 -10.2642  -0.8817  -0.7774  -0.6778  -0.5458  -0.5250
 -0.4829  -0.4635  -0.4186  -0.4166  -0.4072
 -- Virtual --
  0.0691   0.0859   0.0909   0.0990   0.1245   0.1301   0.1334   0.1426
  0.1432   0.1706   0.1721   0.1917   0.2321   0.2413   0.2448   0.2643
  0.2815   0.2821   0.3034   0.3215   0.3345   0.3497   0.4591   0.4668
  0.4702   0.5080   0.5125   0.5184   0.5464   0.5628   0.5827   0.5868
  0.6129   0.6362   0.6388   0.6435   0.6591   0.6597   0.7094   0.7258
  0.7263   0.7676   0.8217   0.8523   0.8685   0.8785   0.8896   0.9598
  1.0009   1.0467   1.0590   1.1343   1.1483   1.1772   1.1828   1.2113
  1.2340   1.2354   1.2737   1.2784   1.2811   1.2952   1.3279   1.3694
  1.3813   1.3989   1.4113   1.4466   1.4609   1.4706   1.4796   1.4861
  1.5239   1.5746   1.6125   1.6201   1.6407   1.6442   1.6837   1.6902
  1.7463   2.3805   2.4582   2.4806   2.5069   2.5388   2.5691   2.6014
  2.6300   2.7159   2.8122   2.8369   2.8412   2.9102   2.9267   2.9302
  2.9349   2.9434   3.0037   3.0095   3.0558   3.0701   3.0759   3.1045
  3.1362   3.1407   3.1754   3.1887   3.2173   3.2218   3.2826   3.3091
  3.3180   3.3300   3.3370   3.3501   3.3817   3.3831   3.3982   3.4456
  3.4597   3.4829   3.4898   3.5342   3.5631   3.5694   3.6015   3.6127
  3.6347   3.6736   3.6817   3.7177   3.7545   3.8157   3.8608   3.8949
  3.9141   3.9293   3.9563   3.9719   3.9775   4.0025   4.0513   4.0595
  4.0801   4.0964   4.1251   4.1306   4.1482   4.1633   4.1911   4.2193
  4.2208   4.2402   4.2781   4.3718   4.3891   4.4000   4.4316   4.4381
  4.4395   4.5867   4.5901   4.5944   4.6720   4.8060   4.8320   4.8933
  4.9310   4.9522   4.9571   4.9575   5.0085   5.0413   5.1000   5.1103
  5.1181   5.2435   5.2465   5.2857   5.3033   5.3524   5.3590   5.3723
  5.3791   5.3807   5.4638   5.5033   5.5598   5.5685   5.6457   5.7487
  5.9555   6.3830   6.3905   6.3965   6.4185   6.4651  25.2022  25.4403
 25.4567
 --------------------------------------------------------------
 
 -----------------------------------------------------------------
                    Cartesian Multipole Moments
 -----------------------------------------------------------------
    Charge (ESU x 10^10)
                 0.0000
    Dipole Moment (Debye)
         X      -0.0406      Y       0.0000      Z      -0.0853
       Tot       0.0944
    Quadrupole Moments (Debye-Ang)
        XX     -22.1565     XY      -0.0000     YY     -21.3757
        XZ      -0.0329     YZ      -0.0000     ZZ     -21.8516
    Octopole Moments (Debye-Ang^2)
       XXX       0.1955    XXY       0.0000    XYY      -0.5253
       YYY      -0.0000    XXZ      -1.5033    XYZ       0.0000
       YYZ       0.4868    XZZ      -0.6372    YZZ      -0.0000
       ZZZ      -0.3885
    Hexadecapole Moments (Debye-Ang^3)
      XXXX    -201.9409   XXXY      -0.0000   XXYY     -42.2033
      XYYY      -0.0000   YYYY     -44.1079   XXXZ       0.6047
      XXYZ      -0.0000   XYYZ       0.2279   YYYZ      -0.0000
      XXZZ     -45.3055   XYZZ       0.0000   YYZZ     -17.0880
      XZZZ       1.2354   YZZZ      -0.0000   ZZZZ     -72.2318
 -----------------------------------------------------------------
Archival summary:
1\1\cn0913\SP\ProcedureUnspecified\BasisUnspecified\38\r0852400\SunApr1205:56:542020SunApr1205:56:542020\0\\#,ProcedureUnspecified,BasisUnspecified,\\0,1\C\H,1,1.09259\H,1,1.09259,2,106.146\C,1,1.51342,2,111.195,3,-121.062,0\H,4,1.08955,1,116.911,2,59.0258,0\H,4,1.09229,1,108.185,2,-178.278,0\H,4,1.09229,1,108.185,2,-63.6708,0\C,1,1.53467,2,107.748,3,115.205,0\H,8,1.09138,1,106.416,2,-57.0712,0\H,8,1.09145,1,113.46,2,60.7129,0\H,8,1.09145,1,113.46,2,-174.855,0\\\@

 Total job time:  34.45s(wall), 95.97s(cpu) 
 Sun Apr 12 05:56:54 2020

        *************************************************************
        *                                                           *
        *  Thank you very much for using Q-Chem.  Have a nice day.  *
        *                                                           *
        *************************************************************


