                  Welcome to Q-Chem
     A Quantum Leap Into The Future Of Chemistry


 Q-Chem 5.2 (devel), Q-Chem, Inc., Pleasanton, CA (2019)

 Yihan Shao,  Zhengting Gan,  E. Epifanovsky,  A. T. B. Gilbert,  M. Wormit,  
 J. Kussmann,  A. W. Lange,  A. Behn,  Jia Deng,  Xintian Feng,  D. Ghosh,  
 M. Goldey,  P. R. Horn,  L. D. Jacobson,  I. Kaliman,  T. Kus,  A. Landau,  
 Jie Liu,  E. I. Proynov,  R. M. Richard,  R. P. Steele,  E. J. Sundstrom,  
 H. L. Woodcock III,  P. M. Zimmerman,  D. Zuev,  B. Alam,  B. Albrecht,  
 E. Alguire,  S. A. Baeppler,  D. Barton,  Z. Benda,  Y. A. Bernard,  
 E. J. Berquist,  K. B. Bravaya,  H. Burton,  K. Carter-Fenk,  D. Casanova,  
 Chun-Min Chang,  Yunqing Chen,  A. Chien,  K. D. Closser,  M. P. Coons,  
 S. Coriani,  S. Dasgupta,  A. L. Dempwolff,  M. Diedenhofen,  Hainam Do,  
 R. G. Edgar,  Po-Tung Fang,  S. Faraji,  S. Fatehi,  Qingguo Feng,  
 J. Fosso-Tande,  J. Gayvert,  Qinghui Ge,  A. Ghysels,  G. Gidofalvi,  
 J. Gomes,  J. Gonthier,  A. Gunina,  D. Hait,  M. W. D. Hanson-Heine,  
 P. H. P. Harbach,  A. W. Hauser,  M. F. Herbst,  J. E. Herr,  
 E. G. Hohenstein,  Z. C. Holden,  Kerwin Hui,  B. C. Huynh,  T.-C. Jagau,  
 Hyunjun Ji,  B. Kaduk,  K. Khistyaev,  Jaehoon Kim,  P. Klunzinger,  K. Koh,  
 D. Kosenkov,  L. Koulias,  T. Kowalczyk,  C. M. Krauter,  A. Kunitsa,  
 Ka Un Lao,  A. Laurent,  K. V. Lawler,  Joonho Lee,  D. Lefrancois,  
 S. Lehtola,  D. S. Levine,  Yi-Pei Li,  You-Sheng Lin,  Fenglai Liu,  
 Kuan-Yu Liu,  E. Livshits,  M. Loipersberger,  A. Luenser,  P. Manohar,  
 E. Mansoor,  S. F. Manzer,  Shan-Ping Mao,  Yuezhi Mao,  N. Mardirossian,  
 A. V. Marenich,  T. Markovich,  L. A. Martinez-Martinez,  S. A. Maurer,  
 N. J. Mayhall,  S. C. McKenzie,  J.-M. Mewes,  P. Morgante,  A. F. Morrison,  
 J. W. Mullinax,  K. Nanda,  T. S. Nguyen-Beck,  R. Olivares-Amaya,  
 J. A. Parkhill,  S. K. Paul,  Zheng Pei,  T. M. Perrine,  F. Plasser,  
 P. Pokhilko,  S. Prager,  A. Prociuk,  E. Ramos,  B. Rana,  D. R. Rehn,  
 F. Rob,  M. Scheurer,  M. Schneider,  N. Sergueev,  S. M. Sharada,  
 S. Sharma,  D. W. Small,  T. Stauch,  C. J. Stein,  T. Stein,  Yu-Chuan Su,  
 S. P. Veccham,  A. J. W. Thom,  A. Tkatchenko,  T. Tsuchimochi,  
 N. M. Tubman,  L. Vogt,  M. L. Vidal,  O. Vydrov,  M. A. Watson,  J. Wenzel,  
 M. de Wergifosse,  T. A. Wesolowski,  A. White,  J. Witte,  A. Yamada,  
 Jun Yang,  K. Yao,  S. Yeganeh,  S. R. Yost,  Zhi-Qiang You,  A. Zech,  
 Igor Ying Zhang,  Xing Zhang,  Yan Zhao,  Ying Zhu,  B. R. Brooks,  
 G. K. L. Chan,  C. J. Cramer,  M. S. Gordon,  W. J. Hehre,  A. Klamt,  
 M. W. Schmidt,  C. D. Sherrill,  D. G. Truhlar,  A. Aspuru-Guzik,  R. Baer,  
 A. T. Bell,  N. A. Besley,  Jeng-Da Chai,  A. E. DePrince, III,  
 R. A. DiStasio Jr.,  A. Dreuw,  B. D. Dunietz,  T. R. Furlani,  
 Chao-Ping Hsu,  Yousung Jung,  Jing Kong,  D. S. Lambrecht,  WanZhen Liang,  
 C. Ochsenfeld,  V. A. Rassolov,  L. V. Slipchenko,  J. E. Subotnik,  
 T. Van Voorhis,  J. M. Herbert,  A. I. Krylov,  P. M. W. Gill,  M. Head-Gordon

 Contributors to earlier versions of Q-Chem not listed above: 
 R. D. Adamson,  B. Austin,  J. Baker,  G. J. O. Beran,  K. Brandhorst,  
 S. T. Brown,  E. F. C. Byrd,  A. K. Chakraborty,  C.-L. Cheng,  
 Siu Hung Chien,  D. M. Chipman,  D. L. Crittenden,  H. Dachsel,  
 R. J. Doerksen,  A. D. Dutoi,  L. Fusti-Molnar,  W. A. Goddard III,  
 A. Golubeva-Zadorozhnaya,  S. R. Gwaltney,  G. Hawkins,  A. Heyden,  
 S. Hirata,  G. Kedziora,  F. J. Keil,  C. Kelley,  Jihan Kim,  R. A. King,  
 R. Z. Khaliullin,  P. P. Korambath,  W. Kurlancheek,  A. M. Lee,  M. S. Lee,  
 S. V. Levchenko,  Ching Yeh Lin,  D. Liotard,  R. C. Lochan,  I. Lotan,  
 P. E. Maslen,  N. Nair,  D. P. O'Neill,  D. Neuhauser,  E. Neuscamman,  
 C. M. Oana,  R. Olson,  B. Peters,  R. Peverati,  P. A. Pieniazek,  
 Y. M. Rhee,  J. Ritchie,  M. A. Rohrdanz,  E. Rosta,  N. J. Russ,  
 H. F. Schaefer III,  N. E. Schultz,  N. Shenvi,  A. C. Simmonett,  A. Sodt,  
 D. Stuck,  K. S. Thanthiriwatte,  V. Vanovschi,  Tao Wang,  A. Warshel,  
 C. F. Williams,  Q. Wu,  X. Xu,  W. Zhang

 Please cite Q-Chem as follows:
 Y. Shao et al., Mol. Phys. 113, 184-215 (2015)
 DOI: 10.1080/00268976.2014.952696

 Q-Chem 5.2.2 for Intel X86 EM64T Linux

 Parts of Q-Chem use Armadillo 9.800.1 (Horizon Scraper).
 http://arma.sourceforge.net/

 Q-Chem begins on Sun Apr 12 07:35:43 2020  

Host: cn0913
0

     Scratch files written to /tmp/ypli/6721341.srvc1/qchem247498//
Warning:  Did not find "$end" marker in "$molecule" section

Checking the input file for inconsistencies... 	...done.

--------------------------------------------------------------
User input:
--------------------------------------------------------------
$rem
   JOBTYPE  sp
   EXCHANGE   omegaB97X-D
   BASIS   6-311+G(2df,2pd)
   max_scf_cycles   250
   geom_opt_max_cycles   1500
   basis2 6-31G*
   scf_algorithm rca_diis
   SYM_IGNORE  TRUE
   print_input   true
   geom_opt_dmax   80
   pop_mulliken false
   XC_GRID 000075000302
$end

$molecule
0 1
C       1.2672054008     -0.0642940703     0.2597354825
C       0.0000004009     -0.0607102314     -0.5869638080
H       1.3009101789     -0.8238136477     0.8249236822
H       1.3094256047     0.9388620981     0.9812657377
H       2.1645325325     -0.0506429830     -0.3597115928
C       -1.2672026533     -0.0642951970     0.2597383563
H       0.0000002441     -0.8440353735     -1.1828509013
H       -0.0000004311     0.9045207659     -1.3015624664
H       -1.3009065086     -0.8238065018     0.8249200155
H       -2.1645416428     -0.0506435454     -0.3597157021
H       -1.3094231867     0.9388593520     0.9812662153
--------------------------------------------------------------
 ----------------------------------------------------------------
             Standard Nuclear Orientation (Angstroms)
    I     Atom           X                Y                Z
 ----------------------------------------------------------------
    1      C       1.2672054008    -0.0642940703     0.2597354825
    2      C       0.0000004009    -0.0607102314    -0.5869638080
    3      H       1.3009101789    -0.8238136477     0.8249236822
    4      H       1.3094256047     0.9388620981     0.9812657377
    5      H       2.1645325325    -0.0506429830    -0.3597115928
    6      C      -1.2672026533    -0.0642951970     0.2597383563
    7      H       0.0000002441    -0.8440353735    -1.1828509013
    8      H      -0.0000004311     0.9045207659    -1.3015624664
    9      H      -1.3009065086    -0.8238065018     0.8249200155
   10      H      -2.1645416428    -0.0506435454    -0.3597157021
   11      H      -1.3094231867     0.9388593520     0.9812662153
 ----------------------------------------------------------------
 Nuclear Repulsion Energy =          83.00789075 hartrees
 There are       13 alpha and       13 beta electrons
 Requested basis set is 6-311+G(2df,2pd)
 There are 72 shells and 214 basis functions

 Total QAlloc Memory Limit   2000 MB
 Mega-Array Size       188 MB
 MEM_STATIC part       192 MB

                       Distance Matrix (Angstroms)
             C (  1)   C (  2)   H (  3)   H (  4)   H (  5)   C (  6)
   C (  2)  1.524048
   H (  3)  0.947335  2.065943
   H (  4)  1.236410  2.274441  1.769616
   H (  5)  1.090457  2.176452  1.657407  1.873112
   C (  6)  2.534408  1.524048  2.737062  2.857611  3.487221
   H (  7)  2.072405  0.984215  2.392475  3.094627  2.447903  2.072405
   H (  8)  2.232054  1.200967  3.033389  2.631935  2.546492  2.232054
   H (  9)  2.737059  2.065936  2.601817  3.153614  3.743047  0.947324
   H ( 10)  3.487233  2.176462  3.743063  3.853025  4.329074  1.090471
   H ( 11)  2.857611  2.274439  3.153617  2.618849  3.853012  1.236408
             H (  7)   H (  8)   H (  9)   H ( 10)
   H (  8)  1.752581
   H (  9)  2.392470  3.033381
   H ( 10)  2.447910  2.546498  1.657410
   H ( 11)  3.094625  2.631933  1.769607  1.873119
 
 A cutoff of  1.0D-09 yielded   2532 shell pairs
 There are     22578 function pairs (     27759 Cartesian)
 Smallest overlap matrix eigenvalue = 8.67E-05

 Scale SEOQF with 1.000000e-01/1.000000e-01/1.000000e-01

 Standard Electronic Orientation quadrupole field applied
 Nucleus-field energy     =     0.0000000006 hartrees
 Requested basis set is 6-31G(d)
 There are 28 shells and 58 basis functions
 A cutoff of  1.0D-09 yielded    402 shell pairs
 There are      1773 function pairs (      1968 Cartesian)
 Smallest overlap matrix eigenvalue = 6.68E-03
 Guess from superposition of atomic densities
 Warning:  Energy on first SCF cycle will be non-variational
 SAD guess density has 26.000000 electrons
 Long-range K will be added via erf
 Coulomb attenuation parameter = 0.2 bohr**(-1)
 A restricted hybrid HF-DFT SCF calculation will be
 performed using Relaxed Constraint Minimization + Pulay DIIS
 Exchange:     0.2220 Hartree-Fock + 1.0000 wB97X-D + LR-HF
 Correlation:  1.0000 wB97X-D
 Using Euler-Maclaurin-Lebedev (75,302) quadrature formula
 Dispersion:   Grimme D
 SCF converges when DIIS error is below 1.0E-04
 using 3 threads for integral computing
 -------------------------------------------------------
 OpenMP Integral computing Module                
 Release: version 1.0, May 2013, Q-Chem Inc. Pittsburgh 
 -------------------------------------------------------
 using 3 threads for integral computing
 -------------------------------------------------------
 OpenMP Integral computing Module                
 Release: version 1.0, May 2013, Q-Chem Inc. Pittsburgh 
 -------------------------------------------------------
 ---------------------------------------
  Cycle       Energy         DIIS Error
 ---------------------------------------
    1    -119.6097390452      1.03E-01
    2    -118.9916838890      9.55E-03
    3    -119.0155978999      2.49E-03
    4    -119.0320301793      1.69E-03
    5    -119.0327358011      2.58E-04 Done RCA. Switching to DIIS
    6    -119.0332667502      1.89E-04
    7    -119.0332825507      4.99E-06 Convergence criterion met
 ---------------------------------------
 SCF time:  CPU 23.40 s  wall 7.94 s
 SCF   energy in the small basis set = -119.03328255
 Total energy in the small basis set = -119.03328255
 ----------------------------------------------------
  Cycle       Energy    
 ----------------------------------------------------
    1     -16.5660247400     -1.66E+01
 Long-range K will be added via erf
 Coulomb attenuation parameter = 0.2 bohr**(-1)
 A restricted hybrid HF-DFT SCF calculation will be
 performed using Relaxed Constraint Minimization + Pulay DIIS
 Exchange:     0.2220 Hartree-Fock + 1.0000 wB97X-D + LR-HF
 Correlation:  1.0000 wB97X-D
 Using Euler-Maclaurin-Lebedev (75,302) quadrature formula
 Dispersion:   Grimme D
 SCF converges when DIIS error is below 1.0E-05
 Basis2 calculation detected. Using small basis as guess for larger.
 SCFMinFind is unable to tell whether the solution found is close.
 Resetting ReadMinima to 0 and attempting to follow guess.
 SCFMinFind following SCF Guess.
 using 3 threads for integral computing
 -------------------------------------------------------
 OpenMP Integral computing Module                
 Release: version 1.0, May 2013, Q-Chem Inc. Pittsburgh 
 -------------------------------------------------------
 using 3 threads for integral computing
 -------------------------------------------------------
 OpenMP Integral computing Module                
 Release: version 1.0, May 2013, Q-Chem Inc. Pittsburgh 
 -------------------------------------------------------
 ---------------------------------------
  Cycle       Energy         DIIS Error
 ---------------------------------------
    1    -119.0554005515      4.21E-03
    2    -119.0773411475      5.80E-04 Done RCA. Switching to DIIS
    3    -119.0781161648      4.08E-04
    4    -119.0790347801      4.66E-05
    5    -119.0790502711      9.82E-06 Convergence criterion met
 ---------------------------------------
 SCF time:  CPU 60.77 s  wall 20.45 s
 SCF   energy in the final basis set = -119.07905027
 Total energy in the final basis set = -119.07905027
 
 --------------------------------------------------------------
 
                    Orbital Energies (a.u.)
 --------------------------------------------------------------
 
 Alpha MOs
 -- Occupied --
-10.2745 -10.2638 -10.2638  -0.8868  -0.7848  -0.6873  -0.5486  -0.5262
 -0.5023  -0.4465  -0.4191  -0.4172  -0.4047
 -- Virtual --
  0.0674   0.0852   0.0907   0.0985   0.1244   0.1288   0.1342   0.1401
  0.1424   0.1697   0.1701   0.1880   0.2207   0.2336   0.2357   0.2641
  0.2839   0.2878   0.3124   0.3165   0.3353   0.3547   0.4518   0.4715
  0.4715   0.5090   0.5149   0.5187   0.5458   0.5594   0.5758   0.5812
  0.6199   0.6273   0.6349   0.6425   0.6577   0.6607   0.7326   0.7345
  0.7484   0.7662   0.8240   0.8560   0.8724   0.8791   0.8912   0.9552
  0.9962   1.0508   1.0586   1.1298   1.1437   1.1801   1.1828   1.2152
  1.2195   1.2436   1.2498   1.2746   1.2914   1.2940   1.3266   1.3669
  1.3900   1.3921   1.3944   1.4260   1.4472   1.4531   1.4730   1.4879
  1.5411   1.5873   1.5925   1.6138   1.6382   1.6778   1.7208   1.7430
  1.7733   2.3405   2.4053   2.4626   2.5011   2.5593   2.5836   2.5859
  2.6886   2.7254   2.8108   2.8236   2.8354   2.8927   2.9076   2.9138
  2.9269   2.9373   2.9917   3.0178   3.0337   3.0595   3.0928   3.1051
  3.1070   3.1509   3.1678   3.1811   3.2308   3.2574   3.2586   3.2752
  3.3110   3.3186   3.3421   3.3457   3.3467   3.3856   3.3971   3.4256
  3.4430   3.4916   3.4935   3.5262   3.5391   3.5544   3.5970   3.5991
  3.6183   3.6580   3.6811   3.7198   3.7501   3.7700   3.8611   3.8712
  3.8788   3.9350   3.9362   3.9537   3.9646   4.0197   4.0204   4.0660
  4.0899   4.0902   4.1296   4.1410   4.1485   4.1608   4.2053   4.2264
  4.2335   4.2719   4.2838   4.3358   4.3582   4.3841   4.4100   4.4379
  4.4507   4.5392   4.5888   4.5918   4.6284   4.7194   4.8174   4.8185
  4.8401   4.8462   4.9538   4.9560   4.9984   5.0208   5.0341   5.1389
  5.1919   5.2366   5.2712   5.2821   5.3460   5.4375   5.4902   5.4995
  5.5761   5.5895   5.6391   5.6627   5.6896   5.7474   5.7924   5.8219
  5.9171   6.2118   6.2144   6.5046   6.6005   6.6258  25.1471  25.3687
 25.3778
 --------------------------------------------------------------
 
 -----------------------------------------------------------------
                    Cartesian Multipole Moments
 -----------------------------------------------------------------
    Charge (ESU x 10^10)
                -0.0000
    Dipole Moment (Debye)
         X       0.0000      Y      -0.4483      Z      -0.1250
       Tot       0.4654
    Quadrupole Moments (Debye-Ang)
        XX     -22.1368     XY      -0.0000     YY     -21.3116
        XZ      -0.0000     YZ       0.0091     ZZ     -21.9231
    Octopole Moments (Debye-Ang^2)
       XXX       0.0000    XXY      -0.5232    XYY       0.0000
       YYY       0.5601    XXZ      -1.7120    XYZ      -0.0000
       YYZ       0.4538    XZZ      -0.0000    YZZ       0.1390
       ZZZ      -0.5455
    Hexadecapole Moments (Debye-Ang^3)
      XXXX    -202.0151   XXXY      -0.0000   XXYY     -42.3064
      XYYY      -0.0000   YYYY     -44.6817   XXXZ      -0.0001
      XXYZ      -0.7341   XYYZ      -0.0000   YYYZ      -1.2009
      XXZZ     -45.5705   XYZZ      -0.0000   YYZZ     -17.2382
      XZZZ      -0.0001   YZZZ      -1.3125   ZZZZ     -73.1754
 -----------------------------------------------------------------
Archival summary:
1\1\cn0913\SP\ProcedureUnspecified\BasisUnspecified\38\r0852400\SunApr1207:36:142020SunApr1207:36:142020\0\\#,ProcedureUnspecified,BasisUnspecified,\\0,1\C\H,1,0.984215\H,1,1.20097,2,106.225\C,1,1.52405,2,109.541,3,118.08,0\H,4,0.947324,1,111.28,2,63.0287,0\H,4,1.09047,1,111.629,2,-58.5368,0\H,4,1.23641,1,110.53,2,-177.571,0\C,1,1.52405,2,109.541,3,-118.08,0\H,8,0.947335,1,111.28,2,-63.0288,0\H,8,1.09046,1,111.629,2,58.5367,0\H,8,1.23641,1,110.53,2,177.571,0\\\@

 Total job time:  31.84s(wall), 88.42s(cpu) 
 Sun Apr 12 07:36:14 2020

        *************************************************************
        *                                                           *
        *  Thank you very much for using Q-Chem.  Have a nice day.  *
        *                                                           *
        *************************************************************


