                  Welcome to Q-Chem
     A Quantum Leap Into The Future Of Chemistry


 Q-Chem 5.2 (devel), Q-Chem, Inc., Pleasanton, CA (2019)

 Yihan Shao,  Zhengting Gan,  E. Epifanovsky,  A. T. B. Gilbert,  M. Wormit,  
 J. Kussmann,  A. W. Lange,  A. Behn,  Jia Deng,  Xintian Feng,  D. Ghosh,  
 M. Goldey,  P. R. Horn,  L. D. Jacobson,  I. Kaliman,  T. Kus,  A. Landau,  
 Jie Liu,  E. I. Proynov,  R. M. Richard,  R. P. Steele,  E. J. Sundstrom,  
 H. L. Woodcock III,  P. M. Zimmerman,  D. Zuev,  B. Alam,  B. Albrecht,  
 E. Alguire,  S. A. Baeppler,  D. Barton,  Z. Benda,  Y. A. Bernard,  
 E. J. Berquist,  K. B. Bravaya,  H. Burton,  K. Carter-Fenk,  D. Casanova,  
 Chun-Min Chang,  Yunqing Chen,  A. Chien,  K. D. Closser,  M. P. Coons,  
 S. Coriani,  S. Dasgupta,  A. L. Dempwolff,  M. Diedenhofen,  Hainam Do,  
 R. G. Edgar,  Po-Tung Fang,  S. Faraji,  S. Fatehi,  Qingguo Feng,  
 J. Fosso-Tande,  J. Gayvert,  Qinghui Ge,  A. Ghysels,  G. Gidofalvi,  
 J. Gomes,  J. Gonthier,  A. Gunina,  D. Hait,  M. W. D. Hanson-Heine,  
 P. H. P. Harbach,  A. W. Hauser,  M. F. Herbst,  J. E. Herr,  
 E. G. Hohenstein,  Z. C. Holden,  Kerwin Hui,  B. C. Huynh,  T.-C. Jagau,  
 Hyunjun Ji,  B. Kaduk,  K. Khistyaev,  Jaehoon Kim,  P. Klunzinger,  K. Koh,  
 D. Kosenkov,  L. Koulias,  T. Kowalczyk,  C. M. Krauter,  A. Kunitsa,  
 Ka Un Lao,  A. Laurent,  K. V. Lawler,  Joonho Lee,  D. Lefrancois,  
 S. Lehtola,  D. S. Levine,  Yi-Pei Li,  You-Sheng Lin,  Fenglai Liu,  
 Kuan-Yu Liu,  E. Livshits,  M. Loipersberger,  A. Luenser,  P. Manohar,  
 E. Mansoor,  S. F. Manzer,  Shan-Ping Mao,  Yuezhi Mao,  N. Mardirossian,  
 A. V. Marenich,  T. Markovich,  L. A. Martinez-Martinez,  S. A. Maurer,  
 N. J. Mayhall,  S. C. McKenzie,  J.-M. Mewes,  P. Morgante,  A. F. Morrison,  
 J. W. Mullinax,  K. Nanda,  T. S. Nguyen-Beck,  R. Olivares-Amaya,  
 J. A. Parkhill,  S. K. Paul,  Zheng Pei,  T. M. Perrine,  F. Plasser,  
 P. Pokhilko,  S. Prager,  A. Prociuk,  E. Ramos,  B. Rana,  D. R. Rehn,  
 F. Rob,  M. Scheurer,  M. Schneider,  N. Sergueev,  S. M. Sharada,  
 S. Sharma,  D. W. Small,  T. Stauch,  C. J. Stein,  T. Stein,  Yu-Chuan Su,  
 S. P. Veccham,  A. J. W. Thom,  A. Tkatchenko,  T. Tsuchimochi,  
 N. M. Tubman,  L. Vogt,  M. L. Vidal,  O. Vydrov,  M. A. Watson,  J. Wenzel,  
 M. de Wergifosse,  T. A. Wesolowski,  A. White,  J. Witte,  A. Yamada,  
 Jun Yang,  K. Yao,  S. Yeganeh,  S. R. Yost,  Zhi-Qiang You,  A. Zech,  
 Igor Ying Zhang,  Xing Zhang,  Yan Zhao,  Ying Zhu,  B. R. Brooks,  
 G. K. L. Chan,  C. J. Cramer,  M. S. Gordon,  W. J. Hehre,  A. Klamt,  
 M. W. Schmidt,  C. D. Sherrill,  D. G. Truhlar,  A. Aspuru-Guzik,  R. Baer,  
 A. T. Bell,  N. A. Besley,  Jeng-Da Chai,  A. E. DePrince, III,  
 R. A. DiStasio Jr.,  A. Dreuw,  B. D. Dunietz,  T. R. Furlani,  
 Chao-Ping Hsu,  Yousung Jung,  Jing Kong,  D. S. Lambrecht,  WanZhen Liang,  
 C. Ochsenfeld,  V. A. Rassolov,  L. V. Slipchenko,  J. E. Subotnik,  
 T. Van Voorhis,  J. M. Herbert,  A. I. Krylov,  P. M. W. Gill,  M. Head-Gordon

 Contributors to earlier versions of Q-Chem not listed above: 
 R. D. Adamson,  B. Austin,  J. Baker,  G. J. O. Beran,  K. Brandhorst,  
 S. T. Brown,  E. F. C. Byrd,  A. K. Chakraborty,  C.-L. Cheng,  
 Siu Hung Chien,  D. M. Chipman,  D. L. Crittenden,  H. Dachsel,  
 R. J. Doerksen,  A. D. Dutoi,  L. Fusti-Molnar,  W. A. Goddard III,  
 A. Golubeva-Zadorozhnaya,  S. R. Gwaltney,  G. Hawkins,  A. Heyden,  
 S. Hirata,  G. Kedziora,  F. J. Keil,  C. Kelley,  Jihan Kim,  R. A. King,  
 R. Z. Khaliullin,  P. P. Korambath,  W. Kurlancheek,  A. M. Lee,  M. S. Lee,  
 S. V. Levchenko,  Ching Yeh Lin,  D. Liotard,  R. C. Lochan,  I. Lotan,  
 P. E. Maslen,  N. Nair,  D. P. O'Neill,  D. Neuhauser,  E. Neuscamman,  
 C. M. Oana,  R. Olson,  B. Peters,  R. Peverati,  P. A. Pieniazek,  
 Y. M. Rhee,  J. Ritchie,  M. A. Rohrdanz,  E. Rosta,  N. J. Russ,  
 H. F. Schaefer III,  N. E. Schultz,  N. Shenvi,  A. C. Simmonett,  A. Sodt,  
 D. Stuck,  K. S. Thanthiriwatte,  V. Vanovschi,  Tao Wang,  A. Warshel,  
 C. F. Williams,  Q. Wu,  X. Xu,  W. Zhang

 Please cite Q-Chem as follows:
 Y. Shao et al., Mol. Phys. 113, 184-215 (2015)
 DOI: 10.1080/00268976.2014.952696

 Q-Chem 5.2.2 for Intel X86 EM64T Linux

 Parts of Q-Chem use Armadillo 9.800.1 (Horizon Scraper).
 http://arma.sourceforge.net/

 Q-Chem begins on Sun Apr 12 07:08:11 2020  

Host: cn0913
0

     Scratch files written to /tmp/ypli/6721341.srvc1/qchem242132//
Warning:  Did not find "$end" marker in "$molecule" section

Checking the input file for inconsistencies... 	...done.

--------------------------------------------------------------
User input:
--------------------------------------------------------------
$rem
   JOBTYPE  sp
   EXCHANGE   omegaB97X-D
   BASIS   6-311+G(2df,2pd)
   max_scf_cycles   250
   geom_opt_max_cycles   1500
   basis2 6-31G*
   scf_algorithm rca_diis
   SYM_IGNORE  TRUE
   print_input   true
   geom_opt_dmax   80
   pop_mulliken false
   XC_GRID 000075000302
$end

$molecule
0 1
C       1.2746755908     -0.0000000091     0.2644955243
C       0.0062648980     -0.0000000406     -0.5872248695
H       1.3081762621     -0.8444248378     0.8808421038
H       1.3081762305     0.8444247945     0.8808421006
H       2.1404101634     0.0000000063     -0.3334108996
C       -1.2597162929     -0.0000001168     0.2544803907
H       0.0080332439     -0.8738724076     -1.2430442178
H       0.0080331560     0.8738724170     -1.2430442640
H       -1.3026188591     -0.9168365542     0.9268521988
H       -2.1888155502     0.0000006236     -0.3865955192
H       -1.3026189032     0.9168367906     0.9268524707
--------------------------------------------------------------
 ----------------------------------------------------------------
             Standard Nuclear Orientation (Angstroms)
    I     Atom           X                Y                Z
 ----------------------------------------------------------------
    1      C       1.2746755908    -0.0000000091     0.2644955243
    2      C       0.0062648980    -0.0000000406    -0.5872248695
    3      H       1.3081762621    -0.8444248378     0.8808421038
    4      H       1.3081762305     0.8444247945     0.8808421006
    5      H       2.1404101634     0.0000000063    -0.3334108996
    6      C      -1.2597162929    -0.0000001168     0.2544803907
    7      H       0.0080332439    -0.8738724076    -1.2430442178
    8      H       0.0080331560     0.8738724170    -1.2430442640
    9      H      -1.3026188591    -0.9168365542     0.9268521988
   10      H      -2.1888155502     0.0000006236    -0.3865955192
   11      H      -1.3026189032     0.9168367906     0.9268524707
 ----------------------------------------------------------------
 Nuclear Repulsion Energy =          82.76093573 hartrees
 There are       13 alpha and       13 beta electrons
 Requested basis set is 6-311+G(2df,2pd)
 There are 72 shells and 214 basis functions

 Total QAlloc Memory Limit   2000 MB
 Mega-Array Size       188 MB
 MEM_STATIC part       192 MB

                       Distance Matrix (Angstroms)
             C (  1)   C (  2)   H (  3)   H (  4)   H (  5)   C (  6)
   C (  2)  1.527839
   H (  3)  1.045973  2.136176
   H (  4)  1.045973  2.136176  1.688850
   H (  5)  1.052135  2.149185  1.697079  1.697079
   C (  6)  2.534412  1.520255  2.774789  2.774789  3.450576
   H (  7)  2.154231  1.092591  2.490408  3.025526  2.477522  2.147888
   H (  8)  2.154231  1.092591  3.025527  2.490408  2.477522  2.147888
   H (  9)  2.814561  2.201408  2.612204  3.149668  3.779325  1.137767
   H ( 10)  3.524158  2.204230  3.814237  3.814237  4.329552  1.128806
   H ( 11)  2.814561  2.201408  3.149668  2.612204  3.779326  1.137767
             H (  7)   H (  8)   H (  9)   H ( 10)
   H (  8)  1.747745
   H (  9)  2.535371  3.103691
   H ( 10)  2.514618  2.514617  1.830596
   H ( 11)  3.103691  2.535371  1.833673  1.830595
 
 A cutoff of  1.0D-09 yielded   2533 shell pairs
 There are     22585 function pairs (     27769 Cartesian)
 Smallest overlap matrix eigenvalue = 8.68E-05

 Scale SEOQF with 1.000000e-01/1.000000e-01/1.000000e-01

 Standard Electronic Orientation quadrupole field applied
 Nucleus-field energy     =     0.0000000006 hartrees
 Requested basis set is 6-31G(d)
 There are 28 shells and 58 basis functions
 A cutoff of  1.0D-09 yielded    402 shell pairs
 There are      1773 function pairs (      1968 Cartesian)
 Smallest overlap matrix eigenvalue = 6.77E-03
 Guess from superposition of atomic densities
 Warning:  Energy on first SCF cycle will be non-variational
 SAD guess density has 26.000000 electrons
 Long-range K will be added via erf
 Coulomb attenuation parameter = 0.2 bohr**(-1)
 A restricted hybrid HF-DFT SCF calculation will be
 performed using Relaxed Constraint Minimization + Pulay DIIS
 Exchange:     0.2220 Hartree-Fock + 1.0000 wB97X-D + LR-HF
 Correlation:  1.0000 wB97X-D
 Using Euler-Maclaurin-Lebedev (75,302) quadrature formula
 Dispersion:   Grimme D
 SCF converges when DIIS error is below 1.0E-04
 using 3 threads for integral computing
 -------------------------------------------------------
 OpenMP Integral computing Module                
 Release: version 1.0, May 2013, Q-Chem Inc. Pittsburgh 
 -------------------------------------------------------
 using 3 threads for integral computing
 -------------------------------------------------------
 OpenMP Integral computing Module                
 Release: version 1.0, May 2013, Q-Chem Inc. Pittsburgh 
 -------------------------------------------------------
 ---------------------------------------
  Cycle       Energy         DIIS Error
 ---------------------------------------
    1    -119.6186570524      1.01E-01
    2    -119.0591097078      9.10E-03
    3    -119.0806658006      2.52E-03
    4    -119.0946485364      1.73E-03
    5    -119.0953863067      2.76E-04 Done RCA. Switching to DIIS
    6    -119.0959258872      2.05E-04
    7    -119.0959442207      4.62E-06 Convergence criterion met
 ---------------------------------------
 SCF time:  CPU 23.18 s  wall 7.88 s
 SCF   energy in the small basis set = -119.09594422
 Total energy in the small basis set = -119.09594422
 ----------------------------------------------------
  Cycle       Energy    
 ----------------------------------------------------
    1     -16.5421973260     -1.65E+01
 Long-range K will be added via erf
 Coulomb attenuation parameter = 0.2 bohr**(-1)
 A restricted hybrid HF-DFT SCF calculation will be
 performed using Relaxed Constraint Minimization + Pulay DIIS
 Exchange:     0.2220 Hartree-Fock + 1.0000 wB97X-D + LR-HF
 Correlation:  1.0000 wB97X-D
 Using Euler-Maclaurin-Lebedev (75,302) quadrature formula
 Dispersion:   Grimme D
 SCF converges when DIIS error is below 1.0E-05
 Basis2 calculation detected. Using small basis as guess for larger.
 SCFMinFind is unable to tell whether the solution found is close.
 Resetting ReadMinima to 0 and attempting to follow guess.
 SCFMinFind following SCF Guess.
 using 3 threads for integral computing
 -------------------------------------------------------
 OpenMP Integral computing Module                
 Release: version 1.0, May 2013, Q-Chem Inc. Pittsburgh 
 -------------------------------------------------------
 using 3 threads for integral computing
 -------------------------------------------------------
 OpenMP Integral computing Module                
 Release: version 1.0, May 2013, Q-Chem Inc. Pittsburgh 
 -------------------------------------------------------
 ---------------------------------------
  Cycle       Energy         DIIS Error
 ---------------------------------------
    1    -119.1152846545      4.21E-03
    2    -119.1373247603      5.96E-04 Done RCA. Switching to DIIS
    3    -119.1381567072      4.17E-04
    4    -119.1391085959      4.62E-05
    5    -119.1391234829      1.14E-05
    6    -119.1391243064      4.12E-06 Convergence criterion met
 ---------------------------------------
 SCF time:  CPU 69.21 s  wall 23.29 s
 SCF   energy in the final basis set = -119.13912431
 Total energy in the final basis set = -119.13912431
 
 --------------------------------------------------------------
 
                    Orbital Energies (a.u.)
 --------------------------------------------------------------
 
 Alpha MOs
 -- Occupied --
-10.2786 -10.2741 -10.2510  -0.8818  -0.7781  -0.6771  -0.5464  -0.5249
 -0.4825  -0.4641  -0.4219  -0.4143  -0.4069
 -- Virtual --
  0.0690   0.0858   0.0910   0.0990   0.1250   0.1299   0.1334   0.1425
  0.1431   0.1705   0.1719   0.1912   0.2263   0.2400   0.2502   0.2644
  0.2796   0.2851   0.3100   0.3144   0.3346   0.3505   0.4587   0.4655
  0.4717   0.5099   0.5130   0.5177   0.5455   0.5609   0.5753   0.5931
  0.6223   0.6284   0.6428   0.6437   0.6569   0.6582   0.6961   0.7254
  0.7425   0.7678   0.8212   0.8658   0.8672   0.8724   0.8819   0.9548
  1.0071   1.0526   1.0573   1.1277   1.1504   1.1796   1.1802   1.2131
  1.2331   1.2345   1.2698   1.2786   1.2835   1.2929   1.3259   1.3737
  1.3798   1.3913   1.4076   1.4418   1.4667   1.4691   1.4784   1.4893
  1.5196   1.5805   1.6050   1.6197   1.6320   1.6404   1.6965   1.7050
  1.7538   2.3693   2.4503   2.4824   2.5138   2.5386   2.5606   2.6017
  2.6303   2.7231   2.8240   2.8328   2.8363   2.8883   2.9236   2.9240
  2.9360   2.9700   3.0030   3.0074   3.0306   3.0748   3.0949   3.1011
  3.1361   3.1403   3.1805   3.1901   3.1988   3.2165   3.2791   3.2936
  3.3203   3.3227   3.3480   3.3663   3.3664   3.3739   3.4098   3.4472
  3.4789   3.4797   3.4871   3.5139   3.5558   3.5713   3.5888   3.6029
  3.6402   3.6725   3.6971   3.7268   3.7747   3.8019   3.8807   3.8896
  3.9361   3.9364   3.9430   3.9504   3.9612   3.9955   4.0470   4.0703
  4.0705   4.0976   4.1158   4.1380   4.1453   4.1587   4.2011   4.2073
  4.2403   4.2504   4.2701   4.3590   4.3913   4.4035   4.4249   4.4330
  4.4384   4.5439   4.5926   4.5965   4.6993   4.7933   4.8080   4.8592
  4.8997   4.9033   4.9536   4.9743   5.0491   5.0517   5.0664   5.1522
  5.1653   5.2047   5.2216   5.2358   5.2501   5.3674   5.3876   5.3902
  5.4393   5.4654   5.4978   5.5202   5.5649   5.6006   5.6527   5.7648
  5.9549   6.2709   6.3045   6.4564   6.4986   6.5017  25.1981  25.2853
 25.5948
 --------------------------------------------------------------
 
 -----------------------------------------------------------------
                    Cartesian Multipole Moments
 -----------------------------------------------------------------
    Charge (ESU x 10^10)
                 0.0000
    Dipole Moment (Debye)
         X       0.0976      Y      -0.0000      Z      -0.0891
       Tot       0.1321
    Quadrupole Moments (Debye-Ang)
        XX     -22.1647     XY      -0.0000     YY     -21.3611
        XZ       0.0985     YZ      -0.0000     ZZ     -21.8369
    Octopole Moments (Debye-Ang^2)
       XXX       1.1637    XXY       0.0000    XYY       0.3125
       YYY      -0.0000    XXZ      -1.5510    XYZ       0.0000
       YYZ       0.4884    XZZ       0.3052    YZZ      -0.0000
       ZZZ      -0.4146
    Hexadecapole Moments (Debye-Ang^3)
      XXXX    -202.2396   XXXY      -0.0000   XXYY     -42.2315
      XYYY       0.0000   YYYY     -44.1738   XXXZ       0.9806
      XXYZ      -0.0000   XYYZ      -0.1322   YYYZ      -0.0000
      XXZZ     -45.3100   XYZZ       0.0000   YYZZ     -17.0742
      XZZZ       0.3095   YZZZ      -0.0000   ZZZZ     -72.2271
 -----------------------------------------------------------------
Archival summary:
1\1\cn0913\SP\ProcedureUnspecified\BasisUnspecified\38\r0852400\SunApr1207:08:462020SunApr1207:08:462020\0\\#,ProcedureUnspecified,BasisUnspecified,\\0,1\C\H,1,1.09259\H,1,1.09259,2,106.225\C,1,1.52026,2,109.492,3,118.142,0\H,4,1.12881,1,111.776,2,-58.0428,0\H,4,1.13777,1,111.014,2,62.276,0\H,4,1.13777,1,111.014,2,-178.362,0\C,1,1.52784,2,109.467,3,-118.1,0\H,8,1.04597,1,110.798,2,178.307,0\H,8,1.04597,1,110.798,2,-62.2496,0\H,8,1.05214,1,111.489,2,58.0288,0\\\@

 Total job time:  34.56s(wall), 96.56s(cpu) 
 Sun Apr 12 07:08:46 2020

        *************************************************************
        *                                                           *
        *  Thank you very much for using Q-Chem.  Have a nice day.  *
        *                                                           *
        *************************************************************


