                  Welcome to Q-Chem
     A Quantum Leap Into The Future Of Chemistry


 Q-Chem 5.2 (devel), Q-Chem, Inc., Pleasanton, CA (2019)

 Yihan Shao,  Zhengting Gan,  E. Epifanovsky,  A. T. B. Gilbert,  M. Wormit,  
 J. Kussmann,  A. W. Lange,  A. Behn,  Jia Deng,  Xintian Feng,  D. Ghosh,  
 M. Goldey,  P. R. Horn,  L. D. Jacobson,  I. Kaliman,  T. Kus,  A. Landau,  
 Jie Liu,  E. I. Proynov,  R. M. Richard,  R. P. Steele,  E. J. Sundstrom,  
 H. L. Woodcock III,  P. M. Zimmerman,  D. Zuev,  B. Alam,  B. Albrecht,  
 E. Alguire,  S. A. Baeppler,  D. Barton,  Z. Benda,  Y. A. Bernard,  
 E. J. Berquist,  K. B. Bravaya,  H. Burton,  K. Carter-Fenk,  D. Casanova,  
 Chun-Min Chang,  Yunqing Chen,  A. Chien,  K. D. Closser,  M. P. Coons,  
 S. Coriani,  S. Dasgupta,  A. L. Dempwolff,  M. Diedenhofen,  Hainam Do,  
 R. G. Edgar,  Po-Tung Fang,  S. Faraji,  S. Fatehi,  Qingguo Feng,  
 J. Fosso-Tande,  J. Gayvert,  Qinghui Ge,  A. Ghysels,  G. Gidofalvi,  
 J. Gomes,  J. Gonthier,  A. Gunina,  D. Hait,  M. W. D. Hanson-Heine,  
 P. H. P. Harbach,  A. W. Hauser,  M. F. Herbst,  J. E. Herr,  
 E. G. Hohenstein,  Z. C. Holden,  Kerwin Hui,  B. C. Huynh,  T.-C. Jagau,  
 Hyunjun Ji,  B. Kaduk,  K. Khistyaev,  Jaehoon Kim,  P. Klunzinger,  K. Koh,  
 D. Kosenkov,  L. Koulias,  T. Kowalczyk,  C. M. Krauter,  A. Kunitsa,  
 Ka Un Lao,  A. Laurent,  K. V. Lawler,  Joonho Lee,  D. Lefrancois,  
 S. Lehtola,  D. S. Levine,  Yi-Pei Li,  You-Sheng Lin,  Fenglai Liu,  
 Kuan-Yu Liu,  E. Livshits,  M. Loipersberger,  A. Luenser,  P. Manohar,  
 E. Mansoor,  S. F. Manzer,  Shan-Ping Mao,  Yuezhi Mao,  N. Mardirossian,  
 A. V. Marenich,  T. Markovich,  L. A. Martinez-Martinez,  S. A. Maurer,  
 N. J. Mayhall,  S. C. McKenzie,  J.-M. Mewes,  P. Morgante,  A. F. Morrison,  
 J. W. Mullinax,  K. Nanda,  T. S. Nguyen-Beck,  R. Olivares-Amaya,  
 J. A. Parkhill,  S. K. Paul,  Zheng Pei,  T. M. Perrine,  F. Plasser,  
 P. Pokhilko,  S. Prager,  A. Prociuk,  E. Ramos,  B. Rana,  D. R. Rehn,  
 F. Rob,  M. Scheurer,  M. Schneider,  N. Sergueev,  S. M. Sharada,  
 S. Sharma,  D. W. Small,  T. Stauch,  C. J. Stein,  T. Stein,  Yu-Chuan Su,  
 S. P. Veccham,  A. J. W. Thom,  A. Tkatchenko,  T. Tsuchimochi,  
 N. M. Tubman,  L. Vogt,  M. L. Vidal,  O. Vydrov,  M. A. Watson,  J. Wenzel,  
 M. de Wergifosse,  T. A. Wesolowski,  A. White,  J. Witte,  A. Yamada,  
 Jun Yang,  K. Yao,  S. Yeganeh,  S. R. Yost,  Zhi-Qiang You,  A. Zech,  
 Igor Ying Zhang,  Xing Zhang,  Yan Zhao,  Ying Zhu,  B. R. Brooks,  
 G. K. L. Chan,  C. J. Cramer,  M. S. Gordon,  W. J. Hehre,  A. Klamt,  
 M. W. Schmidt,  C. D. Sherrill,  D. G. Truhlar,  A. Aspuru-Guzik,  R. Baer,  
 A. T. Bell,  N. A. Besley,  Jeng-Da Chai,  A. E. DePrince, III,  
 R. A. DiStasio Jr.,  A. Dreuw,  B. D. Dunietz,  T. R. Furlani,  
 Chao-Ping Hsu,  Yousung Jung,  Jing Kong,  D. S. Lambrecht,  WanZhen Liang,  
 C. Ochsenfeld,  V. A. Rassolov,  L. V. Slipchenko,  J. E. Subotnik,  
 T. Van Voorhis,  J. M. Herbert,  A. I. Krylov,  P. M. W. Gill,  M. Head-Gordon

 Contributors to earlier versions of Q-Chem not listed above: 
 R. D. Adamson,  B. Austin,  J. Baker,  G. J. O. Beran,  K. Brandhorst,  
 S. T. Brown,  E. F. C. Byrd,  A. K. Chakraborty,  C.-L. Cheng,  
 Siu Hung Chien,  D. M. Chipman,  D. L. Crittenden,  H. Dachsel,  
 R. J. Doerksen,  A. D. Dutoi,  L. Fusti-Molnar,  W. A. Goddard III,  
 A. Golubeva-Zadorozhnaya,  S. R. Gwaltney,  G. Hawkins,  A. Heyden,  
 S. Hirata,  G. Kedziora,  F. J. Keil,  C. Kelley,  Jihan Kim,  R. A. King,  
 R. Z. Khaliullin,  P. P. Korambath,  W. Kurlancheek,  A. M. Lee,  M. S. Lee,  
 S. V. Levchenko,  Ching Yeh Lin,  D. Liotard,  R. C. Lochan,  I. Lotan,  
 P. E. Maslen,  N. Nair,  D. P. O'Neill,  D. Neuhauser,  E. Neuscamman,  
 C. M. Oana,  R. Olson,  B. Peters,  R. Peverati,  P. A. Pieniazek,  
 Y. M. Rhee,  J. Ritchie,  M. A. Rohrdanz,  E. Rosta,  N. J. Russ,  
 H. F. Schaefer III,  N. E. Schultz,  N. Shenvi,  A. C. Simmonett,  A. Sodt,  
 D. Stuck,  K. S. Thanthiriwatte,  V. Vanovschi,  Tao Wang,  A. Warshel,  
 C. F. Williams,  Q. Wu,  X. Xu,  W. Zhang

 Please cite Q-Chem as follows:
 Y. Shao et al., Mol. Phys. 113, 184-215 (2015)
 DOI: 10.1080/00268976.2014.952696

 Q-Chem 5.2.2 for Intel X86 EM64T Linux

 Parts of Q-Chem use Armadillo 9.800.1 (Horizon Scraper).
 http://arma.sourceforge.net/

 Q-Chem begins on Sun Apr 12 13:52:50 2020  

Host: cn0909
0

     Scratch files written to /tmp/ypli/6724609.srvc1/qchem76405//
Warning:  Did not find "$end" marker in "$molecule" section

Checking the input file for inconsistencies... 	...done.

--------------------------------------------------------------
User input:
--------------------------------------------------------------
$rem
   JOBTYPE  sp
   EXCHANGE   omegaB97X-D
   BASIS   6-311+G(2df,2pd)
   max_scf_cycles   250
   geom_opt_max_cycles   1500
   basis2 6-31G*
   scf_algorithm rca_diis
   SYM_IGNORE  TRUE
   print_input   true
   geom_opt_dmax   80
   pop_mulliken false
   XC_GRID 000075000302
$end

$molecule
0 1
C       1.2514550897     -0.2471847323     -0.0858922564
C       -0.0000027322     0.4648466733     0.4136976104
H       1.9485435834     0.6005448708     -0.0837935385
H       1.3034743278     -0.7274910917     -1.0587729487
H       1.6209504075     -0.9544792717     0.6573227046
C       -1.2514544144     -0.2471878640     -0.0859051978
H       -0.0000004678     1.2606236396     -0.3331829794
H       -0.0000087583     0.9317951194     1.4028394279
H       -1.9485838331     0.6005065686     -0.0837071805
H       -1.6208875600     -0.9545625472     0.6572650915
H       -1.3034857031     -0.7274106988     -1.0588257141
--------------------------------------------------------------
 ----------------------------------------------------------------
             Standard Nuclear Orientation (Angstroms)
    I     Atom           X                Y                Z
 ----------------------------------------------------------------
    1      C       1.2514550897    -0.2471847323    -0.0858922564
    2      C      -0.0000027322     0.4648466733     0.4136976104
    3      H       1.9485435834     0.6005448708    -0.0837935385
    4      H       1.3034743278    -0.7274910917    -1.0587729487
    5      H       1.6209504075    -0.9544792717     0.6573227046
    6      C      -1.2514544144    -0.2471878640    -0.0859051978
    7      H      -0.0000004678     1.2606236396    -0.3331829794
    8      H      -0.0000087583     0.9317951194     1.4028394279
    9      H      -1.9485838331     0.6005065686    -0.0837071805
   10      H      -1.6208875600    -0.9545625472     0.6572650915
   11      H      -1.3034857031    -0.7274106988    -1.0588257141
 ----------------------------------------------------------------
 Nuclear Repulsion Energy =          82.94421720 hartrees
 There are       13 alpha and       13 beta electrons
 Requested basis set is 6-311+G(2df,2pd)
 There are 72 shells and 214 basis functions

 Total QAlloc Memory Limit   2000 MB
 Mega-Array Size       188 MB
 MEM_STATIC part       192 MB

                       Distance Matrix (Angstroms)
             C (  1)   C (  2)   H (  3)   H (  4)   H (  5)   C (  6)
   C (  2)  1.524049
   H (  3)  1.097535  2.015625
   H (  4)  1.086231  2.299759  1.769288
   H (  5)  1.090487  2.168255  1.753474  1.759914
   C (  6)  2.502910  1.524050  3.310384  2.775756  3.050141
   H (  7)  1.975039  1.091371  2.072371  2.485584  2.918093  1.975039
   H (  8)  2.274308  1.093820  2.473188  3.242196  2.596408  2.274308
   H (  9)  3.310413  2.015635  3.897127  3.645574  3.963418  1.097534
   H ( 10)  3.050085  2.168252  3.963378  3.398270  3.241838  1.090487
   H ( 11)  2.775777  2.299754  3.645524  2.606960  3.398390  1.086230
             H (  7)   H (  8)   H (  9)   H ( 10)
   H (  8)  1.766890
   H (  9)  2.072431  2.473159
   H ( 10)  2.918101  2.596435  1.753472
   H ( 11)  2.485541  3.242192  1.769286  1.759917
 
 A cutoff of  1.0D-09 yielded   2514 shell pairs
 There are     22436 function pairs (     27621 Cartesian)
 Smallest overlap matrix eigenvalue = 9.75E-05

 Scale SEOQF with 1.000000e-01/1.000000e-01/1.000000e-01

 Standard Electronic Orientation quadrupole field applied
 Nucleus-field energy     =     0.0000000012 hartrees
 Requested basis set is 6-31G(d)
 There are 28 shells and 58 basis functions
 A cutoff of  1.0D-09 yielded    403 shell pairs
 There are      1774 function pairs (      1969 Cartesian)
 Smallest overlap matrix eigenvalue = 5.55E-03
 Guess from superposition of atomic densities
 Warning:  Energy on first SCF cycle will be non-variational
 SAD guess density has 26.000000 electrons
 Long-range K will be added via erf
 Coulomb attenuation parameter = 0.2 bohr**(-1)
 A restricted hybrid HF-DFT SCF calculation will be
 performed using Relaxed Constraint Minimization + Pulay DIIS
 Exchange:     0.2220 Hartree-Fock + 1.0000 wB97X-D + LR-HF
 Correlation:  1.0000 wB97X-D
 Using Euler-Maclaurin-Lebedev (75,302) quadrature formula
 Dispersion:   Grimme D
 SCF converges when DIIS error is below 1.0E-04
 using 3 threads for integral computing
 -------------------------------------------------------
 OpenMP Integral computing Module                
 Release: version 1.0, May 2013, Q-Chem Inc. Pittsburgh 
 -------------------------------------------------------
 using 3 threads for integral computing
 -------------------------------------------------------
 OpenMP Integral computing Module                
 Release: version 1.0, May 2013, Q-Chem Inc. Pittsburgh 
 -------------------------------------------------------
 ---------------------------------------
  Cycle       Energy         DIIS Error
 ---------------------------------------
    1    -119.6528562805      1.01E-01
    2    -119.0287181782      9.26E-03
    3    -119.0508644965      2.49E-03
    4    -119.0657695518      1.71E-03
    5    -119.0664820586      2.67E-04 Done RCA. Switching to DIIS
    6    -119.0670102600      1.95E-04
    7    -119.0670268184      6.62E-06 Convergence criterion met
 ---------------------------------------
 SCF time:  CPU 26.75 s  wall 9.30 s
 SCF   energy in the small basis set = -119.06702682
 Total energy in the small basis set = -119.06702682
 ----------------------------------------------------
  Cycle       Energy    
 ----------------------------------------------------
    1     -16.5459179327     -1.65E+01
 Long-range K will be added via erf
 Coulomb attenuation parameter = 0.2 bohr**(-1)
 A restricted hybrid HF-DFT SCF calculation will be
 performed using Relaxed Constraint Minimization + Pulay DIIS
 Exchange:     0.2220 Hartree-Fock + 1.0000 wB97X-D + LR-HF
 Correlation:  1.0000 wB97X-D
 Using Euler-Maclaurin-Lebedev (75,302) quadrature formula
 Dispersion:   Grimme D
 SCF converges when DIIS error is below 1.0E-05
 Basis2 calculation detected. Using small basis as guess for larger.
 SCFMinFind is unable to tell whether the solution found is close.
 Resetting ReadMinima to 0 and attempting to follow guess.
 SCFMinFind following SCF Guess.
 using 3 threads for integral computing
 -------------------------------------------------------
 OpenMP Integral computing Module                
 Release: version 1.0, May 2013, Q-Chem Inc. Pittsburgh 
 -------------------------------------------------------
 using 3 threads for integral computing
 -------------------------------------------------------
 OpenMP Integral computing Module                
 Release: version 1.0, May 2013, Q-Chem Inc. Pittsburgh 
 -------------------------------------------------------
 ---------------------------------------
  Cycle       Energy         DIIS Error
 ---------------------------------------
    1    -119.0871423351      4.21E-03
    2    -119.1091697306      6.13E-04 Done RCA. Switching to DIIS
    3    -119.1100235347      4.35E-04
    4    -119.1110591220      4.59E-05
    5    -119.1110745173      9.06E-06 Convergence criterion met
 ---------------------------------------
 SCF time:  CPU 71.20 s  wall 24.45 s
 SCF   energy in the final basis set = -119.11107452
 Total energy in the final basis set = -119.11107452
 
 --------------------------------------------------------------
 
                    Orbital Energies (a.u.)
 --------------------------------------------------------------
 
 Alpha MOs
 -- Occupied --
-10.2762 -10.2625 -10.2625  -0.8858  -0.7785  -0.6761  -0.5478  -0.5118
 -0.5015  -0.4652  -0.4517  -0.3826  -0.3813
 -- Virtual --
  0.0667   0.0873   0.0897   0.0995   0.1232   0.1297   0.1324   0.1341
  0.1430   0.1727   0.1753   0.1883   0.2237   0.2367   0.2435   0.2649
  0.2786   0.2923   0.3044   0.3106   0.3510   0.3522   0.4589   0.4628
  0.4722   0.5084   0.5124   0.5218   0.5218   0.5806   0.5925   0.5991
  0.5993   0.6171   0.6405   0.6528   0.6594   0.6722   0.7083   0.7161
  0.7354   0.7572   0.8053   0.8424   0.8746   0.8925   0.9615   0.9672
  0.9872   0.9955   1.1007   1.1404   1.1486   1.1549   1.1699   1.2091
  1.2295   1.2620   1.2698   1.2926   1.3057   1.3252   1.3448   1.3540
  1.3818   1.4054   1.4263   1.4524   1.4614   1.4629   1.4866   1.4944
  1.5255   1.5259   1.5755   1.5960   1.6336   1.6575   1.6775   1.7073
  1.7710   2.3799   2.4142   2.4700   2.4835   2.5248   2.5780   2.5951
  2.6654   2.6985   2.7725   2.8203   2.8807   2.8956   2.9371   2.9602
  2.9615   2.9748   2.9886   3.0428   3.0609   3.0632   3.0925   3.1304
  3.1319   3.1553   3.1583   3.1916   3.2261   3.2410   3.2587   3.2775
  3.2837   3.2924   3.3596   3.3951   3.3960   3.4099   3.4112   3.4168
  3.4632   3.4752   3.5287   3.5657   3.5749   3.5861   3.5925   3.6145
  3.6167   3.6612   3.7130   3.7564   3.7623   3.7876   3.8032   3.8468
  3.8559   3.9318   3.9440   3.9529   3.9794   4.0058   4.0243   4.0410
  4.0604   4.0828   4.1180   4.1353   4.1719   4.1970   4.2156   4.2168
  4.2235   4.3102   4.3153   4.3396   4.3881   4.4281   4.4328   4.4954
  4.5188   4.5567   4.5847   4.6260   4.6810   4.8212   4.8449   4.8834
  4.9303   4.9449   4.9560   5.0124   5.0220   5.0747   5.1173   5.1481
  5.1526   5.2019   5.2199   5.2480   5.2830   5.3320   5.3569   5.3718
  5.3741   5.3906   5.4804   5.4845   5.4991   5.5991   5.7157   5.8137
  5.9847   6.3832   6.3989   6.4062   6.4125   6.4877  25.1781  25.4232
 25.4518
 --------------------------------------------------------------
 
 -----------------------------------------------------------------
                    Cartesian Multipole Moments
 -----------------------------------------------------------------
    Charge (ESU x 10^10)
                -0.0000
    Dipole Moment (Debye)
         X       0.0000      Y       0.2099      Z      -0.0254
       Tot       0.2115
    Quadrupole Moments (Debye-Ang)
        XX     -23.3003     XY      -0.0000     YY     -21.6447
        XZ       0.0000     YZ       0.5760     ZZ     -20.7662
    Octopole Moments (Debye-Ang^2)
       XXX      -0.0001    XXY       0.6417    XYY       0.0001
       YYY       0.8187    XXZ      -1.6055    XYZ      -0.0000
       YYZ      -1.1592    XZZ      -0.0000    YZZ      -0.0666
       ZZZ      -3.5680
    Hexadecapole Moments (Debye-Ang^3)
      XXXX    -215.4552   XXXY      -0.0005   XXYY     -42.4878
      XYYY      -0.0000   YYYY     -65.0362   XXXZ      -0.0002
      XXYZ      -1.6169   XYYZ      -0.0003   YYYZ      -6.0135
      XXZZ     -42.0939   XYZZ      -0.0001   YYZZ     -17.0653
      XZZZ      -0.0000   YZZZ      -3.3265   ZZZZ     -49.5527
 -----------------------------------------------------------------
Archival summary:
1\1\cn0909\SP\ProcedureUnspecified\BasisUnspecified\38\r0852400\SunApr1213:53:282020SunApr1213:53:282020\0\\#,ProcedureUnspecified,BasisUnspecified,\\0,1\C\H,1,1.09137\H,1,1.09382,2,107.914\C,1,1.52405,2,96.68,3,-124.234,0\H,4,1.08623,1,122.65,2,-65.0107,0\H,4,1.09049,1,110.968,2,165.456,0\H,4,1.09753,1,99.2099,2,53.6935,0\C,1,1.52405,2,96.6799,3,124.234,0\H,8,1.08623,1,122.65,2,65.0048,0\H,8,1.09049,1,110.968,2,-165.462,0\H,8,1.09753,1,99.2106,2,-53.6996,0\\\@

 Total job time:  37.73s(wall), 102.79s(cpu) 
 Sun Apr 12 13:53:28 2020

        *************************************************************
        *                                                           *
        *  Thank you very much for using Q-Chem.  Have a nice day.  *
        *                                                           *
        *************************************************************


