                  Welcome to Q-Chem
     A Quantum Leap Into The Future Of Chemistry


 Q-Chem 5.2 (devel), Q-Chem, Inc., Pleasanton, CA (2019)

 Yihan Shao,  Zhengting Gan,  E. Epifanovsky,  A. T. B. Gilbert,  M. Wormit,  
 J. Kussmann,  A. W. Lange,  A. Behn,  Jia Deng,  Xintian Feng,  D. Ghosh,  
 M. Goldey,  P. R. Horn,  L. D. Jacobson,  I. Kaliman,  T. Kus,  A. Landau,  
 Jie Liu,  E. I. Proynov,  R. M. Richard,  R. P. Steele,  E. J. Sundstrom,  
 H. L. Woodcock III,  P. M. Zimmerman,  D. Zuev,  B. Alam,  B. Albrecht,  
 E. Alguire,  S. A. Baeppler,  D. Barton,  Z. Benda,  Y. A. Bernard,  
 E. J. Berquist,  K. B. Bravaya,  H. Burton,  K. Carter-Fenk,  D. Casanova,  
 Chun-Min Chang,  Yunqing Chen,  A. Chien,  K. D. Closser,  M. P. Coons,  
 S. Coriani,  S. Dasgupta,  A. L. Dempwolff,  M. Diedenhofen,  Hainam Do,  
 R. G. Edgar,  Po-Tung Fang,  S. Faraji,  S. Fatehi,  Qingguo Feng,  
 J. Fosso-Tande,  J. Gayvert,  Qinghui Ge,  A. Ghysels,  G. Gidofalvi,  
 J. Gomes,  J. Gonthier,  A. Gunina,  D. Hait,  M. W. D. Hanson-Heine,  
 P. H. P. Harbach,  A. W. Hauser,  M. F. Herbst,  J. E. Herr,  
 E. G. Hohenstein,  Z. C. Holden,  Kerwin Hui,  B. C. Huynh,  T.-C. Jagau,  
 Hyunjun Ji,  B. Kaduk,  K. Khistyaev,  Jaehoon Kim,  P. Klunzinger,  K. Koh,  
 D. Kosenkov,  L. Koulias,  T. Kowalczyk,  C. M. Krauter,  A. Kunitsa,  
 Ka Un Lao,  A. Laurent,  K. V. Lawler,  Joonho Lee,  D. Lefrancois,  
 S. Lehtola,  D. S. Levine,  Yi-Pei Li,  You-Sheng Lin,  Fenglai Liu,  
 Kuan-Yu Liu,  E. Livshits,  M. Loipersberger,  A. Luenser,  P. Manohar,  
 E. Mansoor,  S. F. Manzer,  Shan-Ping Mao,  Yuezhi Mao,  N. Mardirossian,  
 A. V. Marenich,  T. Markovich,  L. A. Martinez-Martinez,  S. A. Maurer,  
 N. J. Mayhall,  S. C. McKenzie,  J.-M. Mewes,  P. Morgante,  A. F. Morrison,  
 J. W. Mullinax,  K. Nanda,  T. S. Nguyen-Beck,  R. Olivares-Amaya,  
 J. A. Parkhill,  S. K. Paul,  Zheng Pei,  T. M. Perrine,  F. Plasser,  
 P. Pokhilko,  S. Prager,  A. Prociuk,  E. Ramos,  B. Rana,  D. R. Rehn,  
 F. Rob,  M. Scheurer,  M. Schneider,  N. Sergueev,  S. M. Sharada,  
 S. Sharma,  D. W. Small,  T. Stauch,  C. J. Stein,  T. Stein,  Yu-Chuan Su,  
 S. P. Veccham,  A. J. W. Thom,  A. Tkatchenko,  T. Tsuchimochi,  
 N. M. Tubman,  L. Vogt,  M. L. Vidal,  O. Vydrov,  M. A. Watson,  J. Wenzel,  
 M. de Wergifosse,  T. A. Wesolowski,  A. White,  J. Witte,  A. Yamada,  
 Jun Yang,  K. Yao,  S. Yeganeh,  S. R. Yost,  Zhi-Qiang You,  A. Zech,  
 Igor Ying Zhang,  Xing Zhang,  Yan Zhao,  Ying Zhu,  B. R. Brooks,  
 G. K. L. Chan,  C. J. Cramer,  M. S. Gordon,  W. J. Hehre,  A. Klamt,  
 M. W. Schmidt,  C. D. Sherrill,  D. G. Truhlar,  A. Aspuru-Guzik,  R. Baer,  
 A. T. Bell,  N. A. Besley,  Jeng-Da Chai,  A. E. DePrince, III,  
 R. A. DiStasio Jr.,  A. Dreuw,  B. D. Dunietz,  T. R. Furlani,  
 Chao-Ping Hsu,  Yousung Jung,  Jing Kong,  D. S. Lambrecht,  WanZhen Liang,  
 C. Ochsenfeld,  V. A. Rassolov,  L. V. Slipchenko,  J. E. Subotnik,  
 T. Van Voorhis,  J. M. Herbert,  A. I. Krylov,  P. M. W. Gill,  M. Head-Gordon

 Contributors to earlier versions of Q-Chem not listed above: 
 R. D. Adamson,  B. Austin,  J. Baker,  G. J. O. Beran,  K. Brandhorst,  
 S. T. Brown,  E. F. C. Byrd,  A. K. Chakraborty,  C.-L. Cheng,  
 Siu Hung Chien,  D. M. Chipman,  D. L. Crittenden,  H. Dachsel,  
 R. J. Doerksen,  A. D. Dutoi,  L. Fusti-Molnar,  W. A. Goddard III,  
 A. Golubeva-Zadorozhnaya,  S. R. Gwaltney,  G. Hawkins,  A. Heyden,  
 S. Hirata,  G. Kedziora,  F. J. Keil,  C. Kelley,  Jihan Kim,  R. A. King,  
 R. Z. Khaliullin,  P. P. Korambath,  W. Kurlancheek,  A. M. Lee,  M. S. Lee,  
 S. V. Levchenko,  Ching Yeh Lin,  D. Liotard,  R. C. Lochan,  I. Lotan,  
 P. E. Maslen,  N. Nair,  D. P. O'Neill,  D. Neuhauser,  E. Neuscamman,  
 C. M. Oana,  R. Olson,  B. Peters,  R. Peverati,  P. A. Pieniazek,  
 Y. M. Rhee,  J. Ritchie,  M. A. Rohrdanz,  E. Rosta,  N. J. Russ,  
 H. F. Schaefer III,  N. E. Schultz,  N. Shenvi,  A. C. Simmonett,  A. Sodt,  
 D. Stuck,  K. S. Thanthiriwatte,  V. Vanovschi,  Tao Wang,  A. Warshel,  
 C. F. Williams,  Q. Wu,  X. Xu,  W. Zhang

 Please cite Q-Chem as follows:
 Y. Shao et al., Mol. Phys. 113, 184-215 (2015)
 DOI: 10.1080/00268976.2014.952696

 Q-Chem 5.2.2 for Intel X86 EM64T Linux

 Parts of Q-Chem use Armadillo 9.800.1 (Horizon Scraper).
 http://arma.sourceforge.net/

 Q-Chem begins on Sun Apr 12 06:06:25 2020  

Host: cn0913
0

     Scratch files written to /tmp/ypli/6721341.srvc1/qchem231216//
Warning:  Did not find "$end" marker in "$molecule" section

Checking the input file for inconsistencies... 	...done.

--------------------------------------------------------------
User input:
--------------------------------------------------------------
$rem
   JOBTYPE  sp
   EXCHANGE   omegaB97X-D
   BASIS   6-311+G(2df,2pd)
   max_scf_cycles   250
   geom_opt_max_cycles   1500
   basis2 6-31G*
   scf_algorithm rca_diis
   SYM_IGNORE  TRUE
   print_input   true
   geom_opt_dmax   80
   pop_mulliken false
   XC_GRID 000075000302
$end

$molecule
0 1
C       1.2619269051     -0.0000000498     0.2850646337
C       0.0000000174     0.0000000676     -0.6015380960
H       1.3490605271     -0.8880870085     0.9130672016
H       1.3490604216     0.8880869506     0.9130671653
H       2.1248001178     0.0000000588     -0.3842187477
C       -1.2619269400     -0.0000000598     0.2850646976
H       -0.0000000733     -0.8756061529     -1.2556886683
H       -0.0000000258     0.8756061948     -1.2556887935
H       -1.3490605072     -0.8880870111     0.9130672537
H       -2.1248000274     0.0000006956     -0.3842188107
H       -1.3490604761     0.8880869808     0.9130671833
--------------------------------------------------------------
 ----------------------------------------------------------------
             Standard Nuclear Orientation (Angstroms)
    I     Atom           X                Y                Z
 ----------------------------------------------------------------
    1      C       1.2619269051    -0.0000000498     0.2850646337
    2      C       0.0000000174     0.0000000676    -0.6015380960
    3      H       1.3490605271    -0.8880870085     0.9130672016
    4      H       1.3490604216     0.8880869506     0.9130671653
    5      H       2.1248001178     0.0000000588    -0.3842187477
    6      C      -1.2619269400    -0.0000000598     0.2850646976
    7      H      -0.0000000733    -0.8756061529    -1.2556886683
    8      H      -0.0000000258     0.8756061948    -1.2556887935
    9      H      -1.3490605072    -0.8880870111     0.9130672537
   10      H      -2.1248000274     0.0000006956    -0.3842188107
   11      H      -1.3490604761     0.8880869808     0.9130671833
 ----------------------------------------------------------------
 Nuclear Repulsion Energy =          82.26585831 hartrees
 There are       13 alpha and       13 beta electrons
 Requested basis set is 6-311+G(2df,2pd)
 There are 72 shells and 214 basis functions

 Total QAlloc Memory Limit   2000 MB
 Mega-Array Size       188 MB
 MEM_STATIC part       192 MB

                       Distance Matrix (Angstroms)
             C (  1)   C (  2)   H (  3)   H (  4)   H (  5)   C (  6)
   C (  2)  1.542246
   H (  3)  1.091182  2.214202
   H (  4)  1.091182  2.214202  1.776174
   H (  5)  1.092012  2.135885  1.753118  1.753118
   C (  6)  2.523854  1.542246  2.828487  2.828487  3.452225
   H (  7)  2.175561  1.092977  2.554138  3.103881  2.457829  2.175561
   H (  8)  2.175561  1.092977  3.103882  2.554138  2.457829  2.175561
   H (  9)  2.828487  2.214202  2.698121  3.230271  3.813051  1.091182
   H ( 10)  3.452225  2.135885  3.813051  3.813051  4.249600  1.092012
   H ( 11)  2.828487  2.214202  3.230271  2.698121  3.813051  1.091182
             H (  7)   H (  8)   H (  9)   H ( 10)
   H (  8)  1.751212
   H (  9)  2.554138  3.103882
   H ( 10)  2.457829  2.457828  1.753118
   H ( 11)  3.103881  2.554138  1.776174  1.753117
 
 A cutoff of  1.0D-09 yielded   2530 shell pairs
 There are     22532 function pairs (     27707 Cartesian)
 Smallest overlap matrix eigenvalue = 8.98E-05

 Scale SEOQF with 1.000000e-01/1.000000e-01/1.000000e-01

 Standard Electronic Orientation quadrupole field applied
 Nucleus-field energy     =     0.0000000005 hartrees
 Requested basis set is 6-31G(d)
 There are 28 shells and 58 basis functions
 A cutoff of  1.0D-09 yielded    402 shell pairs
 There are      1773 function pairs (      1968 Cartesian)
 Smallest overlap matrix eigenvalue = 6.93E-03
 Guess from superposition of atomic densities
 Warning:  Energy on first SCF cycle will be non-variational
 SAD guess density has 26.000000 electrons
 Long-range K will be added via erf
 Coulomb attenuation parameter = 0.2 bohr**(-1)
 A restricted hybrid HF-DFT SCF calculation will be
 performed using Relaxed Constraint Minimization + Pulay DIIS
 Exchange:     0.2220 Hartree-Fock + 1.0000 wB97X-D + LR-HF
 Correlation:  1.0000 wB97X-D
 Using Euler-Maclaurin-Lebedev (75,302) quadrature formula
 Dispersion:   Grimme D
 SCF converges when DIIS error is below 1.0E-04
 using 3 threads for integral computing
 -------------------------------------------------------
 OpenMP Integral computing Module                
 Release: version 1.0, May 2013, Q-Chem Inc. Pittsburgh 
 -------------------------------------------------------
 using 3 threads for integral computing
 -------------------------------------------------------
 OpenMP Integral computing Module                
 Release: version 1.0, May 2013, Q-Chem Inc. Pittsburgh 
 -------------------------------------------------------
 ---------------------------------------
  Cycle       Energy         DIIS Error
 ---------------------------------------
    1    -119.5692517421      9.88E-02
    2    -119.0652693414      8.90E-03
    3    -119.0858881562      2.45E-03
    4    -119.0994547841      1.67E-03
    5    -119.1001415356      2.67E-04 Done RCA. Switching to DIIS
    6    -119.1006428504      1.95E-04
    7    -119.1006594319      5.15E-06 Convergence criterion met
 ---------------------------------------
 SCF time:  CPU 23.01 s  wall 7.80 s
 SCF   energy in the small basis set = -119.10065943
 Total energy in the small basis set = -119.10065943
 ----------------------------------------------------
  Cycle       Energy    
 ----------------------------------------------------
    1     -16.5252531628     -1.65E+01
 Long-range K will be added via erf
 Coulomb attenuation parameter = 0.2 bohr**(-1)
 A restricted hybrid HF-DFT SCF calculation will be
 performed using Relaxed Constraint Minimization + Pulay DIIS
 Exchange:     0.2220 Hartree-Fock + 1.0000 wB97X-D + LR-HF
 Correlation:  1.0000 wB97X-D
 Using Euler-Maclaurin-Lebedev (75,302) quadrature formula
 Dispersion:   Grimme D
 SCF converges when DIIS error is below 1.0E-05
 Basis2 calculation detected. Using small basis as guess for larger.
 SCFMinFind is unable to tell whether the solution found is close.
 Resetting ReadMinima to 0 and attempting to follow guess.
 SCFMinFind following SCF Guess.
 using 3 threads for integral computing
 -------------------------------------------------------
 OpenMP Integral computing Module                
 Release: version 1.0, May 2013, Q-Chem Inc. Pittsburgh 
 -------------------------------------------------------
 using 3 threads for integral computing
 -------------------------------------------------------
 OpenMP Integral computing Module                
 Release: version 1.0, May 2013, Q-Chem Inc. Pittsburgh 
 -------------------------------------------------------
 ---------------------------------------
  Cycle       Energy         DIIS Error
 ---------------------------------------
    1    -119.1195670177      4.21E-03
    2    -119.1416131843      5.97E-04 Done RCA. Switching to DIIS
    3    -119.1424479700      4.18E-04
    4    -119.1434057944      4.55E-05
    5    -119.1434205598      9.18E-06 Convergence criterion met
 ---------------------------------------
 SCF time:  CPU 59.23 s  wall 19.94 s
 SCF   energy in the final basis set = -119.14342056
 Total energy in the final basis set = -119.14342056
 
 --------------------------------------------------------------
 
                    Orbital Energies (a.u.)
 --------------------------------------------------------------
 
 Alpha MOs
 -- Occupied --
-10.2781 -10.2650 -10.2650  -0.8763  -0.7751  -0.6793  -0.5433  -0.5168
 -0.4843  -0.4659  -0.4248  -0.4129  -0.4025
 -- Virtual --
  0.0687   0.0860   0.0903   0.0995   0.1262   0.1302   0.1333   0.1410
  0.1432   0.1699   0.1719   0.1906   0.2389   0.2395   0.2441   0.2663
  0.2834   0.2839   0.3025   0.3099   0.3387   0.3450   0.4591   0.4601
  0.4729   0.5133   0.5178   0.5222   0.5398   0.5591   0.5850   0.5857
  0.6132   0.6146   0.6468   0.6503   0.6553   0.6612   0.7057   0.7255
  0.7282   0.7692   0.8135   0.8548   0.8727   0.8743   0.8818   0.9554
  0.9953   1.0526   1.0583   1.1469   1.1572   1.1705   1.2040   1.2069
  1.2149   1.2248   1.2563   1.2686   1.2734   1.2823   1.3185   1.3799
  1.3914   1.3981   1.4026   1.4566   1.4666   1.4689   1.4761   1.4883
  1.5150   1.5809   1.6036   1.6067   1.6403   1.6558   1.6896   1.7053
  1.7066   2.3599   2.4668   2.4739   2.5028   2.5405   2.5503   2.5868
  2.6263   2.7002   2.8158   2.8195   2.8740   2.8797   2.9112   2.9209
  2.9344   2.9459   2.9953   3.0116   3.0566   3.0742   3.0825   3.0950
  3.1275   3.1443   3.1795   3.1975   3.1990   3.2249   3.2850   3.3118
  3.3259   3.3297   3.3313   3.3410   3.3498   3.3721   3.3938   3.4555
  3.4622   3.4767   3.4891   3.5302   3.5643   3.5665   3.6030   3.6235
  3.6300   3.6597   3.6783   3.7103   3.7735   3.8252   3.8676   3.8820
  3.8950   3.9151   3.9319   3.9650   3.9745   4.0124   4.0250   4.0492
  4.0696   4.1113   4.1119   4.1150   4.1562   4.1587   4.1756   4.1758
  4.2114   4.2430   4.2480   4.3396   4.3572   4.4070   4.4153   4.4279
  4.4514   4.5376   4.5557   4.5754   4.6758   4.8019   4.8540   4.8812
  4.9254   4.9725   4.9768   5.0030   5.0052   5.0055   5.0583   5.0990
  5.1443   5.2442   5.2548   5.2698   5.2799   5.3321   5.3447   5.3526
  5.3830   5.4230   5.4523   5.4899   5.4998   5.5244   5.5933   5.6871
  5.9276   6.3669   6.3851   6.3977   6.4245   6.4523  25.1747  25.4260
 25.4453
 --------------------------------------------------------------
 
 -----------------------------------------------------------------
                    Cartesian Multipole Moments
 -----------------------------------------------------------------
    Charge (ESU x 10^10)
                 0.0000
    Dipole Moment (Debye)
         X       0.0000      Y       0.0000      Z      -0.1184
       Tot       0.1184
    Quadrupole Moments (Debye-Ang)
        XX     -22.4964     XY      -0.0000     YY     -21.2552
        XZ       0.0000     YZ      -0.0000     ZZ     -21.6348
    Octopole Moments (Debye-Ang^2)
       XXX       0.0000    XXY       0.0000    XYY      -0.0000
       YYY      -0.0000    XXZ      -1.2043    XYZ       0.0000
       YYZ       0.3807    XZZ      -0.0000    YZZ      -0.0000
       ZZZ      -1.0559
    Hexadecapole Moments (Debye-Ang^3)
      XXXX    -207.1842   XXXY      -0.0000   XXYY     -41.7658
      XYYY       0.0000   YYYY     -43.9934   XXXZ       0.0000
      XXYZ      -0.0000   XYYZ       0.0000   YYYZ       0.0000
      XXZZ     -45.1230   XYZZ       0.0000   YYZZ     -17.1653
      XZZZ       0.0000   YZZZ      -0.0000   ZZZZ     -73.7034
 -----------------------------------------------------------------
Archival summary:
1\1\cn0913\SP\ProcedureUnspecified\BasisUnspecified\38\r0852400\SunApr1206:06:572020SunApr1206:06:572020\0\\#,ProcedureUnspecified,BasisUnspecified,\\0,1\C\H,1,1.09298\H,1,1.09298,2,106.474\C,1,1.54225,2,110.125,3,-119.373,0\H,4,1.09118,1,113.341,2,-59.011,0\H,4,1.09118,1,113.341,2,176.137,0\H,4,1.09201,1,107.11,2,58.5629,0\C,1,1.54225,2,110.125,3,119.373,0\H,8,1.09118,1,113.341,2,59.011,0\H,8,1.09118,1,113.341,2,-176.137,0\H,8,1.09201,1,107.11,2,-58.5629,0\\\@

 Total job time:  31.15s(wall), 86.42s(cpu) 
 Sun Apr 12 06:06:57 2020

        *************************************************************
        *                                                           *
        *  Thank you very much for using Q-Chem.  Have a nice day.  *
        *                                                           *
        *************************************************************


