                  Welcome to Q-Chem
     A Quantum Leap Into The Future Of Chemistry


 Q-Chem 5.2 (devel), Q-Chem, Inc., Pleasanton, CA (2019)

 Yihan Shao,  Zhengting Gan,  E. Epifanovsky,  A. T. B. Gilbert,  M. Wormit,  
 J. Kussmann,  A. W. Lange,  A. Behn,  Jia Deng,  Xintian Feng,  D. Ghosh,  
 M. Goldey,  P. R. Horn,  L. D. Jacobson,  I. Kaliman,  T. Kus,  A. Landau,  
 Jie Liu,  E. I. Proynov,  R. M. Richard,  R. P. Steele,  E. J. Sundstrom,  
 H. L. Woodcock III,  P. M. Zimmerman,  D. Zuev,  B. Alam,  B. Albrecht,  
 E. Alguire,  S. A. Baeppler,  D. Barton,  Z. Benda,  Y. A. Bernard,  
 E. J. Berquist,  K. B. Bravaya,  H. Burton,  K. Carter-Fenk,  D. Casanova,  
 Chun-Min Chang,  Yunqing Chen,  A. Chien,  K. D. Closser,  M. P. Coons,  
 S. Coriani,  S. Dasgupta,  A. L. Dempwolff,  M. Diedenhofen,  Hainam Do,  
 R. G. Edgar,  Po-Tung Fang,  S. Faraji,  S. Fatehi,  Qingguo Feng,  
 J. Fosso-Tande,  J. Gayvert,  Qinghui Ge,  A. Ghysels,  G. Gidofalvi,  
 J. Gomes,  J. Gonthier,  A. Gunina,  D. Hait,  M. W. D. Hanson-Heine,  
 P. H. P. Harbach,  A. W. Hauser,  M. F. Herbst,  J. E. Herr,  
 E. G. Hohenstein,  Z. C. Holden,  Kerwin Hui,  B. C. Huynh,  T.-C. Jagau,  
 Hyunjun Ji,  B. Kaduk,  K. Khistyaev,  Jaehoon Kim,  P. Klunzinger,  K. Koh,  
 D. Kosenkov,  L. Koulias,  T. Kowalczyk,  C. M. Krauter,  A. Kunitsa,  
 Ka Un Lao,  A. Laurent,  K. V. Lawler,  Joonho Lee,  D. Lefrancois,  
 S. Lehtola,  D. S. Levine,  Yi-Pei Li,  You-Sheng Lin,  Fenglai Liu,  
 Kuan-Yu Liu,  E. Livshits,  M. Loipersberger,  A. Luenser,  P. Manohar,  
 E. Mansoor,  S. F. Manzer,  Shan-Ping Mao,  Yuezhi Mao,  N. Mardirossian,  
 A. V. Marenich,  T. Markovich,  L. A. Martinez-Martinez,  S. A. Maurer,  
 N. J. Mayhall,  S. C. McKenzie,  J.-M. Mewes,  P. Morgante,  A. F. Morrison,  
 J. W. Mullinax,  K. Nanda,  T. S. Nguyen-Beck,  R. Olivares-Amaya,  
 J. A. Parkhill,  S. K. Paul,  Zheng Pei,  T. M. Perrine,  F. Plasser,  
 P. Pokhilko,  S. Prager,  A. Prociuk,  E. Ramos,  B. Rana,  D. R. Rehn,  
 F. Rob,  M. Scheurer,  M. Schneider,  N. Sergueev,  S. M. Sharada,  
 S. Sharma,  D. W. Small,  T. Stauch,  C. J. Stein,  T. Stein,  Yu-Chuan Su,  
 S. P. Veccham,  A. J. W. Thom,  A. Tkatchenko,  T. Tsuchimochi,  
 N. M. Tubman,  L. Vogt,  M. L. Vidal,  O. Vydrov,  M. A. Watson,  J. Wenzel,  
 M. de Wergifosse,  T. A. Wesolowski,  A. White,  J. Witte,  A. Yamada,  
 Jun Yang,  K. Yao,  S. Yeganeh,  S. R. Yost,  Zhi-Qiang You,  A. Zech,  
 Igor Ying Zhang,  Xing Zhang,  Yan Zhao,  Ying Zhu,  B. R. Brooks,  
 G. K. L. Chan,  C. J. Cramer,  M. S. Gordon,  W. J. Hehre,  A. Klamt,  
 M. W. Schmidt,  C. D. Sherrill,  D. G. Truhlar,  A. Aspuru-Guzik,  R. Baer,  
 A. T. Bell,  N. A. Besley,  Jeng-Da Chai,  A. E. DePrince, III,  
 R. A. DiStasio Jr.,  A. Dreuw,  B. D. Dunietz,  T. R. Furlani,  
 Chao-Ping Hsu,  Yousung Jung,  Jing Kong,  D. S. Lambrecht,  WanZhen Liang,  
 C. Ochsenfeld,  V. A. Rassolov,  L. V. Slipchenko,  J. E. Subotnik,  
 T. Van Voorhis,  J. M. Herbert,  A. I. Krylov,  P. M. W. Gill,  M. Head-Gordon

 Contributors to earlier versions of Q-Chem not listed above: 
 R. D. Adamson,  B. Austin,  J. Baker,  G. J. O. Beran,  K. Brandhorst,  
 S. T. Brown,  E. F. C. Byrd,  A. K. Chakraborty,  C.-L. Cheng,  
 Siu Hung Chien,  D. M. Chipman,  D. L. Crittenden,  H. Dachsel,  
 R. J. Doerksen,  A. D. Dutoi,  L. Fusti-Molnar,  W. A. Goddard III,  
 A. Golubeva-Zadorozhnaya,  S. R. Gwaltney,  G. Hawkins,  A. Heyden,  
 S. Hirata,  G. Kedziora,  F. J. Keil,  C. Kelley,  Jihan Kim,  R. A. King,  
 R. Z. Khaliullin,  P. P. Korambath,  W. Kurlancheek,  A. M. Lee,  M. S. Lee,  
 S. V. Levchenko,  Ching Yeh Lin,  D. Liotard,  R. C. Lochan,  I. Lotan,  
 P. E. Maslen,  N. Nair,  D. P. O'Neill,  D. Neuhauser,  E. Neuscamman,  
 C. M. Oana,  R. Olson,  B. Peters,  R. Peverati,  P. A. Pieniazek,  
 Y. M. Rhee,  J. Ritchie,  M. A. Rohrdanz,  E. Rosta,  N. J. Russ,  
 H. F. Schaefer III,  N. E. Schultz,  N. Shenvi,  A. C. Simmonett,  A. Sodt,  
 D. Stuck,  K. S. Thanthiriwatte,  V. Vanovschi,  Tao Wang,  A. Warshel,  
 C. F. Williams,  Q. Wu,  X. Xu,  W. Zhang

 Please cite Q-Chem as follows:
 Y. Shao et al., Mol. Phys. 113, 184-215 (2015)
 DOI: 10.1080/00268976.2014.952696

 Q-Chem 5.2.2 for Intel X86 EM64T Linux

 Parts of Q-Chem use Armadillo 9.800.1 (Horizon Scraper).
 http://arma.sourceforge.net/

 Q-Chem begins on Sun Apr 12 06:10:15 2020  

Host: cn0913
0

     Scratch files written to /tmp/ypli/6721341.srvc1/qchem231925//
Warning:  Did not find "$end" marker in "$molecule" section

Checking the input file for inconsistencies... 	...done.

--------------------------------------------------------------
User input:
--------------------------------------------------------------
$rem
   JOBTYPE  sp
   EXCHANGE   omegaB97X-D
   BASIS   6-311+G(2df,2pd)
   max_scf_cycles   250
   geom_opt_max_cycles   1500
   basis2 6-31G*
   scf_algorithm rca_diis
   SYM_IGNORE  TRUE
   print_input   true
   geom_opt_dmax   80
   pop_mulliken false
   XC_GRID 000075000302
$end

$molecule
0 1
C       1.2760458294     0.0000001216     0.1833910063
C       -0.0000000649     -0.0000001796     -0.5453014497
H       1.1609470816     -0.8435871370     0.8702573486
H       1.1609474274     0.8435873347     0.8702574399
H       2.2611162440     -0.0000001770     -0.2734273147
C       -1.2760457454     0.0000000959     0.1833908133
H       0.0000002119     -0.8677453872     -1.2073053239
H       -0.0000001573     0.8677452742     -1.2073050002
H       -1.1609471709     -0.8435871517     0.8702571872
H       -2.2611164209     0.0000006557     -0.2734270966
H       -1.1609472955     0.8435872162     0.8702574085
--------------------------------------------------------------
 ----------------------------------------------------------------
             Standard Nuclear Orientation (Angstroms)
    I     Atom           X                Y                Z
 ----------------------------------------------------------------
    1      C       1.2760458294     0.0000001216     0.1833910063
    2      C      -0.0000000649    -0.0000001796    -0.5453014497
    3      H       1.1609470816    -0.8435871370     0.8702573486
    4      H       1.1609474274     0.8435873347     0.8702574399
    5      H       2.2611162440    -0.0000001770    -0.2734273147
    6      C      -1.2760457454     0.0000000959     0.1833908133
    7      H       0.0000002119    -0.8677453872    -1.2073053239
    8      H      -0.0000001573     0.8677452742    -1.2073050002
    9      H      -1.1609471709    -0.8435871517     0.8702571872
   10      H      -2.2611164209     0.0000006557    -0.2734270966
   11      H      -1.1609472955     0.8435872162     0.8702574085
 ----------------------------------------------------------------
 Nuclear Repulsion Energy =          84.45678404 hartrees
 There are       13 alpha and       13 beta electrons
 Requested basis set is 6-311+G(2df,2pd)
 There are 72 shells and 214 basis functions

 Total QAlloc Memory Limit   2000 MB
 Mega-Array Size       188 MB
 MEM_STATIC part       192 MB

                       Distance Matrix (Angstroms)
             C (  1)   C (  2)   H (  3)   H (  4)   H (  5)   C (  6)
   C (  2)  1.469451
   H (  3)  1.093925  2.015749
   H (  4)  1.093925  2.015749  1.687174
   H (  5)  1.085839  2.277403  1.797227  1.797227
   C (  6)  2.552092  1.469451  2.668775  2.668775  3.566539
   H (  7)  2.077333  1.091435  2.380052  2.931335  2.595719  2.077333
   H (  8)  2.077333  1.091435  2.931335  2.380052  2.595719  2.077332
   H (  9)  2.668775  2.015749  2.321894  2.870148  3.705425  1.093925
   H ( 10)  3.566539  2.277403  3.705425  3.705425  4.522233  1.085839
   H ( 11)  2.668775  2.015749  2.870148  2.321895  3.705425  1.093925
             H (  7)   H (  8)   H (  9)   H ( 10)
   H (  8)  1.735491
   H (  9)  2.380052  2.931334
   H ( 10)  2.595720  2.595719  1.797227
   H ( 11)  2.931335  2.380052  1.687174  1.797227
 
 A cutoff of  1.0D-09 yielded   2548 shell pairs
 There are     22614 function pairs (     27795 Cartesian)
 Smallest overlap matrix eigenvalue = 8.05E-05

 Scale SEOQF with 1.000000e-01/1.000000e-01/1.000000e-01

 Standard Electronic Orientation quadrupole field applied
 Nucleus-field energy     =     0.0000000007 hartrees
 Requested basis set is 6-31G(d)
 There are 28 shells and 58 basis functions
 A cutoff of  1.0D-09 yielded    402 shell pairs
 There are      1773 function pairs (      1968 Cartesian)
 Smallest overlap matrix eigenvalue = 5.82E-03
 Guess from superposition of atomic densities
 Warning:  Energy on first SCF cycle will be non-variational
 SAD guess density has 26.000000 electrons
 Long-range K will be added via erf
 Coulomb attenuation parameter = 0.2 bohr**(-1)
 A restricted hybrid HF-DFT SCF calculation will be
 performed using Relaxed Constraint Minimization + Pulay DIIS
 Exchange:     0.2220 Hartree-Fock + 1.0000 wB97X-D + LR-HF
 Correlation:  1.0000 wB97X-D
 Using Euler-Maclaurin-Lebedev (75,302) quadrature formula
 Dispersion:   Grimme D
 SCF converges when DIIS error is below 1.0E-04
 using 3 threads for integral computing
 -------------------------------------------------------
 OpenMP Integral computing Module                
 Release: version 1.0, May 2013, Q-Chem Inc. Pittsburgh 
 -------------------------------------------------------
 using 3 threads for integral computing
 -------------------------------------------------------
 OpenMP Integral computing Module                
 Release: version 1.0, May 2013, Q-Chem Inc. Pittsburgh 
 -------------------------------------------------------
 ---------------------------------------
  Cycle       Energy         DIIS Error
 ---------------------------------------
    1    -119.8059247668      1.06E-01
    2    -119.0360156831      9.42E-03
    3    -119.0590375501      2.55E-03
    4    -119.0743756623      1.77E-03
    5    -119.0751316874      2.67E-04 Done RCA. Switching to DIIS
    6    -119.0756994208      2.02E-04
    7    -119.0757168121      4.52E-06 Convergence criterion met
 ---------------------------------------
 SCF time:  CPU 23.00 s  wall 7.82 s
 SCF   energy in the small basis set = -119.07571681
 Total energy in the small basis set = -119.07571681
 ----------------------------------------------------
  Cycle       Energy    
 ----------------------------------------------------
    1     -16.5851331708     -1.66E+01
 Long-range K will be added via erf
 Coulomb attenuation parameter = 0.2 bohr**(-1)
 A restricted hybrid HF-DFT SCF calculation will be
 performed using Relaxed Constraint Minimization + Pulay DIIS
 Exchange:     0.2220 Hartree-Fock + 1.0000 wB97X-D + LR-HF
 Correlation:  1.0000 wB97X-D
 Using Euler-Maclaurin-Lebedev (75,302) quadrature formula
 Dispersion:   Grimme D
 SCF converges when DIIS error is below 1.0E-05
 Basis2 calculation detected. Using small basis as guess for larger.
 SCFMinFind is unable to tell whether the solution found is close.
 Resetting ReadMinima to 0 and attempting to follow guess.
 SCFMinFind following SCF Guess.
 using 3 threads for integral computing
 -------------------------------------------------------
 OpenMP Integral computing Module                
 Release: version 1.0, May 2013, Q-Chem Inc. Pittsburgh 
 -------------------------------------------------------
 using 3 threads for integral computing
 -------------------------------------------------------
 OpenMP Integral computing Module                
 Release: version 1.0, May 2013, Q-Chem Inc. Pittsburgh 
 -------------------------------------------------------
 ---------------------------------------
  Cycle       Energy         DIIS Error
 ---------------------------------------
    1    -119.0962469557      4.21E-03
    2    -119.1183986100      6.15E-04 Done RCA. Switching to DIIS
    3    -119.1192605186      4.38E-04
    4    -119.1203044218      4.71E-05
    5    -119.1203201175      1.29E-05
    6    -119.1203211553      4.15E-06 Convergence criterion met
 ---------------------------------------
 SCF time:  CPU 70.26 s  wall 23.65 s
 SCF   energy in the final basis set = -119.12032116
 Total energy in the final basis set = -119.12032116
 
 --------------------------------------------------------------
 
                    Orbital Energies (a.u.)
 --------------------------------------------------------------
 
 Alpha MOs
 -- Occupied --
-10.2664 -10.2655 -10.2655  -0.9017  -0.7864  -0.6748  -0.5555  -0.5481
 -0.4777  -0.4657  -0.4526  -0.3942  -0.3889
 -- Virtual --
  0.0702   0.0845   0.0920   0.0976   0.1183   0.1290   0.1339   0.1417
  0.1487   0.1713   0.1744   0.1954   0.2096   0.2332   0.2475   0.2680
  0.2680   0.2843   0.3136   0.3301   0.3326   0.3733   0.4504   0.4638
  0.4777   0.5029   0.5062   0.5098   0.5705   0.5708   0.5727   0.5836
  0.6168   0.6332   0.6424   0.6607   0.6618   0.6713   0.7221   0.7235
  0.7261   0.7687   0.8285   0.8299   0.8847   0.8948   0.9125   0.9789
  1.0077   1.0377   1.0465   1.0864   1.1279   1.1553   1.2316   1.2382
  1.2472   1.2882   1.2917   1.3121   1.3148   1.3169   1.3266   1.3533
  1.3612   1.4270   1.4427   1.4489   1.4631   1.4656   1.4662   1.4791
  1.5437   1.5743   1.5789   1.6131   1.6534   1.6535   1.6700   1.6836
  1.8656   2.4084   2.4738   2.5002   2.5273   2.5807   2.5983   2.6046
  2.6343   2.7276   2.7578   2.8329   2.8499   2.9018   2.9514   2.9662
  2.9664   3.0045   3.0050   3.0340   3.0593   3.0596   3.0943   3.1238
  3.1572   3.1827   3.1888   3.1968   3.1976   3.2485   3.2870   3.3043
  3.3291   3.3625   3.3826   3.3879   3.3886   3.4108   3.4111   3.4401
  3.4615   3.4736   3.5290   3.5572   3.5595   3.5683   3.5792   3.5959
  3.6326   3.6506   3.6913   3.7293   3.7336   3.7348   3.7761   3.8976
  3.9019   3.9277   3.9761   4.0083   4.0259   4.0364   4.0509   4.0864
  4.1432   4.1598   4.1619   4.1736   4.2076   4.2277   4.2575   4.2608
  4.2657   4.3366   4.3793   4.4167   4.4186   4.4397   4.4719   4.5089
  4.6381   4.6517   4.6637   4.6717   4.6871   4.7185   4.7564   4.8617
  4.9079   4.9103   4.9432   4.9943   5.0343   5.0777   5.1231   5.1364
  5.1716   5.2343   5.2730   5.2822   5.3307   5.3570   5.3592   5.4370
  5.4402   5.5256   5.5312   5.5884   5.5935   5.7637   5.8240   5.9511
  6.0919   6.3887   6.4036   6.4158   6.4375   6.4983  25.2853  25.4451
 25.5449
 --------------------------------------------------------------
 
 -----------------------------------------------------------------
                    Cartesian Multipole Moments
 -----------------------------------------------------------------
    Charge (ESU x 10^10)
                 0.0000
    Dipole Moment (Debye)
         X      -0.0000      Y       0.0000      Z      -0.0308
       Tot       0.0308
    Quadrupole Moments (Debye-Ang)
        XX     -21.0632     XY      -0.0000     YY     -21.8519
        XZ      -0.0000     YZ       0.0000     ZZ     -22.5528
    Octopole Moments (Debye-Ang^2)
       XXX      -0.0000    XXY       0.0000    XYY       0.0000
       YYY      -0.0000    XXZ      -2.2144    XYZ       0.0000
       YYZ       0.6371    XZZ       0.0000    YZZ      -0.0000
       ZZZ       1.2985
    Hexadecapole Moments (Debye-Ang^3)
      XXXX    -183.8915   XXXY      -0.0000   XXYY     -43.1530
      XYYY       0.0000   YYYY     -44.5252   XXXZ      -0.0000
      XXYZ       0.0000   XYYZ      -0.0000   YYYZ      -0.0000
      XXZZ     -45.7139   XYZZ       0.0000   YYZZ     -17.0703
      XZZZ      -0.0000   YZZZ       0.0000   ZZZZ     -68.5598
 -----------------------------------------------------------------
Archival summary:
1\1\cn0913\SP\ProcedureUnspecified\BasisUnspecified\38\r0852400\SunApr1206:10:502020SunApr1206:10:502020\0\\#,ProcedureUnspecified,BasisUnspecified,\\0,1\C\H,1,1.09144\H,1,1.09144,2,105.32\C,1,1.46945,2,107.505,3,-114.419,0\H,4,1.08584,1,125.392,2,56.4759,0\H,4,1.09393,1,102.709,2,-175.759,0\H,4,1.09393,1,102.709,2,-71.2896,0\C,1,1.46945,2,107.505,3,114.419,0\H,8,1.08584,1,125.392,2,-56.476,0\H,8,1.09393,1,102.709,2,71.2895,0\H,8,1.09393,1,102.709,2,175.759,0\\\@

 Total job time:  34.84s(wall), 97.44s(cpu) 
 Sun Apr 12 06:10:50 2020

        *************************************************************
        *                                                           *
        *  Thank you very much for using Q-Chem.  Have a nice day.  *
        *                                                           *
        *************************************************************


