                  Welcome to Q-Chem
     A Quantum Leap Into The Future Of Chemistry


 Q-Chem 5.2 (devel), Q-Chem, Inc., Pleasanton, CA (2019)

 Yihan Shao,  Zhengting Gan,  E. Epifanovsky,  A. T. B. Gilbert,  M. Wormit,  
 J. Kussmann,  A. W. Lange,  A. Behn,  Jia Deng,  Xintian Feng,  D. Ghosh,  
 M. Goldey,  P. R. Horn,  L. D. Jacobson,  I. Kaliman,  T. Kus,  A. Landau,  
 Jie Liu,  E. I. Proynov,  R. M. Richard,  R. P. Steele,  E. J. Sundstrom,  
 H. L. Woodcock III,  P. M. Zimmerman,  D. Zuev,  B. Alam,  B. Albrecht,  
 E. Alguire,  S. A. Baeppler,  D. Barton,  Z. Benda,  Y. A. Bernard,  
 E. J. Berquist,  K. B. Bravaya,  H. Burton,  K. Carter-Fenk,  D. Casanova,  
 Chun-Min Chang,  Yunqing Chen,  A. Chien,  K. D. Closser,  M. P. Coons,  
 S. Coriani,  S. Dasgupta,  A. L. Dempwolff,  M. Diedenhofen,  Hainam Do,  
 R. G. Edgar,  Po-Tung Fang,  S. Faraji,  S. Fatehi,  Qingguo Feng,  
 J. Fosso-Tande,  J. Gayvert,  Qinghui Ge,  A. Ghysels,  G. Gidofalvi,  
 J. Gomes,  J. Gonthier,  A. Gunina,  D. Hait,  M. W. D. Hanson-Heine,  
 P. H. P. Harbach,  A. W. Hauser,  M. F. Herbst,  J. E. Herr,  
 E. G. Hohenstein,  Z. C. Holden,  Kerwin Hui,  B. C. Huynh,  T.-C. Jagau,  
 Hyunjun Ji,  B. Kaduk,  K. Khistyaev,  Jaehoon Kim,  P. Klunzinger,  K. Koh,  
 D. Kosenkov,  L. Koulias,  T. Kowalczyk,  C. M. Krauter,  A. Kunitsa,  
 Ka Un Lao,  A. Laurent,  K. V. Lawler,  Joonho Lee,  D. Lefrancois,  
 S. Lehtola,  D. S. Levine,  Yi-Pei Li,  You-Sheng Lin,  Fenglai Liu,  
 Kuan-Yu Liu,  E. Livshits,  M. Loipersberger,  A. Luenser,  P. Manohar,  
 E. Mansoor,  S. F. Manzer,  Shan-Ping Mao,  Yuezhi Mao,  N. Mardirossian,  
 A. V. Marenich,  T. Markovich,  L. A. Martinez-Martinez,  S. A. Maurer,  
 N. J. Mayhall,  S. C. McKenzie,  J.-M. Mewes,  P. Morgante,  A. F. Morrison,  
 J. W. Mullinax,  K. Nanda,  T. S. Nguyen-Beck,  R. Olivares-Amaya,  
 J. A. Parkhill,  S. K. Paul,  Zheng Pei,  T. M. Perrine,  F. Plasser,  
 P. Pokhilko,  S. Prager,  A. Prociuk,  E. Ramos,  B. Rana,  D. R. Rehn,  
 F. Rob,  M. Scheurer,  M. Schneider,  N. Sergueev,  S. M. Sharada,  
 S. Sharma,  D. W. Small,  T. Stauch,  C. J. Stein,  T. Stein,  Yu-Chuan Su,  
 S. P. Veccham,  A. J. W. Thom,  A. Tkatchenko,  T. Tsuchimochi,  
 N. M. Tubman,  L. Vogt,  M. L. Vidal,  O. Vydrov,  M. A. Watson,  J. Wenzel,  
 M. de Wergifosse,  T. A. Wesolowski,  A. White,  J. Witte,  A. Yamada,  
 Jun Yang,  K. Yao,  S. Yeganeh,  S. R. Yost,  Zhi-Qiang You,  A. Zech,  
 Igor Ying Zhang,  Xing Zhang,  Yan Zhao,  Ying Zhu,  B. R. Brooks,  
 G. K. L. Chan,  C. J. Cramer,  M. S. Gordon,  W. J. Hehre,  A. Klamt,  
 M. W. Schmidt,  C. D. Sherrill,  D. G. Truhlar,  A. Aspuru-Guzik,  R. Baer,  
 A. T. Bell,  N. A. Besley,  Jeng-Da Chai,  A. E. DePrince, III,  
 R. A. DiStasio Jr.,  A. Dreuw,  B. D. Dunietz,  T. R. Furlani,  
 Chao-Ping Hsu,  Yousung Jung,  Jing Kong,  D. S. Lambrecht,  WanZhen Liang,  
 C. Ochsenfeld,  V. A. Rassolov,  L. V. Slipchenko,  J. E. Subotnik,  
 T. Van Voorhis,  J. M. Herbert,  A. I. Krylov,  P. M. W. Gill,  M. Head-Gordon

 Contributors to earlier versions of Q-Chem not listed above: 
 R. D. Adamson,  B. Austin,  J. Baker,  G. J. O. Beran,  K. Brandhorst,  
 S. T. Brown,  E. F. C. Byrd,  A. K. Chakraborty,  C.-L. Cheng,  
 Siu Hung Chien,  D. M. Chipman,  D. L. Crittenden,  H. Dachsel,  
 R. J. Doerksen,  A. D. Dutoi,  L. Fusti-Molnar,  W. A. Goddard III,  
 A. Golubeva-Zadorozhnaya,  S. R. Gwaltney,  G. Hawkins,  A. Heyden,  
 S. Hirata,  G. Kedziora,  F. J. Keil,  C. Kelley,  Jihan Kim,  R. A. King,  
 R. Z. Khaliullin,  P. P. Korambath,  W. Kurlancheek,  A. M. Lee,  M. S. Lee,  
 S. V. Levchenko,  Ching Yeh Lin,  D. Liotard,  R. C. Lochan,  I. Lotan,  
 P. E. Maslen,  N. Nair,  D. P. O'Neill,  D. Neuhauser,  E. Neuscamman,  
 C. M. Oana,  R. Olson,  B. Peters,  R. Peverati,  P. A. Pieniazek,  
 Y. M. Rhee,  J. Ritchie,  M. A. Rohrdanz,  E. Rosta,  N. J. Russ,  
 H. F. Schaefer III,  N. E. Schultz,  N. Shenvi,  A. C. Simmonett,  A. Sodt,  
 D. Stuck,  K. S. Thanthiriwatte,  V. Vanovschi,  Tao Wang,  A. Warshel,  
 C. F. Williams,  Q. Wu,  X. Xu,  W. Zhang

 Please cite Q-Chem as follows:
 Y. Shao et al., Mol. Phys. 113, 184-215 (2015)
 DOI: 10.1080/00268976.2014.952696

 Q-Chem 5.2.2 for Intel X86 EM64T Linux

 Parts of Q-Chem use Armadillo 9.800.1 (Horizon Scraper).
 http://arma.sourceforge.net/

 Q-Chem begins on Sun Apr 12 13:25:40 2020  

Host: cn0909
0

     Scratch files written to /tmp/ypli/6724609.srvc1/qchem71810//
Warning:  Did not find "$end" marker in "$molecule" section

Checking the input file for inconsistencies... 	...done.

--------------------------------------------------------------
User input:
--------------------------------------------------------------
$rem
   JOBTYPE  sp
   EXCHANGE   omegaB97X-D
   BASIS   6-311+G(2df,2pd)
   max_scf_cycles   250
   geom_opt_max_cycles   1500
   basis2 6-31G*
   scf_algorithm rca_diis
   SYM_IGNORE  TRUE
   print_input   true
   geom_opt_dmax   80
   pop_mulliken false
   XC_GRID 000075000302
$end

$molecule
0 1
C       1.1598884005     -0.5102629519     0.2656169840
C       0.0000021656     0.0000116542     -0.5811429656
H       2.0983835565     -0.1568428060     -0.1583657961
H       1.2042475310     -1.6038012503     0.2995096248
H       1.1020812117     -0.1414096161     1.2901824595
C       -1.1598898838     0.5102566018     0.2656271375
H       -0.2613128023     -0.8347201324     -1.2358895383
H       0.2613211237     0.8347673915     -1.2358582964
H       -1.2043045278     1.6037928950     0.2994876807
H       -1.1020407388     0.1414323121     1.2902007626
H       -2.0983760969     0.1567765682     -0.1583230339
--------------------------------------------------------------
 ----------------------------------------------------------------
             Standard Nuclear Orientation (Angstroms)
    I     Atom           X                Y                Z
 ----------------------------------------------------------------
    1      C       1.1598884005    -0.5102629519     0.2656169840
    2      C       0.0000021656     0.0000116542    -0.5811429656
    3      H       2.0983835565    -0.1568428060    -0.1583657961
    4      H       1.2042475310    -1.6038012503     0.2995096248
    5      H       1.1020812117    -0.1414096161     1.2901824595
    6      C      -1.1598898838     0.5102566018     0.2656271375
    7      H      -0.2613128023    -0.8347201324    -1.2358895383
    8      H       0.2613211237     0.8347673915    -1.2358582964
    9      H      -1.2043045278     1.6037928950     0.2994876807
   10      H      -1.1020407388     0.1414323121     1.2902007626
   11      H      -2.0983760969     0.1567765682    -0.1583230339
 ----------------------------------------------------------------
 Nuclear Repulsion Energy =          82.75762392 hartrees
 There are       13 alpha and       13 beta electrons
 Requested basis set is 6-311+G(2df,2pd)
 There are 72 shells and 214 basis functions

 Total QAlloc Memory Limit   2000 MB
 Mega-Array Size       188 MB
 MEM_STATIC part       192 MB

                       Distance Matrix (Angstroms)
             C (  1)   C (  2)   H (  3)   H (  4)   H (  5)   C (  6)
   C (  2)  1.524047
   H (  3)  1.088779  2.146287
   H (  4)  1.094962  2.190427  1.761482
   H (  5)  1.090472  2.176336  1.758166  1.769311
   C (  6)  2.534331  1.524047  3.352781  3.171677  2.567274
   H (  7)  2.092751  1.092591  2.681183  2.257610  2.953060  2.207024
   H (  8)  2.207025  1.092592  2.349272  3.032010  2.835609  2.092751
   H (  9)  3.171717  2.190429  3.770572  4.011207  3.057225  1.094962
   H ( 10)  2.567256  2.176333  3.525625  3.057168  2.222196  1.090472
   H ( 11)  3.352753  2.146286  4.208462  3.770486  3.525622  1.088778
             H (  7)   H (  8)   H (  9)   H ( 10)
   H (  8)  1.749381
   H (  9)  3.031990  2.257597
   H ( 10)  2.835636  2.953040  1.769313
   H ( 11)  2.349259  2.681217  1.761480  1.758164
 
 A cutoff of  1.0D-09 yielded   2527 shell pairs
 There are     22493 function pairs (     27669 Cartesian)
 Smallest overlap matrix eigenvalue = 8.33E-05

 Scale SEOQF with 1.000000e-01/1.000000e-01/1.000000e-01

 Standard Electronic Orientation quadrupole field applied
 Nucleus-field energy     =     0.0000000008 hartrees
 Requested basis set is 6-31G(d)
 There are 28 shells and 58 basis functions
 A cutoff of  1.0D-09 yielded    402 shell pairs
 There are      1773 function pairs (      1968 Cartesian)
 Smallest overlap matrix eigenvalue = 6.31E-03
 Guess from superposition of atomic densities
 Warning:  Energy on first SCF cycle will be non-variational
 SAD guess density has 26.000000 electrons
 Long-range K will be added via erf
 Coulomb attenuation parameter = 0.2 bohr**(-1)
 A restricted hybrid HF-DFT SCF calculation will be
 performed using Relaxed Constraint Minimization + Pulay DIIS
 Exchange:     0.2220 Hartree-Fock + 1.0000 wB97X-D + LR-HF
 Correlation:  1.0000 wB97X-D
 Using Euler-Maclaurin-Lebedev (75,302) quadrature formula
 Dispersion:   Grimme D
 SCF converges when DIIS error is below 1.0E-04
 using 3 threads for integral computing
 -------------------------------------------------------
 OpenMP Integral computing Module                
 Release: version 1.0, May 2013, Q-Chem Inc. Pittsburgh 
 -------------------------------------------------------
 using 3 threads for integral computing
 -------------------------------------------------------
 OpenMP Integral computing Module                
 Release: version 1.0, May 2013, Q-Chem Inc. Pittsburgh 
 -------------------------------------------------------
 ---------------------------------------
  Cycle       Energy         DIIS Error
 ---------------------------------------
    1    -119.6280577926      1.00E-01
    2    -119.0548662407      9.08E-03
    3    -119.0762061986      2.45E-03
    4    -119.0903395752      1.68E-03
    5    -119.0910315147      2.63E-04 Done RCA. Switching to DIIS
    6    -119.0915406908      1.95E-04
    7    -119.0915571762      4.37E-06 Convergence criterion met
 ---------------------------------------
 SCF time:  CPU 27.82 s  wall 9.60 s
 SCF   energy in the small basis set = -119.09155718
 Total energy in the small basis set = -119.09155718
 ----------------------------------------------------
  Cycle       Energy    
 ----------------------------------------------------
    1     -16.5457227842     -1.65E+01
 Long-range K will be added via erf
 Coulomb attenuation parameter = 0.2 bohr**(-1)
 A restricted hybrid HF-DFT SCF calculation will be
 performed using Relaxed Constraint Minimization + Pulay DIIS
 Exchange:     0.2220 Hartree-Fock + 1.0000 wB97X-D + LR-HF
 Correlation:  1.0000 wB97X-D
 Using Euler-Maclaurin-Lebedev (75,302) quadrature formula
 Dispersion:   Grimme D
 SCF converges when DIIS error is below 1.0E-05
 Basis2 calculation detected. Using small basis as guess for larger.
 SCFMinFind is unable to tell whether the solution found is close.
 Resetting ReadMinima to 0 and attempting to follow guess.
 SCFMinFind following SCF Guess.
 using 3 threads for integral computing
 -------------------------------------------------------
 OpenMP Integral computing Module                
 Release: version 1.0, May 2013, Q-Chem Inc. Pittsburgh 
 -------------------------------------------------------
 using 3 threads for integral computing
 -------------------------------------------------------
 OpenMP Integral computing Module                
 Release: version 1.0, May 2013, Q-Chem Inc. Pittsburgh 
 -------------------------------------------------------
 ---------------------------------------
  Cycle       Energy         DIIS Error
 ---------------------------------------
    1    -119.1110327487      4.21E-03
    2    -119.1330292897      6.03E-04 Done RCA. Switching to DIIS
    3    -119.1338635110      4.26E-04
    4    -119.1348579020      4.53E-05
    5    -119.1348726686      1.01E-05
    6    -119.1348733684      3.92E-06 Convergence criterion met
 ---------------------------------------
 SCF time:  CPU 85.11 s  wall 28.88 s
 SCF   energy in the final basis set = -119.13487337
 Total energy in the final basis set = -119.13487337
 
 --------------------------------------------------------------
 
                    Orbital Energies (a.u.)
 --------------------------------------------------------------
 
 Alpha MOs
 -- Occupied --
-10.2719 -10.2636 -10.2635  -0.8810  -0.7768  -0.6773  -0.5444  -0.5262
 -0.4797  -0.4699  -0.4214  -0.4160  -0.3934
 -- Virtual --
  0.0712   0.0875   0.0913   0.1031   0.1216   0.1295   0.1314   0.1348
  0.1459   0.1647   0.1753   0.1896   0.2011   0.2456   0.2648   0.2671
  0.2913   0.3070   0.3151   0.3229   0.3329   0.3571   0.4561   0.4846
  0.4914   0.4935   0.5132   0.5215   0.5307   0.5431   0.5588   0.5795
  0.6127   0.6255   0.6305   0.6439   0.6452   0.6606   0.6950   0.7108
  0.7319   0.7533   0.8164   0.8713   0.9004   0.9436   0.9562   0.9869
  1.0312   1.0327   1.0628   1.0799   1.1247   1.1741   1.2031   1.2082
  1.2340   1.2465   1.2595   1.2913   1.2981   1.3199   1.3287   1.3555
  1.3687   1.3801   1.4161   1.4477   1.4579   1.4613   1.4846   1.5097
  1.5315   1.5325   1.5741   1.5791   1.6379   1.6517   1.6685   1.6762
  1.6987   2.2919   2.3538   2.4240   2.5261   2.5489   2.5761   2.6600
  2.6804   2.6950   2.7699   2.8031   2.8623   2.8709   2.9320   2.9337
  2.9661   2.9722   3.0125   3.0186   3.0414   3.0756   3.0966   3.1405
  3.1409   3.1609   3.1680   3.1767   3.1993   3.2362   3.2650   3.2714
  3.2977   3.3081   3.3393   3.3549   3.3851   3.3932   3.3988   3.4208
  3.4722   3.4803   3.5226   3.5355   3.5743   3.5926   3.6101   3.6419
  3.6608   3.6778   3.6805   3.7059   3.7260   3.7608   3.7724   3.8351
  3.8611   3.9021   3.9311   3.9659   3.9670   4.0107   4.0266   4.0538
  4.0641   4.1305   4.1423   4.1452   4.1740   4.1818   4.2177   4.2435
  4.2484   4.2764   4.2905   4.3142   4.3379   4.4125   4.4319   4.4600
  4.4701   4.4892   4.5449   4.6103   4.6674   4.8322   4.8415   4.8698
  4.9044   4.9285   4.9847   4.9920   5.0265   5.0681   5.0892   5.1488
  5.1728   5.1729   5.2057   5.2480   5.2745   5.2922   5.3102   5.3688
  5.3877   5.3971   5.4271   5.4466   5.5134   5.5627   5.6060   5.7314
  5.9806   6.3298   6.3744   6.4006   6.4307   6.5080  25.0922  25.4031
 25.4540
 --------------------------------------------------------------
 
 -----------------------------------------------------------------
                    Cartesian Multipole Moments
 -----------------------------------------------------------------
    Charge (ESU x 10^10)
                 0.0000
    Dipole Moment (Debye)
         X      -0.0000      Y      -0.0000      Z      -0.0991
       Tot       0.0991
    Quadrupole Moments (Debye-Ang)
        XX     -22.3984     XY       0.2367     YY     -21.2147
        XZ       0.0000     YZ       0.0000     ZZ     -21.8226
    Octopole Moments (Debye-Ang^2)
       XXX       0.0000    XXY      -0.0000    XYY      -0.0001
       YYY      -0.0000    XXZ      -1.3886    XYZ      -0.1186
       YYZ      -0.9124    XZZ       0.0000    YZZ      -0.0000
       ZZZ       0.4632
    Hexadecapole Moments (Debye-Ang^3)
      XXXX    -178.0891   XXXY      32.3018   XXYY     -42.2543
      XYYY      27.5466   YYYY     -65.8661   XXXZ       0.0002
      XXYZ       0.0001   XYYZ       0.0002   YYYZ      -0.0000
      XXZZ     -42.1487   XYZZ      10.7395   YYZZ     -23.6126
      XZZZ       0.0004   YZZZ       0.0002   ZZZZ     -69.8113
 -----------------------------------------------------------------
Archival summary:
1\1\cn0909\SP\ProcedureUnspecified\BasisUnspecified\38\r0852400\SunApr1213:26:232020SunApr1213:26:232020\0\\#,ProcedureUnspecified,BasisUnspecified,\\0,1\C\H,1,1.09259\H,1,1.09259,2,106.368\C,1,1.52405,2,105.021,3,-121.178,0\H,4,1.08878,1,109.328,2,98.5191,0\H,4,1.09047,1,111.618,2,-142.6,0\H,4,1.09496,1,112.483,2,-20.8697,0\C,1,1.52405,2,113.998,3,115.242,0\H,8,1.08878,1,109.328,2,-17.5065,0\H,8,1.09047,1,111.618,2,101.374,0\H,8,1.09496,1,112.483,2,-136.895,0\\\@

 Total job time:  42.47s(wall), 117.83s(cpu) 
 Sun Apr 12 13:26:23 2020

        *************************************************************
        *                                                           *
        *  Thank you very much for using Q-Chem.  Have a nice day.  *
        *                                                           *
        *************************************************************


