                  Welcome to Q-Chem
     A Quantum Leap Into The Future Of Chemistry


 Q-Chem 5.2 (devel), Q-Chem, Inc., Pleasanton, CA (2019)

 Yihan Shao,  Zhengting Gan,  E. Epifanovsky,  A. T. B. Gilbert,  M. Wormit,  
 J. Kussmann,  A. W. Lange,  A. Behn,  Jia Deng,  Xintian Feng,  D. Ghosh,  
 M. Goldey,  P. R. Horn,  L. D. Jacobson,  I. Kaliman,  T. Kus,  A. Landau,  
 Jie Liu,  E. I. Proynov,  R. M. Richard,  R. P. Steele,  E. J. Sundstrom,  
 H. L. Woodcock III,  P. M. Zimmerman,  D. Zuev,  B. Alam,  B. Albrecht,  
 E. Alguire,  S. A. Baeppler,  D. Barton,  Z. Benda,  Y. A. Bernard,  
 E. J. Berquist,  K. B. Bravaya,  H. Burton,  K. Carter-Fenk,  D. Casanova,  
 Chun-Min Chang,  Yunqing Chen,  A. Chien,  K. D. Closser,  M. P. Coons,  
 S. Coriani,  S. Dasgupta,  A. L. Dempwolff,  M. Diedenhofen,  Hainam Do,  
 R. G. Edgar,  Po-Tung Fang,  S. Faraji,  S. Fatehi,  Qingguo Feng,  
 J. Fosso-Tande,  J. Gayvert,  Qinghui Ge,  A. Ghysels,  G. Gidofalvi,  
 J. Gomes,  J. Gonthier,  A. Gunina,  D. Hait,  M. W. D. Hanson-Heine,  
 P. H. P. Harbach,  A. W. Hauser,  M. F. Herbst,  J. E. Herr,  
 E. G. Hohenstein,  Z. C. Holden,  Kerwin Hui,  B. C. Huynh,  T.-C. Jagau,  
 Hyunjun Ji,  B. Kaduk,  K. Khistyaev,  Jaehoon Kim,  P. Klunzinger,  K. Koh,  
 D. Kosenkov,  L. Koulias,  T. Kowalczyk,  C. M. Krauter,  A. Kunitsa,  
 Ka Un Lao,  A. Laurent,  K. V. Lawler,  Joonho Lee,  D. Lefrancois,  
 S. Lehtola,  D. S. Levine,  Yi-Pei Li,  You-Sheng Lin,  Fenglai Liu,  
 Kuan-Yu Liu,  E. Livshits,  M. Loipersberger,  A. Luenser,  P. Manohar,  
 E. Mansoor,  S. F. Manzer,  Shan-Ping Mao,  Yuezhi Mao,  N. Mardirossian,  
 A. V. Marenich,  T. Markovich,  L. A. Martinez-Martinez,  S. A. Maurer,  
 N. J. Mayhall,  S. C. McKenzie,  J.-M. Mewes,  P. Morgante,  A. F. Morrison,  
 J. W. Mullinax,  K. Nanda,  T. S. Nguyen-Beck,  R. Olivares-Amaya,  
 J. A. Parkhill,  S. K. Paul,  Zheng Pei,  T. M. Perrine,  F. Plasser,  
 P. Pokhilko,  S. Prager,  A. Prociuk,  E. Ramos,  B. Rana,  D. R. Rehn,  
 F. Rob,  M. Scheurer,  M. Schneider,  N. Sergueev,  S. M. Sharada,  
 S. Sharma,  D. W. Small,  T. Stauch,  C. J. Stein,  T. Stein,  Yu-Chuan Su,  
 S. P. Veccham,  A. J. W. Thom,  A. Tkatchenko,  T. Tsuchimochi,  
 N. M. Tubman,  L. Vogt,  M. L. Vidal,  O. Vydrov,  M. A. Watson,  J. Wenzel,  
 M. de Wergifosse,  T. A. Wesolowski,  A. White,  J. Witte,  A. Yamada,  
 Jun Yang,  K. Yao,  S. Yeganeh,  S. R. Yost,  Zhi-Qiang You,  A. Zech,  
 Igor Ying Zhang,  Xing Zhang,  Yan Zhao,  Ying Zhu,  B. R. Brooks,  
 G. K. L. Chan,  C. J. Cramer,  M. S. Gordon,  W. J. Hehre,  A. Klamt,  
 M. W. Schmidt,  C. D. Sherrill,  D. G. Truhlar,  A. Aspuru-Guzik,  R. Baer,  
 A. T. Bell,  N. A. Besley,  Jeng-Da Chai,  A. E. DePrince, III,  
 R. A. DiStasio Jr.,  A. Dreuw,  B. D. Dunietz,  T. R. Furlani,  
 Chao-Ping Hsu,  Yousung Jung,  Jing Kong,  D. S. Lambrecht,  WanZhen Liang,  
 C. Ochsenfeld,  V. A. Rassolov,  L. V. Slipchenko,  J. E. Subotnik,  
 T. Van Voorhis,  J. M. Herbert,  A. I. Krylov,  P. M. W. Gill,  M. Head-Gordon

 Contributors to earlier versions of Q-Chem not listed above: 
 R. D. Adamson,  B. Austin,  J. Baker,  G. J. O. Beran,  K. Brandhorst,  
 S. T. Brown,  E. F. C. Byrd,  A. K. Chakraborty,  C.-L. Cheng,  
 Siu Hung Chien,  D. M. Chipman,  D. L. Crittenden,  H. Dachsel,  
 R. J. Doerksen,  A. D. Dutoi,  L. Fusti-Molnar,  W. A. Goddard III,  
 A. Golubeva-Zadorozhnaya,  S. R. Gwaltney,  G. Hawkins,  A. Heyden,  
 S. Hirata,  G. Kedziora,  F. J. Keil,  C. Kelley,  Jihan Kim,  R. A. King,  
 R. Z. Khaliullin,  P. P. Korambath,  W. Kurlancheek,  A. M. Lee,  M. S. Lee,  
 S. V. Levchenko,  Ching Yeh Lin,  D. Liotard,  R. C. Lochan,  I. Lotan,  
 P. E. Maslen,  N. Nair,  D. P. O'Neill,  D. Neuhauser,  E. Neuscamman,  
 C. M. Oana,  R. Olson,  B. Peters,  R. Peverati,  P. A. Pieniazek,  
 Y. M. Rhee,  J. Ritchie,  M. A. Rohrdanz,  E. Rosta,  N. J. Russ,  
 H. F. Schaefer III,  N. E. Schultz,  N. Shenvi,  A. C. Simmonett,  A. Sodt,  
 D. Stuck,  K. S. Thanthiriwatte,  V. Vanovschi,  Tao Wang,  A. Warshel,  
 C. F. Williams,  Q. Wu,  X. Xu,  W. Zhang

 Please cite Q-Chem as follows:
 Y. Shao et al., Mol. Phys. 113, 184-215 (2015)
 DOI: 10.1080/00268976.2014.952696

 Q-Chem 5.2.2 for Intel X86 EM64T Linux

 Parts of Q-Chem use Armadillo 9.800.1 (Horizon Scraper).
 http://arma.sourceforge.net/

 Q-Chem begins on Sun Apr 12 13:24:59 2020  

Host: cn0909
0

     Scratch files written to /tmp/ypli/6724609.srvc1/qchem71676//
Warning:  Did not find "$end" marker in "$molecule" section

Checking the input file for inconsistencies... 	...done.

--------------------------------------------------------------
User input:
--------------------------------------------------------------
$rem
   JOBTYPE  sp
   EXCHANGE   omegaB97X-D
   BASIS   6-311+G(2df,2pd)
   max_scf_cycles   250
   geom_opt_max_cycles   1500
   basis2 6-31G*
   scf_algorithm rca_diis
   SYM_IGNORE  TRUE
   print_input   true
   geom_opt_dmax   80
   pop_mulliken false
   XC_GRID 000075000302
$end

$molecule
0 1
C       1.1710423653     -0.4841262921     0.2661956316
C       0.0000019706     0.0000111117     -0.5805594337
H       2.1059412625     -0.2418326297     -0.2368472433
H       1.1523040505     -1.5673816634     0.4236520766
H       1.1876396877     -0.0000277933     1.2431816424
C       -1.1710435209     0.4841202112     0.2662049981
H       -0.2474046644     -0.8388615961     -1.2354169213
H       0.2474120436     0.8389066590     -1.2353872035
H       -1.1523549433     1.5673803900     0.4236293637
H       -1.1875979572     0.0000449479     1.2432033104
H       -2.1059403550     0.2417673206     -0.2368112020
--------------------------------------------------------------
 ----------------------------------------------------------------
             Standard Nuclear Orientation (Angstroms)
    I     Atom           X                Y                Z
 ----------------------------------------------------------------
    1      C       1.1710423653    -0.4841262921     0.2661956316
    2      C       0.0000019706     0.0000111117    -0.5805594337
    3      H       2.1059412625    -0.2418326297    -0.2368472433
    4      H       1.1523040505    -1.5673816634     0.4236520766
    5      H       1.1876396877    -0.0000277933     1.2431816424
    6      C      -1.1710435209     0.4841202112     0.2662049981
    7      H      -0.2474046644    -0.8388615961    -1.2354169213
    8      H       0.2474120436     0.8389066590    -1.2353872035
    9      H      -1.1523549433     1.5673803900     0.4236293637
   10      H      -1.1875979572     0.0000449479     1.2432033104
   11      H      -2.1059403550     0.2417673206    -0.2368112020
 ----------------------------------------------------------------
 Nuclear Repulsion Energy =          82.73992644 hartrees
 There are       13 alpha and       13 beta electrons
 Requested basis set is 6-311+G(2df,2pd)
 There are 72 shells and 214 basis functions

 Total QAlloc Memory Limit   2000 MB
 Mega-Array Size       188 MB
 MEM_STATIC part       192 MB

                       Distance Matrix (Angstroms)
             C (  1)   C (  2)   H (  3)   H (  4)   H (  5)   C (  6)
   C (  2)  1.524047
   H (  3)  1.088942  2.147465
   H (  4)  1.094799  2.189283  1.761466
   H (  5)  1.090472  2.176354  1.758475  1.769032
   C (  6)  2.534338  1.524047  3.393921  3.103449  2.598513
   H (  7)  2.095870  1.092591  2.625228  2.289637  2.984367  2.204146
   H (  8)  2.204146  1.092592  2.370487  3.059651  2.780493  2.095869
   H (  9)  3.103488  2.189285  3.784967  3.890782  2.933259  1.094799
   H ( 10)  2.598490  2.176351  3.618902  2.933195  2.375238  1.090472
   H ( 11)  3.393899  2.147464  4.239554  3.784889  3.618910  1.088941
             H (  7)   H (  8)   H (  9)   H ( 10)
   H (  8)  1.749214
   H (  9)  3.059636  2.289620
   H ( 10)  2.780519  2.984351  1.769035
   H ( 11)  2.370470  2.625261  1.761464  1.758472
 
 A cutoff of  1.0D-09 yielded   2533 shell pairs
 There are     22515 function pairs (     27693 Cartesian)
 Smallest overlap matrix eigenvalue = 8.25E-05

 Scale SEOQF with 1.000000e-01/1.000000e-01/1.000000e-01

 Standard Electronic Orientation quadrupole field applied
 Nucleus-field energy     =     0.0000000007 hartrees
 Requested basis set is 6-31G(d)
 There are 28 shells and 58 basis functions
 A cutoff of  1.0D-09 yielded    402 shell pairs
 There are      1773 function pairs (      1968 Cartesian)
 Smallest overlap matrix eigenvalue = 6.35E-03
 Guess from superposition of atomic densities
 Warning:  Energy on first SCF cycle will be non-variational
 SAD guess density has 26.000000 electrons
 Long-range K will be added via erf
 Coulomb attenuation parameter = 0.2 bohr**(-1)
 A restricted hybrid HF-DFT SCF calculation will be
 performed using Relaxed Constraint Minimization + Pulay DIIS
 Exchange:     0.2220 Hartree-Fock + 1.0000 wB97X-D + LR-HF
 Correlation:  1.0000 wB97X-D
 Using Euler-Maclaurin-Lebedev (75,302) quadrature formula
 Dispersion:   Grimme D
 SCF converges when DIIS error is below 1.0E-04
 using 3 threads for integral computing
 -------------------------------------------------------
 OpenMP Integral computing Module                
 Release: version 1.0, May 2013, Q-Chem Inc. Pittsburgh 
 -------------------------------------------------------
 using 3 threads for integral computing
 -------------------------------------------------------
 OpenMP Integral computing Module                
 Release: version 1.0, May 2013, Q-Chem Inc. Pittsburgh 
 -------------------------------------------------------
 ---------------------------------------
  Cycle       Energy         DIIS Error
 ---------------------------------------
    1    -119.6246811453      1.00E-01
    2    -119.0579251691      9.06E-03
    3    -119.0792089061      2.45E-03
    4    -119.0932737683      1.68E-03
    5    -119.0939686823      2.65E-04 Done RCA. Switching to DIIS
    6    -119.0944791599      1.96E-04
    7    -119.0944958153      4.46E-06 Convergence criterion met
 ---------------------------------------
 SCF time:  CPU 27.18 s  wall 9.38 s
 SCF   energy in the small basis set = -119.09449582
 Total energy in the small basis set = -119.09449582
 ----------------------------------------------------
  Cycle       Energy    
 ----------------------------------------------------
    1     -16.5438303728     -1.65E+01
 Long-range K will be added via erf
 Coulomb attenuation parameter = 0.2 bohr**(-1)
 A restricted hybrid HF-DFT SCF calculation will be
 performed using Relaxed Constraint Minimization + Pulay DIIS
 Exchange:     0.2220 Hartree-Fock + 1.0000 wB97X-D + LR-HF
 Correlation:  1.0000 wB97X-D
 Using Euler-Maclaurin-Lebedev (75,302) quadrature formula
 Dispersion:   Grimme D
 SCF converges when DIIS error is below 1.0E-05
 Basis2 calculation detected. Using small basis as guess for larger.
 SCFMinFind is unable to tell whether the solution found is close.
 Resetting ReadMinima to 0 and attempting to follow guess.
 SCFMinFind following SCF Guess.
 using 3 threads for integral computing
 -------------------------------------------------------
 OpenMP Integral computing Module                
 Release: version 1.0, May 2013, Q-Chem Inc. Pittsburgh 
 -------------------------------------------------------
 using 3 threads for integral computing
 -------------------------------------------------------
 OpenMP Integral computing Module                
 Release: version 1.0, May 2013, Q-Chem Inc. Pittsburgh 
 -------------------------------------------------------
 ---------------------------------------
  Cycle       Energy         DIIS Error
 ---------------------------------------
    1    -119.1138196482      4.21E-03
    2    -119.1358327153      6.02E-04 Done RCA. Switching to DIIS
    3    -119.1366682577      4.24E-04
    4    -119.1376538978      4.54E-05
    5    -119.1376686402      1.01E-05
    6    -119.1376693392      3.88E-06 Convergence criterion met
 ---------------------------------------
 SCF time:  CPU 81.78 s  wall 27.57 s
 SCF   energy in the final basis set = -119.13766934
 Total energy in the final basis set = -119.13766934
 
 --------------------------------------------------------------
 
                    Orbital Energies (a.u.)
 --------------------------------------------------------------
 
 Alpha MOs
 -- Occupied --
-10.2725 -10.2640 -10.2640  -0.8810  -0.7771  -0.6772  -0.5445  -0.5249
 -0.4815  -0.4691  -0.4205  -0.4169  -0.3956
 -- Virtual --
  0.0701   0.0871   0.0909   0.1017   0.1223   0.1302   0.1317   0.1372
  0.1459   0.1665   0.1750   0.1904   0.2085   0.2481   0.2548   0.2596
  0.2918   0.3059   0.3142   0.3221   0.3334   0.3484   0.4565   0.4805
  0.4882   0.4912   0.5129   0.5199   0.5352   0.5608   0.5673   0.5876
  0.6062   0.6204   0.6352   0.6432   0.6470   0.6615   0.7057   0.7094
  0.7256   0.7663   0.7993   0.8481   0.8894   0.9385   0.9515   0.9723
  1.0345   1.0492   1.0973   1.0996   1.1041   1.1629   1.1950   1.1972
  1.2342   1.2396   1.2541   1.2838   1.3052   1.3182   1.3314   1.3767
  1.3800   1.4054   1.4214   1.4415   1.4490   1.4582   1.4797   1.5187
  1.5231   1.5259   1.5715   1.5767   1.6461   1.6519   1.6598   1.6715
  1.7072   2.3314   2.3606   2.4332   2.5111   2.5589   2.5925   2.6531
  2.6647   2.6832   2.7714   2.8127   2.8576   2.8715   2.9293   2.9326
  2.9549   2.9708   3.0142   3.0393   3.0568   3.0814   3.0964   3.1192
  3.1319   3.1379   3.1672   3.1747   3.1958   3.2389   3.2770   3.2877
  3.3119   3.3336   3.3489   3.3517   3.3797   3.3906   3.4112   3.4161
  3.4570   3.4645   3.5137   3.5307   3.5723   3.5991   3.6126   3.6366
  3.6406   3.6706   3.6901   3.7072   3.7398   3.7800   3.7882   3.8437
  3.8719   3.9053   3.9336   3.9779   3.9850   3.9924   4.0209   4.0515
  4.0584   4.1264   4.1439   4.1477   4.1709   4.1953   4.2125   4.2298
  4.2465   4.2723   4.2749   4.3205   4.3372   4.3911   4.4141   4.4631
  4.4859   4.4983   4.5267   4.6344   4.6481   4.8384   4.8603   4.8881
  4.9064   4.9347   4.9549   4.9698   5.0159   5.0814   5.0829   5.1561
  5.1690   5.1808   5.2334   5.2352   5.2796   5.2825   5.3215   5.3537
  5.3882   5.3941   5.4208   5.4654   5.5097   5.5592   5.6125   5.7254
  5.9730   6.3397   6.3719   6.4007   6.4364   6.4981  25.1181  25.3953
 25.4639
 --------------------------------------------------------------
 
 -----------------------------------------------------------------
                    Cartesian Multipole Moments
 -----------------------------------------------------------------
    Charge (ESU x 10^10)
                 0.0000
    Dipole Moment (Debye)
         X      -0.0000      Y      -0.0000      Z      -0.0996
       Tot       0.0996
    Quadrupole Moments (Debye-Ang)
        XX     -22.3595     XY       0.2042     YY     -21.2286
        XZ       0.0000     YZ       0.0000     ZZ     -21.8252
    Octopole Moments (Debye-Ang^2)
       XXX       0.0000    XXY      -0.0000    XYY      -0.0001
       YYY       0.0000    XXZ      -1.4647    XYZ      -0.0593
       YYZ      -0.5329    XZZ       0.0000    YZZ      -0.0001
       ZZZ       0.1503
    Hexadecapole Moments (Debye-Ang^3)
      XXXX    -180.4287   XXXY      30.3678   XXYY     -42.6133
      XYYY      26.7034   YYYY     -63.7451   XXXZ       0.0003
      XXYZ       0.0001   XYYZ       0.0001   YYYZ      -0.0000
      XXZZ     -42.0315   XYZZ      10.4058   YYZZ     -22.8533
      XZZZ       0.0004   YZZZ       0.0002   ZZZZ     -70.4297
 -----------------------------------------------------------------
Archival summary:
1\1\cn0909\SP\ProcedureUnspecified\BasisUnspecified\38\r0852400\SunApr1213:25:402020SunApr1213:25:402020\0\\#,ProcedureUnspecified,BasisUnspecified,\\0,1\C\H,1,1.09259\H,1,1.09259,2,106.354\C,1,1.52405,2,105.254,3,-121.014,0\H,4,1.08894,1,109.411,2,90.0584,0\H,4,1.09047,1,111.62,2,-150.986,0\H,4,1.0948,1,112.4,2,-29.3319,0\C,1,1.52405,2,113.76,3,115.388,0\H,8,1.08894,1,109.411,2,-25.9717,0\H,8,1.09047,1,111.62,2,92.9831,0\H,8,1.0948,1,112.4,2,-145.362,0\\\@

 Total job time:  40.98s(wall), 113.81s(cpu) 
 Sun Apr 12 13:25:40 2020

        *************************************************************
        *                                                           *
        *  Thank you very much for using Q-Chem.  Have a nice day.  *
        *                                                           *
        *************************************************************


