                  Welcome to Q-Chem
     A Quantum Leap Into The Future Of Chemistry


 Q-Chem 5.2 (devel), Q-Chem, Inc., Pleasanton, CA (2019)

 Yihan Shao,  Zhengting Gan,  E. Epifanovsky,  A. T. B. Gilbert,  M. Wormit,  
 J. Kussmann,  A. W. Lange,  A. Behn,  Jia Deng,  Xintian Feng,  D. Ghosh,  
 M. Goldey,  P. R. Horn,  L. D. Jacobson,  I. Kaliman,  T. Kus,  A. Landau,  
 Jie Liu,  E. I. Proynov,  R. M. Richard,  R. P. Steele,  E. J. Sundstrom,  
 H. L. Woodcock III,  P. M. Zimmerman,  D. Zuev,  B. Alam,  B. Albrecht,  
 E. Alguire,  S. A. Baeppler,  D. Barton,  Z. Benda,  Y. A. Bernard,  
 E. J. Berquist,  K. B. Bravaya,  H. Burton,  K. Carter-Fenk,  D. Casanova,  
 Chun-Min Chang,  Yunqing Chen,  A. Chien,  K. D. Closser,  M. P. Coons,  
 S. Coriani,  S. Dasgupta,  A. L. Dempwolff,  M. Diedenhofen,  Hainam Do,  
 R. G. Edgar,  Po-Tung Fang,  S. Faraji,  S. Fatehi,  Qingguo Feng,  
 J. Fosso-Tande,  J. Gayvert,  Qinghui Ge,  A. Ghysels,  G. Gidofalvi,  
 J. Gomes,  J. Gonthier,  A. Gunina,  D. Hait,  M. W. D. Hanson-Heine,  
 P. H. P. Harbach,  A. W. Hauser,  M. F. Herbst,  J. E. Herr,  
 E. G. Hohenstein,  Z. C. Holden,  Kerwin Hui,  B. C. Huynh,  T.-C. Jagau,  
 Hyunjun Ji,  B. Kaduk,  K. Khistyaev,  Jaehoon Kim,  P. Klunzinger,  K. Koh,  
 D. Kosenkov,  L. Koulias,  T. Kowalczyk,  C. M. Krauter,  A. Kunitsa,  
 Ka Un Lao,  A. Laurent,  K. V. Lawler,  Joonho Lee,  D. Lefrancois,  
 S. Lehtola,  D. S. Levine,  Yi-Pei Li,  You-Sheng Lin,  Fenglai Liu,  
 Kuan-Yu Liu,  E. Livshits,  M. Loipersberger,  A. Luenser,  P. Manohar,  
 E. Mansoor,  S. F. Manzer,  Shan-Ping Mao,  Yuezhi Mao,  N. Mardirossian,  
 A. V. Marenich,  T. Markovich,  L. A. Martinez-Martinez,  S. A. Maurer,  
 N. J. Mayhall,  S. C. McKenzie,  J.-M. Mewes,  P. Morgante,  A. F. Morrison,  
 J. W. Mullinax,  K. Nanda,  T. S. Nguyen-Beck,  R. Olivares-Amaya,  
 J. A. Parkhill,  S. K. Paul,  Zheng Pei,  T. M. Perrine,  F. Plasser,  
 P. Pokhilko,  S. Prager,  A. Prociuk,  E. Ramos,  B. Rana,  D. R. Rehn,  
 F. Rob,  M. Scheurer,  M. Schneider,  N. Sergueev,  S. M. Sharada,  
 S. Sharma,  D. W. Small,  T. Stauch,  C. J. Stein,  T. Stein,  Yu-Chuan Su,  
 S. P. Veccham,  A. J. W. Thom,  A. Tkatchenko,  T. Tsuchimochi,  
 N. M. Tubman,  L. Vogt,  M. L. Vidal,  O. Vydrov,  M. A. Watson,  J. Wenzel,  
 M. de Wergifosse,  T. A. Wesolowski,  A. White,  J. Witte,  A. Yamada,  
 Jun Yang,  K. Yao,  S. Yeganeh,  S. R. Yost,  Zhi-Qiang You,  A. Zech,  
 Igor Ying Zhang,  Xing Zhang,  Yan Zhao,  Ying Zhu,  B. R. Brooks,  
 G. K. L. Chan,  C. J. Cramer,  M. S. Gordon,  W. J. Hehre,  A. Klamt,  
 M. W. Schmidt,  C. D. Sherrill,  D. G. Truhlar,  A. Aspuru-Guzik,  R. Baer,  
 A. T. Bell,  N. A. Besley,  Jeng-Da Chai,  A. E. DePrince, III,  
 R. A. DiStasio Jr.,  A. Dreuw,  B. D. Dunietz,  T. R. Furlani,  
 Chao-Ping Hsu,  Yousung Jung,  Jing Kong,  D. S. Lambrecht,  WanZhen Liang,  
 C. Ochsenfeld,  V. A. Rassolov,  L. V. Slipchenko,  J. E. Subotnik,  
 T. Van Voorhis,  J. M. Herbert,  A. I. Krylov,  P. M. W. Gill,  M. Head-Gordon

 Contributors to earlier versions of Q-Chem not listed above: 
 R. D. Adamson,  B. Austin,  J. Baker,  G. J. O. Beran,  K. Brandhorst,  
 S. T. Brown,  E. F. C. Byrd,  A. K. Chakraborty,  C.-L. Cheng,  
 Siu Hung Chien,  D. M. Chipman,  D. L. Crittenden,  H. Dachsel,  
 R. J. Doerksen,  A. D. Dutoi,  L. Fusti-Molnar,  W. A. Goddard III,  
 A. Golubeva-Zadorozhnaya,  S. R. Gwaltney,  G. Hawkins,  A. Heyden,  
 S. Hirata,  G. Kedziora,  F. J. Keil,  C. Kelley,  Jihan Kim,  R. A. King,  
 R. Z. Khaliullin,  P. P. Korambath,  W. Kurlancheek,  A. M. Lee,  M. S. Lee,  
 S. V. Levchenko,  Ching Yeh Lin,  D. Liotard,  R. C. Lochan,  I. Lotan,  
 P. E. Maslen,  N. Nair,  D. P. O'Neill,  D. Neuhauser,  E. Neuscamman,  
 C. M. Oana,  R. Olson,  B. Peters,  R. Peverati,  P. A. Pieniazek,  
 Y. M. Rhee,  J. Ritchie,  M. A. Rohrdanz,  E. Rosta,  N. J. Russ,  
 H. F. Schaefer III,  N. E. Schultz,  N. Shenvi,  A. C. Simmonett,  A. Sodt,  
 D. Stuck,  K. S. Thanthiriwatte,  V. Vanovschi,  Tao Wang,  A. Warshel,  
 C. F. Williams,  Q. Wu,  X. Xu,  W. Zhang

 Please cite Q-Chem as follows:
 Y. Shao et al., Mol. Phys. 113, 184-215 (2015)
 DOI: 10.1080/00268976.2014.952696

 Q-Chem 5.2.2 for Intel X86 EM64T Linux

 Parts of Q-Chem use Armadillo 9.800.1 (Horizon Scraper).
 http://arma.sourceforge.net/

 Q-Chem begins on Sun Apr 12 06:19:17 2020  

Host: cn0913
0

     Scratch files written to /tmp/ypli/6721341.srvc1/qchem233539//
Warning:  Did not find "$end" marker in "$molecule" section

Checking the input file for inconsistencies... 	...done.

--------------------------------------------------------------
User input:
--------------------------------------------------------------
$rem
   JOBTYPE  sp
   EXCHANGE   omegaB97X-D
   BASIS   6-311+G(2df,2pd)
   max_scf_cycles   250
   geom_opt_max_cycles   1500
   basis2 6-31G*
   scf_algorithm rca_diis
   SYM_IGNORE  TRUE
   print_input   true
   geom_opt_dmax   80
   pop_mulliken false
   XC_GRID 000075000302
$end

$molecule
0 1
C       1.2659366173     0.0536994730     0.2591135311
C       0.0000000164     0.0000000384     -0.5877876015
H       1.2905726776     -0.8577402882     0.8603903057
H       1.3187834570     0.9022200849     0.9437358971
H       2.1629218591     0.0220715435     -0.3601921445
C       -1.2659365686     -0.0536993564     0.2591135511
H       -0.1699505889     -0.8609736488     -1.2386313391
H       0.1699506919     0.8609736538     -1.2386314037
H       -1.3187833743     -0.9022200560     0.9437357830
H       -2.1629219002     -0.0220711085     -0.3601919985
H       -1.2905729478     0.8577403304     0.8603904384
--------------------------------------------------------------
 ----------------------------------------------------------------
             Standard Nuclear Orientation (Angstroms)
    I     Atom           X                Y                Z
 ----------------------------------------------------------------
    1      C       1.2659366173     0.0536994730     0.2591135311
    2      C       0.0000000164     0.0000000384    -0.5877876015
    3      H       1.2905726776    -0.8577402882     0.8603903057
    4      H       1.3187834570     0.9022200849     0.9437358971
    5      H       2.1629218591     0.0220715435    -0.3601921445
    6      C      -1.2659365686    -0.0536993564     0.2591135511
    7      H      -0.1699505889    -0.8609736488    -1.2386313391
    8      H       0.1699506919     0.8609736538    -1.2386314037
    9      H      -1.3187833743    -0.9022200560     0.9437357830
   10      H      -2.1629219002    -0.0220711085    -0.3601919985
   11      H      -1.2905729478     0.8577403304     0.8603904384
 ----------------------------------------------------------------
 Nuclear Repulsion Energy =          82.78697922 hartrees
 There are       13 alpha and       13 beta electrons
 Requested basis set is 6-311+G(2df,2pd)
 There are 72 shells and 214 basis functions

 Total QAlloc Memory Limit   2000 MB
 Mega-Array Size       188 MB
 MEM_STATIC part       192 MB

                       Distance Matrix (Angstroms)
             C (  1)   C (  2)   H (  3)   H (  4)   H (  5)   C (  6)
   C (  2)  1.524047
   H (  3)  1.092183  2.120970
   H (  4)  1.091553  2.213313  1.762159
   H (  5)  1.090469  2.174975  1.739219  1.785346
   C (  6)  2.534150  1.524047  2.746590  2.839589  3.485162
   H (  7)  2.267518  1.092592  2.557153  3.176147  2.644564  2.023887
   H (  8)  2.023887  1.092592  2.935245  2.466626  2.333955  2.267518
   H (  9)  2.839589  2.213313  2.611066  3.195741  3.831033  1.091553
   H ( 10)  3.485162  2.174975  3.756965  3.831033  4.326069  1.090469
   H ( 11)  2.746590  2.120971  3.099224  2.611066  3.756966  1.092183
             H (  7)   H (  8)   H (  9)   H ( 10)
   H (  8)  1.755174
   H (  9)  2.466626  3.176147
   H ( 10)  2.333955  2.644564  1.785346
   H ( 11)  2.935245  2.557153  1.762159  1.739219
 
 A cutoff of  1.0D-09 yielded   2535 shell pairs
 There are     22589 function pairs (     27770 Cartesian)
 Smallest overlap matrix eigenvalue = 9.66E-05

 Scale SEOQF with 1.000000e-01/1.000000e-01/1.000000e-01

 Standard Electronic Orientation quadrupole field applied
 Nucleus-field energy     =     0.0000000006 hartrees
 Requested basis set is 6-31G(d)
 There are 28 shells and 58 basis functions
 A cutoff of  1.0D-09 yielded    402 shell pairs
 There are      1773 function pairs (      1968 Cartesian)
 Smallest overlap matrix eigenvalue = 6.99E-03
 Guess from superposition of atomic densities
 Warning:  Energy on first SCF cycle will be non-variational
 SAD guess density has 26.000000 electrons
 Long-range K will be added via erf
 Coulomb attenuation parameter = 0.2 bohr**(-1)
 A restricted hybrid HF-DFT SCF calculation will be
 performed using Relaxed Constraint Minimization + Pulay DIIS
 Exchange:     0.2220 Hartree-Fock + 1.0000 wB97X-D + LR-HF
 Correlation:  1.0000 wB97X-D
 Using Euler-Maclaurin-Lebedev (75,302) quadrature formula
 Dispersion:   Grimme D
 SCF converges when DIIS error is below 1.0E-04
 using 3 threads for integral computing
 -------------------------------------------------------
 OpenMP Integral computing Module                
 Release: version 1.0, May 2013, Q-Chem Inc. Pittsburgh 
 -------------------------------------------------------
 using 3 threads for integral computing
 -------------------------------------------------------
 OpenMP Integral computing Module                
 Release: version 1.0, May 2013, Q-Chem Inc. Pittsburgh 
 -------------------------------------------------------
 ---------------------------------------
  Cycle       Energy         DIIS Error
 ---------------------------------------
    1    -119.6275223516      1.01E-01
    2    -119.0543954426      9.01E-03
    3    -119.0755568894      2.49E-03
    4    -119.0894522264      1.71E-03
    5    -119.0901675234      2.71E-04 Done RCA. Switching to DIIS
    6    -119.0906920187      2.00E-04
    7    -119.0907094376      4.98E-06 Convergence criterion met
 ---------------------------------------
 SCF time:  CPU 23.16 s  wall 7.87 s
 SCF   energy in the small basis set = -119.09070944
 Total energy in the small basis set = -119.09070944
 ----------------------------------------------------
  Cycle       Energy    
 ----------------------------------------------------
    1     -16.5393929052     -1.65E+01
 Long-range K will be added via erf
 Coulomb attenuation parameter = 0.2 bohr**(-1)
 A restricted hybrid HF-DFT SCF calculation will be
 performed using Relaxed Constraint Minimization + Pulay DIIS
 Exchange:     0.2220 Hartree-Fock + 1.0000 wB97X-D + LR-HF
 Correlation:  1.0000 wB97X-D
 Using Euler-Maclaurin-Lebedev (75,302) quadrature formula
 Dispersion:   Grimme D
 SCF converges when DIIS error is below 1.0E-05
 Basis2 calculation detected. Using small basis as guess for larger.
 SCFMinFind is unable to tell whether the solution found is close.
 Resetting ReadMinima to 0 and attempting to follow guess.
 SCFMinFind following SCF Guess.
 using 3 threads for integral computing
 -------------------------------------------------------
 OpenMP Integral computing Module                
 Release: version 1.0, May 2013, Q-Chem Inc. Pittsburgh 
 -------------------------------------------------------
 using 3 threads for integral computing
 -------------------------------------------------------
 OpenMP Integral computing Module                
 Release: version 1.0, May 2013, Q-Chem Inc. Pittsburgh 
 -------------------------------------------------------
 ---------------------------------------
  Cycle       Energy         DIIS Error
 ---------------------------------------
    1    -119.1101304925      4.21E-03
    2    -119.1322062830      6.05E-04 Done RCA. Switching to DIIS
    3    -119.1330550052      4.26E-04
    4    -119.1340481392      4.58E-05
    5    -119.1340631705      1.04E-05
    6    -119.1340638993      4.00E-06 Convergence criterion met
 ---------------------------------------
 SCF time:  CPU 69.68 s  wall 23.47 s
 SCF   energy in the final basis set = -119.13406390
 Total energy in the final basis set = -119.13406390
 
 --------------------------------------------------------------
 
                    Orbital Energies (a.u.)
 --------------------------------------------------------------
 
 Alpha MOs
 -- Occupied --
-10.2739 -10.2658 -10.2658  -0.8826  -0.7787  -0.6776  -0.5471  -0.5249
 -0.4889  -0.4660  -0.4274  -0.4141  -0.3892
 -- Virtual --
  0.0690   0.0854   0.0908   0.0990   0.1250   0.1287   0.1324   0.1427
  0.1447   0.1702   0.1734   0.1912   0.2321   0.2358   0.2441   0.2547
  0.2821   0.2851   0.3123   0.3157   0.3312   0.3475   0.4583   0.4708
  0.4713   0.5085   0.5158   0.5198   0.5482   0.5581   0.5832   0.5917
  0.6205   0.6216   0.6401   0.6418   0.6485   0.6841   0.7090   0.7160
  0.7253   0.7683   0.8111   0.8449   0.8596   0.8874   0.8987   0.9614
  1.0019   1.0506   1.0554   1.1323   1.1349   1.1575   1.1972   1.2040
  1.2175   1.2369   1.2711   1.2829   1.3076   1.3177   1.3330   1.3793
  1.3849   1.3958   1.4059   1.4399   1.4437   1.4686   1.4763   1.4877
  1.5229   1.5742   1.6057   1.6193   1.6421   1.6470   1.6836   1.7035
  1.7320   2.3822   2.4530   2.4881   2.5038   2.5289   2.5631   2.6008
  2.6537   2.7111   2.7943   2.8229   2.8387   2.8876   2.9221   2.9277
  2.9305   2.9959   2.9960   3.0335   3.0458   3.0649   3.0809   3.0968
  3.1210   3.1228   3.1748   3.1903   3.2412   3.2665   3.2884   3.3095
  3.3221   3.3244   3.3323   3.3471   3.3810   3.4017   3.4038   3.4314
  3.4708   3.4945   3.5348   3.5374   3.5600   3.5772   3.6169   3.6253
  3.6275   3.6596   3.6791   3.7010   3.7535   3.7720   3.7971   3.8669
  3.8888   3.9231   3.9397   3.9477   3.9899   4.0192   4.0244   4.0659
  4.0845   4.1024   4.1152   4.1531   4.1537   4.1660   4.1930   4.2118
  4.2155   4.2574   4.2582   4.3142   4.3672   4.4046   4.4287   4.4429
  4.4603   4.5457   4.6209   4.6342   4.7068   4.8119   4.8207   4.8694
  4.9516   4.9690   4.9703   5.0108   5.0449   5.0580   5.0697   5.0861
  5.1916   5.2289   5.2461   5.2668   5.3081   5.3236   5.3247   5.3374
  5.3833   5.4281   5.4705   5.4874   5.5113   5.5900   5.6402   5.7439
  5.9901   6.3753   6.3817   6.3936   6.4206   6.4736  25.1978  25.4357
 25.4478
 --------------------------------------------------------------
 
 -----------------------------------------------------------------
                    Cartesian Multipole Moments
 -----------------------------------------------------------------
    Charge (ESU x 10^10)
                -0.0000
    Dipole Moment (Debye)
         X      -0.0000      Y       0.0000      Z      -0.0673
       Tot       0.0673
    Quadrupole Moments (Debye-Ang)
        XX     -22.1053     XY       0.4905     YY     -21.4323
        XZ      -0.0000     YZ      -0.0000     ZZ     -21.9034
    Octopole Moments (Debye-Ang^2)
       XXX      -0.0000    XXY       0.0000    XYY      -0.0000
       YYY      -0.0000    XXZ      -1.6369    XYZ       0.0707
       YYZ       0.6146    XZZ       0.0000    YZZ      -0.0000
       ZZZ      -0.2454
    Hexadecapole Moments (Debye-Ang^3)
      XXXX    -202.3215   XXXY      -2.9459   XXYY     -42.1453
      XYYY      -2.7595   YYYY     -44.3393   XXXZ      -0.0000
      XXYZ      -0.0000   XYYZ       0.0000   YYYZ      -0.0000
      XXZZ     -45.1466   XYZZ       0.2428   YYZZ     -17.2498
      XZZZ       0.0000   YZZZ       0.0000   ZZZZ     -72.4027
 -----------------------------------------------------------------
Archival summary:
1\1\cn0913\SP\ProcedureUnspecified\BasisUnspecified\38\r0852400\SunApr1206:19:522020SunApr1206:19:522020\0\\#,ProcedureUnspecified,BasisUnspecified,\\0,1\C\H,1,1.09259\H,1,1.09259,2,106.877\C,1,1.52405,2,119.209,3,-112.209,0\H,4,1.09047,1,111.509,2,59.5018,0\H,4,1.09155,1,114.591,2,-174.979,0\H,4,1.09218,1,107.173,2,-55.6759,0\C,1,1.52405,2,100.023,3,124.853,0\H,8,1.09047,1,111.509,2,-56.3836,0\H,8,1.09155,1,114.591,2,69.1361,0\H,8,1.09218,1,107.173,2,-171.561,0\\\@

 Total job time:  34.71s(wall), 97.02s(cpu) 
 Sun Apr 12 06:19:52 2020

        *************************************************************
        *                                                           *
        *  Thank you very much for using Q-Chem.  Have a nice day.  *
        *                                                           *
        *************************************************************


