                  Welcome to Q-Chem
     A Quantum Leap Into The Future Of Chemistry


 Q-Chem 5.2 (devel), Q-Chem, Inc., Pleasanton, CA (2019)

 Yihan Shao,  Zhengting Gan,  E. Epifanovsky,  A. T. B. Gilbert,  M. Wormit,  
 J. Kussmann,  A. W. Lange,  A. Behn,  Jia Deng,  Xintian Feng,  D. Ghosh,  
 M. Goldey,  P. R. Horn,  L. D. Jacobson,  I. Kaliman,  T. Kus,  A. Landau,  
 Jie Liu,  E. I. Proynov,  R. M. Richard,  R. P. Steele,  E. J. Sundstrom,  
 H. L. Woodcock III,  P. M. Zimmerman,  D. Zuev,  B. Alam,  B. Albrecht,  
 E. Alguire,  S. A. Baeppler,  D. Barton,  Z. Benda,  Y. A. Bernard,  
 E. J. Berquist,  K. B. Bravaya,  H. Burton,  K. Carter-Fenk,  D. Casanova,  
 Chun-Min Chang,  Yunqing Chen,  A. Chien,  K. D. Closser,  M. P. Coons,  
 S. Coriani,  S. Dasgupta,  A. L. Dempwolff,  M. Diedenhofen,  Hainam Do,  
 R. G. Edgar,  Po-Tung Fang,  S. Faraji,  S. Fatehi,  Qingguo Feng,  
 J. Fosso-Tande,  J. Gayvert,  Qinghui Ge,  A. Ghysels,  G. Gidofalvi,  
 J. Gomes,  J. Gonthier,  A. Gunina,  D. Hait,  M. W. D. Hanson-Heine,  
 P. H. P. Harbach,  A. W. Hauser,  M. F. Herbst,  J. E. Herr,  
 E. G. Hohenstein,  Z. C. Holden,  Kerwin Hui,  B. C. Huynh,  T.-C. Jagau,  
 Hyunjun Ji,  B. Kaduk,  K. Khistyaev,  Jaehoon Kim,  P. Klunzinger,  K. Koh,  
 D. Kosenkov,  L. Koulias,  T. Kowalczyk,  C. M. Krauter,  A. Kunitsa,  
 Ka Un Lao,  A. Laurent,  K. V. Lawler,  Joonho Lee,  D. Lefrancois,  
 S. Lehtola,  D. S. Levine,  Yi-Pei Li,  You-Sheng Lin,  Fenglai Liu,  
 Kuan-Yu Liu,  E. Livshits,  M. Loipersberger,  A. Luenser,  P. Manohar,  
 E. Mansoor,  S. F. Manzer,  Shan-Ping Mao,  Yuezhi Mao,  N. Mardirossian,  
 A. V. Marenich,  T. Markovich,  L. A. Martinez-Martinez,  S. A. Maurer,  
 N. J. Mayhall,  S. C. McKenzie,  J.-M. Mewes,  P. Morgante,  A. F. Morrison,  
 J. W. Mullinax,  K. Nanda,  T. S. Nguyen-Beck,  R. Olivares-Amaya,  
 J. A. Parkhill,  S. K. Paul,  Zheng Pei,  T. M. Perrine,  F. Plasser,  
 P. Pokhilko,  S. Prager,  A. Prociuk,  E. Ramos,  B. Rana,  D. R. Rehn,  
 F. Rob,  M. Scheurer,  M. Schneider,  N. Sergueev,  S. M. Sharada,  
 S. Sharma,  D. W. Small,  T. Stauch,  C. J. Stein,  T. Stein,  Yu-Chuan Su,  
 S. P. Veccham,  A. J. W. Thom,  A. Tkatchenko,  T. Tsuchimochi,  
 N. M. Tubman,  L. Vogt,  M. L. Vidal,  O. Vydrov,  M. A. Watson,  J. Wenzel,  
 M. de Wergifosse,  T. A. Wesolowski,  A. White,  J. Witte,  A. Yamada,  
 Jun Yang,  K. Yao,  S. Yeganeh,  S. R. Yost,  Zhi-Qiang You,  A. Zech,  
 Igor Ying Zhang,  Xing Zhang,  Yan Zhao,  Ying Zhu,  B. R. Brooks,  
 G. K. L. Chan,  C. J. Cramer,  M. S. Gordon,  W. J. Hehre,  A. Klamt,  
 M. W. Schmidt,  C. D. Sherrill,  D. G. Truhlar,  A. Aspuru-Guzik,  R. Baer,  
 A. T. Bell,  N. A. Besley,  Jeng-Da Chai,  A. E. DePrince, III,  
 R. A. DiStasio Jr.,  A. Dreuw,  B. D. Dunietz,  T. R. Furlani,  
 Chao-Ping Hsu,  Yousung Jung,  Jing Kong,  D. S. Lambrecht,  WanZhen Liang,  
 C. Ochsenfeld,  V. A. Rassolov,  L. V. Slipchenko,  J. E. Subotnik,  
 T. Van Voorhis,  J. M. Herbert,  A. I. Krylov,  P. M. W. Gill,  M. Head-Gordon

 Contributors to earlier versions of Q-Chem not listed above: 
 R. D. Adamson,  B. Austin,  J. Baker,  G. J. O. Beran,  K. Brandhorst,  
 S. T. Brown,  E. F. C. Byrd,  A. K. Chakraborty,  C.-L. Cheng,  
 Siu Hung Chien,  D. M. Chipman,  D. L. Crittenden,  H. Dachsel,  
 R. J. Doerksen,  A. D. Dutoi,  L. Fusti-Molnar,  W. A. Goddard III,  
 A. Golubeva-Zadorozhnaya,  S. R. Gwaltney,  G. Hawkins,  A. Heyden,  
 S. Hirata,  G. Kedziora,  F. J. Keil,  C. Kelley,  Jihan Kim,  R. A. King,  
 R. Z. Khaliullin,  P. P. Korambath,  W. Kurlancheek,  A. M. Lee,  M. S. Lee,  
 S. V. Levchenko,  Ching Yeh Lin,  D. Liotard,  R. C. Lochan,  I. Lotan,  
 P. E. Maslen,  N. Nair,  D. P. O'Neill,  D. Neuhauser,  E. Neuscamman,  
 C. M. Oana,  R. Olson,  B. Peters,  R. Peverati,  P. A. Pieniazek,  
 Y. M. Rhee,  J. Ritchie,  M. A. Rohrdanz,  E. Rosta,  N. J. Russ,  
 H. F. Schaefer III,  N. E. Schultz,  N. Shenvi,  A. C. Simmonett,  A. Sodt,  
 D. Stuck,  K. S. Thanthiriwatte,  V. Vanovschi,  Tao Wang,  A. Warshel,  
 C. F. Williams,  Q. Wu,  X. Xu,  W. Zhang

 Please cite Q-Chem as follows:
 Y. Shao et al., Mol. Phys. 113, 184-215 (2015)
 DOI: 10.1080/00268976.2014.952696

 Q-Chem 5.2.2 for Intel X86 EM64T Linux

 Parts of Q-Chem use Armadillo 9.800.1 (Horizon Scraper).
 http://arma.sourceforge.net/

 Q-Chem begins on Sun Apr 12 06:39:22 2020  

Host: cn0913
0

     Scratch files written to /tmp/ypli/6721341.srvc1/qchem236969//
Warning:  Did not find "$end" marker in "$molecule" section

Checking the input file for inconsistencies... 	...done.

--------------------------------------------------------------
User input:
--------------------------------------------------------------
$rem
   JOBTYPE  sp
   EXCHANGE   omegaB97X-D
   BASIS   6-311+G(2df,2pd)
   max_scf_cycles   250
   geom_opt_max_cycles   1500
   basis2 6-31G*
   scf_algorithm rca_diis
   SYM_IGNORE  TRUE
   print_input   true
   geom_opt_dmax   80
   pop_mulliken false
   XC_GRID 000075000302
$end

$molecule
0 1
C       1.2785788961     0.0000000244     0.2837790306
C       0.0000002372     0.0000000445     -0.5723072747
H       1.2557789350     -0.9010933887     0.8975706196
H       1.2557789825     0.9010934263     0.8975706431
H       2.1327029871     0.0000000366     -0.3919846943
C       -1.2785783033     -0.0000000228     0.2837788319
H       0.0000001234     -0.8731035986     -1.2302596623
H       0.0000002400     0.8731036338     -1.2302597440
H       -1.2557796261     -0.9010933765     0.8975705681
H       -2.1327032422     0.0000005416     -0.3919839265
H       -1.2557792903     0.9010933454     0.8975706274
--------------------------------------------------------------
 ----------------------------------------------------------------
             Standard Nuclear Orientation (Angstroms)
    I     Atom           X                Y                Z
 ----------------------------------------------------------------
    1      C       1.2785788961     0.0000000244     0.2837790306
    2      C       0.0000002372     0.0000000445    -0.5723072747
    3      H       1.2557789350    -0.9010933887     0.8975706196
    4      H       1.2557789825     0.9010934263     0.8975706431
    5      H       2.1327029871     0.0000000366    -0.3919846943
    6      C      -1.2785783033    -0.0000000228     0.2837788319
    7      H       0.0000001234    -0.8731035986    -1.2302596623
    8      H       0.0000002400     0.8731036338    -1.2302597440
    9      H      -1.2557796261    -0.9010933765     0.8975705681
   10      H      -2.1327032422     0.0000005416    -0.3919839265
   11      H      -1.2557792903     0.9010933454     0.8975706274
 ----------------------------------------------------------------
 Nuclear Repulsion Energy =          82.64316623 hartrees
 There are       13 alpha and       13 beta electrons
 Requested basis set is 6-311+G(2df,2pd)
 There are 72 shells and 214 basis functions

 Total QAlloc Memory Limit   2000 MB
 Mega-Array Size       188 MB
 MEM_STATIC part       192 MB

                       Distance Matrix (Angstroms)
             C (  1)   C (  2)   H (  3)   H (  4)   H (  5)   C (  6)
   C (  2)  1.538716
   H (  3)  1.090518  2.132953
   H (  4)  1.090518  2.132953  1.802187
   H (  5)  1.089121  2.140312  1.801088  1.801088
   C (  6)  2.557157  1.538716  2.758927  2.758927  3.477570
   H (  7)  2.165499  1.093257  2.470916  3.041779  2.452231  2.165499
   H (  8)  2.165499  1.093257  3.041779  2.470916  2.452231  2.165499
   H (  9)  2.758928  2.132954  2.511559  3.091246  3.735872  1.090518
   H ( 10)  3.477571  2.140313  3.735871  3.735871  4.265406  1.089121
   H ( 11)  2.758927  2.132954  3.091246  2.511558  3.735871  1.090518
             H (  7)   H (  8)   H (  9)   H ( 10)
   H (  8)  1.746207
   H (  9)  2.470916  3.041779
   H ( 10)  2.452232  2.452232  1.801087
   H ( 11)  3.041779  2.470916  1.802187  1.801087
 
 A cutoff of  1.0D-09 yielded   2534 shell pairs
 There are     22580 function pairs (     27761 Cartesian)
 Smallest overlap matrix eigenvalue = 8.93E-05

 Scale SEOQF with 1.000000e-01/1.000000e-01/1.000000e-01

 Standard Electronic Orientation quadrupole field applied
 Nucleus-field energy     =     0.0000000006 hartrees
 Requested basis set is 6-31G(d)
 There are 28 shells and 58 basis functions
 A cutoff of  1.0D-09 yielded    402 shell pairs
 There are      1773 function pairs (      1968 Cartesian)
 Smallest overlap matrix eigenvalue = 6.70E-03
 Guess from superposition of atomic densities
 Warning:  Energy on first SCF cycle will be non-variational
 SAD guess density has 26.000000 electrons
 Long-range K will be added via erf
 Coulomb attenuation parameter = 0.2 bohr**(-1)
 A restricted hybrid HF-DFT SCF calculation will be
 performed using Relaxed Constraint Minimization + Pulay DIIS
 Exchange:     0.2220 Hartree-Fock + 1.0000 wB97X-D + LR-HF
 Correlation:  1.0000 wB97X-D
 Using Euler-Maclaurin-Lebedev (75,302) quadrature formula
 Dispersion:   Grimme D
 SCF converges when DIIS error is below 1.0E-04
 using 3 threads for integral computing
 -------------------------------------------------------
 OpenMP Integral computing Module                
 Release: version 1.0, May 2013, Q-Chem Inc. Pittsburgh 
 -------------------------------------------------------
 using 3 threads for integral computing
 -------------------------------------------------------
 OpenMP Integral computing Module                
 Release: version 1.0, May 2013, Q-Chem Inc. Pittsburgh 
 -------------------------------------------------------
 ---------------------------------------
  Cycle       Energy         DIIS Error
 ---------------------------------------
    1    -119.5948214203      9.96E-02
    2    -119.0635603661      8.99E-03
    3    -119.0848564783      2.54E-03
    4    -119.0983938400      1.74E-03
    5    -119.0991449960      2.92E-04 Done RCA. Switching to DIIS
    6    -119.0996799655      2.15E-04
    7    -119.0997000051      4.77E-06 Convergence criterion met
 ---------------------------------------
 SCF time:  CPU 23.26 s  wall 7.91 s
 SCF   energy in the small basis set = -119.09970001
 Total energy in the small basis set = -119.09970001
 ----------------------------------------------------
  Cycle       Energy    
 ----------------------------------------------------
    1     -16.5335270646     -1.65E+01
 Long-range K will be added via erf
 Coulomb attenuation parameter = 0.2 bohr**(-1)
 A restricted hybrid HF-DFT SCF calculation will be
 performed using Relaxed Constraint Minimization + Pulay DIIS
 Exchange:     0.2220 Hartree-Fock + 1.0000 wB97X-D + LR-HF
 Correlation:  1.0000 wB97X-D
 Using Euler-Maclaurin-Lebedev (75,302) quadrature formula
 Dispersion:   Grimme D
 SCF converges when DIIS error is below 1.0E-05
 Basis2 calculation detected. Using small basis as guess for larger.
 SCFMinFind is unable to tell whether the solution found is close.
 Resetting ReadMinima to 0 and attempting to follow guess.
 SCFMinFind following SCF Guess.
 using 3 threads for integral computing
 -------------------------------------------------------
 OpenMP Integral computing Module                
 Release: version 1.0, May 2013, Q-Chem Inc. Pittsburgh 
 -------------------------------------------------------
 using 3 threads for integral computing
 -------------------------------------------------------
 OpenMP Integral computing Module                
 Release: version 1.0, May 2013, Q-Chem Inc. Pittsburgh 
 -------------------------------------------------------
 ---------------------------------------
  Cycle       Energy         DIIS Error
 ---------------------------------------
    1    -119.1187096314      4.22E-03
    2    -119.1407481680      6.14E-04 Done RCA. Switching to DIIS
    3    -119.1416278516      4.31E-04
    4    -119.1426471889      4.48E-05
    5    -119.1426613603      1.14E-05
    6    -119.1426621682      4.13E-06 Convergence criterion met
 ---------------------------------------
 SCF time:  CPU 68.95 s  wall 23.23 s
 SCF   energy in the final basis set = -119.14266217
 Total energy in the final basis set = -119.14266217
 
 --------------------------------------------------------------
 
                    Orbital Energies (a.u.)
 --------------------------------------------------------------
 
 Alpha MOs
 -- Occupied --
-10.2723 -10.2660 -10.2660  -0.8799  -0.7760  -0.6721  -0.5491  -0.5247
 -0.4824  -0.4700  -0.4143  -0.4109  -0.4098
 -- Virtual --
  0.0695   0.0872   0.0910   0.0977   0.1241   0.1308   0.1326   0.1396
  0.1434   0.1700   0.1718   0.1906   0.2270   0.2419   0.2499   0.2652
  0.2762   0.2826   0.3087   0.3169   0.3361   0.3378   0.4541   0.4657
  0.4700   0.5045   0.5073   0.5191   0.5364   0.5614   0.5884   0.5904
  0.6211   0.6215   0.6339   0.6439   0.6574   0.6598   0.7085   0.7234
  0.7264   0.7647   0.8178   0.8585   0.8676   0.8740   0.8894   0.9513
  0.9998   1.0501   1.0515   1.1241   1.1346   1.1816   1.1829   1.2025
  1.2307   1.2493   1.2765   1.2791   1.2814   1.2883   1.3330   1.3831
  1.3950   1.3980   1.4025   1.4327   1.4602   1.4646   1.4781   1.4844
  1.5033   1.5633   1.5975   1.6009   1.6130   1.6466   1.6479   1.6904
  1.7242   2.3988   2.4918   2.5019   2.5124   2.5575   2.5789   2.6223
  2.6514   2.7128   2.8201   2.8421   2.8586   2.9162   2.9225   2.9381
  2.9441   2.9482   3.0075   3.0093   3.0120   3.0239   3.0240   3.1078
  3.1218   3.1373   3.1721   3.1917   3.1920   3.2014   3.2692   3.2886
  3.2889   3.3166   3.3410   3.3611   3.3766   3.3793   3.3838   3.4400
  3.4648   3.4928   3.5158   3.5333   3.5635   3.5764   3.5859   3.6064
  3.6278   3.6765   3.6932   3.7191   3.7677   3.7821   3.8752   3.8969
  3.9037   3.9481   3.9568   3.9629   3.9824   4.0162   4.0552   4.0728
  4.0753   4.0916   4.1085   4.1215   4.1319   4.1410   4.1548   4.1857
  4.2010   4.2152   4.2436   4.3596   4.4027   4.4086   4.4148   4.4264
  4.4557   4.5864   4.5944   4.5976   4.6891   4.8286   4.8459   4.9183
  4.9220   4.9541   4.9543   4.9769   4.9998   5.0242   5.0555   5.1242
  5.1345   5.2559   5.2604   5.2665   5.2864   5.3304   5.3662   5.4046
  5.4249   5.4313   5.4435   5.4843   5.5798   5.6070   5.6388   5.7324
  5.9536   6.3440   6.3560   6.3691   6.3954   6.4626  25.1855  25.4450
 25.4511
 --------------------------------------------------------------
 
 -----------------------------------------------------------------
                    Cartesian Multipole Moments
 -----------------------------------------------------------------
    Charge (ESU x 10^10)
                -0.0000
    Dipole Moment (Debye)
         X      -0.0000      Y       0.0000      Z      -0.1424
       Tot       0.1424
    Quadrupole Moments (Debye-Ang)
        XX     -22.6518     XY      -0.0000     YY     -21.1784
        XZ      -0.0000     YZ      -0.0000     ZZ     -21.9493
    Octopole Moments (Debye-Ang^2)
       XXX      -0.0000    XXY       0.0000    XYY      -0.0000
       YYY      -0.0000    XXZ      -2.8389    XYZ       0.0000
       YYZ       0.4284    XZZ      -0.0000    YZZ      -0.0000
       ZZZ      -1.4015
    Hexadecapole Moments (Debye-Ang^3)
      XXXX    -204.4584   XXXY      -0.0000   XXYY     -42.1128
      XYYY       0.0000   YYYY     -44.1998   XXXZ      -0.0000
      XXYZ      -0.0000   XYYZ      -0.0000   YYYZ      -0.0000
      XXZZ     -45.4375   XYZZ       0.0000   YYZZ     -17.2029
      XZZZ      -0.0000   YZZZ      -0.0000   ZZZZ     -72.7900
 -----------------------------------------------------------------
Archival summary:
1\1\cn0913\SP\ProcedureUnspecified\BasisUnspecified\38\r0852400\SunApr1206:39:572020SunApr1206:39:572020\0\\#,ProcedureUnspecified,BasisUnspecified,\\0,1\C\H,1,1.09326\H,1,1.09326,2,105.998\C,1,1.53872,2,109.563,3,118.135,0\H,4,1.08912,1,107.845,2,-57.9461,0\H,4,1.09052,1,107.204,2,62.1711,0\H,4,1.09052,1,107.204,2,-178.063,0\C,1,1.53872,2,109.563,3,-118.135,0\H,8,1.08912,1,107.845,2,57.9461,0\H,8,1.09052,1,107.204,2,-62.1711,0\H,8,1.09052,1,107.204,2,178.063,0\\\@

 Total job time:  34.71s(wall), 96.64s(cpu) 
 Sun Apr 12 06:39:57 2020

        *************************************************************
        *                                                           *
        *  Thank you very much for using Q-Chem.  Have a nice day.  *
        *                                                           *
        *************************************************************


