                  Welcome to Q-Chem
     A Quantum Leap Into The Future Of Chemistry


 Q-Chem 5.2 (devel), Q-Chem, Inc., Pleasanton, CA (2019)

 Yihan Shao,  Zhengting Gan,  E. Epifanovsky,  A. T. B. Gilbert,  M. Wormit,  
 J. Kussmann,  A. W. Lange,  A. Behn,  Jia Deng,  Xintian Feng,  D. Ghosh,  
 M. Goldey,  P. R. Horn,  L. D. Jacobson,  I. Kaliman,  T. Kus,  A. Landau,  
 Jie Liu,  E. I. Proynov,  R. M. Richard,  R. P. Steele,  E. J. Sundstrom,  
 H. L. Woodcock III,  P. M. Zimmerman,  D. Zuev,  B. Alam,  B. Albrecht,  
 E. Alguire,  S. A. Baeppler,  D. Barton,  Z. Benda,  Y. A. Bernard,  
 E. J. Berquist,  K. B. Bravaya,  H. Burton,  K. Carter-Fenk,  D. Casanova,  
 Chun-Min Chang,  Yunqing Chen,  A. Chien,  K. D. Closser,  M. P. Coons,  
 S. Coriani,  S. Dasgupta,  A. L. Dempwolff,  M. Diedenhofen,  Hainam Do,  
 R. G. Edgar,  Po-Tung Fang,  S. Faraji,  S. Fatehi,  Qingguo Feng,  
 J. Fosso-Tande,  J. Gayvert,  Qinghui Ge,  A. Ghysels,  G. Gidofalvi,  
 J. Gomes,  J. Gonthier,  A. Gunina,  D. Hait,  M. W. D. Hanson-Heine,  
 P. H. P. Harbach,  A. W. Hauser,  M. F. Herbst,  J. E. Herr,  
 E. G. Hohenstein,  Z. C. Holden,  Kerwin Hui,  B. C. Huynh,  T.-C. Jagau,  
 Hyunjun Ji,  B. Kaduk,  K. Khistyaev,  Jaehoon Kim,  P. Klunzinger,  K. Koh,  
 D. Kosenkov,  L. Koulias,  T. Kowalczyk,  C. M. Krauter,  A. Kunitsa,  
 Ka Un Lao,  A. Laurent,  K. V. Lawler,  Joonho Lee,  D. Lefrancois,  
 S. Lehtola,  D. S. Levine,  Yi-Pei Li,  You-Sheng Lin,  Fenglai Liu,  
 Kuan-Yu Liu,  E. Livshits,  M. Loipersberger,  A. Luenser,  P. Manohar,  
 E. Mansoor,  S. F. Manzer,  Shan-Ping Mao,  Yuezhi Mao,  N. Mardirossian,  
 A. V. Marenich,  T. Markovich,  L. A. Martinez-Martinez,  S. A. Maurer,  
 N. J. Mayhall,  S. C. McKenzie,  J.-M. Mewes,  P. Morgante,  A. F. Morrison,  
 J. W. Mullinax,  K. Nanda,  T. S. Nguyen-Beck,  R. Olivares-Amaya,  
 J. A. Parkhill,  S. K. Paul,  Zheng Pei,  T. M. Perrine,  F. Plasser,  
 P. Pokhilko,  S. Prager,  A. Prociuk,  E. Ramos,  B. Rana,  D. R. Rehn,  
 F. Rob,  M. Scheurer,  M. Schneider,  N. Sergueev,  S. M. Sharada,  
 S. Sharma,  D. W. Small,  T. Stauch,  C. J. Stein,  T. Stein,  Yu-Chuan Su,  
 S. P. Veccham,  A. J. W. Thom,  A. Tkatchenko,  T. Tsuchimochi,  
 N. M. Tubman,  L. Vogt,  M. L. Vidal,  O. Vydrov,  M. A. Watson,  J. Wenzel,  
 M. de Wergifosse,  T. A. Wesolowski,  A. White,  J. Witte,  A. Yamada,  
 Jun Yang,  K. Yao,  S. Yeganeh,  S. R. Yost,  Zhi-Qiang You,  A. Zech,  
 Igor Ying Zhang,  Xing Zhang,  Yan Zhao,  Ying Zhu,  B. R. Brooks,  
 G. K. L. Chan,  C. J. Cramer,  M. S. Gordon,  W. J. Hehre,  A. Klamt,  
 M. W. Schmidt,  C. D. Sherrill,  D. G. Truhlar,  A. Aspuru-Guzik,  R. Baer,  
 A. T. Bell,  N. A. Besley,  Jeng-Da Chai,  A. E. DePrince, III,  
 R. A. DiStasio Jr.,  A. Dreuw,  B. D. Dunietz,  T. R. Furlani,  
 Chao-Ping Hsu,  Yousung Jung,  Jing Kong,  D. S. Lambrecht,  WanZhen Liang,  
 C. Ochsenfeld,  V. A. Rassolov,  L. V. Slipchenko,  J. E. Subotnik,  
 T. Van Voorhis,  J. M. Herbert,  A. I. Krylov,  P. M. W. Gill,  M. Head-Gordon

 Contributors to earlier versions of Q-Chem not listed above: 
 R. D. Adamson,  B. Austin,  J. Baker,  G. J. O. Beran,  K. Brandhorst,  
 S. T. Brown,  E. F. C. Byrd,  A. K. Chakraborty,  C.-L. Cheng,  
 Siu Hung Chien,  D. M. Chipman,  D. L. Crittenden,  H. Dachsel,  
 R. J. Doerksen,  A. D. Dutoi,  L. Fusti-Molnar,  W. A. Goddard III,  
 A. Golubeva-Zadorozhnaya,  S. R. Gwaltney,  G. Hawkins,  A. Heyden,  
 S. Hirata,  G. Kedziora,  F. J. Keil,  C. Kelley,  Jihan Kim,  R. A. King,  
 R. Z. Khaliullin,  P. P. Korambath,  W. Kurlancheek,  A. M. Lee,  M. S. Lee,  
 S. V. Levchenko,  Ching Yeh Lin,  D. Liotard,  R. C. Lochan,  I. Lotan,  
 P. E. Maslen,  N. Nair,  D. P. O'Neill,  D. Neuhauser,  E. Neuscamman,  
 C. M. Oana,  R. Olson,  B. Peters,  R. Peverati,  P. A. Pieniazek,  
 Y. M. Rhee,  J. Ritchie,  M. A. Rohrdanz,  E. Rosta,  N. J. Russ,  
 H. F. Schaefer III,  N. E. Schultz,  N. Shenvi,  A. C. Simmonett,  A. Sodt,  
 D. Stuck,  K. S. Thanthiriwatte,  V. Vanovschi,  Tao Wang,  A. Warshel,  
 C. F. Williams,  Q. Wu,  X. Xu,  W. Zhang

 Please cite Q-Chem as follows:
 Y. Shao et al., Mol. Phys. 113, 184-215 (2015)
 DOI: 10.1080/00268976.2014.952696

 Q-Chem 5.2.2 for Intel X86 EM64T Linux

 Parts of Q-Chem use Armadillo 9.800.1 (Horizon Scraper).
 http://arma.sourceforge.net/

 Q-Chem begins on Sun Apr 12 05:01:36 2020  

Host: cn0913
0

     Scratch files written to /tmp/ypli/6721341.srvc1/qchem219298//
Warning:  Did not find "$end" marker in "$molecule" section

Checking the input file for inconsistencies... 	...done.

--------------------------------------------------------------
User input:
--------------------------------------------------------------
$rem
   JOBTYPE  sp
   EXCHANGE   omegaB97X-D
   BASIS   6-311+G(2df,2pd)
   max_scf_cycles   250
   geom_opt_max_cycles   1500
   basis2 6-31G*
   scf_algorithm rca_diis
   SYM_IGNORE  TRUE
   print_input   true
   geom_opt_dmax   80
   pop_mulliken false
   XC_GRID 000075000302
$end

$molecule
0 1
C       1.2437554859     -0.2425996262     0.2640057961
C       0.0000005103     0.0000055609     -0.5827149531
H       1.8257234137     -1.0663027681     -0.1504926742
H       0.9859564325     -0.5067580709     1.2931503126
H       1.8877600775     0.6368962991     0.2935030106
C       -1.2437553256     0.2425957029     0.2640089595
H       -0.1219592116     -0.8654946857     -1.2382997189
H       0.1219605237     0.8655178214     -1.2382842230
H       -0.9859581472     0.5067770514     1.2931476834
H       -1.8877394639     -0.6369147455     0.2935206962
H       -1.8257443558     1.0662781268     -0.1504998704
--------------------------------------------------------------
 ----------------------------------------------------------------
             Standard Nuclear Orientation (Angstroms)
    I     Atom           X                Y                Z
 ----------------------------------------------------------------
    1      C       1.2437554859    -0.2425996262     0.2640057961
    2      C       0.0000005103     0.0000055609    -0.5827149531
    3      H       1.8257234137    -1.0663027681    -0.1504926742
    4      H       0.9859564325    -0.5067580709     1.2931503126
    5      H       1.8877600775     0.6368962991     0.2935030106
    6      C      -1.2437553256     0.2425957029     0.2640089595
    7      H      -0.1219592116    -0.8654946857    -1.2382997189
    8      H       0.1219605237     0.8655178214    -1.2382842230
    9      H      -0.9859581472     0.5067770514     1.2931476834
   10      H      -1.8877394639    -0.6369147455     0.2935206962
   11      H      -1.8257443558     1.0662781268    -0.1504998704
 ----------------------------------------------------------------
 Nuclear Repulsion Energy =          82.75576168 hartrees
 There are       13 alpha and       13 beta electrons
 Requested basis set is 6-311+G(2df,2pd)
 There are 72 shells and 214 basis functions

 Total QAlloc Memory Limit   2000 MB
 Mega-Array Size       188 MB
 MEM_STATIC part       192 MB

                       Distance Matrix (Angstroms)
             C (  1)   C (  2)   H (  3)   H (  4)   H (  5)   C (  6)
   C (  2)  1.524047
   H (  3)  1.090405  2.158030
   H (  4)  1.093334  2.178942  1.761364
   H (  5)  1.090470  2.176471  1.761212  1.766491
   C (  6)  2.534388  1.524047  3.362548  2.567543  3.156380
   H (  7)  2.123699  1.092592  2.239892  2.786469  2.939825  2.177894
   H (  8)  2.177894  1.092592  2.796074  3.006292  2.348763  2.123699
   H (  9)  2.567552  2.178943  3.530472  2.217138  3.045403  1.093333
   H ( 10)  3.156361  2.176469  3.764482  3.045378  3.984594  1.090470
   H ( 11)  3.362559  2.158030  4.228607  3.530472  3.764522  1.090404
             H (  7)   H (  8)   H (  9)   H ( 10)
   H (  8)  1.748114
   H (  9)  3.006302  2.786454
   H ( 10)  2.348766  2.939834  1.766492
   H ( 11)  2.796058  2.239896  1.761363  1.761211
 
 A cutoff of  1.0D-09 yielded   2531 shell pairs
 There are     22505 function pairs (     27681 Cartesian)
 Smallest overlap matrix eigenvalue = 8.11E-05

 Scale SEOQF with 1.000000e-01/1.000000e-01/1.000000e-01

 Standard Electronic Orientation quadrupole field applied
 Nucleus-field energy     =     0.0000000006 hartrees
 Requested basis set is 6-31G(d)
 There are 28 shells and 58 basis functions
 A cutoff of  1.0D-09 yielded    402 shell pairs
 There are      1773 function pairs (      1968 Cartesian)
 Smallest overlap matrix eigenvalue = 6.29E-03
 Guess from superposition of atomic densities
 Warning:  Energy on first SCF cycle will be non-variational
 SAD guess density has 26.000000 electrons
 Long-range K will be added via erf
 Coulomb attenuation parameter = 0.2 bohr**(-1)
 A restricted hybrid HF-DFT SCF calculation will be
 performed using Relaxed Constraint Minimization + Pulay DIIS
 Exchange:     0.2220 Hartree-Fock + 1.0000 wB97X-D + LR-HF
 Correlation:  1.0000 wB97X-D
 Using Euler-Maclaurin-Lebedev (75,302) quadrature formula
 Dispersion:   Grimme D
 SCF converges when DIIS error is below 1.0E-04
 using 3 threads for integral computing
 -------------------------------------------------------
 OpenMP Integral computing Module                
 Release: version 1.0, May 2013, Q-Chem Inc. Pittsburgh 
 -------------------------------------------------------
 using 3 threads for integral computing
 -------------------------------------------------------
 OpenMP Integral computing Module                
 Release: version 1.0, May 2013, Q-Chem Inc. Pittsburgh 
 -------------------------------------------------------
 ---------------------------------------
  Cycle       Energy         DIIS Error
 ---------------------------------------
    1    -119.6271197226      1.00E-01
    2    -119.0563539220      9.08E-03
    3    -119.0776866804      2.44E-03
    4    -119.0918158012      1.68E-03
    5    -119.0925060573      2.62E-04 Done RCA. Switching to DIIS
    6    -119.0930139978      1.95E-04
    7    -119.0930304330      4.31E-06 Convergence criterion met
 ---------------------------------------
 SCF time:  CPU 23.28 s  wall 7.90 s
 SCF   energy in the small basis set = -119.09303043
 Total energy in the small basis set = -119.09303043
 ----------------------------------------------------
  Cycle       Energy    
 ----------------------------------------------------
    1     -16.5459635233     -1.65E+01
 Long-range K will be added via erf
 Coulomb attenuation parameter = 0.2 bohr**(-1)
 A restricted hybrid HF-DFT SCF calculation will be
 performed using Relaxed Constraint Minimization + Pulay DIIS
 Exchange:     0.2220 Hartree-Fock + 1.0000 wB97X-D + LR-HF
 Correlation:  1.0000 wB97X-D
 Using Euler-Maclaurin-Lebedev (75,302) quadrature formula
 Dispersion:   Grimme D
 SCF converges when DIIS error is below 1.0E-05
 Basis2 calculation detected. Using small basis as guess for larger.
 SCFMinFind is unable to tell whether the solution found is close.
 Resetting ReadMinima to 0 and attempting to follow guess.
 SCFMinFind following SCF Guess.
 using 3 threads for integral computing
 -------------------------------------------------------
 OpenMP Integral computing Module                
 Release: version 1.0, May 2013, Q-Chem Inc. Pittsburgh 
 -------------------------------------------------------
 using 3 threads for integral computing
 -------------------------------------------------------
 OpenMP Integral computing Module                
 Release: version 1.0, May 2013, Q-Chem Inc. Pittsburgh 
 -------------------------------------------------------
 ---------------------------------------
  Cycle       Energy         DIIS Error
 ---------------------------------------
    1    -119.1124910869      4.21E-03
    2    -119.1344878122      6.02E-04 Done RCA. Switching to DIIS
    3    -119.1353208509      4.25E-04
    4    -119.1363121616      4.53E-05
    5    -119.1363269260      1.01E-05
    6    -119.1363276212      3.92E-06 Convergence criterion met
 ---------------------------------------
 SCF time:  CPU 69.78 s  wall 23.49 s
 SCF   energy in the final basis set = -119.13632762
 Total energy in the final basis set = -119.13632762
 
 --------------------------------------------------------------
 
                    Orbital Energies (a.u.)
 --------------------------------------------------------------
 
 Alpha MOs
 -- Occupied --
-10.2718 -10.2635 -10.2635  -0.8809  -0.7766  -0.6774  -0.5446  -0.5260
 -0.4781  -0.4702  -0.4213  -0.4121  -0.3990
 -- Virtual --
  0.0714   0.0877   0.0914   0.1030   0.1218   0.1311   0.1314   0.1333
  0.1454   0.1637   0.1752   0.1897   0.2034   0.2455   0.2605   0.2622
  0.2932   0.3129   0.3225   0.3252   0.3315   0.3558   0.4601   0.4832
  0.4899   0.4926   0.5165   0.5215   0.5248   0.5376   0.5602   0.5792
  0.6184   0.6216   0.6318   0.6375   0.6457   0.6532   0.6943   0.7113
  0.7331   0.7553   0.8216   0.8931   0.9052   0.9443   0.9581   0.9984
  1.0101   1.0345   1.0698   1.0752   1.1219   1.1748   1.2080   1.2088
  1.2355   1.2523   1.2638   1.2857   1.2927   1.3140   1.3398   1.3609
  1.3702   1.3724   1.3932   1.4465   1.4511   1.4623   1.4814   1.5146
  1.5438   1.5491   1.5674   1.5891   1.6308   1.6444   1.6654   1.6818
  1.6897   2.2745   2.3412   2.4199   2.5277   2.5652   2.5774   2.6667
  2.6950   2.7064   2.7899   2.8074   2.8387   2.8557   2.9311   2.9333
  2.9707   2.9785   3.0061   3.0183   3.0539   3.0829   3.1138   3.1376
  3.1409   3.1490   3.1671   3.1681   3.1938   3.2555   3.2560   3.2884
  3.2980   3.2985   3.3469   3.3502   3.3694   3.3884   3.3894   3.4101
  3.4641   3.4968   3.5231   3.5291   3.5721   3.5946   3.6173   3.6331
  3.6409   3.6859   3.6933   3.6988   3.7497   3.7587   3.7948   3.8443
  3.8520   3.9104   3.9135   3.9546   3.9660   4.0090   4.0136   4.0587
  4.0799   4.1360   4.1446   4.1478   4.1491   4.1874   4.2172   4.2425
  4.2460   4.2641   4.2963   4.3216   4.3523   4.4041   4.4313   4.4497
  4.4499   4.4941   4.6091   4.6197   4.6588   4.7861   4.8306   4.8830
  4.9263   4.9282   4.9896   4.9921   5.0226   5.0558   5.0870   5.1559
  5.1586   5.1592   5.2337   5.2503   5.2579   5.2911   5.3046   5.3736
  5.3806   5.3849   5.4320   5.4474   5.5173   5.5779   5.6097   5.7332
  5.9844   6.3281   6.3671   6.4071   6.4235   6.5121  25.0772  25.4047
 25.4673
 --------------------------------------------------------------
 
 -----------------------------------------------------------------
                    Cartesian Multipole Moments
 -----------------------------------------------------------------
    Charge (ESU x 10^10)
                 0.0000
    Dipole Moment (Debye)
         X      -0.0000      Y       0.0000      Z      -0.0918
       Tot       0.0918
    Quadrupole Moments (Debye-Ang)
        XX     -22.3983     XY       0.1480     YY     -21.2391
        XZ       0.0000     YZ       0.0000     ZZ     -21.8003
    Octopole Moments (Debye-Ang^2)
       XXX      -0.0000    XXY       0.0000    XYY      -0.0000
       YYY      -0.0000    XXZ      -1.0226    XYZ       0.4719
       YYZ      -1.2781    XZZ      -0.0000    YZZ       0.0000
       ZZZ       0.5406
    Hexadecapole Moments (Debye-Ang^3)
      XXXX    -201.2355   XXXY      16.5015   XXYY     -38.5020
      XYYY      14.9725   YYYY     -50.0346   XXXZ       0.0001
      XXYZ      -0.0000   XYYZ       0.0000   YYYZ       0.0001
      XXZZ     -46.3223   XYZZ       4.6079   YYZZ     -19.4562
      XZZZ       0.0001   YZZZ       0.0002   ZZZZ     -69.7607
 -----------------------------------------------------------------
Archival summary:
1\1\cn0913\SP\ProcedureUnspecified\BasisUnspecified\38\r0852400\SunApr1205:02:102020SunApr1205:02:102020\0\\#,ProcedureUnspecified,BasisUnspecified,\\0,1\C\H,1,1.09259\H,1,1.09259,2,106.257\C,1,1.52405,2,107.359,3,-119.549,0\H,4,1.0904,1,110.158,2,13.9043,0\H,4,1.09047,1,111.629,2,133.53,0\H,4,1.09333,1,111.653,2,-105.495,0\C,1,1.52405,2,111.614,3,116.733,0\H,8,1.0904,1,110.158,2,-102.156,0\H,8,1.09047,1,111.629,2,17.4694,0\H,8,1.09333,1,111.653,2,138.445,0\\\@

 Total job time:  34.61s(wall), 97.08s(cpu) 
 Sun Apr 12 05:02:10 2020

        *************************************************************
        *                                                           *
        *  Thank you very much for using Q-Chem.  Have a nice day.  *
        *                                                           *
        *************************************************************


