                  Welcome to Q-Chem
     A Quantum Leap Into The Future Of Chemistry


 Q-Chem 5.2 (devel), Q-Chem, Inc., Pleasanton, CA (2019)

 Yihan Shao,  Zhengting Gan,  E. Epifanovsky,  A. T. B. Gilbert,  M. Wormit,  
 J. Kussmann,  A. W. Lange,  A. Behn,  Jia Deng,  Xintian Feng,  D. Ghosh,  
 M. Goldey,  P. R. Horn,  L. D. Jacobson,  I. Kaliman,  T. Kus,  A. Landau,  
 Jie Liu,  E. I. Proynov,  R. M. Richard,  R. P. Steele,  E. J. Sundstrom,  
 H. L. Woodcock III,  P. M. Zimmerman,  D. Zuev,  B. Alam,  B. Albrecht,  
 E. Alguire,  S. A. Baeppler,  D. Barton,  Z. Benda,  Y. A. Bernard,  
 E. J. Berquist,  K. B. Bravaya,  H. Burton,  K. Carter-Fenk,  D. Casanova,  
 Chun-Min Chang,  Yunqing Chen,  A. Chien,  K. D. Closser,  M. P. Coons,  
 S. Coriani,  S. Dasgupta,  A. L. Dempwolff,  M. Diedenhofen,  Hainam Do,  
 R. G. Edgar,  Po-Tung Fang,  S. Faraji,  S. Fatehi,  Qingguo Feng,  
 J. Fosso-Tande,  J. Gayvert,  Qinghui Ge,  A. Ghysels,  G. Gidofalvi,  
 J. Gomes,  J. Gonthier,  A. Gunina,  D. Hait,  M. W. D. Hanson-Heine,  
 P. H. P. Harbach,  A. W. Hauser,  M. F. Herbst,  J. E. Herr,  
 E. G. Hohenstein,  Z. C. Holden,  Kerwin Hui,  B. C. Huynh,  T.-C. Jagau,  
 Hyunjun Ji,  B. Kaduk,  K. Khistyaev,  Jaehoon Kim,  P. Klunzinger,  K. Koh,  
 D. Kosenkov,  L. Koulias,  T. Kowalczyk,  C. M. Krauter,  A. Kunitsa,  
 Ka Un Lao,  A. Laurent,  K. V. Lawler,  Joonho Lee,  D. Lefrancois,  
 S. Lehtola,  D. S. Levine,  Yi-Pei Li,  You-Sheng Lin,  Fenglai Liu,  
 Kuan-Yu Liu,  E. Livshits,  M. Loipersberger,  A. Luenser,  P. Manohar,  
 E. Mansoor,  S. F. Manzer,  Shan-Ping Mao,  Yuezhi Mao,  N. Mardirossian,  
 A. V. Marenich,  T. Markovich,  L. A. Martinez-Martinez,  S. A. Maurer,  
 N. J. Mayhall,  S. C. McKenzie,  J.-M. Mewes,  P. Morgante,  A. F. Morrison,  
 J. W. Mullinax,  K. Nanda,  T. S. Nguyen-Beck,  R. Olivares-Amaya,  
 J. A. Parkhill,  S. K. Paul,  Zheng Pei,  T. M. Perrine,  F. Plasser,  
 P. Pokhilko,  S. Prager,  A. Prociuk,  E. Ramos,  B. Rana,  D. R. Rehn,  
 F. Rob,  M. Scheurer,  M. Schneider,  N. Sergueev,  S. M. Sharada,  
 S. Sharma,  D. W. Small,  T. Stauch,  C. J. Stein,  T. Stein,  Yu-Chuan Su,  
 S. P. Veccham,  A. J. W. Thom,  A. Tkatchenko,  T. Tsuchimochi,  
 N. M. Tubman,  L. Vogt,  M. L. Vidal,  O. Vydrov,  M. A. Watson,  J. Wenzel,  
 M. de Wergifosse,  T. A. Wesolowski,  A. White,  J. Witte,  A. Yamada,  
 Jun Yang,  K. Yao,  S. Yeganeh,  S. R. Yost,  Zhi-Qiang You,  A. Zech,  
 Igor Ying Zhang,  Xing Zhang,  Yan Zhao,  Ying Zhu,  B. R. Brooks,  
 G. K. L. Chan,  C. J. Cramer,  M. S. Gordon,  W. J. Hehre,  A. Klamt,  
 M. W. Schmidt,  C. D. Sherrill,  D. G. Truhlar,  A. Aspuru-Guzik,  R. Baer,  
 A. T. Bell,  N. A. Besley,  Jeng-Da Chai,  A. E. DePrince, III,  
 R. A. DiStasio Jr.,  A. Dreuw,  B. D. Dunietz,  T. R. Furlani,  
 Chao-Ping Hsu,  Yousung Jung,  Jing Kong,  D. S. Lambrecht,  WanZhen Liang,  
 C. Ochsenfeld,  V. A. Rassolov,  L. V. Slipchenko,  J. E. Subotnik,  
 T. Van Voorhis,  J. M. Herbert,  A. I. Krylov,  P. M. W. Gill,  M. Head-Gordon

 Contributors to earlier versions of Q-Chem not listed above: 
 R. D. Adamson,  B. Austin,  J. Baker,  G. J. O. Beran,  K. Brandhorst,  
 S. T. Brown,  E. F. C. Byrd,  A. K. Chakraborty,  C.-L. Cheng,  
 Siu Hung Chien,  D. M. Chipman,  D. L. Crittenden,  H. Dachsel,  
 R. J. Doerksen,  A. D. Dutoi,  L. Fusti-Molnar,  W. A. Goddard III,  
 A. Golubeva-Zadorozhnaya,  S. R. Gwaltney,  G. Hawkins,  A. Heyden,  
 S. Hirata,  G. Kedziora,  F. J. Keil,  C. Kelley,  Jihan Kim,  R. A. King,  
 R. Z. Khaliullin,  P. P. Korambath,  W. Kurlancheek,  A. M. Lee,  M. S. Lee,  
 S. V. Levchenko,  Ching Yeh Lin,  D. Liotard,  R. C. Lochan,  I. Lotan,  
 P. E. Maslen,  N. Nair,  D. P. O'Neill,  D. Neuhauser,  E. Neuscamman,  
 C. M. Oana,  R. Olson,  B. Peters,  R. Peverati,  P. A. Pieniazek,  
 Y. M. Rhee,  J. Ritchie,  M. A. Rohrdanz,  E. Rosta,  N. J. Russ,  
 H. F. Schaefer III,  N. E. Schultz,  N. Shenvi,  A. C. Simmonett,  A. Sodt,  
 D. Stuck,  K. S. Thanthiriwatte,  V. Vanovschi,  Tao Wang,  A. Warshel,  
 C. F. Williams,  Q. Wu,  X. Xu,  W. Zhang

 Please cite Q-Chem as follows:
 Y. Shao et al., Mol. Phys. 113, 184-215 (2015)
 DOI: 10.1080/00268976.2014.952696

 Q-Chem 5.2.2 for Intel X86 EM64T Linux

 Parts of Q-Chem use Armadillo 9.800.1 (Horizon Scraper).
 http://arma.sourceforge.net/

 Q-Chem begins on Sun Apr 12 06:03:28 2020  

Host: cn0913
0

     Scratch files written to /tmp/ypli/6721341.srvc1/qchem230673//
Warning:  Did not find "$end" marker in "$molecule" section

Checking the input file for inconsistencies... 	...done.

--------------------------------------------------------------
User input:
--------------------------------------------------------------
$rem
   JOBTYPE  sp
   EXCHANGE   omegaB97X-D
   BASIS   6-311+G(2df,2pd)
   max_scf_cycles   250
   geom_opt_max_cycles   1500
   basis2 6-31G*
   scf_algorithm rca_diis
   SYM_IGNORE  TRUE
   print_input   true
   geom_opt_dmax   80
   pop_mulliken false
   XC_GRID 000075000302
$end

$molecule
0 1
C       1.2338280332     -0.0000000171     0.2314002109
C       0.0539699023     0.0000000055     -0.5862875130
H       1.2727975986     -0.8847635567     0.8680979442
H       1.2727976144     0.8847635188     0.8680979479
H       2.1205770649     -0.0000000127     -0.4032584454
C       -1.3023251083     0.0000000535     0.2860117049
H       0.1189309545     -0.8729288165     -1.2401460953
H       0.1189308171     0.8729288272     -1.2401461214
H       -1.3398918158     -0.8764222749     0.9380214539
H       -2.2097233017     0.0000005953     -0.3187675828
H       -1.3398918197     0.8764223436     0.9380215150
--------------------------------------------------------------
 ----------------------------------------------------------------
             Standard Nuclear Orientation (Angstroms)
    I     Atom           X                Y                Z
 ----------------------------------------------------------------
    1      C       1.2338280332    -0.0000000171     0.2314002109
    2      C       0.0539699023     0.0000000055    -0.5862875130
    3      H       1.2727975986    -0.8847635567     0.8680979442
    4      H       1.2727976144     0.8847635188     0.8680979479
    5      H       2.1205770649    -0.0000000127    -0.4032584454
    6      C      -1.3023251083     0.0000000535     0.2860117049
    7      H       0.1189309545    -0.8729288165    -1.2401460953
    8      H       0.1189308171     0.8729288272    -1.2401461214
    9      H      -1.3398918158    -0.8764222749     0.9380214539
   10      H      -2.2097233017     0.0000005953    -0.3187675828
   11      H      -1.3398918197     0.8764223436     0.9380215150
 ----------------------------------------------------------------
 Nuclear Repulsion Energy =          82.83400986 hartrees
 There are       13 alpha and       13 beta electrons
 Requested basis set is 6-311+G(2df,2pd)
 There are 72 shells and 214 basis functions

 Total QAlloc Memory Limit   2000 MB
 Mega-Array Size       188 MB
 MEM_STATIC part       192 MB

                       Distance Matrix (Angstroms)
             C (  1)   C (  2)   H (  3)   H (  4)   H (  5)   C (  6)
   C (  2)  1.435506
   H (  3)  1.090738  2.093701
   H (  4)  1.090738  2.093701  1.769527
   H (  5)  1.090466  2.074696  1.765753  1.765753
   C (  6)  2.536741  1.612589  2.784401  2.784401  3.491612
   H (  7)  2.042168  1.092591  2.403381  2.977513  2.338583  2.260781
   H (  8)  2.042168  1.092591  2.977513  2.403381  2.338584  2.260781
   H (  9)  2.809175  2.243766  2.613638  3.151636  3.813396  1.092998
   H ( 10)  3.487224  2.279446  3.784100  3.784099  4.331125  1.090472
   H ( 11)  2.809175  2.243766  3.151636  2.613638  3.813397  1.092998
             H (  7)   H (  8)   H (  9)   H ( 10)
   H (  8)  1.745858
   H (  9)  2.621563  3.151636
   H ( 10)  2.652089  2.652088  1.761886
   H ( 11)  3.151636  2.621563  1.752845  1.761886
 
 A cutoff of  1.0D-09 yielded   2534 shell pairs
 There are     22588 function pairs (     27769 Cartesian)
 Smallest overlap matrix eigenvalue = 7.94E-05

 Scale SEOQF with 1.000000e-01/1.000000e-01/1.000000e-01

 Standard Electronic Orientation quadrupole field applied
 Nucleus-field energy     =     0.0000000006 hartrees
 Requested basis set is 6-31G(d)
 There are 28 shells and 58 basis functions
 A cutoff of  1.0D-09 yielded    402 shell pairs
 There are      1773 function pairs (      1968 Cartesian)
 Smallest overlap matrix eigenvalue = 6.22E-03
 Guess from superposition of atomic densities
 Warning:  Energy on first SCF cycle will be non-variational
 SAD guess density has 26.000000 electrons
 Long-range K will be added via erf
 Coulomb attenuation parameter = 0.2 bohr**(-1)
 A restricted hybrid HF-DFT SCF calculation will be
 performed using Relaxed Constraint Minimization + Pulay DIIS
 Exchange:     0.2220 Hartree-Fock + 1.0000 wB97X-D + LR-HF
 Correlation:  1.0000 wB97X-D
 Using Euler-Maclaurin-Lebedev (75,302) quadrature formula
 Dispersion:   Grimme D
 SCF converges when DIIS error is below 1.0E-04
 using 3 threads for integral computing
 -------------------------------------------------------
 OpenMP Integral computing Module                
 Release: version 1.0, May 2013, Q-Chem Inc. Pittsburgh 
 -------------------------------------------------------
 using 3 threads for integral computing
 -------------------------------------------------------
 OpenMP Integral computing Module                
 Release: version 1.0, May 2013, Q-Chem Inc. Pittsburgh 
 -------------------------------------------------------
 ---------------------------------------
  Cycle       Energy         DIIS Error
 ---------------------------------------
    1    -119.6411362424      1.02E-01
    2    -119.0554008018      9.17E-03
    3    -119.0771117907      2.46E-03
    4    -119.0915787429      1.68E-03
    5    -119.0922704728      2.62E-04 Done RCA. Switching to DIIS
    6    -119.0927828341      1.95E-04
    7    -119.0927992962      4.85E-06 Convergence criterion met
 ---------------------------------------
 SCF time:  CPU 23.19 s  wall 7.89 s
 SCF   energy in the small basis set = -119.09279930
 Total energy in the small basis set = -119.09279930
 ----------------------------------------------------
  Cycle       Energy    
 ----------------------------------------------------
    1     -16.5455698978     -1.65E+01
 Long-range K will be added via erf
 Coulomb attenuation parameter = 0.2 bohr**(-1)
 A restricted hybrid HF-DFT SCF calculation will be
 performed using Relaxed Constraint Minimization + Pulay DIIS
 Exchange:     0.2220 Hartree-Fock + 1.0000 wB97X-D + LR-HF
 Correlation:  1.0000 wB97X-D
 Using Euler-Maclaurin-Lebedev (75,302) quadrature formula
 Dispersion:   Grimme D
 SCF converges when DIIS error is below 1.0E-05
 Basis2 calculation detected. Using small basis as guess for larger.
 SCFMinFind is unable to tell whether the solution found is close.
 Resetting ReadMinima to 0 and attempting to follow guess.
 SCFMinFind following SCF Guess.
 using 3 threads for integral computing
 -------------------------------------------------------
 OpenMP Integral computing Module                
 Release: version 1.0, May 2013, Q-Chem Inc. Pittsburgh 
 -------------------------------------------------------
 using 3 threads for integral computing
 -------------------------------------------------------
 OpenMP Integral computing Module                
 Release: version 1.0, May 2013, Q-Chem Inc. Pittsburgh 
 -------------------------------------------------------
 ---------------------------------------
  Cycle       Energy         DIIS Error
 ---------------------------------------
    1    -119.1122803260      4.21E-03
    2    -119.1343445153      5.97E-04 Done RCA. Switching to DIIS
    3    -119.1351723585      4.20E-04
    4    -119.1361345347      4.59E-05
    5    -119.1361493473      1.10E-05
    6    -119.1361501213      4.28E-06 Convergence criterion met
 ---------------------------------------
 SCF time:  CPU 69.91 s  wall 23.55 s
 SCF   energy in the final basis set = -119.13615012
 Total energy in the final basis set = -119.13615012
 
 --------------------------------------------------------------
 
                    Orbital Energies (a.u.)
 --------------------------------------------------------------
 
 Alpha MOs
 -- Occupied --
-10.2736 -10.2715 -10.2582  -0.8870  -0.7766  -0.6759  -0.5487  -0.5267
 -0.4821  -0.4638  -0.4310  -0.4052  -0.4044
 -- Virtual --
  0.0690   0.0855   0.0913   0.0987   0.1246   0.1298   0.1331   0.1424
  0.1436   0.1699   0.1728   0.1915   0.2326   0.2409   0.2435   0.2642
  0.2806   0.2839   0.2859   0.3235   0.3350   0.3595   0.4579   0.4631
  0.4744   0.4997   0.5135   0.5269   0.5466   0.5580   0.5804   0.5877
  0.6100   0.6298   0.6397   0.6571   0.6611   0.6671   0.7092   0.7271
  0.7316   0.7691   0.8065   0.8611   0.8675   0.8842   0.8942   0.9603
  1.0019   1.0546   1.0561   1.1342   1.1377   1.1785   1.1789   1.2107
  1.2212   1.2456   1.2779   1.2813   1.2908   1.2911   1.3286   1.3797
  1.3807   1.3877   1.4100   1.4459   1.4506   1.4712   1.4806   1.4960
  1.5247   1.5714   1.6140   1.6181   1.6382   1.6440   1.6805   1.6853
  1.7448   2.3738   2.4568   2.4966   2.5024   2.5446   2.5821   2.6085
  2.6412   2.7021   2.7845   2.8166   2.8359   2.9138   2.9243   2.9305
  2.9523   2.9604   3.0002   3.0228   3.0527   3.0786   3.0805   3.0987
  3.1268   3.1338   3.1831   3.1841   3.2168   3.2246   3.2834   3.3093
  3.3279   3.3327   3.3358   3.3488   3.3540   3.3612   3.3951   3.4524
  3.4698   3.4852   3.4885   3.5244   3.5656   3.5789   3.6009   3.6123
  3.6318   3.6692   3.7049   3.7099   3.7641   3.8296   3.8582   3.8828
  3.9071   3.9098   3.9763   3.9798   3.9983   4.0042   4.0395   4.0587
  4.0674   4.1097   4.1362   4.1462   4.1491   4.1597   4.1903   4.2124
  4.2163   4.2421   4.2678   4.3432   4.3678   4.4085   4.4220   4.4415
  4.4649   4.5596   4.6401   4.6542   4.7011   4.7923   4.8484   4.9018
  4.9451   4.9517   4.9606   4.9670   5.0165   5.0503   5.0619   5.1174
  5.1336   5.2277   5.2323   5.2591   5.3101   5.3392   5.3481   5.3584
  5.3641   5.4252   5.4424   5.5013   5.5577   5.5623   5.6630   5.6865
  6.0716   6.3757   6.3894   6.3908   6.4215   6.4706  25.1888  25.3888
 25.5632
 --------------------------------------------------------------
 
 -----------------------------------------------------------------
                    Cartesian Multipole Moments
 -----------------------------------------------------------------
    Charge (ESU x 10^10)
                -0.0000
    Dipole Moment (Debye)
         X       0.0527      Y       0.0000      Z      -0.0833
       Tot       0.0986
    Quadrupole Moments (Debye-Ang)
        XX     -22.1295     XY      -0.0000     YY     -21.3621
        XZ      -0.4165     YZ      -0.0000     ZZ     -21.8561
    Octopole Moments (Debye-Ang^2)
       XXX      -0.5166    XXY       0.0000    XYY       0.3356
       YYY      -0.0000    XXZ      -1.5867    XYZ       0.0000
       YYZ       0.4883    XZZ       0.3322    YZZ      -0.0000
       ZZZ      -0.3727
    Hexadecapole Moments (Debye-Ang^3)
      XXXX    -202.7095   XXXY      -0.0000   XXYY     -42.2803
      XYYY       0.0000   YYYY     -44.1102   XXXZ       3.3010
      XXYZ      -0.0000   XYYZ       0.7648   YYYZ      -0.0000
      XXZZ     -45.3350   XYZZ       0.0000   YYZZ     -17.1071
      XZZZ       2.9059   YZZZ      -0.0000   ZZZZ     -72.2129
 -----------------------------------------------------------------
Archival summary:
1\1\cn0913\SP\ProcedureUnspecified\BasisUnspecified\38\r0852400\SunApr1206:04:032020SunApr1206:04:032020\0\\#,ProcedureUnspecified,BasisUnspecified,\\0,1\C\H,1,1.09259\H,1,1.09259,2,106.06\C,1,1.43551,2,106.979,3,-113.93,0\H,4,1.09047,1,109.685,2,56.6538,0\H,4,1.09074,1,111.215,2,176.18,0\H,4,1.09074,1,111.215,2,-62.8725,0\C,1,1.61259,2,111.946,3,122.363,0\H,8,1.09047,1,113.57,2,-59.4706,0\H,8,1.093,1,110.585,2,61.5993,0\H,8,1.093,1,110.585,2,179.46,0\\\@

 Total job time:  34.85s(wall), 97.32s(cpu) 
 Sun Apr 12 06:04:03 2020

        *************************************************************
        *                                                           *
        *  Thank you very much for using Q-Chem.  Have a nice day.  *
        *                                                           *
        *************************************************************


