                  Welcome to Q-Chem
     A Quantum Leap Into The Future Of Chemistry


 Q-Chem 5.3 (devel), Q-Chem, Inc., Pleasanton, CA (2020)

 Yihan Shao,  Zhengting Gan,  E. Epifanovsky,  A. T. B. Gilbert,  M. Wormit,  
 J. Kussmann,  A. W. Lange,  A. Behn,  Jia Deng,  Xintian Feng,  D. Ghosh,  
 M. Goldey,  P. R. Horn,  L. D. Jacobson,  I. Kaliman,  T. Kus,  A. Landau,  
 Jie Liu,  E. I. Proynov,  R. M. Richard,  R. P. Steele,  E. J. Sundstrom,  
 H. L. Woodcock III,  P. M. Zimmerman,  D. Zuev,  B. Alam,  B. Albrecht,  
 E. Alguire,  S. A. Baeppler,  D. Barton,  Z. Benda,  Y. A. Bernard,  
 E. J. Berquist,  K. B. Bravaya,  H. Burton,  K. Carter-Fenk,  D. Casanova,  
 Chun-Min Chang,  Yunqing Chen,  A. Chien,  K. D. Closser,  M. P. Coons,  
 S. Coriani,  S. Dasgupta,  A. L. Dempwolff,  M. Diedenhofen,  Hainam Do,  
 R. G. Edgar,  Po-Tung Fang,  S. Faraji,  S. Fatehi,  Qingguo Feng,  
 J. Fosso-Tande,  J. Gayvert,  Qinghui Ge,  A. Ghysels,  G. Gidofalvi,  
 J. Gomes,  J. Gonthier,  A. Gunina,  D. Hait,  M. W. D. Hanson-Heine,  
 P. H. P. Harbach,  A. W. Hauser,  M. F. Herbst,  J. E. Herr,  
 E. G. Hohenstein,  Z. C. Holden,  Kerwin Hui,  B. C. Huynh,  T.-C. Jagau,  
 Hyunjun Ji,  B. Kaduk,  K. Khistyaev,  Jaehoon Kim,  P. Klunzinger,  K. Koh,  
 D. Kosenkov,  L. Koulias,  T. Kowalczyk,  C. M. Krauter,  A. Kunitsa,  
 Ka Un Lao,  A. Laurent,  K. V. Lawler,  Joonho Lee,  D. Lefrancois,  
 S. Lehtola,  D. S. Levine,  Yi-Pei Li,  You-Sheng Lin,  Fenglai Liu,  
 Kuan-Yu Liu,  E. Livshits,  M. Loipersberger,  A. Luenser,  P. Manohar,  
 E. Mansoor,  S. F. Manzer,  Shan-Ping Mao,  Yuezhi Mao,  N. Mardirossian,  
 A. V. Marenich,  T. Markovich,  L. A. Martinez-Martinez,  S. A. Maurer,  
 N. J. Mayhall,  S. C. McKenzie,  J.-M. Mewes,  P. Morgante,  A. F. Morrison,  
 J. W. Mullinax,  K. Nanda,  T. S. Nguyen-Beck,  R. Olivares-Amaya,  
 K. J. Oosterbaan,  J. A. Parkhill,  S. K. Paul,  F. Pavosevic,  Zheng Pei,  
 T. M. Perrine,  F. Plasser,  P. Pokhilko,  S. Prager,  A. Prociuk,  
 E. Ramos,  B. Rana,  D. R. Rehn,  F. Rob,  M. Scheurer,  M. Schneider,  
 N. Sergueev,  S. M. Sharada,  S. Sharma,  D. W. Small,  T. Stauch,  
 C. J. Stein,  T. Stein,  Yu-Chuan Su,  S. P. Veccham,  Zhen Tao,  
 A. J. W. Thom,  A. Tkatchenko,  T. Tsuchimochi,  N. M. Tubman,  L. Vogt,  
 M. L. Vidal,  O. Vydrov,  M. A. Watson,  J. Wenzel,  M. de Wergifosse,  
 T. A. Wesolowski,  A. White,  J. Witte,  A. Yamada,  Jun Yang,  K. Yao,  
 S. Yeganeh,  S. R. Yost,  Zhi-Qiang You,  A. Zech,  Igor Ying Zhang,  
 Xing Zhang,  Yan Zhao,  Ying Zhu,  B. R. Brooks,  G. K. L. Chan,  
 C. J. Cramer,  M. S. Gordon,  W. J. Hehre,  A. Klamt,  M. W. Schmidt,  
 C. D. Sherrill,  D. G. Truhlar,  A. Aspuru-Guzik,  R. Baer,  A. T. Bell,  
 N. A. Besley,  Jeng-Da Chai,  A. E. DePrince, III,  R. A. DiStasio Jr.,  
 A. Dreuw,  B. D. Dunietz,  T. R. Furlani,  Chao-Ping Hsu,  Yousung Jung,  
 Jing Kong,  D. S. Lambrecht,  WanZhen Liang,  C. Ochsenfeld,  
 V. A. Rassolov,  L. V. Slipchenko,  J. E. Subotnik,  T. Van Voorhis,  
 J. M. Herbert,  A. I. Krylov,  P. M. W. Gill,  M. Head-Gordon

 Contributors to earlier versions of Q-Chem not listed above: 
 R. D. Adamson,  B. Austin,  J. Baker,  G. J. O. Beran,  K. Brandhorst,  
 S. T. Brown,  E. F. C. Byrd,  A. K. Chakraborty,  C.-L. Cheng,  
 Siu Hung Chien,  D. M. Chipman,  D. L. Crittenden,  H. Dachsel,  
 R. J. Doerksen,  A. D. Dutoi,  L. Fusti-Molnar,  W. A. Goddard III,  
 A. Golubeva-Zadorozhnaya,  S. R. Gwaltney,  G. Hawkins,  A. Heyden,  
 S. Hirata,  G. Kedziora,  F. J. Keil,  C. Kelley,  Jihan Kim,  R. A. King,  
 R. Z. Khaliullin,  P. P. Korambath,  W. Kurlancheek,  A. M. Lee,  M. S. Lee,  
 S. V. Levchenko,  Ching Yeh Lin,  D. Liotard,  R. C. Lochan,  I. Lotan,  
 P. E. Maslen,  N. Nair,  D. P. O'Neill,  D. Neuhauser,  E. Neuscamman,  
 C. M. Oana,  R. Olson,  B. Peters,  R. Peverati,  P. A. Pieniazek,  
 Y. M. Rhee,  J. Ritchie,  M. A. Rohrdanz,  E. Rosta,  N. J. Russ,  
 H. F. Schaefer III,  N. E. Schultz,  N. Shenvi,  A. C. Simmonett,  A. Sodt,  
 D. Stuck,  K. S. Thanthiriwatte,  V. Vanovschi,  Tao Wang,  A. Warshel,  
 C. F. Williams,  Q. Wu,  X. Xu,  W. Zhang

 Please cite Q-Chem as follows:
 Y. Shao et al., Mol. Phys. 113, 184-215 (2015)
 DOI: 10.1080/00268976.2014.952696

 Q-Chem 5.3.0 for Intel X86 EM64T Linux

 Parts of Q-Chem use Armadillo 9.800.1 (Horizon Scraper).
 http://arma.sourceforge.net/

 Q-Chem begins on Mon Jul 27 14:16:05 2020  

Host: centos77-c7
0

     Scratch files written to /tmp/29924.centos77-h1/qchem102305//
Processing $rem in /opt/qchem-5.3.0-intel2020u1//config/preferences:
Processing $rem in /home/shihchengli/.qchemrc:

Checking the input file for inconsistencies... 	...done.

--------------------------------------------------------------
User input:
--------------------------------------------------------------
$rem
   JOBTYPE  sp
   EXCHANGE   omegaB97X-D
   BASIS   6-311+G(2df,2pd)
   UNRESTRICTED   False
   max_scf_cycles   250
   geom_opt_max_cycles   1500
   basis2 6-31G*
   scf_algorithm rca_diis
   SYM_IGNORE  TRUE
   print_input   true
   geom_opt_dmax   80
   pop_mulliken false
   XC_GRID 000075000302
$end

$molecule
0 1
C       -5.3406024522     0.2282750208     0.1428410068
C       -4.0063642825     0.8767742785     0.4628131052
H       -6.0348325602     0.3529651582     0.9736802473
H       -5.2133961513     -0.8384990561     -0.0475191790
H       -5.7888904364     0.6744786782     -0.7476738168
O       -3.4703674252     1.5984783657     -0.6300722565
H       -3.2923998528     0.1225251128     0.8132231301
H       -4.1235759695     1.6061724859     1.2639186153
H       -3.3323808697     0.9960499560     -1.3609008523
$end
--------------------------------------------------------------
 ----------------------------------------------------------------
             Standard Nuclear Orientation (Angstroms)
    I     Atom           X                Y                Z
 ----------------------------------------------------------------
    1      C      -5.3406024522     0.2282750208     0.1428410068
    2      C      -4.0063642825     0.8767742785     0.4628131052
    3      H      -6.0348325602     0.3529651582     0.9736802473
    4      H      -5.2133961513    -0.8384990561    -0.0475191790
    5      H      -5.7888904364     0.6744786782    -0.7476738168
    6      O      -3.4703674252     1.5984783657    -0.6300722565
    7      H      -3.2923998528     0.1225251128     0.8132231301
    8      H      -4.1235759695     1.6061724859     1.2639186153
    9      H      -3.3323808697     0.9960499560    -1.3609008523
 ----------------------------------------------------------------
 Nuclear Repulsion Energy =          81.92686261 hartrees
 There are       13 alpha and       13 beta electrons
 Requested basis set is 6-311+G(2df,2pd)
 There are 60 shells and 186 basis functions

 Total QAlloc Memory Limit   2000 MB
 Mega-Array Size       188 MB
 MEM_STATIC part       192 MB

                       Distance Matrix (Angstroms)
             C (  1)   C (  2)   H (  3)   H (  4)   H (  5)   O (  6)
   C (  2)  1.517605
   H (  3)  1.089861  2.156396
   H (  4)  1.091066  2.158594  1.771212
   H (  5)  1.092280  2.164163  1.768309  1.763664
   O (  6)  2.443897  1.415114  3.271056  3.052274  2.498631
   H (  7)  2.157714  1.096095  2.756771  2.314016  2.995583  2.072007
   H (  8)  2.153270  1.089739  2.303838  2.980603  2.772694  2.003482
   H (  9)  2.623675  1.947925  3.628646  2.937475  2.552233  0.957116
             H (  7)   H (  8)
   H (  8)  1.759315
   H (  9)  2.343386  2.808543
 
 A cutoff of  1.0D-09 yielded   1790 shell pairs
 There are     17324 function pairs (     21512 Cartesian)
 Smallest overlap matrix eigenvalue = 1.18E-04

 Scale SEOQF with 1.000000e-02/1.000000e-01/1.000000e-01

 Standard Electronic Orientation quadrupole field applied
 Nucleus-field energy     =     0.0000000029 hartrees
 Requested basis set is 6-31G(d)
 There are 24 shells and 54 basis functions
 A cutoff of  1.0D-09 yielded    298 shell pairs
 There are      1549 function pairs (      1732 Cartesian)
 Smallest overlap matrix eigenvalue = 6.89E-03
 Guess from superposition of atomic densities
 Warning:  Energy on first SCF cycle will be non-variational
 SAD guess density has 26.000000 electrons
 Long-range K will be added via erf
 Coulomb attenuation parameter = 0.2 bohr**(-1)
 A restricted hybrid HF-DFT SCF calculation will be
 performed using Relaxed Constraint Minimization + Pulay DIIS
 Exchange:     0.2220 Hartree-Fock + 1.0000 wB97X-D + LR-HF
 Correlation:  1.0000 wB97X-D
 Using Euler-Maclaurin-Lebedev (75,302) quadrature formula
 Dispersion:   Grimme D
 SCF converges when DIIS error is below 1.0E-04
 using 6 threads for integral computing
 -------------------------------------------------------
 OpenMP Integral computing Module                
 Release: version 1.0, May 2013, Q-Chem Inc. Pittsburgh 
 -------------------------------------------------------
 using 6 threads for integral computing
 -------------------------------------------------------
 OpenMP Integral computing Module                
 Release: version 1.0, May 2013, Q-Chem Inc. Pittsburgh 
 -------------------------------------------------------
 ---------------------------------------
  Cycle       Energy         DIIS Error
 ---------------------------------------
    1    -155.4355815724      1.06E-01
    2    -154.9219138910      1.36E-02
    3    -154.9503304843      3.04E-03
    4    -154.9764669493      2.42E-03
    5    -154.9771972044      2.25E-04 Done RCA. Switching to DIIS
    6    -154.9780149149      1.02E-04
    7    -154.9780181219      7.78E-06 Convergence criterion met
 ---------------------------------------
 SCF time:  CPU 14.20 s  wall 2.38 s
 SCF   energy in the small basis set = -154.97801812
 Total energy in the small basis set = -154.97801812
 ----------------------------------------------------
  Cycle       Energy    
 ----------------------------------------------------
    1     -18.7549426992     -1.88E+01
 Long-range K will be added via erf
 Coulomb attenuation parameter = 0.2 bohr**(-1)
 A restricted hybrid HF-DFT SCF calculation will be
 performed using Relaxed Constraint Minimization + Pulay DIIS
 Exchange:     0.2220 Hartree-Fock + 1.0000 wB97X-D + LR-HF
 Correlation:  1.0000 wB97X-D
 Using Euler-Maclaurin-Lebedev (75,302) quadrature formula
 Dispersion:   Grimme D
 SCF converges when DIIS error is below 1.0E-05
 Basis2 calculation detected. Using small basis as guess for larger.
 SCFMinFind is unable to tell whether the solution found is close.
 Resetting ReadMinima to 0 and attempting to follow guess.
 SCFMinFind following SCF Guess.
 using 6 threads for integral computing
 -------------------------------------------------------
 OpenMP Integral computing Module                
 Release: version 1.0, May 2013, Q-Chem Inc. Pittsburgh 
 -------------------------------------------------------
 using 6 threads for integral computing
 -------------------------------------------------------
 OpenMP Integral computing Module                
 Release: version 1.0, May 2013, Q-Chem Inc. Pittsburgh 
 -------------------------------------------------------
 ---------------------------------------
  Cycle       Energy         DIIS Error
 ---------------------------------------
    1    -155.0095471311      5.72E-03
    2    -155.0249763214      2.87E-03
    3    -155.0347155468      3.48E-04 Done RCA. Switching to DIIS
    4    -155.0463999422      2.52E-04
    5    -155.0465898789      3.95E-05
    6    -155.0465979068      5.67E-06 Convergence criterion met
 ---------------------------------------
 SCF time:  CPU 39.69 s  wall 6.64 s
 SCF   energy in the final basis set = -155.04659791
 Total energy in the final basis set = -155.04659791
 
 --------------------------------------------------------------
 
                    Orbital Energies (a.u.)
 --------------------------------------------------------------
 
 Alpha MOs
 -- Occupied --
-19.2456 -10.3261 -10.2723  -1.1258  -0.8493  -0.7223  -0.5957  -0.5455
 -0.5234  -0.4688  -0.4579  -0.4086  -0.3619
 -- Virtual --
  0.0660   0.0875   0.0893   0.1028   0.1263   0.1339   0.1386   0.1764
  0.1869   0.2023   0.2424   0.2599   0.2756   0.2839   0.2961   0.3083
  0.3149   0.3359   0.3462   0.4020   0.4601   0.4815   0.4965   0.5222
  0.5576   0.5743   0.5854   0.6084   0.6157   0.6344   0.6537   0.6700
  0.6863   0.7164   0.7427   0.7888   0.8856   0.9152   0.9364   0.9716
  1.0385   1.0586   1.0723   1.0910   1.1237   1.1807   1.1937   1.2082
  1.2285   1.2488   1.2699   1.3211   1.3401   1.3565   1.3765   1.3905
  1.4403   1.4562   1.4654   1.4730   1.5146   1.5267   1.5847   1.6075
  1.6436   1.7037   1.9480   2.0284   2.0808   2.2205   2.2836   2.3976
  2.4258   2.5810   2.6202   2.6375   2.6884   2.8026   2.8348   2.8829
  2.9211   2.9614   3.0078   3.0170   3.0451   3.0729   3.0964   3.1037
  3.1488   3.1750   3.1889   3.2100   3.2452   3.2728   3.3224   3.3257
  3.3585   3.4168   3.4620   3.4806   3.5158   3.5561   3.5667   3.5846
  3.6083   3.6305   3.6501   3.6987   3.7368   3.7414   3.7575   3.8218
  3.8771   3.8830   3.9240   3.9462   3.9929   4.0184   4.0524   4.0819
  4.1036   4.1195   4.1594   4.1962   4.2262   4.2400   4.2632   4.2929
  4.3535   4.3932   4.4637   4.5369   4.5655   4.5906   4.7092   4.7886
  4.8758   4.9193   4.9517   4.9656   5.0036   5.0555   5.1103   5.1712
  5.2161   5.2571   5.2664   5.2927   5.3408   5.3646   5.4342   5.4556
  5.5192   5.5709   5.6747   5.8574   5.9405   6.0464   6.3215   6.3667
  6.4407   6.6553   6.7065   6.8224   7.1234   7.3543   7.4127   7.5520
  7.7263   8.1142  25.1031  25.4395  50.4640
 --------------------------------------------------------------
 
 -----------------------------------------------------------------
                    Cartesian Multipole Moments
 -----------------------------------------------------------------
    Charge (ESU x 10^10)
                 0.0000
    Dipole Moment (Debye)
         X      -0.4816      Y      -1.6793      Z       0.0350
       Tot       1.7473
    Quadrupole Moments (Debye-Ang)
        XX     -16.6706     XY       4.8363     YY     -24.7056
        XZ      -0.8593     YZ       1.6844     ZZ     -17.6963
    Octopole Moments (Debye-Ang^2)
       XXX     243.5133    XXY     -29.2659    XYY     102.4622
       YYY     -59.8742    XXZ       5.8157    XYZ      -6.8387
       YYZ       4.2063    XZZ      78.8972    YZZ     -14.4969
       ZZZ      -4.9821
    Hexadecapole Moments (Debye-Ang^3)
      XXXX   -2305.9515   XXXY     214.3169   XXYY    -475.1836
      XYYY     224.5296   YYYY    -172.4770   XXXZ     -21.4243
      XXYZ      30.5135   XYYZ     -12.1728   YYYZ      19.2719
      XXZZ    -377.3046   XYZZ      55.3709   YYZZ     -35.3676
      XZZZ      26.0445   YZZZ       6.2303   ZZZZ     -56.2035
 -----------------------------------------------------------------
Archival summary:
1\1\centos77-c7\SP\ProcedureUnspecified\BasisUnspecified\126\shihchen\MonJul2714:16:162020MonJul2714:16:162020\0\\#,ProcedureUnspecified,BasisUnspecified,\\0,1\C\H,1,1.08974\H,1,1.09609,2,107.195\O,1,1.41511,2,105.493,3,-117.852,0\H,4,0.957116,1,108.863,2,178.989,0\C,1,1.5176,2,110.27,3,120.028,0\H,6,1.08986,1,110.512,2,-19.7503,0\H,6,1.09107,1,110.615,2,-140.067,0\H,6,1.09228,1,110.987,2,100.372,0\\\@

 Total job time:  11.16s(wall), 57.68s(cpu) 
 Mon Jul 27 14:16:16 2020

        *************************************************************
        *                                                           *
        *  Thank you very much for using Q-Chem.  Have a nice day.  *
        *                                                           *
        *************************************************************


