                  Welcome to Q-Chem
     A Quantum Leap Into The Future Of Chemistry


 Q-Chem 5.3 (devel), Q-Chem, Inc., Pleasanton, CA (2020)

 Yihan Shao,  Zhengting Gan,  E. Epifanovsky,  A. T. B. Gilbert,  M. Wormit,  
 J. Kussmann,  A. W. Lange,  A. Behn,  Jia Deng,  Xintian Feng,  D. Ghosh,  
 M. Goldey,  P. R. Horn,  L. D. Jacobson,  I. Kaliman,  T. Kus,  A. Landau,  
 Jie Liu,  E. I. Proynov,  R. M. Richard,  R. P. Steele,  E. J. Sundstrom,  
 H. L. Woodcock III,  P. M. Zimmerman,  D. Zuev,  B. Alam,  B. Albrecht,  
 E. Alguire,  S. A. Baeppler,  D. Barton,  Z. Benda,  Y. A. Bernard,  
 E. J. Berquist,  K. B. Bravaya,  H. Burton,  K. Carter-Fenk,  D. Casanova,  
 Chun-Min Chang,  Yunqing Chen,  A. Chien,  K. D. Closser,  M. P. Coons,  
 S. Coriani,  S. Dasgupta,  A. L. Dempwolff,  M. Diedenhofen,  Hainam Do,  
 R. G. Edgar,  Po-Tung Fang,  S. Faraji,  S. Fatehi,  Qingguo Feng,  
 J. Fosso-Tande,  J. Gayvert,  Qinghui Ge,  A. Ghysels,  G. Gidofalvi,  
 J. Gomes,  J. Gonthier,  A. Gunina,  D. Hait,  M. W. D. Hanson-Heine,  
 P. H. P. Harbach,  A. W. Hauser,  M. F. Herbst,  J. E. Herr,  
 E. G. Hohenstein,  Z. C. Holden,  Kerwin Hui,  B. C. Huynh,  T.-C. Jagau,  
 Hyunjun Ji,  B. Kaduk,  K. Khistyaev,  Jaehoon Kim,  P. Klunzinger,  K. Koh,  
 D. Kosenkov,  L. Koulias,  T. Kowalczyk,  C. M. Krauter,  A. Kunitsa,  
 Ka Un Lao,  A. Laurent,  K. V. Lawler,  Joonho Lee,  D. Lefrancois,  
 S. Lehtola,  D. S. Levine,  Yi-Pei Li,  You-Sheng Lin,  Fenglai Liu,  
 Kuan-Yu Liu,  E. Livshits,  M. Loipersberger,  A. Luenser,  P. Manohar,  
 E. Mansoor,  S. F. Manzer,  Shan-Ping Mao,  Yuezhi Mao,  N. Mardirossian,  
 A. V. Marenich,  T. Markovich,  L. A. Martinez-Martinez,  S. A. Maurer,  
 N. J. Mayhall,  S. C. McKenzie,  J.-M. Mewes,  P. Morgante,  A. F. Morrison,  
 J. W. Mullinax,  K. Nanda,  T. S. Nguyen-Beck,  R. Olivares-Amaya,  
 K. J. Oosterbaan,  J. A. Parkhill,  S. K. Paul,  F. Pavosevic,  Zheng Pei,  
 T. M. Perrine,  F. Plasser,  P. Pokhilko,  S. Prager,  A. Prociuk,  
 E. Ramos,  B. Rana,  D. R. Rehn,  F. Rob,  M. Scheurer,  M. Schneider,  
 N. Sergueev,  S. M. Sharada,  S. Sharma,  D. W. Small,  T. Stauch,  
 C. J. Stein,  T. Stein,  Yu-Chuan Su,  S. P. Veccham,  Zhen Tao,  
 A. J. W. Thom,  A. Tkatchenko,  T. Tsuchimochi,  N. M. Tubman,  L. Vogt,  
 M. L. Vidal,  O. Vydrov,  M. A. Watson,  J. Wenzel,  M. de Wergifosse,  
 T. A. Wesolowski,  A. White,  J. Witte,  A. Yamada,  Jun Yang,  K. Yao,  
 S. Yeganeh,  S. R. Yost,  Zhi-Qiang You,  A. Zech,  Igor Ying Zhang,  
 Xing Zhang,  Yan Zhao,  Ying Zhu,  B. R. Brooks,  G. K. L. Chan,  
 C. J. Cramer,  M. S. Gordon,  W. J. Hehre,  A. Klamt,  M. W. Schmidt,  
 C. D. Sherrill,  D. G. Truhlar,  A. Aspuru-Guzik,  R. Baer,  A. T. Bell,  
 N. A. Besley,  Jeng-Da Chai,  A. E. DePrince, III,  R. A. DiStasio Jr.,  
 A. Dreuw,  B. D. Dunietz,  T. R. Furlani,  Chao-Ping Hsu,  Yousung Jung,  
 Jing Kong,  D. S. Lambrecht,  WanZhen Liang,  C. Ochsenfeld,  
 V. A. Rassolov,  L. V. Slipchenko,  J. E. Subotnik,  T. Van Voorhis,  
 J. M. Herbert,  A. I. Krylov,  P. M. W. Gill,  M. Head-Gordon

 Contributors to earlier versions of Q-Chem not listed above: 
 R. D. Adamson,  B. Austin,  J. Baker,  G. J. O. Beran,  K. Brandhorst,  
 S. T. Brown,  E. F. C. Byrd,  A. K. Chakraborty,  C.-L. Cheng,  
 Siu Hung Chien,  D. M. Chipman,  D. L. Crittenden,  H. Dachsel,  
 R. J. Doerksen,  A. D. Dutoi,  L. Fusti-Molnar,  W. A. Goddard III,  
 A. Golubeva-Zadorozhnaya,  S. R. Gwaltney,  G. Hawkins,  A. Heyden,  
 S. Hirata,  G. Kedziora,  F. J. Keil,  C. Kelley,  Jihan Kim,  R. A. King,  
 R. Z. Khaliullin,  P. P. Korambath,  W. Kurlancheek,  A. M. Lee,  M. S. Lee,  
 S. V. Levchenko,  Ching Yeh Lin,  D. Liotard,  R. C. Lochan,  I. Lotan,  
 P. E. Maslen,  N. Nair,  D. P. O'Neill,  D. Neuhauser,  E. Neuscamman,  
 C. M. Oana,  R. Olson,  B. Peters,  R. Peverati,  P. A. Pieniazek,  
 Y. M. Rhee,  J. Ritchie,  M. A. Rohrdanz,  E. Rosta,  N. J. Russ,  
 H. F. Schaefer III,  N. E. Schultz,  N. Shenvi,  A. C. Simmonett,  A. Sodt,  
 D. Stuck,  K. S. Thanthiriwatte,  V. Vanovschi,  Tao Wang,  A. Warshel,  
 C. F. Williams,  Q. Wu,  X. Xu,  W. Zhang

 Please cite Q-Chem as follows:
 Y. Shao et al., Mol. Phys. 113, 184-215 (2015)
 DOI: 10.1080/00268976.2014.952696

 Q-Chem 5.3.0 for Intel X86 EM64T Linux

 Parts of Q-Chem use Armadillo 9.800.1 (Horizon Scraper).
 http://arma.sourceforge.net/

 Q-Chem begins on Mon Jul 27 14:24:13 2020  

Host: centos77-c7
0

     Scratch files written to /tmp/29924.centos77-h1/qchem104356//
Processing $rem in /opt/qchem-5.3.0-intel2020u1//config/preferences:
Processing $rem in /home/shihchengli/.qchemrc:

Checking the input file for inconsistencies... 	...done.

--------------------------------------------------------------
User input:
--------------------------------------------------------------
$rem
   JOBTYPE  sp
   EXCHANGE   omegaB97X-D
   BASIS   6-311+G(2df,2pd)
   UNRESTRICTED   False
   max_scf_cycles   250
   geom_opt_max_cycles   1500
   basis2 6-31G*
   scf_algorithm rca_diis
   SYM_IGNORE  TRUE
   print_input   true
   geom_opt_dmax   80
   pop_mulliken false
   XC_GRID 000075000302
$end

$molecule
0 1
C       -5.3778045565     0.2896706054     0.1883315179
C       -4.1562627097     1.1566924933     -0.0550477882
H       -5.5726393240     -0.3465717733     -0.6748208242
H       -6.2578455903     0.9083193946     0.3706137962
H       -5.2348150274     -0.3516047953     1.0609117874
O       -2.9959600603     0.4011960932     -0.3474016587
H       -3.9808556816     1.8145583641     0.8039452659
H       -4.3139110856     1.7958676482     -0.9234557994
H       -2.7127159644     -0.0509080301     0.4472337033
$end
--------------------------------------------------------------
 ----------------------------------------------------------------
             Standard Nuclear Orientation (Angstroms)
    I     Atom           X                Y                Z
 ----------------------------------------------------------------
    1      C      -5.3778045565     0.2896706054     0.1883315179
    2      C      -4.1562627097     1.1566924933    -0.0550477882
    3      H      -5.5726393240    -0.3465717733    -0.6748208242
    4      H      -6.2578455903     0.9083193946     0.3706137962
    5      H      -5.2348150274    -0.3516047953     1.0609117874
    6      O      -2.9959600603     0.4011960932    -0.3474016587
    7      H      -3.9808556816     1.8145583641     0.8039452659
    8      H      -4.3139110856     1.7958676482    -0.9234557994
    9      H      -2.7127159644    -0.0509080301     0.4472337033
 ----------------------------------------------------------------
 Nuclear Repulsion Energy =          81.86389772 hartrees
 There are       13 alpha and       13 beta electrons
 Requested basis set is 6-311+G(2df,2pd)
 There are 60 shells and 186 basis functions

 Total QAlloc Memory Limit   2000 MB
 Mega-Array Size       188 MB
 MEM_STATIC part       192 MB

                       Distance Matrix (Angstroms)
             C (  1)   C (  2)   H (  3)   H (  4)   H (  5)   O (  6)
   C (  2)  1.517605
   H (  3)  1.089861  2.156396
   H (  4)  1.091066  2.158594  1.771212
   H (  5)  1.092280  2.164163  1.768309  1.763664
   O (  6)  2.443897  1.415114  2.702894  3.378257  2.750005
   H (  7)  2.157714  1.096095  3.064475  2.488720  2.516090  2.072007
   H (  8)  2.153270  1.089739  2.497251  2.498247  3.065521  2.003482
   H (  9)  2.699208  1.947925  3.086355  3.673409  2.613045  0.957116
             H (  7)   H (  8)
   H (  8)  1.759315
   H (  9)  2.283722  2.802355
 
 A cutoff of  1.0D-09 yielded   1783 shell pairs
 There are     17299 function pairs (     21484 Cartesian)
 Smallest overlap matrix eigenvalue = 1.26E-04

 Scale SEOQF with 1.000000e-02/1.000000e-01/1.000000e-01

 Standard Electronic Orientation quadrupole field applied
 Nucleus-field energy     =     0.0000000025 hartrees
 Requested basis set is 6-31G(d)
 There are 24 shells and 54 basis functions
 A cutoff of  1.0D-09 yielded    298 shell pairs
 There are      1549 function pairs (      1732 Cartesian)
 Smallest overlap matrix eigenvalue = 7.16E-03
 Guess from superposition of atomic densities
 Warning:  Energy on first SCF cycle will be non-variational
 SAD guess density has 26.000000 electrons
 Long-range K will be added via erf
 Coulomb attenuation parameter = 0.2 bohr**(-1)
 A restricted hybrid HF-DFT SCF calculation will be
 performed using Relaxed Constraint Minimization + Pulay DIIS
 Exchange:     0.2220 Hartree-Fock + 1.0000 wB97X-D + LR-HF
 Correlation:  1.0000 wB97X-D
 Using Euler-Maclaurin-Lebedev (75,302) quadrature formula
 Dispersion:   Grimme D
 SCF converges when DIIS error is below 1.0E-04
 using 6 threads for integral computing
 -------------------------------------------------------
 OpenMP Integral computing Module                
 Release: version 1.0, May 2013, Q-Chem Inc. Pittsburgh 
 -------------------------------------------------------
 using 6 threads for integral computing
 -------------------------------------------------------
 OpenMP Integral computing Module                
 Release: version 1.0, May 2013, Q-Chem Inc. Pittsburgh 
 -------------------------------------------------------
 ---------------------------------------
  Cycle       Energy         DIIS Error
 ---------------------------------------
    1    -155.4323526998      1.06E-01
    2    -154.9264431635      1.36E-02
    3    -154.9548024715      3.03E-03
    4    -154.9810097465      2.40E-03
    5    -154.9817296506      2.26E-04 Done RCA. Switching to DIIS
    6    -154.9825373296      1.02E-04
    7    -154.9825405810      7.52E-06 Convergence criterion met
 ---------------------------------------
 SCF time:  CPU 14.29 s  wall 2.40 s
 SCF   energy in the small basis set = -154.98254058
 Total energy in the small basis set = -154.98254058
 ----------------------------------------------------
  Cycle       Energy    
 ----------------------------------------------------
    1     -18.7511255265     -1.88E+01
 Long-range K will be added via erf
 Coulomb attenuation parameter = 0.2 bohr**(-1)
 A restricted hybrid HF-DFT SCF calculation will be
 performed using Relaxed Constraint Minimization + Pulay DIIS
 Exchange:     0.2220 Hartree-Fock + 1.0000 wB97X-D + LR-HF
 Correlation:  1.0000 wB97X-D
 Using Euler-Maclaurin-Lebedev (75,302) quadrature formula
 Dispersion:   Grimme D
 SCF converges when DIIS error is below 1.0E-05
 Basis2 calculation detected. Using small basis as guess for larger.
 SCFMinFind is unable to tell whether the solution found is close.
 Resetting ReadMinima to 0 and attempting to follow guess.
 SCFMinFind following SCF Guess.
 using 6 threads for integral computing
 -------------------------------------------------------
 OpenMP Integral computing Module                
 Release: version 1.0, May 2013, Q-Chem Inc. Pittsburgh 
 -------------------------------------------------------
 using 6 threads for integral computing
 -------------------------------------------------------
 OpenMP Integral computing Module                
 Release: version 1.0, May 2013, Q-Chem Inc. Pittsburgh 
 -------------------------------------------------------
 ---------------------------------------
  Cycle       Energy         DIIS Error
 ---------------------------------------
    1    -155.0138546427      5.72E-03
    2    -155.0293145611      2.86E-03
    3    -155.0389798336      3.48E-04 Done RCA. Switching to DIIS
    4    -155.0505844507      2.52E-04
    5    -155.0507743649      3.94E-05
    6    -155.0507823022      5.75E-06 Convergence criterion met
 ---------------------------------------
 SCF time:  CPU 38.94 s  wall 6.51 s
 SCF   energy in the final basis set = -155.05078230
 Total energy in the final basis set = -155.05078230
 
 --------------------------------------------------------------
 
                    Orbital Energies (a.u.)
 --------------------------------------------------------------
 
 Alpha MOs
 -- Occupied --
-19.2463 -10.3273 -10.2728  -1.1261  -0.8493  -0.7211  -0.5997  -0.5448
 -0.5182  -0.4717  -0.4572  -0.4107  -0.3631
 -- Virtual --
  0.0649   0.0870   0.0893   0.1023   0.1266   0.1337   0.1370   0.1806
  0.2014   0.2184   0.2408   0.2436   0.2636   0.2856   0.2892   0.3061
  0.3137   0.3370   0.3476   0.3836   0.4570   0.4978   0.5026   0.5233
  0.5700   0.5793   0.5807   0.6057   0.6141   0.6328   0.6639   0.6747
  0.6933   0.7163   0.7547   0.8098   0.8362   0.8897   0.9298   0.9509
  0.9886   1.0482   1.0602   1.1137   1.1345   1.1768   1.1840   1.2144
  1.2281   1.2363   1.2819   1.3051   1.3261   1.3556   1.3824   1.4162
  1.4474   1.4620   1.4752   1.4897   1.5174   1.5371   1.5909   1.6222
  1.6552   1.7099   1.9404   2.0406   2.1173   2.2812   2.2928   2.4636
  2.4728   2.5136   2.5541   2.5911   2.7040   2.8504   2.8526   2.8731
  2.9171   2.9762   3.0034   3.0244   3.0433   3.0552   3.0637   3.0894
  3.0973   3.1879   3.2124   3.2635   3.2791   3.2957   3.3056   3.3474
  3.3520   3.4052   3.4097   3.4177   3.5033   3.5618   3.5791   3.5819
  3.6056   3.6156   3.6521   3.7061   3.7264   3.7608   3.7916   3.8282
  3.8997   3.9107   3.9627   3.9873   4.0060   4.0193   4.0394   4.0828
  4.0937   4.1091   4.1265   4.1796   4.2054   4.2213   4.3051   4.3212
  4.3409   4.3996   4.4702   4.5103   4.5449   4.6497   4.7296   4.7792
  4.8405   4.9323   4.9404   4.9894   5.0127   5.0612   5.1230   5.2119
  5.2287   5.2594   5.2780   5.3045   5.3324   5.3716   5.4013   5.4829
  5.5144   5.6075   5.6790   5.8223   5.9256   6.0274   6.3624   6.3877
  6.4076   6.6542   6.7083   6.8196   7.1317   7.3476   7.4261   7.5560
  7.7204   8.1154  25.1747  25.4321  50.4654
 --------------------------------------------------------------
 
 -----------------------------------------------------------------
                    Cartesian Multipole Moments
 -----------------------------------------------------------------
    Charge (ESU x 10^10)
                 0.0000
    Dipole Moment (Debye)
         X      -0.8848      Y       0.0796      Z       1.5000
       Tot       1.7433
    Quadrupole Moments (Debye-Ang)
        XX     -13.5827     XY      -1.9059     YY     -19.3350
        XZ      -3.5183     YZ      -0.2293     ZZ     -19.7206
    Octopole Moments (Debye-Ang^2)
       XXX     221.8969    XXY       0.0589    XYY      81.9974
       YYY     -35.6619    XXZ       7.4785    XYZ       1.0895
       YYZ       0.1300    XZZ      84.4089    YZZ     -11.9905
       ZZZ       1.6824
    Hexadecapole Moments (Debye-Ang^3)
      XXXX   -2182.4745   XXXY      85.1638   XXYY    -391.2799
      XYYY     147.2166   YYYY    -102.2754   XXXZ      -2.2083
      XXYZ      -3.0470   XYYZ       3.7587   YYYZ       1.4368
      XXZZ    -394.1062   XYZZ      50.2558   YYZZ     -21.9470
      XZZZ       5.9805   YZZZ       1.2029   ZZZZ     -39.9297
 -----------------------------------------------------------------
Archival summary:
1\1\centos77-c7\SP\ProcedureUnspecified\BasisUnspecified\126\shihchen\MonJul2714:24:252020MonJul2714:24:252020\0\\#,ProcedureUnspecified,BasisUnspecified,\\0,1\C\H,1,1.08974\H,1,1.09609,2,107.195\O,1,1.41511,2,105.493,3,-117.852,0\H,4,0.957116,1,108.863,2,168.989,0\C,1,1.5176,2,110.27,3,120.028,0\H,6,1.08986,1,110.512,2,60.2497,0\H,6,1.09107,1,110.615,2,-60.0673,0\H,6,1.09228,1,110.987,2,-179.628,0\\\@

 Total job time:  11.08s(wall), 57.08s(cpu) 
 Mon Jul 27 14:24:25 2020

        *************************************************************
        *                                                           *
        *  Thank you very much for using Q-Chem.  Have a nice day.  *
        *                                                           *
        *************************************************************


