                  Welcome to Q-Chem
     A Quantum Leap Into The Future Of Chemistry


 Q-Chem 5.3 (devel), Q-Chem, Inc., Pleasanton, CA (2020)

 Yihan Shao,  Zhengting Gan,  E. Epifanovsky,  A. T. B. Gilbert,  M. Wormit,  
 J. Kussmann,  A. W. Lange,  A. Behn,  Jia Deng,  Xintian Feng,  D. Ghosh,  
 M. Goldey,  P. R. Horn,  L. D. Jacobson,  I. Kaliman,  T. Kus,  A. Landau,  
 Jie Liu,  E. I. Proynov,  R. M. Richard,  R. P. Steele,  E. J. Sundstrom,  
 H. L. Woodcock III,  P. M. Zimmerman,  D. Zuev,  B. Alam,  B. Albrecht,  
 E. Alguire,  S. A. Baeppler,  D. Barton,  Z. Benda,  Y. A. Bernard,  
 E. J. Berquist,  K. B. Bravaya,  H. Burton,  K. Carter-Fenk,  D. Casanova,  
 Chun-Min Chang,  Yunqing Chen,  A. Chien,  K. D. Closser,  M. P. Coons,  
 S. Coriani,  S. Dasgupta,  A. L. Dempwolff,  M. Diedenhofen,  Hainam Do,  
 R. G. Edgar,  Po-Tung Fang,  S. Faraji,  S. Fatehi,  Qingguo Feng,  
 J. Fosso-Tande,  J. Gayvert,  Qinghui Ge,  A. Ghysels,  G. Gidofalvi,  
 J. Gomes,  J. Gonthier,  A. Gunina,  D. Hait,  M. W. D. Hanson-Heine,  
 P. H. P. Harbach,  A. W. Hauser,  M. F. Herbst,  J. E. Herr,  
 E. G. Hohenstein,  Z. C. Holden,  Kerwin Hui,  B. C. Huynh,  T.-C. Jagau,  
 Hyunjun Ji,  B. Kaduk,  K. Khistyaev,  Jaehoon Kim,  P. Klunzinger,  K. Koh,  
 D. Kosenkov,  L. Koulias,  T. Kowalczyk,  C. M. Krauter,  A. Kunitsa,  
 Ka Un Lao,  A. Laurent,  K. V. Lawler,  Joonho Lee,  D. Lefrancois,  
 S. Lehtola,  D. S. Levine,  Yi-Pei Li,  You-Sheng Lin,  Fenglai Liu,  
 Kuan-Yu Liu,  E. Livshits,  M. Loipersberger,  A. Luenser,  P. Manohar,  
 E. Mansoor,  S. F. Manzer,  Shan-Ping Mao,  Yuezhi Mao,  N. Mardirossian,  
 A. V. Marenich,  T. Markovich,  L. A. Martinez-Martinez,  S. A. Maurer,  
 N. J. Mayhall,  S. C. McKenzie,  J.-M. Mewes,  P. Morgante,  A. F. Morrison,  
 J. W. Mullinax,  K. Nanda,  T. S. Nguyen-Beck,  R. Olivares-Amaya,  
 K. J. Oosterbaan,  J. A. Parkhill,  S. K. Paul,  F. Pavosevic,  Zheng Pei,  
 T. M. Perrine,  F. Plasser,  P. Pokhilko,  S. Prager,  A. Prociuk,  
 E. Ramos,  B. Rana,  D. R. Rehn,  F. Rob,  M. Scheurer,  M. Schneider,  
 N. Sergueev,  S. M. Sharada,  S. Sharma,  D. W. Small,  T. Stauch,  
 C. J. Stein,  T. Stein,  Yu-Chuan Su,  S. P. Veccham,  Zhen Tao,  
 A. J. W. Thom,  A. Tkatchenko,  T. Tsuchimochi,  N. M. Tubman,  L. Vogt,  
 M. L. Vidal,  O. Vydrov,  M. A. Watson,  J. Wenzel,  M. de Wergifosse,  
 T. A. Wesolowski,  A. White,  J. Witte,  A. Yamada,  Jun Yang,  K. Yao,  
 S. Yeganeh,  S. R. Yost,  Zhi-Qiang You,  A. Zech,  Igor Ying Zhang,  
 Xing Zhang,  Yan Zhao,  Ying Zhu,  B. R. Brooks,  G. K. L. Chan,  
 C. J. Cramer,  M. S. Gordon,  W. J. Hehre,  A. Klamt,  M. W. Schmidt,  
 C. D. Sherrill,  D. G. Truhlar,  A. Aspuru-Guzik,  R. Baer,  A. T. Bell,  
 N. A. Besley,  Jeng-Da Chai,  A. E. DePrince, III,  R. A. DiStasio Jr.,  
 A. Dreuw,  B. D. Dunietz,  T. R. Furlani,  Chao-Ping Hsu,  Yousung Jung,  
 Jing Kong,  D. S. Lambrecht,  WanZhen Liang,  C. Ochsenfeld,  
 V. A. Rassolov,  L. V. Slipchenko,  J. E. Subotnik,  T. Van Voorhis,  
 J. M. Herbert,  A. I. Krylov,  P. M. W. Gill,  M. Head-Gordon

 Contributors to earlier versions of Q-Chem not listed above: 
 R. D. Adamson,  B. Austin,  J. Baker,  G. J. O. Beran,  K. Brandhorst,  
 S. T. Brown,  E. F. C. Byrd,  A. K. Chakraborty,  C.-L. Cheng,  
 Siu Hung Chien,  D. M. Chipman,  D. L. Crittenden,  H. Dachsel,  
 R. J. Doerksen,  A. D. Dutoi,  L. Fusti-Molnar,  W. A. Goddard III,  
 A. Golubeva-Zadorozhnaya,  S. R. Gwaltney,  G. Hawkins,  A. Heyden,  
 S. Hirata,  G. Kedziora,  F. J. Keil,  C. Kelley,  Jihan Kim,  R. A. King,  
 R. Z. Khaliullin,  P. P. Korambath,  W. Kurlancheek,  A. M. Lee,  M. S. Lee,  
 S. V. Levchenko,  Ching Yeh Lin,  D. Liotard,  R. C. Lochan,  I. Lotan,  
 P. E. Maslen,  N. Nair,  D. P. O'Neill,  D. Neuhauser,  E. Neuscamman,  
 C. M. Oana,  R. Olson,  B. Peters,  R. Peverati,  P. A. Pieniazek,  
 Y. M. Rhee,  J. Ritchie,  M. A. Rohrdanz,  E. Rosta,  N. J. Russ,  
 H. F. Schaefer III,  N. E. Schultz,  N. Shenvi,  A. C. Simmonett,  A. Sodt,  
 D. Stuck,  K. S. Thanthiriwatte,  V. Vanovschi,  Tao Wang,  A. Warshel,  
 C. F. Williams,  Q. Wu,  X. Xu,  W. Zhang

 Please cite Q-Chem as follows:
 Y. Shao et al., Mol. Phys. 113, 184-215 (2015)
 DOI: 10.1080/00268976.2014.952696

 Q-Chem 5.3.0 for Intel X86 EM64T Linux

 Parts of Q-Chem use Armadillo 9.800.1 (Horizon Scraper).
 http://arma.sourceforge.net/

 Q-Chem begins on Mon Jul 27 14:19:38 2020  

Host: centos77-c7
0

     Scratch files written to /tmp/29924.centos77-h1/qchem103239//
Processing $rem in /opt/qchem-5.3.0-intel2020u1//config/preferences:
Processing $rem in /home/shihchengli/.qchemrc:

Checking the input file for inconsistencies... 	...done.

--------------------------------------------------------------
User input:
--------------------------------------------------------------
$rem
   JOBTYPE  sp
   EXCHANGE   omegaB97X-D
   BASIS   6-311+G(2df,2pd)
   UNRESTRICTED   False
   max_scf_cycles   250
   geom_opt_max_cycles   1500
   basis2 6-31G*
   scf_algorithm rca_diis
   SYM_IGNORE  TRUE
   print_input   true
   geom_opt_dmax   80
   pop_mulliken false
   XC_GRID 000075000302
$end

$molecule
0 1
C       -5.3451058359     0.2951689181     0.1116451892
C       -4.1260569393     1.1900006430     0.2393984519
H       -5.3072986549     -0.2711843603     -0.8187372579
H       -6.2602856018     0.8891285304     0.1207747915
H       -5.3992514316     -0.4130171989     0.9414747800
O       -2.9085510594     0.4710499835     0.1816298109
H       -4.1823144985     1.7780655916     1.1626746292
H       -4.0870784413     1.8956245775     -0.5901230383
H       -2.9868675372     -0.2176166849     -0.4784273563
$end
--------------------------------------------------------------
 ----------------------------------------------------------------
             Standard Nuclear Orientation (Angstroms)
    I     Atom           X                Y                Z
 ----------------------------------------------------------------
    1      C      -5.3451058359     0.2951689181     0.1116451892
    2      C      -4.1260569393     1.1900006430     0.2393984519
    3      H      -5.3072986549    -0.2711843603    -0.8187372579
    4      H      -6.2602856018     0.8891285304     0.1207747915
    5      H      -5.3992514316    -0.4130171989     0.9414747800
    6      O      -2.9085510594     0.4710499835     0.1816298109
    7      H      -4.1823144985     1.7780655916     1.1626746292
    8      H      -4.0870784413     1.8956245775    -0.5901230383
    9      H      -2.9868675372    -0.2176166849    -0.4784273563
 ----------------------------------------------------------------
 Nuclear Repulsion Energy =          81.99977090 hartrees
 There are       13 alpha and       13 beta electrons
 Requested basis set is 6-311+G(2df,2pd)
 There are 60 shells and 186 basis functions

 Total QAlloc Memory Limit   2000 MB
 Mega-Array Size       188 MB
 MEM_STATIC part       192 MB

                       Distance Matrix (Angstroms)
             C (  1)   C (  2)   H (  3)   H (  4)   H (  5)   O (  6)
   C (  2)  1.517605
   H (  3)  1.089861  2.156396
   H (  4)  1.091066  2.158594  1.771212
   H (  5)  1.092280  2.164163  1.768309  1.763664
   O (  6)  2.443897  1.415114  2.702894  3.378257  2.750005
   H (  7)  2.157714  1.096095  3.064475  2.488720  2.516090  2.072007
   H (  8)  2.153270  1.089739  2.497251  2.498247  3.065521  2.003482
   H (  9)  2.484436  1.947925  2.345865  3.507021  2.806047  0.957116
             H (  7)   H (  8)
   H (  8)  1.759315
   H (  9)  2.846938  2.385106
 
 A cutoff of  1.0D-09 yielded   1787 shell pairs
 There are     17317 function pairs (     21502 Cartesian)
 Smallest overlap matrix eigenvalue = 1.38E-04

 Scale SEOQF with 1.000000e-02/1.000000e-01/1.000000e-01

 Standard Electronic Orientation quadrupole field applied
 Nucleus-field energy     =     0.0000000026 hartrees
 Requested basis set is 6-31G(d)
 There are 24 shells and 54 basis functions
 A cutoff of  1.0D-09 yielded    298 shell pairs
 There are      1549 function pairs (      1732 Cartesian)
 Smallest overlap matrix eigenvalue = 7.22E-03
 Guess from superposition of atomic densities
 Warning:  Energy on first SCF cycle will be non-variational
 SAD guess density has 26.000000 electrons
 Long-range K will be added via erf
 Coulomb attenuation parameter = 0.2 bohr**(-1)
 A restricted hybrid HF-DFT SCF calculation will be
 performed using Relaxed Constraint Minimization + Pulay DIIS
 Exchange:     0.2220 Hartree-Fock + 1.0000 wB97X-D + LR-HF
 Correlation:  1.0000 wB97X-D
 Using Euler-Maclaurin-Lebedev (75,302) quadrature formula
 Dispersion:   Grimme D
 SCF converges when DIIS error is below 1.0E-04
 using 6 threads for integral computing
 -------------------------------------------------------
 OpenMP Integral computing Module                
 Release: version 1.0, May 2013, Q-Chem Inc. Pittsburgh 
 -------------------------------------------------------
 using 6 threads for integral computing
 -------------------------------------------------------
 OpenMP Integral computing Module                
 Release: version 1.0, May 2013, Q-Chem Inc. Pittsburgh 
 -------------------------------------------------------
 ---------------------------------------
  Cycle       Energy         DIIS Error
 ---------------------------------------
    1    -155.4376402220      1.06E-01
    2    -154.9243367736      1.36E-02
    3    -154.9526027548      3.05E-03
    4    -154.9786491030      2.41E-03
    5    -154.9793800573      2.24E-04 Done RCA. Switching to DIIS
    6    -154.9801957252      9.48E-05 Convergence criterion met
 ---------------------------------------
 SCF time:  CPU 12.92 s  wall 2.17 s
 SCF   energy in the small basis set = -154.98019573
 Total energy in the small basis set = -154.98019573
 ----------------------------------------------------
  Cycle       Energy    
 ----------------------------------------------------
    1     -18.7525934454     -1.88E+01
 Long-range K will be added via erf
 Coulomb attenuation parameter = 0.2 bohr**(-1)
 A restricted hybrid HF-DFT SCF calculation will be
 performed using Relaxed Constraint Minimization + Pulay DIIS
 Exchange:     0.2220 Hartree-Fock + 1.0000 wB97X-D + LR-HF
 Correlation:  1.0000 wB97X-D
 Using Euler-Maclaurin-Lebedev (75,302) quadrature formula
 Dispersion:   Grimme D
 SCF converges when DIIS error is below 1.0E-05
 Basis2 calculation detected. Using small basis as guess for larger.
 SCFMinFind is unable to tell whether the solution found is close.
 Resetting ReadMinima to 0 and attempting to follow guess.
 SCFMinFind following SCF Guess.
 using 6 threads for integral computing
 -------------------------------------------------------
 OpenMP Integral computing Module                
 Release: version 1.0, May 2013, Q-Chem Inc. Pittsburgh 
 -------------------------------------------------------
 using 6 threads for integral computing
 -------------------------------------------------------
 OpenMP Integral computing Module                
 Release: version 1.0, May 2013, Q-Chem Inc. Pittsburgh 
 -------------------------------------------------------
 ---------------------------------------
  Cycle       Energy         DIIS Error
 ---------------------------------------
    1    -155.0118749707      5.72E-03
    2    -155.0274014410      2.86E-03
    3    -155.0370948322      3.46E-04 Done RCA. Switching to DIIS
    4    -155.0487064427      2.48E-04
    5    -155.0488900634      3.91E-05
    6    -155.0488977434      5.59E-06 Convergence criterion met
 ---------------------------------------
 SCF time:  CPU 39.17 s  wall 6.55 s
 SCF   energy in the final basis set = -155.04889774
 Total energy in the final basis set = -155.04889774
 
 --------------------------------------------------------------
 
                    Orbital Energies (a.u.)
 --------------------------------------------------------------
 
 Alpha MOs
 -- Occupied --
-19.2443 -10.3274 -10.2782  -1.1254  -0.8509  -0.7259  -0.5863  -0.5521
 -0.5323  -0.4673  -0.4618  -0.4127  -0.3586
 -- Virtual --
  0.0655   0.0868   0.0893   0.1012   0.1269   0.1339   0.1366   0.1799
  0.1918   0.2145   0.2413   0.2438   0.2635   0.2830   0.2884   0.3126
  0.3183   0.3278   0.3398   0.3808   0.4579   0.4899   0.5001   0.5276
  0.5656   0.5713   0.5775   0.6053   0.6134   0.6284   0.6629   0.6859
  0.6984   0.7062   0.7285   0.7971   0.8552   0.9085   0.9321   0.9583
  0.9770   1.0466   1.0857   1.0986   1.1393   1.1744   1.1799   1.2047
  1.2332   1.2447   1.2594   1.2911   1.3219   1.3551   1.3879   1.4146
  1.4568   1.4685   1.4754   1.4842   1.4979   1.5392   1.6063   1.6215
  1.6397   1.7114   1.9410   2.0614   2.1156   2.2685   2.2953   2.4604
  2.4708   2.4929   2.5553   2.5916   2.7134   2.8136   2.8401   2.8730
  2.9138   2.9691   3.0068   3.0260   3.0275   3.0483   3.0708   3.0816
  3.1062   3.1766   3.2243   3.2665   3.2807   3.2940   3.3158   3.3498
  3.3624   3.3977   3.4135   3.4481   3.4955   3.5689   3.5737   3.5860
  3.5933   3.6239   3.6779   3.7074   3.7357   3.7652   3.7790   3.8665
  3.8878   3.9265   3.9356   3.9571   3.9793   4.0159   4.0398   4.0535
  4.0790   4.1111   4.1462   4.1765   4.2116   4.2493   4.2730   4.3383
  4.3584   4.4066   4.4685   4.4997   4.5388   4.6477   4.7069   4.8086
  4.8694   4.9164   4.9586   4.9784   5.0116   5.0361   5.0950   5.2065
  5.2345   5.2399   5.2826   5.3107   5.3342   5.3647   5.4190   5.4686
  5.5547   5.5956   5.7242   5.8248   5.9807   6.0010   6.3526   6.3794
  6.4093   6.6528   6.7112   6.8045   7.1272   7.3691   7.4326   7.5676
  7.7297   8.1061  25.1776  25.4294  50.4679
 --------------------------------------------------------------
 
 -----------------------------------------------------------------
                    Cartesian Multipole Moments
 -----------------------------------------------------------------
    Charge (ESU x 10^10)
                 0.0000
    Dipole Moment (Debye)
         X      -1.5887      Y      -0.3095      Z      -0.8979
       Tot       1.8509
    Quadrupole Moments (Debye-Ang)
        XX      -9.6044     XY      -0.7535     YY     -19.0727
        XZ       1.9018     YZ       0.8696     ZZ     -19.3631
    Octopole Moments (Debye-Ang^2)
       XXX     201.9612    XXY      -3.7772    XYY      80.4611
       YYY     -37.0991    XXZ      -5.4354    XYZ      -3.2730
       YYZ      -2.1859    XZZ      82.2433    YZZ     -12.4426
       ZZZ      -9.2708
    Hexadecapole Moments (Debye-Ang^3)
      XXXX   -2068.7777   XXXY      97.5733   XXYY    -383.8530
      XYYY     151.1986   YYYY    -107.1329   XXXZ      30.4888
      XXYZ      10.0874   XYYZ       8.7093   YYYZ      -6.6122
      XXZZ    -382.4023   XYZZ      51.4842   YYZZ     -22.0547
      XZZZ      37.8967   YZZZ      -6.8529   ZZZZ     -37.3449
 -----------------------------------------------------------------
Archival summary:
1\1\centos77-c7\SP\ProcedureUnspecified\BasisUnspecified\126\shihchen\MonJul2714:19:492020MonJul2714:19:492020\0\\#,ProcedureUnspecified,BasisUnspecified,\\0,1\C\H,1,1.08974\H,1,1.09609,2,107.195\O,1,1.41511,2,105.493,3,-117.852,0\H,4,0.957116,1,108.863,2,-81.0105,0\C,1,1.5176,2,110.27,3,120.028,0\H,6,1.08986,1,110.512,2,60.2497,0\H,6,1.09107,1,110.615,2,-60.0673,0\H,6,1.09228,1,110.987,2,-179.628,0\\\@

 Total job time:  10.89s(wall), 55.91s(cpu) 
 Mon Jul 27 14:19:49 2020

        *************************************************************
        *                                                           *
        *  Thank you very much for using Q-Chem.  Have a nice day.  *
        *                                                           *
        *************************************************************


