                  Welcome to Q-Chem
     A Quantum Leap Into The Future Of Chemistry


 Q-Chem 5.3 (devel), Q-Chem, Inc., Pleasanton, CA (2020)

 Yihan Shao,  Zhengting Gan,  E. Epifanovsky,  A. T. B. Gilbert,  M. Wormit,  
 J. Kussmann,  A. W. Lange,  A. Behn,  Jia Deng,  Xintian Feng,  D. Ghosh,  
 M. Goldey,  P. R. Horn,  L. D. Jacobson,  I. Kaliman,  T. Kus,  A. Landau,  
 Jie Liu,  E. I. Proynov,  R. M. Richard,  R. P. Steele,  E. J. Sundstrom,  
 H. L. Woodcock III,  P. M. Zimmerman,  D. Zuev,  B. Alam,  B. Albrecht,  
 E. Alguire,  S. A. Baeppler,  D. Barton,  Z. Benda,  Y. A. Bernard,  
 E. J. Berquist,  K. B. Bravaya,  H. Burton,  K. Carter-Fenk,  D. Casanova,  
 Chun-Min Chang,  Yunqing Chen,  A. Chien,  K. D. Closser,  M. P. Coons,  
 S. Coriani,  S. Dasgupta,  A. L. Dempwolff,  M. Diedenhofen,  Hainam Do,  
 R. G. Edgar,  Po-Tung Fang,  S. Faraji,  S. Fatehi,  Qingguo Feng,  
 J. Fosso-Tande,  J. Gayvert,  Qinghui Ge,  A. Ghysels,  G. Gidofalvi,  
 J. Gomes,  J. Gonthier,  A. Gunina,  D. Hait,  M. W. D. Hanson-Heine,  
 P. H. P. Harbach,  A. W. Hauser,  M. F. Herbst,  J. E. Herr,  
 E. G. Hohenstein,  Z. C. Holden,  Kerwin Hui,  B. C. Huynh,  T.-C. Jagau,  
 Hyunjun Ji,  B. Kaduk,  K. Khistyaev,  Jaehoon Kim,  P. Klunzinger,  K. Koh,  
 D. Kosenkov,  L. Koulias,  T. Kowalczyk,  C. M. Krauter,  A. Kunitsa,  
 Ka Un Lao,  A. Laurent,  K. V. Lawler,  Joonho Lee,  D. Lefrancois,  
 S. Lehtola,  D. S. Levine,  Yi-Pei Li,  You-Sheng Lin,  Fenglai Liu,  
 Kuan-Yu Liu,  E. Livshits,  M. Loipersberger,  A. Luenser,  P. Manohar,  
 E. Mansoor,  S. F. Manzer,  Shan-Ping Mao,  Yuezhi Mao,  N. Mardirossian,  
 A. V. Marenich,  T. Markovich,  L. A. Martinez-Martinez,  S. A. Maurer,  
 N. J. Mayhall,  S. C. McKenzie,  J.-M. Mewes,  P. Morgante,  A. F. Morrison,  
 J. W. Mullinax,  K. Nanda,  T. S. Nguyen-Beck,  R. Olivares-Amaya,  
 K. J. Oosterbaan,  J. A. Parkhill,  S. K. Paul,  F. Pavosevic,  Zheng Pei,  
 T. M. Perrine,  F. Plasser,  P. Pokhilko,  S. Prager,  A. Prociuk,  
 E. Ramos,  B. Rana,  D. R. Rehn,  F. Rob,  M. Scheurer,  M. Schneider,  
 N. Sergueev,  S. M. Sharada,  S. Sharma,  D. W. Small,  T. Stauch,  
 C. J. Stein,  T. Stein,  Yu-Chuan Su,  S. P. Veccham,  Zhen Tao,  
 A. J. W. Thom,  A. Tkatchenko,  T. Tsuchimochi,  N. M. Tubman,  L. Vogt,  
 M. L. Vidal,  O. Vydrov,  M. A. Watson,  J. Wenzel,  M. de Wergifosse,  
 T. A. Wesolowski,  A. White,  J. Witte,  A. Yamada,  Jun Yang,  K. Yao,  
 S. Yeganeh,  S. R. Yost,  Zhi-Qiang You,  A. Zech,  Igor Ying Zhang,  
 Xing Zhang,  Yan Zhao,  Ying Zhu,  B. R. Brooks,  G. K. L. Chan,  
 C. J. Cramer,  M. S. Gordon,  W. J. Hehre,  A. Klamt,  M. W. Schmidt,  
 C. D. Sherrill,  D. G. Truhlar,  A. Aspuru-Guzik,  R. Baer,  A. T. Bell,  
 N. A. Besley,  Jeng-Da Chai,  A. E. DePrince, III,  R. A. DiStasio Jr.,  
 A. Dreuw,  B. D. Dunietz,  T. R. Furlani,  Chao-Ping Hsu,  Yousung Jung,  
 Jing Kong,  D. S. Lambrecht,  WanZhen Liang,  C. Ochsenfeld,  
 V. A. Rassolov,  L. V. Slipchenko,  J. E. Subotnik,  T. Van Voorhis,  
 J. M. Herbert,  A. I. Krylov,  P. M. W. Gill,  M. Head-Gordon

 Contributors to earlier versions of Q-Chem not listed above: 
 R. D. Adamson,  B. Austin,  J. Baker,  G. J. O. Beran,  K. Brandhorst,  
 S. T. Brown,  E. F. C. Byrd,  A. K. Chakraborty,  C.-L. Cheng,  
 Siu Hung Chien,  D. M. Chipman,  D. L. Crittenden,  H. Dachsel,  
 R. J. Doerksen,  A. D. Dutoi,  L. Fusti-Molnar,  W. A. Goddard III,  
 A. Golubeva-Zadorozhnaya,  S. R. Gwaltney,  G. Hawkins,  A. Heyden,  
 S. Hirata,  G. Kedziora,  F. J. Keil,  C. Kelley,  Jihan Kim,  R. A. King,  
 R. Z. Khaliullin,  P. P. Korambath,  W. Kurlancheek,  A. M. Lee,  M. S. Lee,  
 S. V. Levchenko,  Ching Yeh Lin,  D. Liotard,  R. C. Lochan,  I. Lotan,  
 P. E. Maslen,  N. Nair,  D. P. O'Neill,  D. Neuhauser,  E. Neuscamman,  
 C. M. Oana,  R. Olson,  B. Peters,  R. Peverati,  P. A. Pieniazek,  
 Y. M. Rhee,  J. Ritchie,  M. A. Rohrdanz,  E. Rosta,  N. J. Russ,  
 H. F. Schaefer III,  N. E. Schultz,  N. Shenvi,  A. C. Simmonett,  A. Sodt,  
 D. Stuck,  K. S. Thanthiriwatte,  V. Vanovschi,  Tao Wang,  A. Warshel,  
 C. F. Williams,  Q. Wu,  X. Xu,  W. Zhang

 Please cite Q-Chem as follows:
 Y. Shao et al., Mol. Phys. 113, 184-215 (2015)
 DOI: 10.1080/00268976.2014.952696

 Q-Chem 5.3.0 for Intel X86 EM64T Linux

 Parts of Q-Chem use Armadillo 9.800.1 (Horizon Scraper).
 http://arma.sourceforge.net/

 Q-Chem begins on Mon Jul 27 14:21:39 2020  

Host: centos77-c7
0

     Scratch files written to /tmp/29924.centos77-h1/qchem103742//
Processing $rem in /opt/qchem-5.3.0-intel2020u1//config/preferences:
Processing $rem in /home/shihchengli/.qchemrc:

Checking the input file for inconsistencies... 	...done.

--------------------------------------------------------------
User input:
--------------------------------------------------------------
$rem
   JOBTYPE  sp
   EXCHANGE   omegaB97X-D
   BASIS   6-311+G(2df,2pd)
   UNRESTRICTED   False
   max_scf_cycles   250
   geom_opt_max_cycles   1500
   basis2 6-31G*
   scf_algorithm rca_diis
   SYM_IGNORE  TRUE
   print_input   true
   geom_opt_dmax   80
   pop_mulliken false
   XC_GRID 000075000302
$end

$molecule
0 1
C       -5.4844551475     0.2943469045     0.1653057426
C       -4.1459917513     1.0096125775     0.1593325924
H       -5.5849587023     -0.3352386580     -0.7186161836
H       -6.3045220360     1.0139406938     0.1753282787
H       -5.5858150440     -0.3386361151     1.0496897881
O       -3.0478421809     0.1194006474     0.0950047226
H       -4.0611056480     1.6628050581     1.0354365412
H       -4.0599594343     1.6422884828     -0.7237585706
H       -2.3281600556     0.5487004089     -0.3674129113
$end
--------------------------------------------------------------
 ----------------------------------------------------------------
             Standard Nuclear Orientation (Angstroms)
    I     Atom           X                Y                Z
 ----------------------------------------------------------------
    1      C      -5.4844551475     0.2943469045     0.1653057426
    2      C      -4.1459917513     1.0096125775     0.1593325924
    3      H      -5.5849587023    -0.3352386580    -0.7186161836
    4      H      -6.3045220360     1.0139406938     0.1753282787
    5      H      -5.5858150440    -0.3386361151     1.0496897881
    6      O      -3.0478421809     0.1194006474     0.0950047226
    7      H      -4.0611056480     1.6628050581     1.0354365412
    8      H      -4.0599594343     1.6422884828    -0.7237585706
    9      H      -2.3281600556     0.5487004089    -0.3674129113
 ----------------------------------------------------------------
 Nuclear Repulsion Energy =          81.63629702 hartrees
 There are       13 alpha and       13 beta electrons
 Requested basis set is 6-311+G(2df,2pd)
 There are 60 shells and 186 basis functions

 Total QAlloc Memory Limit   2000 MB
 Mega-Array Size       188 MB
 MEM_STATIC part       192 MB

                       Distance Matrix (Angstroms)
             C (  1)   C (  2)   H (  3)   H (  4)   H (  5)   O (  6)
   C (  2)  1.517605
   H (  3)  1.089861  2.156396
   H (  4)  1.091066  2.158594  1.771212
   H (  5)  1.092280  2.164163  1.768309  1.763664
   O (  6)  2.443897  1.415114  2.702894  3.378257  2.750005
   H (  7)  2.157714  1.096095  3.064475  2.488720  2.516090  2.072007
   H (  8)  2.153270  1.089739  2.497251  2.498247  3.065521  2.003482
   H (  9)  3.211025  1.947925  3.392850  4.040108  3.661675  0.957116
             H (  7)   H (  8)
   H (  8)  1.759315
   H (  9)  2.492452  2.078953
 
 A cutoff of  1.0D-09 yielded   1762 shell pairs
 There are     17115 function pairs (     21264 Cartesian)
 Smallest overlap matrix eigenvalue = 1.35E-04

 Scale SEOQF with 1.000000e-02/1.000000e-01/1.000000e-01

 Standard Electronic Orientation quadrupole field applied
 Nucleus-field energy     =     0.0000000024 hartrees
 Requested basis set is 6-31G(d)
 There are 24 shells and 54 basis functions
 A cutoff of  1.0D-09 yielded    297 shell pairs
 There are      1548 function pairs (      1731 Cartesian)
 Smallest overlap matrix eigenvalue = 7.26E-03
 Guess from superposition of atomic densities
 Warning:  Energy on first SCF cycle will be non-variational
 SAD guess density has 26.000000 electrons
 Long-range K will be added via erf
 Coulomb attenuation parameter = 0.2 bohr**(-1)
 A restricted hybrid HF-DFT SCF calculation will be
 performed using Relaxed Constraint Minimization + Pulay DIIS
 Exchange:     0.2220 Hartree-Fock + 1.0000 wB97X-D + LR-HF
 Correlation:  1.0000 wB97X-D
 Using Euler-Maclaurin-Lebedev (75,302) quadrature formula
 Dispersion:   Grimme D
 SCF converges when DIIS error is below 1.0E-04
 using 6 threads for integral computing
 -------------------------------------------------------
 OpenMP Integral computing Module                
 Release: version 1.0, May 2013, Q-Chem Inc. Pittsburgh 
 -------------------------------------------------------
 using 6 threads for integral computing
 -------------------------------------------------------
 OpenMP Integral computing Module                
 Release: version 1.0, May 2013, Q-Chem Inc. Pittsburgh 
 -------------------------------------------------------
 ---------------------------------------
  Cycle       Energy         DIIS Error
 ---------------------------------------
    1    -155.4322575838      1.06E-01
    2    -154.9218024223      1.37E-02
    3    -154.9506275601      2.92E-03
    4    -154.9780398810      2.17E-03
    5    -154.9786320084      2.10E-04 Done RCA. Switching to DIIS
    6    -154.9792920762      7.38E-05 Convergence criterion met
 ---------------------------------------
 SCF time:  CPU 12.84 s  wall 2.15 s
 SCF   energy in the small basis set = -154.97929208
 Total energy in the small basis set = -154.97929208
 ----------------------------------------------------
  Cycle       Energy    
 ----------------------------------------------------
    1     -18.7513921330     -1.88E+01
 Long-range K will be added via erf
 Coulomb attenuation parameter = 0.2 bohr**(-1)
 A restricted hybrid HF-DFT SCF calculation will be
 performed using Relaxed Constraint Minimization + Pulay DIIS
 Exchange:     0.2220 Hartree-Fock + 1.0000 wB97X-D + LR-HF
 Correlation:  1.0000 wB97X-D
 Using Euler-Maclaurin-Lebedev (75,302) quadrature formula
 Dispersion:   Grimme D
 SCF converges when DIIS error is below 1.0E-05
 Basis2 calculation detected. Using small basis as guess for larger.
 SCFMinFind is unable to tell whether the solution found is close.
 Resetting ReadMinima to 0 and attempting to follow guess.
 SCFMinFind following SCF Guess.
 using 6 threads for integral computing
 -------------------------------------------------------
 OpenMP Integral computing Module                
 Release: version 1.0, May 2013, Q-Chem Inc. Pittsburgh 
 -------------------------------------------------------
 using 6 threads for integral computing
 -------------------------------------------------------
 OpenMP Integral computing Module                
 Release: version 1.0, May 2013, Q-Chem Inc. Pittsburgh 
 -------------------------------------------------------
 ---------------------------------------
  Cycle       Energy         DIIS Error
 ---------------------------------------
    1    -155.0109943499      5.74E-03
    2    -155.0259618436      2.93E-03
    3    -155.0361045596      3.53E-04 Done RCA. Switching to DIIS
    4    -155.0482796886      2.62E-04
    5    -155.0484815511      3.93E-05
    6    -155.0484890313      6.22E-06 Convergence criterion met
 ---------------------------------------
 SCF time:  CPU 38.32 s  wall 6.41 s
 SCF   energy in the final basis set = -155.04848903
 Total energy in the final basis set = -155.04848903
 
 --------------------------------------------------------------
 
                    Orbital Energies (a.u.)
 --------------------------------------------------------------
 
 Alpha MOs
 -- Occupied --
-19.2451 -10.3275 -10.2712  -1.1255  -0.8495  -0.7099  -0.6097  -0.5557
 -0.4943  -0.4755  -0.4549  -0.4113  -0.3596
 -- Virtual --
  0.0630   0.0826   0.0962   0.1030   0.1277   0.1338   0.1367   0.1828
  0.2120   0.2275   0.2298   0.2461   0.2520   0.2877   0.2938   0.3065
  0.3180   0.3243   0.3480   0.3906   0.4686   0.4994   0.5100   0.5208
  0.5580   0.5810   0.5890   0.5999   0.6202   0.6449   0.6592   0.6609
  0.6987   0.7184   0.7407   0.8367   0.8586   0.8957   0.9313   0.9450
  0.9665   1.0568   1.0866   1.1040   1.1467   1.1619   1.1830   1.2032
  1.2303   1.2403   1.2501   1.3003   1.3343   1.3541   1.3633   1.4033
  1.4334   1.4556   1.4702   1.4820   1.5303   1.5485   1.5919   1.6299
  1.6506   1.7508   1.9508   2.0595   2.1341   2.2408   2.3046   2.4533
  2.4757   2.5102   2.5547   2.5942   2.7342   2.7950   2.8267   2.8673
  2.9219   2.9831   3.0257   3.0325   3.0533   3.0575   3.0633   3.0823
  3.1171   3.1711   3.2094   3.2660   3.2911   3.3063   3.3188   3.3341
  3.3468   3.3917   3.4003   3.4572   3.4930   3.5752   3.5767   3.5835
  3.5928   3.6195   3.6421   3.7110   3.7280   3.7638   3.8141   3.8361
  3.8628   3.9117   3.9398   3.9597   3.9914   4.0001   4.0464   4.0593
  4.0980   4.1287   4.1367   4.2005   4.2105   4.2332   4.2484   4.3367
  4.3706   4.4141   4.4649   4.4946   4.5547   4.6544   4.7305   4.7608
  4.8539   4.9168   4.9370   4.9699   5.0066   5.0573   5.0768   5.2245
  5.2347   5.2736   5.3011   5.3074   5.3344   5.3796   5.4145   5.5037
  5.5252   5.6336   5.6885   5.8198   5.9554   6.0280   6.3735   6.3826
  6.4218   6.6476   6.6896   6.7950   7.1251   7.3511   7.4462   7.5880
  7.6972   8.1394  25.1855  25.4320  50.4642
 --------------------------------------------------------------
 
 -----------------------------------------------------------------
                    Cartesian Multipole Moments
 -----------------------------------------------------------------
    Charge (ESU x 10^10)
                 0.0000
    Dipole Moment (Debye)
         X      -0.1371      Y       1.5407      Z      -0.6959
       Tot       1.6961
    Quadrupole Moments (Debye-Ang)
        XX     -16.7135     XY      -4.6595     YY     -19.2933
        XZ       1.0614     YZ      -0.3330     ZZ     -19.7772
    Octopole Moments (Debye-Ang^2)
       XXX     232.0741    XXY       5.5856    XYY      84.0123
       YYY     -30.2378    XXZ      -2.7478    XYZ       0.5203
       YYZ      -2.6883    XZZ      85.3992    YZZ     -10.0033
       ZZZ      -7.8621
    Hexadecapole Moments (Debye-Ang^3)
      XXXX   -2237.0711   XXXY      68.8607   XXYY    -404.4857
      XYYY     130.1505   YYYY     -87.7744   XXXZ      27.0493
      XXYZ      -1.5563   XYYZ      12.0315   YYYZ      -4.4191
      XXZZ    -402.5169   XYZZ      44.6337   YYZZ     -19.2623
      XZZZ      36.4686   YZZZ      -4.6091   ZZZZ     -36.5785
 -----------------------------------------------------------------
Archival summary:
1\1\centos77-c7\SP\ProcedureUnspecified\BasisUnspecified\126\shihchen\MonJul2714:21:502020MonJul2714:21:502020\0\\#,ProcedureUnspecified,BasisUnspecified,\\0,1\C\H,1,1.08974\H,1,1.09609,2,107.195\O,1,1.41511,2,105.493,3,-117.852,0\H,4,0.957116,1,108.863,2,28.9895,0\C,1,1.5176,2,110.27,3,120.028,0\H,6,1.08986,1,110.512,2,60.2497,0\H,6,1.09107,1,110.615,2,-60.0673,0\H,6,1.09228,1,110.987,2,-179.628,0\\\@

 Total job time:  10.70s(wall), 54.94s(cpu) 
 Mon Jul 27 14:21:50 2020

        *************************************************************
        *                                                           *
        *  Thank you very much for using Q-Chem.  Have a nice day.  *
        *                                                           *
        *************************************************************


