                  Welcome to Q-Chem
     A Quantum Leap Into The Future Of Chemistry


 Q-Chem 5.3 (devel), Q-Chem, Inc., Pleasanton, CA (2020)

 Yihan Shao,  Zhengting Gan,  E. Epifanovsky,  A. T. B. Gilbert,  M. Wormit,  
 J. Kussmann,  A. W. Lange,  A. Behn,  Jia Deng,  Xintian Feng,  D. Ghosh,  
 M. Goldey,  P. R. Horn,  L. D. Jacobson,  I. Kaliman,  T. Kus,  A. Landau,  
 Jie Liu,  E. I. Proynov,  R. M. Richard,  R. P. Steele,  E. J. Sundstrom,  
 H. L. Woodcock III,  P. M. Zimmerman,  D. Zuev,  B. Alam,  B. Albrecht,  
 E. Alguire,  S. A. Baeppler,  D. Barton,  Z. Benda,  Y. A. Bernard,  
 E. J. Berquist,  K. B. Bravaya,  H. Burton,  K. Carter-Fenk,  D. Casanova,  
 Chun-Min Chang,  Yunqing Chen,  A. Chien,  K. D. Closser,  M. P. Coons,  
 S. Coriani,  S. Dasgupta,  A. L. Dempwolff,  M. Diedenhofen,  Hainam Do,  
 R. G. Edgar,  Po-Tung Fang,  S. Faraji,  S. Fatehi,  Qingguo Feng,  
 J. Fosso-Tande,  J. Gayvert,  Qinghui Ge,  A. Ghysels,  G. Gidofalvi,  
 J. Gomes,  J. Gonthier,  A. Gunina,  D. Hait,  M. W. D. Hanson-Heine,  
 P. H. P. Harbach,  A. W. Hauser,  M. F. Herbst,  J. E. Herr,  
 E. G. Hohenstein,  Z. C. Holden,  Kerwin Hui,  B. C. Huynh,  T.-C. Jagau,  
 Hyunjun Ji,  B. Kaduk,  K. Khistyaev,  Jaehoon Kim,  P. Klunzinger,  K. Koh,  
 D. Kosenkov,  L. Koulias,  T. Kowalczyk,  C. M. Krauter,  A. Kunitsa,  
 Ka Un Lao,  A. Laurent,  K. V. Lawler,  Joonho Lee,  D. Lefrancois,  
 S. Lehtola,  D. S. Levine,  Yi-Pei Li,  You-Sheng Lin,  Fenglai Liu,  
 Kuan-Yu Liu,  E. Livshits,  M. Loipersberger,  A. Luenser,  P. Manohar,  
 E. Mansoor,  S. F. Manzer,  Shan-Ping Mao,  Yuezhi Mao,  N. Mardirossian,  
 A. V. Marenich,  T. Markovich,  L. A. Martinez-Martinez,  S. A. Maurer,  
 N. J. Mayhall,  S. C. McKenzie,  J.-M. Mewes,  P. Morgante,  A. F. Morrison,  
 J. W. Mullinax,  K. Nanda,  T. S. Nguyen-Beck,  R. Olivares-Amaya,  
 K. J. Oosterbaan,  J. A. Parkhill,  S. K. Paul,  F. Pavosevic,  Zheng Pei,  
 T. M. Perrine,  F. Plasser,  P. Pokhilko,  S. Prager,  A. Prociuk,  
 E. Ramos,  B. Rana,  D. R. Rehn,  F. Rob,  M. Scheurer,  M. Schneider,  
 N. Sergueev,  S. M. Sharada,  S. Sharma,  D. W. Small,  T. Stauch,  
 C. J. Stein,  T. Stein,  Yu-Chuan Su,  S. P. Veccham,  Zhen Tao,  
 A. J. W. Thom,  A. Tkatchenko,  T. Tsuchimochi,  N. M. Tubman,  L. Vogt,  
 M. L. Vidal,  O. Vydrov,  M. A. Watson,  J. Wenzel,  M. de Wergifosse,  
 T. A. Wesolowski,  A. White,  J. Witte,  A. Yamada,  Jun Yang,  K. Yao,  
 S. Yeganeh,  S. R. Yost,  Zhi-Qiang You,  A. Zech,  Igor Ying Zhang,  
 Xing Zhang,  Yan Zhao,  Ying Zhu,  B. R. Brooks,  G. K. L. Chan,  
 C. J. Cramer,  M. S. Gordon,  W. J. Hehre,  A. Klamt,  M. W. Schmidt,  
 C. D. Sherrill,  D. G. Truhlar,  A. Aspuru-Guzik,  R. Baer,  A. T. Bell,  
 N. A. Besley,  Jeng-Da Chai,  A. E. DePrince, III,  R. A. DiStasio Jr.,  
 A. Dreuw,  B. D. Dunietz,  T. R. Furlani,  Chao-Ping Hsu,  Yousung Jung,  
 Jing Kong,  D. S. Lambrecht,  WanZhen Liang,  C. Ochsenfeld,  
 V. A. Rassolov,  L. V. Slipchenko,  J. E. Subotnik,  T. Van Voorhis,  
 J. M. Herbert,  A. I. Krylov,  P. M. W. Gill,  M. Head-Gordon

 Contributors to earlier versions of Q-Chem not listed above: 
 R. D. Adamson,  B. Austin,  J. Baker,  G. J. O. Beran,  K. Brandhorst,  
 S. T. Brown,  E. F. C. Byrd,  A. K. Chakraborty,  C.-L. Cheng,  
 Siu Hung Chien,  D. M. Chipman,  D. L. Crittenden,  H. Dachsel,  
 R. J. Doerksen,  A. D. Dutoi,  L. Fusti-Molnar,  W. A. Goddard III,  
 A. Golubeva-Zadorozhnaya,  S. R. Gwaltney,  G. Hawkins,  A. Heyden,  
 S. Hirata,  G. Kedziora,  F. J. Keil,  C. Kelley,  Jihan Kim,  R. A. King,  
 R. Z. Khaliullin,  P. P. Korambath,  W. Kurlancheek,  A. M. Lee,  M. S. Lee,  
 S. V. Levchenko,  Ching Yeh Lin,  D. Liotard,  R. C. Lochan,  I. Lotan,  
 P. E. Maslen,  N. Nair,  D. P. O'Neill,  D. Neuhauser,  E. Neuscamman,  
 C. M. Oana,  R. Olson,  B. Peters,  R. Peverati,  P. A. Pieniazek,  
 Y. M. Rhee,  J. Ritchie,  M. A. Rohrdanz,  E. Rosta,  N. J. Russ,  
 H. F. Schaefer III,  N. E. Schultz,  N. Shenvi,  A. C. Simmonett,  A. Sodt,  
 D. Stuck,  K. S. Thanthiriwatte,  V. Vanovschi,  Tao Wang,  A. Warshel,  
 C. F. Williams,  Q. Wu,  X. Xu,  W. Zhang

 Please cite Q-Chem as follows:
 Y. Shao et al., Mol. Phys. 113, 184-215 (2015)
 DOI: 10.1080/00268976.2014.952696

 Q-Chem 5.3.0 for Intel X86 EM64T Linux

 Parts of Q-Chem use Armadillo 9.800.1 (Horizon Scraper).
 http://arma.sourceforge.net/

 Q-Chem begins on Mon Jul 27 14:17:57 2020  

Host: centos77-c7
0

     Scratch files written to /tmp/29924.centos77-h1/qchem102836//
Processing $rem in /opt/qchem-5.3.0-intel2020u1//config/preferences:
Processing $rem in /home/shihchengli/.qchemrc:

Checking the input file for inconsistencies... 	...done.

--------------------------------------------------------------
User input:
--------------------------------------------------------------
$rem
   JOBTYPE  sp
   EXCHANGE   omegaB97X-D
   BASIS   6-311+G(2df,2pd)
   UNRESTRICTED   False
   max_scf_cycles   250
   geom_opt_max_cycles   1500
   basis2 6-31G*
   scf_algorithm rca_diis
   SYM_IGNORE  TRUE
   print_input   true
   geom_opt_dmax   80
   pop_mulliken false
   XC_GRID 000075000302
$end

$molecule
0 1
C       -5.3605114130     0.3086640790     0.0417676459
C       -4.1311867600     1.1939845187     0.1317317550
H       -5.4604084505     -0.1053128365     -0.9614474916
H       -6.2616951627     0.8778185849     0.2749121766
H       -5.2978892317     -0.5208288332     0.7496493045
O       -2.9385221398     0.5142522378     -0.2118711614
H       -4.0504606226     1.6301870507     1.1340464952
H       -4.2087855286     2.0206327227     -0.5740738420
H       -2.8933506909     -0.3021775240     0.2855951178
$end
--------------------------------------------------------------
 ----------------------------------------------------------------
             Standard Nuclear Orientation (Angstroms)
    I     Atom           X                Y                Z
 ----------------------------------------------------------------
    1      C      -5.3605114130     0.3086640790     0.0417676459
    2      C      -4.1311867600     1.1939845187     0.1317317550
    3      H      -5.4604084505    -0.1053128365    -0.9614474916
    4      H      -6.2616951627     0.8778185849     0.2749121766
    5      H      -5.2978892317    -0.5208288332     0.7496493045
    6      O      -2.9385221398     0.5142522378    -0.2118711614
    7      H      -4.0504606226     1.6301870507     1.1340464952
    8      H      -4.2087855286     2.0206327227    -0.5740738420
    9      H      -2.8933506909    -0.3021775240     0.2855951178
 ----------------------------------------------------------------
 Nuclear Repulsion Energy =          81.94953311 hartrees
 There are       13 alpha and       13 beta electrons
 Requested basis set is 6-311+G(2df,2pd)
 There are 60 shells and 186 basis functions

 Total QAlloc Memory Limit   2000 MB
 Mega-Array Size       188 MB
 MEM_STATIC part       192 MB

                       Distance Matrix (Angstroms)
             C (  1)   C (  2)   H (  3)   H (  4)   H (  5)   O (  6)
   C (  2)  1.517605
   H (  3)  1.089861  2.156396
   H (  4)  1.091066  2.158594  1.771212
   H (  5)  1.092280  2.164163  1.768309  1.763664
   O (  6)  2.443897  1.415114  2.702894  3.378257  2.750005
   H (  7)  2.157714  1.096095  3.064475  2.488720  2.516090  2.072007
   H (  8)  2.153270  1.089739  2.497251  2.498247  3.065521  2.003482
   H (  9)  2.553324  1.947925  2.860709  3.569068  2.458650  0.957116
             H (  7)   H (  8)
   H (  8)  1.759315
   H (  9)  2.406825  2.804433
 
 A cutoff of  1.0D-09 yielded   1787 shell pairs
 There are     17317 function pairs (     21502 Cartesian)
 Smallest overlap matrix eigenvalue = 1.39E-04

 Scale SEOQF with 1.000000e-02/1.000000e-01/1.000000e-01

 Standard Electronic Orientation quadrupole field applied
 Nucleus-field energy     =     0.0000000027 hartrees
 Requested basis set is 6-31G(d)
 There are 24 shells and 54 basis functions
 A cutoff of  1.0D-09 yielded    298 shell pairs
 There are      1549 function pairs (      1732 Cartesian)
 Smallest overlap matrix eigenvalue = 7.22E-03
 Guess from superposition of atomic densities
 Warning:  Energy on first SCF cycle will be non-variational
 SAD guess density has 26.000000 electrons
 Long-range K will be added via erf
 Coulomb attenuation parameter = 0.2 bohr**(-1)
 A restricted hybrid HF-DFT SCF calculation will be
 performed using Relaxed Constraint Minimization + Pulay DIIS
 Exchange:     0.2220 Hartree-Fock + 1.0000 wB97X-D + LR-HF
 Correlation:  1.0000 wB97X-D
 Using Euler-Maclaurin-Lebedev (75,302) quadrature formula
 Dispersion:   Grimme D
 SCF converges when DIIS error is below 1.0E-04
 using 6 threads for integral computing
 -------------------------------------------------------
 OpenMP Integral computing Module                
 Release: version 1.0, May 2013, Q-Chem Inc. Pittsburgh 
 -------------------------------------------------------
 using 6 threads for integral computing
 -------------------------------------------------------
 OpenMP Integral computing Module                
 Release: version 1.0, May 2013, Q-Chem Inc. Pittsburgh 
 -------------------------------------------------------
 ---------------------------------------
  Cycle       Energy         DIIS Error
 ---------------------------------------
    1    -155.4347870747      1.06E-01
    2    -154.9268586588      1.35E-02
    3    -154.9549837882      3.04E-03
    4    -154.9809836505      2.41E-03
    5    -154.9817106249      2.27E-04 Done RCA. Switching to DIIS
    6    -154.9825256408      1.01E-04
    7    -154.9825288497      7.42E-06 Convergence criterion met
 ---------------------------------------
 SCF time:  CPU 14.28 s  wall 2.39 s
 SCF   energy in the small basis set = -154.98252885
 Total energy in the small basis set = -154.98252885
 ----------------------------------------------------
  Cycle       Energy    
 ----------------------------------------------------
    1     -18.7513481921     -1.88E+01
 Long-range K will be added via erf
 Coulomb attenuation parameter = 0.2 bohr**(-1)
 A restricted hybrid HF-DFT SCF calculation will be
 performed using Relaxed Constraint Minimization + Pulay DIIS
 Exchange:     0.2220 Hartree-Fock + 1.0000 wB97X-D + LR-HF
 Correlation:  1.0000 wB97X-D
 Using Euler-Maclaurin-Lebedev (75,302) quadrature formula
 Dispersion:   Grimme D
 SCF converges when DIIS error is below 1.0E-05
 Basis2 calculation detected. Using small basis as guess for larger.
 SCFMinFind is unable to tell whether the solution found is close.
 Resetting ReadMinima to 0 and attempting to follow guess.
 SCFMinFind following SCF Guess.
 using 6 threads for integral computing
 -------------------------------------------------------
 OpenMP Integral computing Module                
 Release: version 1.0, May 2013, Q-Chem Inc. Pittsburgh 
 -------------------------------------------------------
 using 6 threads for integral computing
 -------------------------------------------------------
 OpenMP Integral computing Module                
 Release: version 1.0, May 2013, Q-Chem Inc. Pittsburgh 
 -------------------------------------------------------
 ---------------------------------------
  Cycle       Energy         DIIS Error
 ---------------------------------------
    1    -155.0140091910      5.72E-03
    2    -155.0295054512      2.85E-03
    3    -155.0391089825      3.47E-04 Done RCA. Switching to DIIS
    4    -155.0506345745      2.51E-04
    5    -155.0508220776      3.91E-05
    6    -155.0508298058      5.59E-06 Convergence criterion met
 ---------------------------------------
 SCF time:  CPU 39.16 s  wall 6.55 s
 SCF   energy in the final basis set = -155.05082981
 Total energy in the final basis set = -155.05082981
 
 --------------------------------------------------------------
 
                    Orbital Energies (a.u.)
 --------------------------------------------------------------
 
 Alpha MOs
 -- Occupied --
-19.2459 -10.3272 -10.2761  -1.1259  -0.8503  -0.7247  -0.5924  -0.5458
 -0.5288  -0.4681  -0.4590  -0.4133  -0.3620
 -- Virtual --
  0.0655   0.0877   0.0889   0.1013   0.1268   0.1339   0.1368   0.1813
  0.1936   0.2161   0.2400   0.2450   0.2660   0.2834   0.2891   0.3078
  0.3209   0.3219   0.3416   0.3813   0.4583   0.4890   0.5014   0.5261
  0.5661   0.5746   0.5775   0.6091   0.6135   0.6304   0.6650   0.6839
  0.6991   0.7086   0.7270   0.8000   0.8557   0.9013   0.9276   0.9521
  0.9846   1.0475   1.0780   1.1068   1.1471   1.1721   1.1803   1.2093
  1.2320   1.2374   1.2681   1.2944   1.3230   1.3593   1.3733   1.4144
  1.4537   1.4690   1.4740   1.4810   1.4977   1.5375   1.5991   1.6323
  1.6467   1.7162   1.9377   2.0589   2.1142   2.2687   2.2820   2.4609
  2.4727   2.4934   2.5504   2.5913   2.7071   2.8221   2.8509   2.8854
  2.9149   2.9751   3.0101   3.0291   3.0376   3.0527   3.0693   3.0741
  3.0958   3.1649   3.2244   3.2631   3.2836   3.2951   3.3100   3.3459
  3.3688   3.3978   3.4114   3.4342   3.5057   3.5674   3.5707   3.5848
  3.6066   3.6181   3.6637   3.7092   3.7293   3.7565   3.7854   3.8560
  3.8838   3.9243   3.9508   3.9628   3.9868   4.0092   4.0412   4.0628
  4.0915   4.1117   4.1414   4.1866   4.2091   4.2443   4.2876   4.3208
  4.3521   4.3920   4.4679   4.5083   4.5363   4.6452   4.7131   4.7955
  4.8674   4.9295   4.9514   4.9961   4.9990   5.0559   5.1050   5.2167
  5.2208   5.2507   5.2886   5.3094   5.3316   5.3618   5.4217   5.4719
  5.5507   5.5755   5.6888   5.8244   5.9309   6.0353   6.3536   6.3838
  6.4060   6.6543   6.7090   6.8178   7.1245   7.3554   7.4264   7.5560
  7.7266   8.1120  25.1755  25.4310  50.4678
 --------------------------------------------------------------
 
 -----------------------------------------------------------------
                    Cartesian Multipole Moments
 -----------------------------------------------------------------
    Charge (ESU x 10^10)
                 0.0000
    Dipole Moment (Debye)
         X      -1.3363      Y      -0.5397      Z       1.0640
       Tot       1.7914
    Quadrupole Moments (Debye-Ang)
        XX     -11.1017     XY      -0.2774     YY     -18.8185
        XZ      -2.8567     YZ      -0.2711     ZZ     -20.0324
    Octopole Moments (Debye-Ang^2)
       XXX     209.7291    XXY      -4.7446    XYY      79.7183
       YYY     -37.5490    XXZ       7.0090    XYZ       0.9963
       YYZ      -0.6260    XZZ      84.7827    YZZ     -13.0382
       ZZZ      -0.8094
    Hexadecapole Moments (Debye-Ang^3)
      XXXX   -2113.5707   XXXY     100.8688   XXYY    -382.5047
      XYYY     152.8869   YYYY    -106.9786   XXXZ      -9.4895
      XXYZ      -3.8268   XYYZ       4.0347   YYYZ      -4.5127
      XXZZ    -391.9161   XYZZ      53.7340   YYZZ     -22.9790
      XZZZ       9.7190   YZZZ      -2.0268   ZZZZ     -36.5569
 -----------------------------------------------------------------
Archival summary:
1\1\centos77-c7\SP\ProcedureUnspecified\BasisUnspecified\126\shihchen\MonJul2714:18:082020MonJul2714:18:082020\0\\#,ProcedureUnspecified,BasisUnspecified,\\0,1\C\H,1,1.08974\H,1,1.09609,2,107.195\O,1,1.41511,2,105.493,3,-117.852,0\H,4,0.957116,1,108.863,2,-171.011,0\C,1,1.5176,2,110.27,3,120.028,0\H,6,1.08986,1,110.512,2,60.2497,0\H,6,1.09107,1,110.615,2,-60.0673,0\H,6,1.09228,1,110.987,2,-179.628,0\\\@

 Total job time:  11.11s(wall), 57.28s(cpu) 
 Mon Jul 27 14:18:08 2020

        *************************************************************
        *                                                           *
        *  Thank you very much for using Q-Chem.  Have a nice day.  *
        *                                                           *
        *************************************************************


