                  Welcome to Q-Chem
     A Quantum Leap Into The Future Of Chemistry


 Q-Chem 5.3 (devel), Q-Chem, Inc., Pleasanton, CA (2020)

 Yihan Shao,  Zhengting Gan,  E. Epifanovsky,  A. T. B. Gilbert,  M. Wormit,  
 J. Kussmann,  A. W. Lange,  A. Behn,  Jia Deng,  Xintian Feng,  D. Ghosh,  
 M. Goldey,  P. R. Horn,  L. D. Jacobson,  I. Kaliman,  T. Kus,  A. Landau,  
 Jie Liu,  E. I. Proynov,  R. M. Richard,  R. P. Steele,  E. J. Sundstrom,  
 H. L. Woodcock III,  P. M. Zimmerman,  D. Zuev,  B. Alam,  B. Albrecht,  
 E. Alguire,  S. A. Baeppler,  D. Barton,  Z. Benda,  Y. A. Bernard,  
 E. J. Berquist,  K. B. Bravaya,  H. Burton,  K. Carter-Fenk,  D. Casanova,  
 Chun-Min Chang,  Yunqing Chen,  A. Chien,  K. D. Closser,  M. P. Coons,  
 S. Coriani,  S. Dasgupta,  A. L. Dempwolff,  M. Diedenhofen,  Hainam Do,  
 R. G. Edgar,  Po-Tung Fang,  S. Faraji,  S. Fatehi,  Qingguo Feng,  
 J. Fosso-Tande,  J. Gayvert,  Qinghui Ge,  A. Ghysels,  G. Gidofalvi,  
 J. Gomes,  J. Gonthier,  A. Gunina,  D. Hait,  M. W. D. Hanson-Heine,  
 P. H. P. Harbach,  A. W. Hauser,  M. F. Herbst,  J. E. Herr,  
 E. G. Hohenstein,  Z. C. Holden,  Kerwin Hui,  B. C. Huynh,  T.-C. Jagau,  
 Hyunjun Ji,  B. Kaduk,  K. Khistyaev,  Jaehoon Kim,  P. Klunzinger,  K. Koh,  
 D. Kosenkov,  L. Koulias,  T. Kowalczyk,  C. M. Krauter,  A. Kunitsa,  
 Ka Un Lao,  A. Laurent,  K. V. Lawler,  Joonho Lee,  D. Lefrancois,  
 S. Lehtola,  D. S. Levine,  Yi-Pei Li,  You-Sheng Lin,  Fenglai Liu,  
 Kuan-Yu Liu,  E. Livshits,  M. Loipersberger,  A. Luenser,  P. Manohar,  
 E. Mansoor,  S. F. Manzer,  Shan-Ping Mao,  Yuezhi Mao,  N. Mardirossian,  
 A. V. Marenich,  T. Markovich,  L. A. Martinez-Martinez,  S. A. Maurer,  
 N. J. Mayhall,  S. C. McKenzie,  J.-M. Mewes,  P. Morgante,  A. F. Morrison,  
 J. W. Mullinax,  K. Nanda,  T. S. Nguyen-Beck,  R. Olivares-Amaya,  
 K. J. Oosterbaan,  J. A. Parkhill,  S. K. Paul,  F. Pavosevic,  Zheng Pei,  
 T. M. Perrine,  F. Plasser,  P. Pokhilko,  S. Prager,  A. Prociuk,  
 E. Ramos,  B. Rana,  D. R. Rehn,  F. Rob,  M. Scheurer,  M. Schneider,  
 N. Sergueev,  S. M. Sharada,  S. Sharma,  D. W. Small,  T. Stauch,  
 C. J. Stein,  T. Stein,  Yu-Chuan Su,  S. P. Veccham,  Zhen Tao,  
 A. J. W. Thom,  A. Tkatchenko,  T. Tsuchimochi,  N. M. Tubman,  L. Vogt,  
 M. L. Vidal,  O. Vydrov,  M. A. Watson,  J. Wenzel,  M. de Wergifosse,  
 T. A. Wesolowski,  A. White,  J. Witte,  A. Yamada,  Jun Yang,  K. Yao,  
 S. Yeganeh,  S. R. Yost,  Zhi-Qiang You,  A. Zech,  Igor Ying Zhang,  
 Xing Zhang,  Yan Zhao,  Ying Zhu,  B. R. Brooks,  G. K. L. Chan,  
 C. J. Cramer,  M. S. Gordon,  W. J. Hehre,  A. Klamt,  M. W. Schmidt,  
 C. D. Sherrill,  D. G. Truhlar,  A. Aspuru-Guzik,  R. Baer,  A. T. Bell,  
 N. A. Besley,  Jeng-Da Chai,  A. E. DePrince, III,  R. A. DiStasio Jr.,  
 A. Dreuw,  B. D. Dunietz,  T. R. Furlani,  Chao-Ping Hsu,  Yousung Jung,  
 Jing Kong,  D. S. Lambrecht,  WanZhen Liang,  C. Ochsenfeld,  
 V. A. Rassolov,  L. V. Slipchenko,  J. E. Subotnik,  T. Van Voorhis,  
 J. M. Herbert,  A. I. Krylov,  P. M. W. Gill,  M. Head-Gordon

 Contributors to earlier versions of Q-Chem not listed above: 
 R. D. Adamson,  B. Austin,  J. Baker,  G. J. O. Beran,  K. Brandhorst,  
 S. T. Brown,  E. F. C. Byrd,  A. K. Chakraborty,  C.-L. Cheng,  
 Siu Hung Chien,  D. M. Chipman,  D. L. Crittenden,  H. Dachsel,  
 R. J. Doerksen,  A. D. Dutoi,  L. Fusti-Molnar,  W. A. Goddard III,  
 A. Golubeva-Zadorozhnaya,  S. R. Gwaltney,  G. Hawkins,  A. Heyden,  
 S. Hirata,  G. Kedziora,  F. J. Keil,  C. Kelley,  Jihan Kim,  R. A. King,  
 R. Z. Khaliullin,  P. P. Korambath,  W. Kurlancheek,  A. M. Lee,  M. S. Lee,  
 S. V. Levchenko,  Ching Yeh Lin,  D. Liotard,  R. C. Lochan,  I. Lotan,  
 P. E. Maslen,  N. Nair,  D. P. O'Neill,  D. Neuhauser,  E. Neuscamman,  
 C. M. Oana,  R. Olson,  B. Peters,  R. Peverati,  P. A. Pieniazek,  
 Y. M. Rhee,  J. Ritchie,  M. A. Rohrdanz,  E. Rosta,  N. J. Russ,  
 H. F. Schaefer III,  N. E. Schultz,  N. Shenvi,  A. C. Simmonett,  A. Sodt,  
 D. Stuck,  K. S. Thanthiriwatte,  V. Vanovschi,  Tao Wang,  A. Warshel,  
 C. F. Williams,  Q. Wu,  X. Xu,  W. Zhang

 Please cite Q-Chem as follows:
 Y. Shao et al., Mol. Phys. 113, 184-215 (2015)
 DOI: 10.1080/00268976.2014.952696

 Q-Chem 5.3.0 for Intel X86 EM64T Linux

 Parts of Q-Chem use Armadillo 9.800.1 (Horizon Scraper).
 http://arma.sourceforge.net/

 Q-Chem begins on Mon Jul 27 14:13:26 2020  

Host: centos77-c7
0

     Scratch files written to /tmp/29924.centos77-h1/qchem101648//
Processing $rem in /opt/qchem-5.3.0-intel2020u1//config/preferences:
Processing $rem in /home/shihchengli/.qchemrc:

Checking the input file for inconsistencies... 	...done.

--------------------------------------------------------------
User input:
--------------------------------------------------------------
$rem
   JOBTYPE  sp
   EXCHANGE   omegaB97X-D
   BASIS   6-311+G(2df,2pd)
   UNRESTRICTED   False
   max_scf_cycles   250
   geom_opt_max_cycles   1500
   basis2 6-31G*
   scf_algorithm rca_diis
   SYM_IGNORE  TRUE
   print_input   true
   geom_opt_dmax   80
   pop_mulliken false
   XC_GRID 000075000302
$end

$molecule
0 1
C       -5.3668909126     0.2866351450     0.1079322621
C       -4.1044168479     1.0899234445     0.3609383258
H       -5.2180876610     -0.7564589248     0.3865166669
H       -5.6445111357     0.3292629213     -0.9463614631
H       -6.2039279502     0.6800367142     0.6890352433
O       -3.1633411924     0.9795289606     -0.6901266116
H       -3.6522037989     0.7952788953     1.3149363051
H       -4.3400329075     2.1516166288     0.4303862753
H       -2.9093975938     0.0613962151     -0.7829470037
$end
--------------------------------------------------------------
 ----------------------------------------------------------------
             Standard Nuclear Orientation (Angstroms)
    I     Atom           X                Y                Z
 ----------------------------------------------------------------
    1      C      -5.3668909126     0.2866351450     0.1079322621
    2      C      -4.1044168479     1.0899234445     0.3609383258
    3      H      -5.2180876610    -0.7564589248     0.3865166669
    4      H      -5.6445111357     0.3292629213    -0.9463614631
    5      H      -6.2039279502     0.6800367142     0.6890352433
    6      O      -3.1633411924     0.9795289606    -0.6901266116
    7      H      -3.6522037989     0.7952788953     1.3149363051
    8      H      -4.3400329075     2.1516166288     0.4303862753
    9      H      -2.9093975938     0.0613962151    -0.7829470037
 ----------------------------------------------------------------
 Nuclear Repulsion Energy =          81.91354655 hartrees
 There are       13 alpha and       13 beta electrons
 Requested basis set is 6-311+G(2df,2pd)
 There are 60 shells and 186 basis functions

 Total QAlloc Memory Limit   2000 MB
 Mega-Array Size       188 MB
 MEM_STATIC part       192 MB

                       Distance Matrix (Angstroms)
             C (  1)   C (  2)   H (  3)   H (  4)   H (  5)   O (  6)
   C (  2)  1.517605
   H (  3)  1.089861  2.156396
   H (  4)  1.091066  2.158594  1.771212
   H (  5)  1.092280  2.164163  1.768309  1.763664
   O (  6)  2.443897  1.415114  2.897378  2.577733  3.352156
   H (  7)  2.157714  1.096095  2.392038  3.049578  2.629891  2.072007
   H (  8)  2.153270  1.089739  3.038060  2.630223  2.388839  2.003482
   H (  9)  2.623675  1.947925  2.714145  2.753053  3.661062  0.957116
             H (  7)   H (  8)
   H (  8)  1.759315
   H (  9)  2.343386  2.808543
 
 A cutoff of  1.0D-09 yielded   1787 shell pairs
 There are     17328 function pairs (     21515 Cartesian)
 Smallest overlap matrix eigenvalue = 1.31E-04

 Scale SEOQF with 1.000000e-02/1.000000e-01/1.000000e-01

 Standard Electronic Orientation quadrupole field applied
 Nucleus-field energy     =     0.0000000024 hartrees
 Requested basis set is 6-31G(d)
 There are 24 shells and 54 basis functions
 A cutoff of  1.0D-09 yielded    298 shell pairs
 There are      1549 function pairs (      1732 Cartesian)
 Smallest overlap matrix eigenvalue = 7.10E-03
 Guess from superposition of atomic densities
 Warning:  Energy on first SCF cycle will be non-variational
 SAD guess density has 26.000000 electrons
 Long-range K will be added via erf
 Coulomb attenuation parameter = 0.2 bohr**(-1)
 A restricted hybrid HF-DFT SCF calculation will be
 performed using Relaxed Constraint Minimization + Pulay DIIS
 Exchange:     0.2220 Hartree-Fock + 1.0000 wB97X-D + LR-HF
 Correlation:  1.0000 wB97X-D
 Using Euler-Maclaurin-Lebedev (75,302) quadrature formula
 Dispersion:   Grimme D
 SCF converges when DIIS error is below 1.0E-04
 using 6 threads for integral computing
 -------------------------------------------------------
 OpenMP Integral computing Module                
 Release: version 1.0, May 2013, Q-Chem Inc. Pittsburgh 
 -------------------------------------------------------
 using 6 threads for integral computing
 -------------------------------------------------------
 OpenMP Integral computing Module                
 Release: version 1.0, May 2013, Q-Chem Inc. Pittsburgh 
 -------------------------------------------------------
 ---------------------------------------
  Cycle       Energy         DIIS Error
 ---------------------------------------
    1    -155.4337284665      1.06E-01
    2    -154.9253763413      1.35E-02
    3    -154.9536113742      3.04E-03
    4    -154.9796382601      2.42E-03
    5    -154.9803678209      2.26E-04 Done RCA. Switching to DIIS
    6    -154.9811859425      1.03E-04
    7    -154.9811892346      7.58E-06 Convergence criterion met
 ---------------------------------------
 SCF time:  CPU 14.26 s  wall 2.39 s
 SCF   energy in the small basis set = -154.98118923
 Total energy in the small basis set = -154.98118923
 ----------------------------------------------------
  Cycle       Energy    
 ----------------------------------------------------
    1     -18.7523950664     -1.88E+01
 Long-range K will be added via erf
 Coulomb attenuation parameter = 0.2 bohr**(-1)
 A restricted hybrid HF-DFT SCF calculation will be
 performed using Relaxed Constraint Minimization + Pulay DIIS
 Exchange:     0.2220 Hartree-Fock + 1.0000 wB97X-D + LR-HF
 Correlation:  1.0000 wB97X-D
 Using Euler-Maclaurin-Lebedev (75,302) quadrature formula
 Dispersion:   Grimme D
 SCF converges when DIIS error is below 1.0E-05
 Basis2 calculation detected. Using small basis as guess for larger.
 SCFMinFind is unable to tell whether the solution found is close.
 Resetting ReadMinima to 0 and attempting to follow guess.
 SCFMinFind following SCF Guess.
 using 6 threads for integral computing
 -------------------------------------------------------
 OpenMP Integral computing Module                
 Release: version 1.0, May 2013, Q-Chem Inc. Pittsburgh 
 -------------------------------------------------------
 using 6 threads for integral computing
 -------------------------------------------------------
 OpenMP Integral computing Module                
 Release: version 1.0, May 2013, Q-Chem Inc. Pittsburgh 
 -------------------------------------------------------
 ---------------------------------------
  Cycle       Energy         DIIS Error
 ---------------------------------------
    1    -155.0125637004      5.72E-03
    2    -155.0280422224      2.86E-03
    3    -155.0376954697      3.48E-04 Done RCA. Switching to DIIS
    4    -155.0492816668      2.51E-04
    5    -155.0494704885      3.93E-05
    6    -155.0494784062      5.67E-06 Convergence criterion met
 ---------------------------------------
 SCF time:  CPU 38.78 s  wall 6.49 s
 SCF   energy in the final basis set = -155.04947841
 Total energy in the final basis set = -155.04947841
 
 --------------------------------------------------------------
 
                    Orbital Energies (a.u.)
 --------------------------------------------------------------
 
 Alpha MOs
 -- Occupied --
-19.2462 -10.3268 -10.2733  -1.1261  -0.8495  -0.7226  -0.5963  -0.5453
 -0.5234  -0.4687  -0.4579  -0.4107  -0.3627
 -- Virtual --
  0.0654   0.0874   0.0890   0.1022   0.1262   0.1342   0.1379   0.1799
  0.1911   0.2117   0.2437   0.2581   0.2623   0.2834   0.2909   0.3049
  0.3142   0.3326   0.3443   0.3909   0.4590   0.4856   0.4995   0.5293
  0.5646   0.5730   0.5823   0.6095   0.6148   0.6350   0.6648   0.6719
  0.6967   0.7143   0.7269   0.7938   0.8755   0.8927   0.9288   0.9514
  1.0162   1.0546   1.0685   1.0952   1.1425   1.1829   1.1924   1.2049
  1.2226   1.2496   1.2698   1.3042   1.3245   1.3591   1.3884   1.4009
  1.4476   1.4657   1.4756   1.4880   1.5073   1.5306   1.5924   1.6175
  1.6553   1.6935   1.9437   2.0368   2.0937   2.2517   2.2824   2.4273
  2.4552   2.5517   2.5691   2.5938   2.6827   2.8335   2.8445   2.8894
  2.9185   2.9678   3.0008   3.0169   3.0558   3.0704   3.0720   3.0942
  3.1096   3.1798   3.2025   3.2392   3.2632   3.2937   3.3232   3.3520
  3.3554   3.3974   3.4202   3.4589   3.5031   3.5655   3.5706   3.5813
  3.6011   3.6243   3.6527   3.7036   3.7244   3.7475   3.7869   3.8523
  3.9008   3.9030   3.9279   3.9591   3.9928   4.0381   4.0501   4.0718
  4.1054   4.1203   4.1361   4.1823   4.2212   4.2531   4.2724   4.3181
  4.3385   4.3935   4.4897   4.5248   4.5355   4.6064   4.7139   4.7940
  4.8759   4.9387   4.9573   4.9747   4.9895   5.0735   5.1000   5.1885
  5.1996   5.2593   5.2846   5.3027   5.3408   5.3580   5.4203   5.4757
  5.5227   5.5783   5.6838   5.8293   5.9411   6.0368   6.3446   6.3732
  6.4268   6.6561   6.7090   6.8241   7.1249   7.3495   7.4123   7.5511
  7.7223   8.1116  25.1449  25.4298  50.4655
 --------------------------------------------------------------
 
 -----------------------------------------------------------------
                    Cartesian Multipole Moments
 -----------------------------------------------------------------
    Charge (ESU x 10^10)
                 0.0000
    Dipole Moment (Debye)
         X      -0.7293      Y      -1.2813      Z       0.9378
       Tot       1.7473
    Quadrupole Moments (Debye-Ang)
        XX     -14.5920     XY       2.1525     YY     -20.7809
        XZ      -3.3819     YZ       2.2625     ZZ     -20.7566
    Octopole Moments (Debye-Ang^2)
       XXX     227.6683    XXY     -13.6485    XYY      86.1316
       YYY     -43.8909    XXZ      12.7148    XYZ      -7.3046
       YYZ       3.2196    XZZ      88.8192    YZZ     -16.7911
       ZZZ       2.3107
    Hexadecapole Moments (Debye-Ang^3)
      XXXX   -2205.6837   XXXY     133.4989   XXYY    -404.5932
      XYYY     168.4090   YYYY    -113.6631   XXXZ     -37.8334
      XXYZ      25.2764   XYYZ      -6.7184   YYYZ       3.8729
      XXZZ    -411.4630   XYZZ      63.9720   YYZZ     -32.4369
      XZZZ       6.5968   YZZZ       2.9652   ZZZZ     -60.0327
 -----------------------------------------------------------------
Archival summary:
1\1\centos77-c7\SP\ProcedureUnspecified\BasisUnspecified\126\shihchen\MonJul2714:13:372020MonJul2714:13:372020\0\\#,ProcedureUnspecified,BasisUnspecified,\\0,1\C\H,1,1.08974\H,1,1.09609,2,107.195\O,1,1.41511,2,105.493,3,-117.852,0\H,4,0.957116,1,108.863,2,178.989,0\C,1,1.5176,2,110.27,3,120.028,0\H,6,1.08986,1,110.512,2,-159.75,0\H,6,1.09107,1,110.615,2,79.9327,0\H,6,1.09228,1,110.987,2,-39.6279,0\\\@

 Total job time:  11.12s(wall), 57.17s(cpu) 
 Mon Jul 27 14:13:37 2020

        *************************************************************
        *                                                           *
        *  Thank you very much for using Q-Chem.  Have a nice day.  *
        *                                                           *
        *************************************************************


