                  Welcome to Q-Chem
     A Quantum Leap Into The Future Of Chemistry


 Q-Chem 5.3 (devel), Q-Chem, Inc., Pleasanton, CA (2020)

 Yihan Shao,  Zhengting Gan,  E. Epifanovsky,  A. T. B. Gilbert,  M. Wormit,  
 J. Kussmann,  A. W. Lange,  A. Behn,  Jia Deng,  Xintian Feng,  D. Ghosh,  
 M. Goldey,  P. R. Horn,  L. D. Jacobson,  I. Kaliman,  T. Kus,  A. Landau,  
 Jie Liu,  E. I. Proynov,  R. M. Richard,  R. P. Steele,  E. J. Sundstrom,  
 H. L. Woodcock III,  P. M. Zimmerman,  D. Zuev,  B. Alam,  B. Albrecht,  
 E. Alguire,  S. A. Baeppler,  D. Barton,  Z. Benda,  Y. A. Bernard,  
 E. J. Berquist,  K. B. Bravaya,  H. Burton,  K. Carter-Fenk,  D. Casanova,  
 Chun-Min Chang,  Yunqing Chen,  A. Chien,  K. D. Closser,  M. P. Coons,  
 S. Coriani,  S. Dasgupta,  A. L. Dempwolff,  M. Diedenhofen,  Hainam Do,  
 R. G. Edgar,  Po-Tung Fang,  S. Faraji,  S. Fatehi,  Qingguo Feng,  
 J. Fosso-Tande,  J. Gayvert,  Qinghui Ge,  A. Ghysels,  G. Gidofalvi,  
 J. Gomes,  J. Gonthier,  A. Gunina,  D. Hait,  M. W. D. Hanson-Heine,  
 P. H. P. Harbach,  A. W. Hauser,  M. F. Herbst,  J. E. Herr,  
 E. G. Hohenstein,  Z. C. Holden,  Kerwin Hui,  B. C. Huynh,  T.-C. Jagau,  
 Hyunjun Ji,  B. Kaduk,  K. Khistyaev,  Jaehoon Kim,  P. Klunzinger,  K. Koh,  
 D. Kosenkov,  L. Koulias,  T. Kowalczyk,  C. M. Krauter,  A. Kunitsa,  
 Ka Un Lao,  A. Laurent,  K. V. Lawler,  Joonho Lee,  D. Lefrancois,  
 S. Lehtola,  D. S. Levine,  Yi-Pei Li,  You-Sheng Lin,  Fenglai Liu,  
 Kuan-Yu Liu,  E. Livshits,  M. Loipersberger,  A. Luenser,  P. Manohar,  
 E. Mansoor,  S. F. Manzer,  Shan-Ping Mao,  Yuezhi Mao,  N. Mardirossian,  
 A. V. Marenich,  T. Markovich,  L. A. Martinez-Martinez,  S. A. Maurer,  
 N. J. Mayhall,  S. C. McKenzie,  J.-M. Mewes,  P. Morgante,  A. F. Morrison,  
 J. W. Mullinax,  K. Nanda,  T. S. Nguyen-Beck,  R. Olivares-Amaya,  
 K. J. Oosterbaan,  J. A. Parkhill,  S. K. Paul,  F. Pavosevic,  Zheng Pei,  
 T. M. Perrine,  F. Plasser,  P. Pokhilko,  S. Prager,  A. Prociuk,  
 E. Ramos,  B. Rana,  D. R. Rehn,  F. Rob,  M. Scheurer,  M. Schneider,  
 N. Sergueev,  S. M. Sharada,  S. Sharma,  D. W. Small,  T. Stauch,  
 C. J. Stein,  T. Stein,  Yu-Chuan Su,  S. P. Veccham,  Zhen Tao,  
 A. J. W. Thom,  A. Tkatchenko,  T. Tsuchimochi,  N. M. Tubman,  L. Vogt,  
 M. L. Vidal,  O. Vydrov,  M. A. Watson,  J. Wenzel,  M. de Wergifosse,  
 T. A. Wesolowski,  A. White,  J. Witte,  A. Yamada,  Jun Yang,  K. Yao,  
 S. Yeganeh,  S. R. Yost,  Zhi-Qiang You,  A. Zech,  Igor Ying Zhang,  
 Xing Zhang,  Yan Zhao,  Ying Zhu,  B. R. Brooks,  G. K. L. Chan,  
 C. J. Cramer,  M. S. Gordon,  W. J. Hehre,  A. Klamt,  M. W. Schmidt,  
 C. D. Sherrill,  D. G. Truhlar,  A. Aspuru-Guzik,  R. Baer,  A. T. Bell,  
 N. A. Besley,  Jeng-Da Chai,  A. E. DePrince, III,  R. A. DiStasio Jr.,  
 A. Dreuw,  B. D. Dunietz,  T. R. Furlani,  Chao-Ping Hsu,  Yousung Jung,  
 Jing Kong,  D. S. Lambrecht,  WanZhen Liang,  C. Ochsenfeld,  
 V. A. Rassolov,  L. V. Slipchenko,  J. E. Subotnik,  T. Van Voorhis,  
 J. M. Herbert,  A. I. Krylov,  P. M. W. Gill,  M. Head-Gordon

 Contributors to earlier versions of Q-Chem not listed above: 
 R. D. Adamson,  B. Austin,  J. Baker,  G. J. O. Beran,  K. Brandhorst,  
 S. T. Brown,  E. F. C. Byrd,  A. K. Chakraborty,  C.-L. Cheng,  
 Siu Hung Chien,  D. M. Chipman,  D. L. Crittenden,  H. Dachsel,  
 R. J. Doerksen,  A. D. Dutoi,  L. Fusti-Molnar,  W. A. Goddard III,  
 A. Golubeva-Zadorozhnaya,  S. R. Gwaltney,  G. Hawkins,  A. Heyden,  
 S. Hirata,  G. Kedziora,  F. J. Keil,  C. Kelley,  Jihan Kim,  R. A. King,  
 R. Z. Khaliullin,  P. P. Korambath,  W. Kurlancheek,  A. M. Lee,  M. S. Lee,  
 S. V. Levchenko,  Ching Yeh Lin,  D. Liotard,  R. C. Lochan,  I. Lotan,  
 P. E. Maslen,  N. Nair,  D. P. O'Neill,  D. Neuhauser,  E. Neuscamman,  
 C. M. Oana,  R. Olson,  B. Peters,  R. Peverati,  P. A. Pieniazek,  
 Y. M. Rhee,  J. Ritchie,  M. A. Rohrdanz,  E. Rosta,  N. J. Russ,  
 H. F. Schaefer III,  N. E. Schultz,  N. Shenvi,  A. C. Simmonett,  A. Sodt,  
 D. Stuck,  K. S. Thanthiriwatte,  V. Vanovschi,  Tao Wang,  A. Warshel,  
 C. F. Williams,  Q. Wu,  X. Xu,  W. Zhang

 Please cite Q-Chem as follows:
 Y. Shao et al., Mol. Phys. 113, 184-215 (2015)
 DOI: 10.1080/00268976.2014.952696

 Q-Chem 5.3.0 for Intel X86 EM64T Linux

 Parts of Q-Chem use Armadillo 9.800.1 (Horizon Scraper).
 http://arma.sourceforge.net/

 Q-Chem begins on Mon Jul 27 14:11:56 2020  

Host: centos77-c7
0

     Scratch files written to /tmp/29924.centos77-h1/qchem101284//
Processing $rem in /opt/qchem-5.3.0-intel2020u1//config/preferences:
Processing $rem in /home/shihchengli/.qchemrc:

Checking the input file for inconsistencies... 	...done.

--------------------------------------------------------------
User input:
--------------------------------------------------------------
$rem
   JOBTYPE  sp
   EXCHANGE   omegaB97X-D
   BASIS   6-311+G(2df,2pd)
   UNRESTRICTED   False
   max_scf_cycles   250
   geom_opt_max_cycles   1500
   basis2 6-31G*
   scf_algorithm rca_diis
   SYM_IGNORE  TRUE
   print_input   true
   geom_opt_dmax   80
   pop_mulliken false
   XC_GRID 000075000302
$end

$molecule
0 1
C       -5.3738615610     0.3061293429     0.0685179594
C       -4.1314905760     1.1619542848     0.2334510633
H       -5.1569073810     -0.5676428258     -0.5456888445
H       -6.1729054218     0.8765955124     -0.4074259790
H       -5.7423906746     -0.0392524911     1.0370086164
O       -3.0203482232     0.6614637185     -0.4858678500
H       -3.8846243605     1.2714167978     1.2957595055
H       -4.3070922819     2.1624121933     -0.1612366323
H       -2.8131895198     -0.2158565329     -0.1642078386
$end
--------------------------------------------------------------
 ----------------------------------------------------------------
             Standard Nuclear Orientation (Angstroms)
    I     Atom           X                Y                Z
 ----------------------------------------------------------------
    1      C      -5.3738615610     0.3061293429     0.0685179594
    2      C      -4.1314905760     1.1619542848     0.2334510633
    3      H      -5.1569073810    -0.5676428258    -0.5456888445
    4      H      -6.1729054218     0.8765955124    -0.4074259790
    5      H      -5.7423906746    -0.0392524911     1.0370086164
    6      O      -3.0203482232     0.6614637185    -0.4858678500
    7      H      -3.8846243605     1.2714167978     1.2957595055
    8      H      -4.3070922819     2.1624121933    -0.1612366323
    9      H      -2.8131895198    -0.2158565329    -0.1642078386
 ----------------------------------------------------------------
 Nuclear Repulsion Energy =          81.93654908 hartrees
 There are       13 alpha and       13 beta electrons
 Requested basis set is 6-311+G(2df,2pd)
 There are 60 shells and 186 basis functions

 Total QAlloc Memory Limit   2000 MB
 Mega-Array Size       188 MB
 MEM_STATIC part       192 MB

                       Distance Matrix (Angstroms)
             C (  1)   C (  2)   H (  3)   H (  4)   H (  5)   O (  6)
   C (  2)  1.517605
   H (  3)  1.089861  2.156396
   H (  4)  1.091066  2.158594  1.771212
   H (  5)  1.092280  2.164163  1.768309  1.763664
   O (  6)  2.443897  1.415114  2.465597  3.160862  3.196822
   H (  7)  2.157714  1.096095  2.896856  2.879749  2.288253  2.072007
   H (  8)  2.153270  1.089739  2.884994  2.279296  2.888460  2.003482
   H (  9)  2.623675  1.947925  2.400478  3.541228  3.170856  0.957116
             H (  7)   H (  8)
   H (  8)  1.759315
   H (  9)  2.343386  2.808543
 
 A cutoff of  1.0D-09 yielded   1788 shell pairs
 There are     17320 function pairs (     21505 Cartesian)
 Smallest overlap matrix eigenvalue = 1.10E-04

 Scale SEOQF with 1.000000e-02/1.000000e-01/1.000000e-01

 Standard Electronic Orientation quadrupole field applied
 Nucleus-field energy     =     0.0000000026 hartrees
 Requested basis set is 6-31G(d)
 There are 24 shells and 54 basis functions
 A cutoff of  1.0D-09 yielded    297 shell pairs
 There are      1548 function pairs (      1731 Cartesian)
 Smallest overlap matrix eigenvalue = 6.79E-03
 Guess from superposition of atomic densities
 Warning:  Energy on first SCF cycle will be non-variational
 SAD guess density has 26.000000 electrons
 Long-range K will be added via erf
 Coulomb attenuation parameter = 0.2 bohr**(-1)
 A restricted hybrid HF-DFT SCF calculation will be
 performed using Relaxed Constraint Minimization + Pulay DIIS
 Exchange:     0.2220 Hartree-Fock + 1.0000 wB97X-D + LR-HF
 Correlation:  1.0000 wB97X-D
 Using Euler-Maclaurin-Lebedev (75,302) quadrature formula
 Dispersion:   Grimme D
 SCF converges when DIIS error is below 1.0E-04
 using 6 threads for integral computing
 -------------------------------------------------------
 OpenMP Integral computing Module                
 Release: version 1.0, May 2013, Q-Chem Inc. Pittsburgh 
 -------------------------------------------------------
 using 6 threads for integral computing
 -------------------------------------------------------
 OpenMP Integral computing Module                
 Release: version 1.0, May 2013, Q-Chem Inc. Pittsburgh 
 -------------------------------------------------------
 ---------------------------------------
  Cycle       Energy         DIIS Error
 ---------------------------------------
    1    -155.4372638855      1.06E-01
    2    -154.9201012511      1.36E-02
    3    -154.9486221031      3.04E-03
    4    -154.9748309471      2.42E-03
    5    -154.9755607618      2.24E-04 Done RCA. Switching to DIIS
    6    -154.9763771266      1.00E-04
    7    -154.9763802520      7.89E-06 Convergence criterion met
 ---------------------------------------
 SCF time:  CPU 14.28 s  wall 2.39 s
 SCF   energy in the small basis set = -154.97638025
 Total energy in the small basis set = -154.97638025
 ----------------------------------------------------
  Cycle       Energy    
 ----------------------------------------------------
    1     -18.7560929898     -1.88E+01
 Long-range K will be added via erf
 Coulomb attenuation parameter = 0.2 bohr**(-1)
 A restricted hybrid HF-DFT SCF calculation will be
 performed using Relaxed Constraint Minimization + Pulay DIIS
 Exchange:     0.2220 Hartree-Fock + 1.0000 wB97X-D + LR-HF
 Correlation:  1.0000 wB97X-D
 Using Euler-Maclaurin-Lebedev (75,302) quadrature formula
 Dispersion:   Grimme D
 SCF converges when DIIS error is below 1.0E-05
 Basis2 calculation detected. Using small basis as guess for larger.
 SCFMinFind is unable to tell whether the solution found is close.
 Resetting ReadMinima to 0 and attempting to follow guess.
 SCFMinFind following SCF Guess.
 using 6 threads for integral computing
 -------------------------------------------------------
 OpenMP Integral computing Module                
 Release: version 1.0, May 2013, Q-Chem Inc. Pittsburgh 
 -------------------------------------------------------
 using 6 threads for integral computing
 -------------------------------------------------------
 OpenMP Integral computing Module                
 Release: version 1.0, May 2013, Q-Chem Inc. Pittsburgh 
 -------------------------------------------------------
 ---------------------------------------
  Cycle       Energy         DIIS Error
 ---------------------------------------
    1    -155.0081099502      5.72E-03
    2    -155.0235094262      2.87E-03
    3    -155.0332694739      3.48E-04 Done RCA. Switching to DIIS
    4    -155.0449751865      2.52E-04
    5    -155.0451650375      3.95E-05
    6    -155.0451730701      5.66E-06 Convergence criterion met
 ---------------------------------------
 SCF time:  CPU 39.12 s  wall 6.54 s
 SCF   energy in the final basis set = -155.04517307
 Total energy in the final basis set = -155.04517307
 
 --------------------------------------------------------------
 
                    Orbital Energies (a.u.)
 --------------------------------------------------------------
 
 Alpha MOs
 -- Occupied --
-19.2454 -10.3259 -10.2723  -1.1257  -0.8493  -0.7225  -0.5952  -0.5452
 -0.5245  -0.4697  -0.4575  -0.4079  -0.3613
 -- Virtual --
  0.0666   0.0875   0.0897   0.1032   0.1272   0.1327   0.1385   0.1740
  0.1864   0.1990   0.2401   0.2563   0.2788   0.2926   0.2989   0.3117
  0.3159   0.3367   0.3465   0.4025   0.4603   0.4846   0.4997   0.5102
  0.5496   0.5741   0.5882   0.6068   0.6193   0.6312   0.6521   0.6547
  0.6860   0.7158   0.7683   0.7922   0.8749   0.9217   0.9556   0.9954
  1.0316   1.0462   1.0660   1.0865   1.1415   1.1780   1.1939   1.1992
  1.2146   1.2495   1.2845   1.3245   1.3287   1.3671   1.3798   1.3813
  1.4383   1.4401   1.4651   1.4794   1.5111   1.5290   1.5917   1.6088
  1.6508   1.6916   1.9557   2.0406   2.0681   2.2183   2.2839   2.3897
  2.4126   2.5799   2.6346   2.6705   2.7396   2.7723   2.8200   2.8815
  2.9146   2.9688   3.0045   3.0108   3.0395   3.0695   3.0936   3.1152
  3.1589   3.1644   3.2092   3.2101   3.2315   3.2792   3.2801   3.3122
  3.3580   3.4450   3.4857   3.4991   3.5179   3.5420   3.5656   3.5933
  3.6251   3.6435   3.6671   3.6858   3.7015   3.7345   3.7498   3.7862
  3.8723   3.8770   3.9241   3.9483   3.9735   4.0038   4.0644   4.0743
  4.0931   4.1176   4.1558   4.1911   4.1973   4.2186   4.2821   4.3305
  4.3797   4.4003   4.4661   4.5482   4.5863   4.6092   4.7043   4.7678
  4.8573   4.8809   4.9523   4.9862   5.0296   5.0474   5.1173   5.1640
  5.2345   5.2474   5.2708   5.3092   5.3355   5.3637   5.4320   5.4660
  5.5271   5.5722   5.6773   5.8775   5.9489   6.0525   6.3104   6.3641
  6.4481   6.6544   6.7037   6.8211   7.1230   7.3463   7.4187   7.5522
  7.7312   8.1080  25.0905  25.4543  50.4678
 --------------------------------------------------------------
 
 -----------------------------------------------------------------
                    Cartesian Multipole Moments
 -----------------------------------------------------------------
    Charge (ESU x 10^10)
                 0.0000
    Dipole Moment (Debye)
         X      -0.9709      Y      -0.8441      Z       1.2009
       Tot       1.7599
    Quadrupole Moments (Debye-Ang)
        XX     -13.3295     XY       0.4863     YY     -19.1668
        XZ      -3.4491     YZ       0.7833     ZZ     -20.9159
    Octopole Moments (Debye-Ang^2)
       XXX     222.4969    XXY      -6.8873    XYY      80.5419
       YYY     -38.8760    XXZ       9.6301    XYZ      -1.5855
       YYZ      -0.1969    XZZ      88.0473    YZZ     -14.3560
       ZZZ       3.1942
    Hexadecapole Moments (Debye-Ang^3)
      XXXX   -2194.8786   XXXY     108.1145   XXYY    -384.1805
      XYYY     154.6099   YYYY    -105.4853   XXXZ     -14.1619
      XXYZ      -0.2599   XYYZ       6.0602   YYYZ      -3.8285
      XXZZ    -404.3600   XYZZ      57.5348   YYZZ     -26.2513
      XZZZ      -1.7097   YZZZ      -0.9267   ZZZZ     -45.5750
 -----------------------------------------------------------------
Archival summary:
1\1\centos77-c7\SP\ProcedureUnspecified\BasisUnspecified\126\shihchen\MonJul2714:12:072020MonJul2714:12:072020\0\\#,ProcedureUnspecified,BasisUnspecified,\\0,1\C\H,1,1.08974\H,1,1.09609,2,107.195\O,1,1.41511,2,105.493,3,-117.852,0\H,4,0.957116,1,108.863,2,178.989,0\C,1,1.5176,2,110.27,3,120.028,0\H,6,1.08986,1,110.512,2,120.25,0\H,6,1.09107,1,110.615,2,-0.0673229,0\H,6,1.09228,1,110.987,2,-119.628,0\\\@

 Total job time:  11.09s(wall), 57.32s(cpu) 
 Mon Jul 27 14:12:07 2020

        *************************************************************
        *                                                           *
        *  Thank you very much for using Q-Chem.  Have a nice day.  *
        *                                                           *
        *************************************************************


