                  Welcome to Q-Chem
     A Quantum Leap Into The Future Of Chemistry


 Q-Chem 5.3 (devel), Q-Chem, Inc., Pleasanton, CA (2020)

 Yihan Shao,  Zhengting Gan,  E. Epifanovsky,  A. T. B. Gilbert,  M. Wormit,  
 J. Kussmann,  A. W. Lange,  A. Behn,  Jia Deng,  Xintian Feng,  D. Ghosh,  
 M. Goldey,  P. R. Horn,  L. D. Jacobson,  I. Kaliman,  T. Kus,  A. Landau,  
 Jie Liu,  E. I. Proynov,  R. M. Richard,  R. P. Steele,  E. J. Sundstrom,  
 H. L. Woodcock III,  P. M. Zimmerman,  D. Zuev,  B. Alam,  B. Albrecht,  
 E. Alguire,  S. A. Baeppler,  D. Barton,  Z. Benda,  Y. A. Bernard,  
 E. J. Berquist,  K. B. Bravaya,  H. Burton,  K. Carter-Fenk,  D. Casanova,  
 Chun-Min Chang,  Yunqing Chen,  A. Chien,  K. D. Closser,  M. P. Coons,  
 S. Coriani,  S. Dasgupta,  A. L. Dempwolff,  M. Diedenhofen,  Hainam Do,  
 R. G. Edgar,  Po-Tung Fang,  S. Faraji,  S. Fatehi,  Qingguo Feng,  
 J. Fosso-Tande,  J. Gayvert,  Qinghui Ge,  A. Ghysels,  G. Gidofalvi,  
 J. Gomes,  J. Gonthier,  A. Gunina,  D. Hait,  M. W. D. Hanson-Heine,  
 P. H. P. Harbach,  A. W. Hauser,  M. F. Herbst,  J. E. Herr,  
 E. G. Hohenstein,  Z. C. Holden,  Kerwin Hui,  B. C. Huynh,  T.-C. Jagau,  
 Hyunjun Ji,  B. Kaduk,  K. Khistyaev,  Jaehoon Kim,  P. Klunzinger,  K. Koh,  
 D. Kosenkov,  L. Koulias,  T. Kowalczyk,  C. M. Krauter,  A. Kunitsa,  
 Ka Un Lao,  A. Laurent,  K. V. Lawler,  Joonho Lee,  D. Lefrancois,  
 S. Lehtola,  D. S. Levine,  Yi-Pei Li,  You-Sheng Lin,  Fenglai Liu,  
 Kuan-Yu Liu,  E. Livshits,  M. Loipersberger,  A. Luenser,  P. Manohar,  
 E. Mansoor,  S. F. Manzer,  Shan-Ping Mao,  Yuezhi Mao,  N. Mardirossian,  
 A. V. Marenich,  T. Markovich,  L. A. Martinez-Martinez,  S. A. Maurer,  
 N. J. Mayhall,  S. C. McKenzie,  J.-M. Mewes,  P. Morgante,  A. F. Morrison,  
 J. W. Mullinax,  K. Nanda,  T. S. Nguyen-Beck,  R. Olivares-Amaya,  
 K. J. Oosterbaan,  J. A. Parkhill,  S. K. Paul,  F. Pavosevic,  Zheng Pei,  
 T. M. Perrine,  F. Plasser,  P. Pokhilko,  S. Prager,  A. Prociuk,  
 E. Ramos,  B. Rana,  D. R. Rehn,  F. Rob,  M. Scheurer,  M. Schneider,  
 N. Sergueev,  S. M. Sharada,  S. Sharma,  D. W. Small,  T. Stauch,  
 C. J. Stein,  T. Stein,  Yu-Chuan Su,  S. P. Veccham,  Zhen Tao,  
 A. J. W. Thom,  A. Tkatchenko,  T. Tsuchimochi,  N. M. Tubman,  L. Vogt,  
 M. L. Vidal,  O. Vydrov,  M. A. Watson,  J. Wenzel,  M. de Wergifosse,  
 T. A. Wesolowski,  A. White,  J. Witte,  A. Yamada,  Jun Yang,  K. Yao,  
 S. Yeganeh,  S. R. Yost,  Zhi-Qiang You,  A. Zech,  Igor Ying Zhang,  
 Xing Zhang,  Yan Zhao,  Ying Zhu,  B. R. Brooks,  G. K. L. Chan,  
 C. J. Cramer,  M. S. Gordon,  W. J. Hehre,  A. Klamt,  M. W. Schmidt,  
 C. D. Sherrill,  D. G. Truhlar,  A. Aspuru-Guzik,  R. Baer,  A. T. Bell,  
 N. A. Besley,  Jeng-Da Chai,  A. E. DePrince, III,  R. A. DiStasio Jr.,  
 A. Dreuw,  B. D. Dunietz,  T. R. Furlani,  Chao-Ping Hsu,  Yousung Jung,  
 Jing Kong,  D. S. Lambrecht,  WanZhen Liang,  C. Ochsenfeld,  
 V. A. Rassolov,  L. V. Slipchenko,  J. E. Subotnik,  T. Van Voorhis,  
 J. M. Herbert,  A. I. Krylov,  P. M. W. Gill,  M. Head-Gordon

 Contributors to earlier versions of Q-Chem not listed above: 
 R. D. Adamson,  B. Austin,  J. Baker,  G. J. O. Beran,  K. Brandhorst,  
 S. T. Brown,  E. F. C. Byrd,  A. K. Chakraborty,  C.-L. Cheng,  
 Siu Hung Chien,  D. M. Chipman,  D. L. Crittenden,  H. Dachsel,  
 R. J. Doerksen,  A. D. Dutoi,  L. Fusti-Molnar,  W. A. Goddard III,  
 A. Golubeva-Zadorozhnaya,  S. R. Gwaltney,  G. Hawkins,  A. Heyden,  
 S. Hirata,  G. Kedziora,  F. J. Keil,  C. Kelley,  Jihan Kim,  R. A. King,  
 R. Z. Khaliullin,  P. P. Korambath,  W. Kurlancheek,  A. M. Lee,  M. S. Lee,  
 S. V. Levchenko,  Ching Yeh Lin,  D. Liotard,  R. C. Lochan,  I. Lotan,  
 P. E. Maslen,  N. Nair,  D. P. O'Neill,  D. Neuhauser,  E. Neuscamman,  
 C. M. Oana,  R. Olson,  B. Peters,  R. Peverati,  P. A. Pieniazek,  
 Y. M. Rhee,  J. Ritchie,  M. A. Rohrdanz,  E. Rosta,  N. J. Russ,  
 H. F. Schaefer III,  N. E. Schultz,  N. Shenvi,  A. C. Simmonett,  A. Sodt,  
 D. Stuck,  K. S. Thanthiriwatte,  V. Vanovschi,  Tao Wang,  A. Warshel,  
 C. F. Williams,  Q. Wu,  X. Xu,  W. Zhang

 Please cite Q-Chem as follows:
 Y. Shao et al., Mol. Phys. 113, 184-215 (2015)
 DOI: 10.1080/00268976.2014.952696

 Q-Chem 5.3.0 for Intel X86 EM64T Linux

 Parts of Q-Chem use Armadillo 9.800.1 (Horizon Scraper).
 http://arma.sourceforge.net/

 Q-Chem begins on Mon Jul 27 14:14:45 2020  

Host: centos77-c7
0

     Scratch files written to /tmp/29924.centos77-h1/qchem101972//
Processing $rem in /opt/qchem-5.3.0-intel2020u1//config/preferences:
Processing $rem in /home/shihchengli/.qchemrc:

Checking the input file for inconsistencies... 	...done.

--------------------------------------------------------------
User input:
--------------------------------------------------------------
$rem
   JOBTYPE  sp
   EXCHANGE   omegaB97X-D
   BASIS   6-311+G(2df,2pd)
   UNRESTRICTED   False
   max_scf_cycles   250
   geom_opt_max_cycles   1500
   basis2 6-31G*
   scf_algorithm rca_diis
   SYM_IGNORE  TRUE
   print_input   true
   geom_opt_dmax   80
   pop_mulliken false
   XC_GRID 000075000302
$end

$molecule
0 1
C       -5.3554100484     0.2598978045     0.1323616443
C       -4.0610735482     0.9920429960     0.4353160423
H       -5.6484752327     -0.3631678363     0.9771686767
H       -5.2401328677     -0.3765993096     -0.7462781965
H       -6.1651147948     0.9643855367     -0.0704972483
O       -3.3166123471     1.2961595218     -0.7290887382
H       -3.4536069297     0.4126580876     1.1401008547
H       -4.2716485711     1.9524173222     0.9052837819
H       -3.0907356603     0.4794258772     -1.1740568167
$end
--------------------------------------------------------------
 ----------------------------------------------------------------
             Standard Nuclear Orientation (Angstroms)
    I     Atom           X                Y                Z
 ----------------------------------------------------------------
    1      C      -5.3554100484     0.2598978045     0.1323616443
    2      C      -4.0610735482     0.9920429960     0.4353160423
    3      H      -5.6484752327    -0.3631678363     0.9771686767
    4      H      -5.2401328677    -0.3765993096    -0.7462781965
    5      H      -6.1651147948     0.9643855367    -0.0704972483
    6      O      -3.3166123471     1.2961595218    -0.7290887382
    7      H      -3.4536069297     0.4126580876     1.1401008547
    8      H      -4.2716485711     1.9524173222     0.9052837819
    9      H      -3.0907356603     0.4794258772    -1.1740568167
 ----------------------------------------------------------------
 Nuclear Repulsion Energy =          81.92543914 hartrees
 There are       13 alpha and       13 beta electrons
 Requested basis set is 6-311+G(2df,2pd)
 There are 60 shells and 186 basis functions

 Total QAlloc Memory Limit   2000 MB
 Mega-Array Size       188 MB
 MEM_STATIC part       192 MB

                       Distance Matrix (Angstroms)
             C (  1)   C (  2)   H (  3)   H (  4)   H (  5)   O (  6)
   C (  2)  1.517605
   H (  3)  1.089861  2.156396
   H (  4)  1.091066  2.158594  1.771212
   H (  5)  1.092280  2.164163  1.768309  1.763664
   O (  6)  2.443897  1.415114  3.332006  2.549186  2.942411
   H (  7)  2.157714  1.096095  2.333645  2.715332  3.020302  2.072007
   H (  8)  2.153270  1.089739  2.694950  3.014952  2.348099  2.003482
   H (  9)  2.623675  1.947925  3.446704  2.352803  3.302247  0.957116
             H (  7)   H (  8)
   H (  8)  1.759315
   H (  9)  2.343386  2.808543
 
 A cutoff of  1.0D-09 yielded   1780 shell pairs
 There are     17289 function pairs (     21475 Cartesian)
 Smallest overlap matrix eigenvalue = 1.21E-04

 Scale SEOQF with 1.000000e-02/1.000000e-01/1.000000e-01

 Standard Electronic Orientation quadrupole field applied
 Nucleus-field energy     =     0.0000000024 hartrees
 Requested basis set is 6-31G(d)
 There are 24 shells and 54 basis functions
 A cutoff of  1.0D-09 yielded    298 shell pairs
 There are      1549 function pairs (      1732 Cartesian)
 Smallest overlap matrix eigenvalue = 6.97E-03
 Guess from superposition of atomic densities
 Warning:  Energy on first SCF cycle will be non-variational
 SAD guess density has 26.000000 electrons
 Long-range K will be added via erf
 Coulomb attenuation parameter = 0.2 bohr**(-1)
 A restricted hybrid HF-DFT SCF calculation will be
 performed using Relaxed Constraint Minimization + Pulay DIIS
 Exchange:     0.2220 Hartree-Fock + 1.0000 wB97X-D + LR-HF
 Correlation:  1.0000 wB97X-D
 Using Euler-Maclaurin-Lebedev (75,302) quadrature formula
 Dispersion:   Grimme D
 SCF converges when DIIS error is below 1.0E-04
 using 6 threads for integral computing
 -------------------------------------------------------
 OpenMP Integral computing Module                
 Release: version 1.0, May 2013, Q-Chem Inc. Pittsburgh 
 -------------------------------------------------------
 using 6 threads for integral computing
 -------------------------------------------------------
 OpenMP Integral computing Module                
 Release: version 1.0, May 2013, Q-Chem Inc. Pittsburgh 
 -------------------------------------------------------
 ---------------------------------------
  Cycle       Energy         DIIS Error
 ---------------------------------------
    1    -155.4360878880      1.06E-01
    2    -154.9232014144      1.36E-02
    3    -154.9516573068      3.04E-03
    4    -154.9778943043      2.41E-03
    5    -154.9786194920      2.25E-04 Done RCA. Switching to DIIS
    6    -154.9794314452      1.00E-04
    7    -154.9794345718      7.64E-06 Convergence criterion met
 ---------------------------------------
 SCF time:  CPU 14.27 s  wall 2.40 s
 SCF   energy in the small basis set = -154.97943457
 Total energy in the small basis set = -154.97943457
 ----------------------------------------------------
  Cycle       Energy    
 ----------------------------------------------------
    1     -18.7535299031     -1.88E+01
 Long-range K will be added via erf
 Coulomb attenuation parameter = 0.2 bohr**(-1)
 A restricted hybrid HF-DFT SCF calculation will be
 performed using Relaxed Constraint Minimization + Pulay DIIS
 Exchange:     0.2220 Hartree-Fock + 1.0000 wB97X-D + LR-HF
 Correlation:  1.0000 wB97X-D
 Using Euler-Maclaurin-Lebedev (75,302) quadrature formula
 Dispersion:   Grimme D
 SCF converges when DIIS error is below 1.0E-05
 Basis2 calculation detected. Using small basis as guess for larger.
 SCFMinFind is unable to tell whether the solution found is close.
 Resetting ReadMinima to 0 and attempting to follow guess.
 SCFMinFind following SCF Guess.
 using 6 threads for integral computing
 -------------------------------------------------------
 OpenMP Integral computing Module                
 Release: version 1.0, May 2013, Q-Chem Inc. Pittsburgh 
 -------------------------------------------------------
 using 6 threads for integral computing
 -------------------------------------------------------
 OpenMP Integral computing Module                
 Release: version 1.0, May 2013, Q-Chem Inc. Pittsburgh 
 -------------------------------------------------------
 ---------------------------------------
  Cycle       Energy         DIIS Error
 ---------------------------------------
    1    -155.0111150200      5.72E-03
    2    -155.0265458070      2.86E-03
    3    -155.0362299527      3.48E-04 Done RCA. Switching to DIIS
    4    -155.0478480074      2.51E-04
    5    -155.0480367976      3.94E-05
    6    -155.0480446940      5.63E-06 Convergence criterion met
 ---------------------------------------
 SCF time:  CPU 38.70 s  wall 6.47 s
 SCF   energy in the final basis set = -155.04804469
 Total energy in the final basis set = -155.04804469
 
 --------------------------------------------------------------
 
                    Orbital Energies (a.u.)
 --------------------------------------------------------------
 
 Alpha MOs
 -- Occupied --
-19.2457 -10.3267 -10.2740  -1.1258  -0.8497  -0.7231  -0.5956  -0.5450
 -0.5237  -0.4722  -0.4575  -0.4097  -0.3617
 -- Virtual --
  0.0662   0.0877   0.0896   0.1025   0.1278   0.1322   0.1368   0.1777
  0.1962   0.2028   0.2359   0.2474   0.2836   0.2861   0.2966   0.3075
  0.3192   0.3327   0.3430   0.3860   0.4589   0.4927   0.5033   0.5204
  0.5545   0.5690   0.5854   0.6028   0.6209   0.6314   0.6524   0.6714
  0.6844   0.7150   0.7756   0.7976   0.8502   0.9070   0.9305   0.9850
  1.0012   1.0446   1.0643   1.0953   1.1366   1.1803   1.2015   1.2071
  1.2285   1.2620   1.2644   1.3084   1.3247   1.3369   1.3787   1.4093
  1.4366   1.4478   1.4714   1.4824   1.5126   1.5306   1.6013   1.6168
  1.6458   1.6818   1.9495   2.0302   2.1098   2.2539   2.2853   2.4146
  2.4281   2.5412   2.5964   2.6394   2.6813   2.7962   2.8358   2.8833
  2.9201   2.9730   3.0020   3.0208   3.0361   3.0648   3.0850   3.0966
  3.1197   3.1691   3.2034   3.2454   3.2701   3.2764   3.3113   3.3294
  3.3611   3.4120   3.4309   3.4656   3.5129   3.5519   3.5691   3.5752
  3.6273   3.6342   3.6617   3.6870   3.7365   3.7402   3.7847   3.8230
  3.8543   3.8788   3.9476   3.9694   3.9787   4.0135   4.0500   4.0719
  4.0993   4.1379   4.1558   4.1923   4.2043   4.2354   4.2605   4.3134
  4.3359   4.3974   4.4786   4.5239   4.5365   4.6087   4.7189   4.7694
  4.8550   4.9254   4.9458   4.9708   5.0260   5.0647   5.1184   5.1719
  5.2173   5.2514   5.2679   5.3058   5.3401   5.3478   5.4043   5.4636
  5.5224   5.5725   5.6779   5.8599   5.9395   6.0347   6.3353   6.3683
  6.4336   6.6561   6.7081   6.8234   7.1317   7.3420   7.4188   7.5498
  7.7271   8.1162  25.1222  25.4208  50.4630
 --------------------------------------------------------------
 
 -----------------------------------------------------------------
                    Cartesian Multipole Moments
 -----------------------------------------------------------------
    Charge (ESU x 10^10)
                 0.0000
    Dipole Moment (Debye)
         X      -0.5727      Y      -1.5824      Z       0.5585
       Tot       1.7732
    Quadrupole Moments (Debye-Ang)
        XX     -15.8554     XY       3.8775     YY     -22.7751
        XZ      -2.6837     YZ       2.6855     ZZ     -19.3971
    Octopole Moments (Debye-Ang^2)
       XXX     237.0610    XXY     -22.8055    XYY      93.3652
       YYY     -50.4318    XXZ      12.2701    XYZ      -9.4731
       YYZ       5.2897    XZZ      85.5135    YZZ     -18.0142
       ZZZ      -0.3928
    Hexadecapole Moments (Debye-Ang^3)
      XXXX   -2266.1809   XXXY     177.2392   XXYY    -430.2098
      XYYY     187.5757   YYYY    -135.6605   XXXZ     -40.9836
      XXYZ      34.8963   XYYZ     -14.4338   YYYZ      14.5380
      XXZZ    -406.3054   XYZZ      69.9647   YYZZ     -36.2617
      XZZZ      12.2418   YZZZ       6.7230   ZZZZ     -63.7897
 -----------------------------------------------------------------
Archival summary:
1\1\centos77-c7\SP\ProcedureUnspecified\BasisUnspecified\126\shihchen\MonJul2714:14:562020MonJul2714:14:562020\0\\#,ProcedureUnspecified,BasisUnspecified,\\0,1\C\H,1,1.08974\H,1,1.09609,2,107.195\O,1,1.41511,2,105.493,3,-117.852,0\H,4,0.957116,1,108.863,2,178.989,0\C,1,1.5176,2,110.27,3,120.028,0\H,6,1.08986,1,110.512,2,-89.7503,0\H,6,1.09107,1,110.615,2,149.933,0\H,6,1.09228,1,110.987,2,30.3721,0\\\@

 Total job time:  11.07s(wall), 56.97s(cpu) 
 Mon Jul 27 14:14:56 2020

        *************************************************************
        *                                                           *
        *  Thank you very much for using Q-Chem.  Have a nice day.  *
        *                                                           *
        *************************************************************


