                  Welcome to Q-Chem
     A Quantum Leap Into The Future Of Chemistry


 Q-Chem 5.3 (devel), Q-Chem, Inc., Pleasanton, CA (2020)

 Yihan Shao,  Zhengting Gan,  E. Epifanovsky,  A. T. B. Gilbert,  M. Wormit,  
 J. Kussmann,  A. W. Lange,  A. Behn,  Jia Deng,  Xintian Feng,  D. Ghosh,  
 M. Goldey,  P. R. Horn,  L. D. Jacobson,  I. Kaliman,  T. Kus,  A. Landau,  
 Jie Liu,  E. I. Proynov,  R. M. Richard,  R. P. Steele,  E. J. Sundstrom,  
 H. L. Woodcock III,  P. M. Zimmerman,  D. Zuev,  B. Alam,  B. Albrecht,  
 E. Alguire,  S. A. Baeppler,  D. Barton,  Z. Benda,  Y. A. Bernard,  
 E. J. Berquist,  K. B. Bravaya,  H. Burton,  K. Carter-Fenk,  D. Casanova,  
 Chun-Min Chang,  Yunqing Chen,  A. Chien,  K. D. Closser,  M. P. Coons,  
 S. Coriani,  S. Dasgupta,  A. L. Dempwolff,  M. Diedenhofen,  Hainam Do,  
 R. G. Edgar,  Po-Tung Fang,  S. Faraji,  S. Fatehi,  Qingguo Feng,  
 J. Fosso-Tande,  J. Gayvert,  Qinghui Ge,  A. Ghysels,  G. Gidofalvi,  
 J. Gomes,  J. Gonthier,  A. Gunina,  D. Hait,  M. W. D. Hanson-Heine,  
 P. H. P. Harbach,  A. W. Hauser,  M. F. Herbst,  J. E. Herr,  
 E. G. Hohenstein,  Z. C. Holden,  Kerwin Hui,  B. C. Huynh,  T.-C. Jagau,  
 Hyunjun Ji,  B. Kaduk,  K. Khistyaev,  Jaehoon Kim,  P. Klunzinger,  K. Koh,  
 D. Kosenkov,  L. Koulias,  T. Kowalczyk,  C. M. Krauter,  A. Kunitsa,  
 Ka Un Lao,  A. Laurent,  K. V. Lawler,  Joonho Lee,  D. Lefrancois,  
 S. Lehtola,  D. S. Levine,  Yi-Pei Li,  You-Sheng Lin,  Fenglai Liu,  
 Kuan-Yu Liu,  E. Livshits,  M. Loipersberger,  A. Luenser,  P. Manohar,  
 E. Mansoor,  S. F. Manzer,  Shan-Ping Mao,  Yuezhi Mao,  N. Mardirossian,  
 A. V. Marenich,  T. Markovich,  L. A. Martinez-Martinez,  S. A. Maurer,  
 N. J. Mayhall,  S. C. McKenzie,  J.-M. Mewes,  P. Morgante,  A. F. Morrison,  
 J. W. Mullinax,  K. Nanda,  T. S. Nguyen-Beck,  R. Olivares-Amaya,  
 K. J. Oosterbaan,  J. A. Parkhill,  S. K. Paul,  F. Pavosevic,  Zheng Pei,  
 T. M. Perrine,  F. Plasser,  P. Pokhilko,  S. Prager,  A. Prociuk,  
 E. Ramos,  B. Rana,  D. R. Rehn,  F. Rob,  M. Scheurer,  M. Schneider,  
 N. Sergueev,  S. M. Sharada,  S. Sharma,  D. W. Small,  T. Stauch,  
 C. J. Stein,  T. Stein,  Yu-Chuan Su,  S. P. Veccham,  Zhen Tao,  
 A. J. W. Thom,  A. Tkatchenko,  T. Tsuchimochi,  N. M. Tubman,  L. Vogt,  
 M. L. Vidal,  O. Vydrov,  M. A. Watson,  J. Wenzel,  M. de Wergifosse,  
 T. A. Wesolowski,  A. White,  J. Witte,  A. Yamada,  Jun Yang,  K. Yao,  
 S. Yeganeh,  S. R. Yost,  Zhi-Qiang You,  A. Zech,  Igor Ying Zhang,  
 Xing Zhang,  Yan Zhao,  Ying Zhu,  B. R. Brooks,  G. K. L. Chan,  
 C. J. Cramer,  M. S. Gordon,  W. J. Hehre,  A. Klamt,  M. W. Schmidt,  
 C. D. Sherrill,  D. G. Truhlar,  A. Aspuru-Guzik,  R. Baer,  A. T. Bell,  
 N. A. Besley,  Jeng-Da Chai,  A. E. DePrince, III,  R. A. DiStasio Jr.,  
 A. Dreuw,  B. D. Dunietz,  T. R. Furlani,  Chao-Ping Hsu,  Yousung Jung,  
 Jing Kong,  D. S. Lambrecht,  WanZhen Liang,  C. Ochsenfeld,  
 V. A. Rassolov,  L. V. Slipchenko,  J. E. Subotnik,  T. Van Voorhis,  
 J. M. Herbert,  A. I. Krylov,  P. M. W. Gill,  M. Head-Gordon

 Contributors to earlier versions of Q-Chem not listed above: 
 R. D. Adamson,  B. Austin,  J. Baker,  G. J. O. Beran,  K. Brandhorst,  
 S. T. Brown,  E. F. C. Byrd,  A. K. Chakraborty,  C.-L. Cheng,  
 Siu Hung Chien,  D. M. Chipman,  D. L. Crittenden,  H. Dachsel,  
 R. J. Doerksen,  A. D. Dutoi,  L. Fusti-Molnar,  W. A. Goddard III,  
 A. Golubeva-Zadorozhnaya,  S. R. Gwaltney,  G. Hawkins,  A. Heyden,  
 S. Hirata,  G. Kedziora,  F. J. Keil,  C. Kelley,  Jihan Kim,  R. A. King,  
 R. Z. Khaliullin,  P. P. Korambath,  W. Kurlancheek,  A. M. Lee,  M. S. Lee,  
 S. V. Levchenko,  Ching Yeh Lin,  D. Liotard,  R. C. Lochan,  I. Lotan,  
 P. E. Maslen,  N. Nair,  D. P. O'Neill,  D. Neuhauser,  E. Neuscamman,  
 C. M. Oana,  R. Olson,  B. Peters,  R. Peverati,  P. A. Pieniazek,  
 Y. M. Rhee,  J. Ritchie,  M. A. Rohrdanz,  E. Rosta,  N. J. Russ,  
 H. F. Schaefer III,  N. E. Schultz,  N. Shenvi,  A. C. Simmonett,  A. Sodt,  
 D. Stuck,  K. S. Thanthiriwatte,  V. Vanovschi,  Tao Wang,  A. Warshel,  
 C. F. Williams,  Q. Wu,  X. Xu,  W. Zhang

 Please cite Q-Chem as follows:
 Y. Shao et al., Mol. Phys. 113, 184-215 (2015)
 DOI: 10.1080/00268976.2014.952696

 Q-Chem 5.3.0 for Intel X86 EM64T Linux

 Parts of Q-Chem use Armadillo 9.800.1 (Horizon Scraper).
 http://arma.sourceforge.net/

 Q-Chem begins on Mon Jul 27 14:15:31 2020  

Host: centos77-c7
0

     Scratch files written to /tmp/29924.centos77-h1/qchem102178//
Processing $rem in /opt/qchem-5.3.0-intel2020u1//config/preferences:
Processing $rem in /home/shihchengli/.qchemrc:

Checking the input file for inconsistencies... 	...done.

--------------------------------------------------------------
User input:
--------------------------------------------------------------
$rem
   JOBTYPE  sp
   EXCHANGE   omegaB97X-D
   BASIS   6-311+G(2df,2pd)
   UNRESTRICTED   False
   max_scf_cycles   250
   geom_opt_max_cycles   1500
   basis2 6-31G*
   scf_algorithm rca_diis
   SYM_IGNORE  TRUE
   print_input   true
   geom_opt_dmax   80
   pop_mulliken false
   XC_GRID 000075000302
$end

$molecule
0 1
C       -5.3472372884     0.2421653409     0.1402297762
C       -4.0306709504     0.9272138236     0.4572259564
H       -5.8993438022     0.0332825632     1.0563865856
H       -5.1741591239     -0.6988022806     -0.3842216123
H       -5.9709937540     0.8703548800     -0.4996000809
O       -3.4060103018     1.4737396981     -0.6889225405
H       -3.3551376627     0.2322498083     0.9691868837
H       -4.1954660094     1.7696658563     1.1285288121
H       -3.2237911070     0.7673503101     -1.3085037800
$end
--------------------------------------------------------------
 ----------------------------------------------------------------
             Standard Nuclear Orientation (Angstroms)
    I     Atom           X                Y                Z
 ----------------------------------------------------------------
    1      C      -5.3472372884     0.2421653409     0.1402297762
    2      C      -4.0306709504     0.9272138236     0.4572259564
    3      H      -5.8993438022     0.0332825632     1.0563865856
    4      H      -5.1741591239    -0.6988022806    -0.3842216123
    5      H      -5.9709937540     0.8703548800    -0.4996000809
    6      O      -3.4060103018     1.4737396981    -0.6889225405
    7      H      -3.3551376627     0.2322498083     0.9691868837
    8      H      -4.1954660094     1.7696658563     1.1285288121
    9      H      -3.2237911070     0.7673503101    -1.3085037800
 ----------------------------------------------------------------
 Nuclear Repulsion Energy =          81.90951733 hartrees
 There are       13 alpha and       13 beta electrons
 Requested basis set is 6-311+G(2df,2pd)
 There are 60 shells and 186 basis functions

 Total QAlloc Memory Limit   2000 MB
 Mega-Array Size       188 MB
 MEM_STATIC part       192 MB

                       Distance Matrix (Angstroms)
             C (  1)   C (  2)   H (  3)   H (  4)   H (  5)   O (  6)
   C (  2)  1.517605
   H (  3)  1.089861  2.156396
   H (  4)  1.091066  2.158594  1.771212
   H (  5)  1.092280  2.164163  1.768309  1.763664
   O (  6)  2.443897  1.415114  3.367155  2.817646  2.641790
   H (  7)  2.157714  1.096095  2.553464  2.451002  3.067119  2.072007
   H (  8)  2.153270  1.089739  2.433810  3.056074  2.571393  2.003482
   H (  9)  2.623675  1.947925  3.645565  2.609183  2.865669  0.957116
             H (  7)   H (  8)
   H (  8)  1.759315
   H (  9)  2.343386  2.808543
 
 A cutoff of  1.0D-09 yielded   1786 shell pairs
 There are     17324 function pairs (     21511 Cartesian)
 Smallest overlap matrix eigenvalue = 1.35E-04

 Scale SEOQF with 1.000000e-02/1.000000e-01/1.000000e-01

 Standard Electronic Orientation quadrupole field applied
 Nucleus-field energy     =     0.0000000026 hartrees
 Requested basis set is 6-31G(d)
 There are 24 shells and 54 basis functions
 A cutoff of  1.0D-09 yielded    298 shell pairs
 There are      1549 function pairs (      1732 Cartesian)
 Smallest overlap matrix eigenvalue = 7.16E-03
 Guess from superposition of atomic densities
 Warning:  Energy on first SCF cycle will be non-variational
 SAD guess density has 26.000000 electrons
 Long-range K will be added via erf
 Coulomb attenuation parameter = 0.2 bohr**(-1)
 A restricted hybrid HF-DFT SCF calculation will be
 performed using Relaxed Constraint Minimization + Pulay DIIS
 Exchange:     0.2220 Hartree-Fock + 1.0000 wB97X-D + LR-HF
 Correlation:  1.0000 wB97X-D
 Using Euler-Maclaurin-Lebedev (75,302) quadrature formula
 Dispersion:   Grimme D
 SCF converges when DIIS error is below 1.0E-04
 using 6 threads for integral computing
 -------------------------------------------------------
 OpenMP Integral computing Module                
 Release: version 1.0, May 2013, Q-Chem Inc. Pittsburgh 
 -------------------------------------------------------
 using 6 threads for integral computing
 -------------------------------------------------------
 OpenMP Integral computing Module                
 Release: version 1.0, May 2013, Q-Chem Inc. Pittsburgh 
 -------------------------------------------------------
 ---------------------------------------
  Cycle       Energy         DIIS Error
 ---------------------------------------
    1    -155.4333190252      1.06E-01
    2    -154.9264304613      1.35E-02
    3    -154.9546620294      3.03E-03
    4    -154.9807207284      2.41E-03
    5    -154.9814478451      2.27E-04 Done RCA. Switching to DIIS
    6    -154.9822634147      1.03E-04
    7    -154.9822666939      7.49E-06 Convergence criterion met
 ---------------------------------------
 SCF time:  CPU 14.42 s  wall 2.42 s
 SCF   energy in the small basis set = -154.98226669
 Total energy in the small basis set = -154.98226669
 ----------------------------------------------------
  Cycle       Energy    
 ----------------------------------------------------
    1     -18.7515341206     -1.88E+01
 Long-range K will be added via erf
 Coulomb attenuation parameter = 0.2 bohr**(-1)
 A restricted hybrid HF-DFT SCF calculation will be
 performed using Relaxed Constraint Minimization + Pulay DIIS
 Exchange:     0.2220 Hartree-Fock + 1.0000 wB97X-D + LR-HF
 Correlation:  1.0000 wB97X-D
 Using Euler-Maclaurin-Lebedev (75,302) quadrature formula
 Dispersion:   Grimme D
 SCF converges when DIIS error is below 1.0E-05
 Basis2 calculation detected. Using small basis as guess for larger.
 SCFMinFind is unable to tell whether the solution found is close.
 Resetting ReadMinima to 0 and attempting to follow guess.
 SCFMinFind following SCF Guess.
 using 6 threads for integral computing
 -------------------------------------------------------
 OpenMP Integral computing Module                
 Release: version 1.0, May 2013, Q-Chem Inc. Pittsburgh 
 -------------------------------------------------------
 using 6 threads for integral computing
 -------------------------------------------------------
 OpenMP Integral computing Module                
 Release: version 1.0, May 2013, Q-Chem Inc. Pittsburgh 
 -------------------------------------------------------
 ---------------------------------------
  Cycle       Energy         DIIS Error
 ---------------------------------------
    1    -155.0136144485      5.72E-03
    2    -155.0291006096      2.86E-03
    3    -155.0387396577      3.48E-04 Done RCA. Switching to DIIS
    4    -155.0503098171      2.51E-04
    5    -155.0504985027      3.93E-05
    6    -155.0505063661      5.65E-06 Convergence criterion met
 ---------------------------------------
 SCF time:  CPU 38.99 s  wall 6.52 s
 SCF   energy in the final basis set = -155.05050637
 Total energy in the final basis set = -155.05050637
 
 --------------------------------------------------------------
 
                    Orbital Energies (a.u.)
 --------------------------------------------------------------
 
 Alpha MOs
 -- Occupied --
-19.2462 -10.3271 -10.2739  -1.1261  -0.8496  -0.7228  -0.5962  -0.5457
 -0.5228  -0.4687  -0.4592  -0.4112  -0.3628
 -- Virtual --
  0.0652   0.0874   0.0888   0.1021   0.1262   0.1342   0.1374   0.1810
  0.1946   0.2158   0.2423   0.2503   0.2623   0.2834   0.2892   0.3052
  0.3153   0.3306   0.3436   0.3858   0.4582   0.4895   0.5009   0.5272
  0.5676   0.5756   0.5795   0.6091   0.6142   0.6334   0.6686   0.6751
  0.6952   0.7140   0.7299   0.7991   0.8587   0.8936   0.9314   0.9469
  0.9991   1.0536   1.0627   1.1049   1.1441   1.1776   1.1886   1.2098
  1.2240   1.2445   1.2708   1.2998   1.3256   1.3623   1.3817   1.4077
  1.4495   1.4688   1.4744   1.4905   1.5030   1.5349   1.5938   1.6234
  1.6567   1.7024   1.9405   2.0470   2.1039   2.2714   2.2816   2.4467
  2.4664   2.5293   2.5478   2.5891   2.6939   2.8429   2.8481   2.8865
  2.9162   2.9727   3.0018   3.0211   3.0541   3.0557   3.0688   3.0842
  3.0975   3.1791   3.2160   3.2594   3.2675   3.3020   3.3147   3.3455
  3.3575   3.4033   3.4084   3.4410   3.5041   3.5664   3.5736   3.5801
  3.6052   3.6155   3.6542   3.7100   3.7224   3.7511   3.7911   3.8489
  3.9009   3.9173   3.9423   3.9638   3.9925   4.0375   4.0439   4.0664
  4.0980   4.1023   4.1474   4.1740   4.2145   4.2465   4.2837   4.3268
  4.3417   4.3938   4.4743   4.5210   4.5367   4.6321   4.7184   4.7930
  4.8635   4.9403   4.9475   4.9875   5.0005   5.0697   5.1122   5.1978
  5.2087   5.2603   5.2914   5.3042   5.3334   5.3591   5.4142   5.4816
  5.5308   5.5816   5.6845   5.8220   5.9359   6.0340   6.3537   6.3802
  6.4147   6.6555   6.7093   6.8230   7.1255   7.3504   7.4188   7.5526
  7.7233   8.1096  25.1658  25.4314  50.4671
 --------------------------------------------------------------
 
 -----------------------------------------------------------------
                    Cartesian Multipole Moments
 -----------------------------------------------------------------
    Charge (ESU x 10^10)
                 0.0000
    Dipole Moment (Debye)
         X      -0.5063      Y      -1.6535      Z       0.2816
       Tot       1.7520
    Quadrupole Moments (Debye-Ang)
        XX     -16.3345     XY       4.5417     YY     -23.9810
        XZ      -1.8237     YZ       2.2613     ZZ     -18.4132
    Octopole Moments (Debye-Ang^2)
       XXX     240.1224    XXY     -27.2096    XYY      98.9813
       YYY     -55.8435    XXZ       9.7127    XYZ      -8.4056
       YYZ       4.9175    XZZ      81.8022    YZZ     -16.2626
       ZZZ      -2.7468
    Hexadecapole Moments (Debye-Ang^3)
      XXXX   -2280.8050   XXXY     202.6731   XXYY    -457.6145
      XYYY     208.2726   YYYY    -155.6988   XXXZ     -35.6959
      XXYZ      32.8377   XYYZ     -13.3242   YYYZ      18.6011
      XXZZ    -390.0166   XYZZ      62.6902   YYZZ     -36.4564
      XZZZ      18.1314   YZZZ       7.0305   ZZZZ     -60.5719
 -----------------------------------------------------------------
Archival summary:
1\1\centos77-c7\SP\ProcedureUnspecified\BasisUnspecified\126\shihchen\MonJul2714:15:422020MonJul2714:15:422020\0\\#,ProcedureUnspecified,BasisUnspecified,\\0,1\C\H,1,1.08974\H,1,1.09609,2,107.195\O,1,1.41511,2,105.493,3,-117.852,0\H,4,0.957116,1,108.863,2,178.989,0\C,1,1.5176,2,110.27,3,120.028,0\H,6,1.08986,1,110.512,2,-49.7503,0\H,6,1.09107,1,110.615,2,-170.067,0\H,6,1.09228,1,110.987,2,70.3721,0\\\@

 Total job time:  11.11s(wall), 57.28s(cpu) 
 Mon Jul 27 14:15:42 2020

        *************************************************************
        *                                                           *
        *  Thank you very much for using Q-Chem.  Have a nice day.  *
        *                                                           *
        *************************************************************


