                  Welcome to Q-Chem
     A Quantum Leap Into The Future Of Chemistry


 Q-Chem 5.3 (devel), Q-Chem, Inc., Pleasanton, CA (2020)

 Yihan Shao,  Zhengting Gan,  E. Epifanovsky,  A. T. B. Gilbert,  M. Wormit,  
 J. Kussmann,  A. W. Lange,  A. Behn,  Jia Deng,  Xintian Feng,  D. Ghosh,  
 M. Goldey,  P. R. Horn,  L. D. Jacobson,  I. Kaliman,  T. Kus,  A. Landau,  
 Jie Liu,  E. I. Proynov,  R. M. Richard,  R. P. Steele,  E. J. Sundstrom,  
 H. L. Woodcock III,  P. M. Zimmerman,  D. Zuev,  B. Alam,  B. Albrecht,  
 E. Alguire,  S. A. Baeppler,  D. Barton,  Z. Benda,  Y. A. Bernard,  
 E. J. Berquist,  K. B. Bravaya,  H. Burton,  K. Carter-Fenk,  D. Casanova,  
 Chun-Min Chang,  Yunqing Chen,  A. Chien,  K. D. Closser,  M. P. Coons,  
 S. Coriani,  S. Dasgupta,  A. L. Dempwolff,  M. Diedenhofen,  Hainam Do,  
 R. G. Edgar,  Po-Tung Fang,  S. Faraji,  S. Fatehi,  Qingguo Feng,  
 J. Fosso-Tande,  J. Gayvert,  Qinghui Ge,  A. Ghysels,  G. Gidofalvi,  
 J. Gomes,  J. Gonthier,  A. Gunina,  D. Hait,  M. W. D. Hanson-Heine,  
 P. H. P. Harbach,  A. W. Hauser,  M. F. Herbst,  J. E. Herr,  
 E. G. Hohenstein,  Z. C. Holden,  Kerwin Hui,  B. C. Huynh,  T.-C. Jagau,  
 Hyunjun Ji,  B. Kaduk,  K. Khistyaev,  Jaehoon Kim,  P. Klunzinger,  K. Koh,  
 D. Kosenkov,  L. Koulias,  T. Kowalczyk,  C. M. Krauter,  A. Kunitsa,  
 Ka Un Lao,  A. Laurent,  K. V. Lawler,  Joonho Lee,  D. Lefrancois,  
 S. Lehtola,  D. S. Levine,  Yi-Pei Li,  You-Sheng Lin,  Fenglai Liu,  
 Kuan-Yu Liu,  E. Livshits,  M. Loipersberger,  A. Luenser,  P. Manohar,  
 E. Mansoor,  S. F. Manzer,  Shan-Ping Mao,  Yuezhi Mao,  N. Mardirossian,  
 A. V. Marenich,  T. Markovich,  L. A. Martinez-Martinez,  S. A. Maurer,  
 N. J. Mayhall,  S. C. McKenzie,  J.-M. Mewes,  P. Morgante,  A. F. Morrison,  
 J. W. Mullinax,  K. Nanda,  T. S. Nguyen-Beck,  R. Olivares-Amaya,  
 K. J. Oosterbaan,  J. A. Parkhill,  S. K. Paul,  F. Pavosevic,  Zheng Pei,  
 T. M. Perrine,  F. Plasser,  P. Pokhilko,  S. Prager,  A. Prociuk,  
 E. Ramos,  B. Rana,  D. R. Rehn,  F. Rob,  M. Scheurer,  M. Schneider,  
 N. Sergueev,  S. M. Sharada,  S. Sharma,  D. W. Small,  T. Stauch,  
 C. J. Stein,  T. Stein,  Yu-Chuan Su,  S. P. Veccham,  Zhen Tao,  
 A. J. W. Thom,  A. Tkatchenko,  T. Tsuchimochi,  N. M. Tubman,  L. Vogt,  
 M. L. Vidal,  O. Vydrov,  M. A. Watson,  J. Wenzel,  M. de Wergifosse,  
 T. A. Wesolowski,  A. White,  J. Witte,  A. Yamada,  Jun Yang,  K. Yao,  
 S. Yeganeh,  S. R. Yost,  Zhi-Qiang You,  A. Zech,  Igor Ying Zhang,  
 Xing Zhang,  Yan Zhao,  Ying Zhu,  B. R. Brooks,  G. K. L. Chan,  
 C. J. Cramer,  M. S. Gordon,  W. J. Hehre,  A. Klamt,  M. W. Schmidt,  
 C. D. Sherrill,  D. G. Truhlar,  A. Aspuru-Guzik,  R. Baer,  A. T. Bell,  
 N. A. Besley,  Jeng-Da Chai,  A. E. DePrince, III,  R. A. DiStasio Jr.,  
 A. Dreuw,  B. D. Dunietz,  T. R. Furlani,  Chao-Ping Hsu,  Yousung Jung,  
 Jing Kong,  D. S. Lambrecht,  WanZhen Liang,  C. Ochsenfeld,  
 V. A. Rassolov,  L. V. Slipchenko,  J. E. Subotnik,  T. Van Voorhis,  
 J. M. Herbert,  A. I. Krylov,  P. M. W. Gill,  M. Head-Gordon

 Contributors to earlier versions of Q-Chem not listed above: 
 R. D. Adamson,  B. Austin,  J. Baker,  G. J. O. Beran,  K. Brandhorst,  
 S. T. Brown,  E. F. C. Byrd,  A. K. Chakraborty,  C.-L. Cheng,  
 Siu Hung Chien,  D. M. Chipman,  D. L. Crittenden,  H. Dachsel,  
 R. J. Doerksen,  A. D. Dutoi,  L. Fusti-Molnar,  W. A. Goddard III,  
 A. Golubeva-Zadorozhnaya,  S. R. Gwaltney,  G. Hawkins,  A. Heyden,  
 S. Hirata,  G. Kedziora,  F. J. Keil,  C. Kelley,  Jihan Kim,  R. A. King,  
 R. Z. Khaliullin,  P. P. Korambath,  W. Kurlancheek,  A. M. Lee,  M. S. Lee,  
 S. V. Levchenko,  Ching Yeh Lin,  D. Liotard,  R. C. Lochan,  I. Lotan,  
 P. E. Maslen,  N. Nair,  D. P. O'Neill,  D. Neuhauser,  E. Neuscamman,  
 C. M. Oana,  R. Olson,  B. Peters,  R. Peverati,  P. A. Pieniazek,  
 Y. M. Rhee,  J. Ritchie,  M. A. Rohrdanz,  E. Rosta,  N. J. Russ,  
 H. F. Schaefer III,  N. E. Schultz,  N. Shenvi,  A. C. Simmonett,  A. Sodt,  
 D. Stuck,  K. S. Thanthiriwatte,  V. Vanovschi,  Tao Wang,  A. Warshel,  
 C. F. Williams,  Q. Wu,  X. Xu,  W. Zhang

 Please cite Q-Chem as follows:
 Y. Shao et al., Mol. Phys. 113, 184-215 (2015)
 DOI: 10.1080/00268976.2014.952696

 Q-Chem 5.3.0 for Intel X86 EM64T Linux

 Parts of Q-Chem use Armadillo 9.800.1 (Horizon Scraper).
 http://arma.sourceforge.net/

 Q-Chem begins on Mon Jul 27 14:12:29 2020  

Host: centos77-c7
0

     Scratch files written to /tmp/29924.centos77-h1/qchem101412//
Processing $rem in /opt/qchem-5.3.0-intel2020u1//config/preferences:
Processing $rem in /home/shihchengli/.qchemrc:

Checking the input file for inconsistencies... 	...done.

--------------------------------------------------------------
User input:
--------------------------------------------------------------
$rem
   JOBTYPE  sp
   EXCHANGE   omegaB97X-D
   BASIS   6-311+G(2df,2pd)
   UNRESTRICTED   False
   max_scf_cycles   250
   geom_opt_max_cycles   1500
   basis2 6-31G*
   scf_algorithm rca_diis
   SYM_IGNORE  TRUE
   print_input   true
   geom_opt_dmax   80
   pop_mulliken false
   XC_GRID 000075000302
$end

$molecule
0 1
C       -5.3721281383     0.3005136559     0.0842390290
C       -4.1245529568     1.1409257784     0.2852080694
H       -5.1055829156     -0.7142355656     -0.2107772053
H       -6.0061130848     0.7333628564     -0.6910867295
H       -5.9597206759     0.2465381903     1.0034224332
O       -3.0679930652     0.7712706415     -0.5805771866
H       -3.7996794244     1.0934716443     1.3309754860
H       -4.3333081292     2.1864689937     0.0598394253
H       -2.8337316096     -0.1410961949     -0.4109333214
$end
--------------------------------------------------------------
 ----------------------------------------------------------------
             Standard Nuclear Orientation (Angstroms)
    I     Atom           X                Y                Z
 ----------------------------------------------------------------
    1      C      -5.3721281383     0.3005136559     0.0842390290
    2      C      -4.1245529568     1.1409257784     0.2852080694
    3      H      -5.1055829156    -0.7142355656    -0.2107772053
    4      H      -6.0061130848     0.7333628564    -0.6910867295
    5      H      -5.9597206759     0.2465381903     1.0034224332
    6      O      -3.0679930652     0.7712706415    -0.5805771866
    7      H      -3.7996794244     1.0934716443     1.3309754860
    8      H      -4.3333081292     2.1864689937     0.0598394253
    9      H      -2.8337316096    -0.1410961949    -0.4109333214
 ----------------------------------------------------------------
 Nuclear Repulsion Energy =          81.92421889 hartrees
 There are       13 alpha and       13 beta electrons
 Requested basis set is 6-311+G(2df,2pd)
 There are 60 shells and 186 basis functions

 Total QAlloc Memory Limit   2000 MB
 Mega-Array Size       188 MB
 MEM_STATIC part       192 MB

                       Distance Matrix (Angstroms)
             C (  1)   C (  2)   H (  3)   H (  4)   H (  5)   O (  6)
   C (  2)  1.517605
   H (  3)  1.089861  2.156396
   H (  4)  1.091066  2.158594  1.771212
   H (  5)  1.092280  2.164163  1.768309  1.763664
   O (  6)  2.443897  1.415114  2.548579  2.940442  3.338636
   H (  7)  2.157714  1.096095  2.711124  3.014426  2.343153  2.072007
   H (  8)  2.153270  1.089739  3.013922  2.339591  2.701647  2.003482
   H (  9)  2.623675  1.947925  2.351565  3.302600  3.452893  0.957116
             H (  7)   H (  8)
   H (  8)  1.759315
   H (  9)  2.343386  2.808543
 
 A cutoff of  1.0D-09 yielded   1780 shell pairs
 There are     17289 function pairs (     21475 Cartesian)
 Smallest overlap matrix eigenvalue = 1.21E-04

 Scale SEOQF with 1.000000e-02/1.000000e-01/1.000000e-01

 Standard Electronic Orientation quadrupole field applied
 Nucleus-field energy     =     0.0000000025 hartrees
 Requested basis set is 6-31G(d)
 There are 24 shells and 54 basis functions
 A cutoff of  1.0D-09 yielded    298 shell pairs
 There are      1549 function pairs (      1732 Cartesian)
 Smallest overlap matrix eigenvalue = 6.98E-03
 Guess from superposition of atomic densities
 Warning:  Energy on first SCF cycle will be non-variational
 SAD guess density has 26.000000 electrons
 Long-range K will be added via erf
 Coulomb attenuation parameter = 0.2 bohr**(-1)
 A restricted hybrid HF-DFT SCF calculation will be
 performed using Relaxed Constraint Minimization + Pulay DIIS
 Exchange:     0.2220 Hartree-Fock + 1.0000 wB97X-D + LR-HF
 Correlation:  1.0000 wB97X-D
 Using Euler-Maclaurin-Lebedev (75,302) quadrature formula
 Dispersion:   Grimme D
 SCF converges when DIIS error is below 1.0E-04
 using 6 threads for integral computing
 -------------------------------------------------------
 OpenMP Integral computing Module                
 Release: version 1.0, May 2013, Q-Chem Inc. Pittsburgh 
 -------------------------------------------------------
 using 6 threads for integral computing
 -------------------------------------------------------
 OpenMP Integral computing Module                
 Release: version 1.0, May 2013, Q-Chem Inc. Pittsburgh 
 -------------------------------------------------------
 ---------------------------------------
  Cycle       Energy         DIIS Error
 ---------------------------------------
    1    -155.4360930239      1.06E-01
    2    -154.9231929628      1.36E-02
    3    -154.9516315616      3.04E-03
    4    -154.9778492165      2.41E-03
    5    -154.9785747364      2.25E-04 Done RCA. Switching to DIIS
    6    -154.9793870962      1.00E-04
    7    -154.9793902297      7.66E-06 Convergence criterion met
 ---------------------------------------
 SCF time:  CPU 14.42 s  wall 2.42 s
 SCF   energy in the small basis set = -154.97939023
 Total energy in the small basis set = -154.97939023
 ----------------------------------------------------
  Cycle       Energy    
 ----------------------------------------------------
    1     -18.7534945768     -1.88E+01
 Long-range K will be added via erf
 Coulomb attenuation parameter = 0.2 bohr**(-1)
 A restricted hybrid HF-DFT SCF calculation will be
 performed using Relaxed Constraint Minimization + Pulay DIIS
 Exchange:     0.2220 Hartree-Fock + 1.0000 wB97X-D + LR-HF
 Correlation:  1.0000 wB97X-D
 Using Euler-Maclaurin-Lebedev (75,302) quadrature formula
 Dispersion:   Grimme D
 SCF converges when DIIS error is below 1.0E-05
 Basis2 calculation detected. Using small basis as guess for larger.
 SCFMinFind is unable to tell whether the solution found is close.
 Resetting ReadMinima to 0 and attempting to follow guess.
 SCFMinFind following SCF Guess.
 using 6 threads for integral computing
 -------------------------------------------------------
 OpenMP Integral computing Module                
 Release: version 1.0, May 2013, Q-Chem Inc. Pittsburgh 
 -------------------------------------------------------
 using 6 threads for integral computing
 -------------------------------------------------------
 OpenMP Integral computing Module                
 Release: version 1.0, May 2013, Q-Chem Inc. Pittsburgh 
 -------------------------------------------------------
 ---------------------------------------
  Cycle       Energy         DIIS Error
 ---------------------------------------
    1    -155.0110799835      5.72E-03
    2    -155.0265069481      2.86E-03
    3    -155.0361854945      3.48E-04 Done RCA. Switching to DIIS
    4    -155.0477971736      2.51E-04
    5    -155.0479859825      3.94E-05
    6    -155.0479938685      5.64E-06 Convergence criterion met
 ---------------------------------------
 SCF time:  CPU 39.03 s  wall 6.53 s
 SCF   energy in the final basis set = -155.04799387
 Total energy in the final basis set = -155.04799387
 
 --------------------------------------------------------------
 
                    Orbital Energies (a.u.)
 --------------------------------------------------------------
 
 Alpha MOs
 -- Occupied --
-19.2458 -10.3267 -10.2740  -1.1259  -0.8497  -0.7231  -0.5954  -0.5456
 -0.5239  -0.4707  -0.4583  -0.4099  -0.3617
 -- Virtual --
  0.0662   0.0876   0.0896   0.1025   0.1279   0.1322   0.1367   0.1777
  0.1963   0.2025   0.2360   0.2475   0.2835   0.2862   0.2971   0.3075
  0.3190   0.3324   0.3431   0.3858   0.4589   0.4927   0.5030   0.5210
  0.5542   0.5687   0.5863   0.6027   0.6209   0.6312   0.6524   0.6711
  0.6846   0.7150   0.7754   0.7977   0.8507   0.9068   0.9303   0.9845
  1.0018   1.0446   1.0637   1.0954   1.1362   1.1800   1.2014   1.2072
  1.2285   1.2617   1.2649   1.3077   1.3244   1.3383   1.3788   1.4096
  1.4374   1.4476   1.4710   1.4818   1.5129   1.5302   1.6006   1.6167
  1.6456   1.6829   1.9493   2.0299   2.1101   2.2539   2.2855   2.4147
  2.4273   2.5419   2.5975   2.6380   2.6810   2.7957   2.8368   2.8831
  2.9202   2.9734   3.0016   3.0207   3.0366   3.0648   3.0850   3.0966
  3.1204   3.1682   3.2011   3.2449   3.2700   3.2783   3.3105   3.3291
  3.3615   3.4140   3.4312   3.4637   3.5128   3.5523   3.5687   3.5761
  3.6277   3.6335   3.6609   3.6878   3.7361   3.7401   3.7860   3.8252
  3.8534   3.8767   3.9474   3.9685   3.9822   4.0133   4.0491   4.0713
  4.1014   4.1371   4.1549   4.1916   4.2023   4.2351   4.2606   4.3135
  4.3377   4.3971   4.4791   4.5241   4.5398   4.6091   4.7172   4.7683
  4.8560   4.9249   4.9455   4.9705   5.0250   5.0604   5.1185   5.1739
  5.2160   5.2506   5.2723   5.3063   5.3426   5.3445   5.4051   5.4635
  5.5228   5.5728   5.6782   5.8590   5.9390   6.0350   6.3358   6.3674
  6.4338   6.6561   6.7079   6.8232   7.1317   7.3417   7.4189   7.5498
  7.7265   8.1165  25.1224  25.4209  50.4628
 --------------------------------------------------------------
 
 -----------------------------------------------------------------
                    Cartesian Multipole Moments
 -----------------------------------------------------------------
    Charge (ESU x 10^10)
                 0.0000
    Dipole Moment (Debye)
         X      -0.8890      Y      -1.0160      Z       1.1525
       Tot       1.7751
    Quadrupole Moments (Debye-Ang)
        XX     -13.6576     XY       1.0819     YY     -19.5724
        XZ      -3.6571     YZ       1.3689     ZZ     -21.1200
    Octopole Moments (Debye-Ang^2)
       XXX     223.2518    XXY      -9.3650    XYY      81.9884
       YYY     -40.4119    XXZ      11.9794    XYZ      -3.5341
       YYZ       0.6780    XZZ      88.9071    YZZ     -15.0539
       ZZZ       3.6894
    Hexadecapole Moments (Debye-Ang^3)
      XXXX   -2192.5402   XXXY     119.6799   XXYY    -390.4074
      XYYY     158.9078   YYYY    -106.6124   XXXZ     -29.1037
      XXYZ       6.9912   XYYZ       3.4657   YYYZ      -1.9682
      XXZZ    -406.6898   XYZZ      58.4852   YYZZ     -28.5621
      XZZZ      -1.4988   YZZZ       0.1127   ZZZZ     -51.5146
 -----------------------------------------------------------------
Archival summary:
1\1\centos77-c7\SP\ProcedureUnspecified\BasisUnspecified\126\shihchen\MonJul2714:12:402020MonJul2714:12:402020\0\\#,ProcedureUnspecified,BasisUnspecified,\\0,1\C\H,1,1.08974\H,1,1.09609,2,107.195\O,1,1.41511,2,105.493,3,-117.852,0\H,4,0.957116,1,108.863,2,178.989,0\C,1,1.5176,2,110.27,3,120.028,0\H,6,1.08986,1,110.512,2,150.25,0\H,6,1.09107,1,110.615,2,29.9327,0\H,6,1.09228,1,110.987,2,-89.6279,0\\\@

 Total job time:  11.13s(wall), 57.40s(cpu) 
 Mon Jul 27 14:12:40 2020

        *************************************************************
        *                                                           *
        *  Thank you very much for using Q-Chem.  Have a nice day.  *
        *                                                           *
        *************************************************************


