                  Welcome to Q-Chem
     A Quantum Leap Into The Future Of Chemistry


 Q-Chem 5.3 (devel), Q-Chem, Inc., Pleasanton, CA (2020)

 Yihan Shao,  Zhengting Gan,  E. Epifanovsky,  A. T. B. Gilbert,  M. Wormit,  
 J. Kussmann,  A. W. Lange,  A. Behn,  Jia Deng,  Xintian Feng,  D. Ghosh,  
 M. Goldey,  P. R. Horn,  L. D. Jacobson,  I. Kaliman,  T. Kus,  A. Landau,  
 Jie Liu,  E. I. Proynov,  R. M. Richard,  R. P. Steele,  E. J. Sundstrom,  
 H. L. Woodcock III,  P. M. Zimmerman,  D. Zuev,  B. Alam,  B. Albrecht,  
 E. Alguire,  S. A. Baeppler,  D. Barton,  Z. Benda,  Y. A. Bernard,  
 E. J. Berquist,  K. B. Bravaya,  H. Burton,  K. Carter-Fenk,  D. Casanova,  
 Chun-Min Chang,  Yunqing Chen,  A. Chien,  K. D. Closser,  M. P. Coons,  
 S. Coriani,  S. Dasgupta,  A. L. Dempwolff,  M. Diedenhofen,  Hainam Do,  
 R. G. Edgar,  Po-Tung Fang,  S. Faraji,  S. Fatehi,  Qingguo Feng,  
 J. Fosso-Tande,  J. Gayvert,  Qinghui Ge,  A. Ghysels,  G. Gidofalvi,  
 J. Gomes,  J. Gonthier,  A. Gunina,  D. Hait,  M. W. D. Hanson-Heine,  
 P. H. P. Harbach,  A. W. Hauser,  M. F. Herbst,  J. E. Herr,  
 E. G. Hohenstein,  Z. C. Holden,  Kerwin Hui,  B. C. Huynh,  T.-C. Jagau,  
 Hyunjun Ji,  B. Kaduk,  K. Khistyaev,  Jaehoon Kim,  P. Klunzinger,  K. Koh,  
 D. Kosenkov,  L. Koulias,  T. Kowalczyk,  C. M. Krauter,  A. Kunitsa,  
 Ka Un Lao,  A. Laurent,  K. V. Lawler,  Joonho Lee,  D. Lefrancois,  
 S. Lehtola,  D. S. Levine,  Yi-Pei Li,  You-Sheng Lin,  Fenglai Liu,  
 Kuan-Yu Liu,  E. Livshits,  M. Loipersberger,  A. Luenser,  P. Manohar,  
 E. Mansoor,  S. F. Manzer,  Shan-Ping Mao,  Yuezhi Mao,  N. Mardirossian,  
 A. V. Marenich,  T. Markovich,  L. A. Martinez-Martinez,  S. A. Maurer,  
 N. J. Mayhall,  S. C. McKenzie,  J.-M. Mewes,  P. Morgante,  A. F. Morrison,  
 J. W. Mullinax,  K. Nanda,  T. S. Nguyen-Beck,  R. Olivares-Amaya,  
 K. J. Oosterbaan,  J. A. Parkhill,  S. K. Paul,  F. Pavosevic,  Zheng Pei,  
 T. M. Perrine,  F. Plasser,  P. Pokhilko,  S. Prager,  A. Prociuk,  
 E. Ramos,  B. Rana,  D. R. Rehn,  F. Rob,  M. Scheurer,  M. Schneider,  
 N. Sergueev,  S. M. Sharada,  S. Sharma,  D. W. Small,  T. Stauch,  
 C. J. Stein,  T. Stein,  Yu-Chuan Su,  S. P. Veccham,  Zhen Tao,  
 A. J. W. Thom,  A. Tkatchenko,  T. Tsuchimochi,  N. M. Tubman,  L. Vogt,  
 M. L. Vidal,  O. Vydrov,  M. A. Watson,  J. Wenzel,  M. de Wergifosse,  
 T. A. Wesolowski,  A. White,  J. Witte,  A. Yamada,  Jun Yang,  K. Yao,  
 S. Yeganeh,  S. R. Yost,  Zhi-Qiang You,  A. Zech,  Igor Ying Zhang,  
 Xing Zhang,  Yan Zhao,  Ying Zhu,  B. R. Brooks,  G. K. L. Chan,  
 C. J. Cramer,  M. S. Gordon,  W. J. Hehre,  A. Klamt,  M. W. Schmidt,  
 C. D. Sherrill,  D. G. Truhlar,  A. Aspuru-Guzik,  R. Baer,  A. T. Bell,  
 N. A. Besley,  Jeng-Da Chai,  A. E. DePrince, III,  R. A. DiStasio Jr.,  
 A. Dreuw,  B. D. Dunietz,  T. R. Furlani,  Chao-Ping Hsu,  Yousung Jung,  
 Jing Kong,  D. S. Lambrecht,  WanZhen Liang,  C. Ochsenfeld,  
 V. A. Rassolov,  L. V. Slipchenko,  J. E. Subotnik,  T. Van Voorhis,  
 J. M. Herbert,  A. I. Krylov,  P. M. W. Gill,  M. Head-Gordon

 Contributors to earlier versions of Q-Chem not listed above: 
 R. D. Adamson,  B. Austin,  J. Baker,  G. J. O. Beran,  K. Brandhorst,  
 S. T. Brown,  E. F. C. Byrd,  A. K. Chakraborty,  C.-L. Cheng,  
 Siu Hung Chien,  D. M. Chipman,  D. L. Crittenden,  H. Dachsel,  
 R. J. Doerksen,  A. D. Dutoi,  L. Fusti-Molnar,  W. A. Goddard III,  
 A. Golubeva-Zadorozhnaya,  S. R. Gwaltney,  G. Hawkins,  A. Heyden,  
 S. Hirata,  G. Kedziora,  F. J. Keil,  C. Kelley,  Jihan Kim,  R. A. King,  
 R. Z. Khaliullin,  P. P. Korambath,  W. Kurlancheek,  A. M. Lee,  M. S. Lee,  
 S. V. Levchenko,  Ching Yeh Lin,  D. Liotard,  R. C. Lochan,  I. Lotan,  
 P. E. Maslen,  N. Nair,  D. P. O'Neill,  D. Neuhauser,  E. Neuscamman,  
 C. M. Oana,  R. Olson,  B. Peters,  R. Peverati,  P. A. Pieniazek,  
 Y. M. Rhee,  J. Ritchie,  M. A. Rohrdanz,  E. Rosta,  N. J. Russ,  
 H. F. Schaefer III,  N. E. Schultz,  N. Shenvi,  A. C. Simmonett,  A. Sodt,  
 D. Stuck,  K. S. Thanthiriwatte,  V. Vanovschi,  Tao Wang,  A. Warshel,  
 C. F. Williams,  Q. Wu,  X. Xu,  W. Zhang

 Please cite Q-Chem as follows:
 Y. Shao et al., Mol. Phys. 113, 184-215 (2015)
 DOI: 10.1080/00268976.2014.952696

 Q-Chem 5.3.0 for Intel X86 EM64T Linux

 Parts of Q-Chem use Armadillo 9.800.1 (Horizon Scraper).
 http://arma.sourceforge.net/

 Q-Chem begins on Mon Jul 27 14:12:41 2020  

Host: centos77-c7
0

     Scratch files written to /tmp/29924.centos77-h1/qchem101483//
Processing $rem in /opt/qchem-5.3.0-intel2020u1//config/preferences:
Processing $rem in /home/shihchengli/.qchemrc:

Checking the input file for inconsistencies... 	...done.

--------------------------------------------------------------
User input:
--------------------------------------------------------------
$rem
   JOBTYPE  sp
   EXCHANGE   omegaB97X-D
   BASIS   6-311+G(2df,2pd)
   UNRESTRICTED   False
   max_scf_cycles   250
   geom_opt_max_cycles   1500
   basis2 6-31G*
   scf_algorithm rca_diis
   SYM_IGNORE  TRUE
   print_input   true
   geom_opt_dmax   80
   pop_mulliken false
   XC_GRID 000075000302
$end

$molecule
0 1
C       -5.3713077441     0.2981659850     0.0892762713
C       -4.1213569342     1.1322467582     0.3015429920
H       -5.1088481275     -0.7441836000     -0.0907770796
H       -5.9386450478     0.6672059848     -0.7665059656
H       -6.0232924355     0.3406645616     0.9645969581
O       -3.0856231624     0.8107323390     -0.6075399890
H       -3.7705207148     1.0334992470     1.3352678455
H       -4.3383999702     2.1869853551     0.1343629222
H       -2.8448158634     -0.1080966307     -0.4899139549
$end
--------------------------------------------------------------
 ----------------------------------------------------------------
             Standard Nuclear Orientation (Angstroms)
    I     Atom           X                Y                Z
 ----------------------------------------------------------------
    1      C      -5.3713077441     0.2981659850     0.0892762713
    2      C      -4.1213569342     1.1322467582     0.3015429920
    3      H      -5.1088481275    -0.7441836000    -0.0907770796
    4      H      -5.9386450478     0.6672059848    -0.7665059656
    5      H      -6.0232924355     0.3406645616     0.9645969581
    6      O      -3.0856231624     0.8107323390    -0.6075399890
    7      H      -3.7705207148     1.0334992470     1.3352678455
    8      H      -4.3383999702     2.1869853551     0.1343629222
    9      H      -2.8448158634    -0.1080966307    -0.4899139549
 ----------------------------------------------------------------
 Nuclear Repulsion Energy =          81.91680095 hartrees
 There are       13 alpha and       13 beta electrons
 Requested basis set is 6-311+G(2df,2pd)
 There are 60 shells and 186 basis functions

 Total QAlloc Memory Limit   2000 MB
 Mega-Array Size       188 MB
 MEM_STATIC part       192 MB

                       Distance Matrix (Angstroms)
             C (  1)   C (  2)   H (  3)   H (  4)   H (  5)   O (  6)
   C (  2)  1.517605
   H (  3)  1.089861  2.156396
   H (  4)  1.091066  2.158594  1.771212
   H (  5)  1.092280  2.164163  1.768309  1.763664
   O (  6)  2.443897  1.415114  2.603507  2.861049  3.364889
   H (  7)  2.157714  1.096095  2.642892  3.041774  2.385875  2.072007
   H (  8)  2.153270  1.089739  3.039084  2.383711  2.633828  2.003482
   H (  9)  2.623675  1.947925  2.385322  3.201465  3.524160  0.957116
             H (  7)   H (  8)
   H (  8)  1.759315
   H (  9)  2.343386  2.808543
 
 A cutoff of  1.0D-09 yielded   1783 shell pairs
 There are     17312 function pairs (     21499 Cartesian)
 Smallest overlap matrix eigenvalue = 1.28E-04

 Scale SEOQF with 1.000000e-02/1.000000e-01/1.000000e-01

 Standard Electronic Orientation quadrupole field applied
 Nucleus-field energy     =     0.0000000024 hartrees
 Requested basis set is 6-31G(d)
 There are 24 shells and 54 basis functions
 A cutoff of  1.0D-09 yielded    298 shell pairs
 There are      1549 function pairs (      1732 Cartesian)
 Smallest overlap matrix eigenvalue = 7.09E-03
 Guess from superposition of atomic densities
 Warning:  Energy on first SCF cycle will be non-variational
 SAD guess density has 26.000000 electrons
 Long-range K will be added via erf
 Coulomb attenuation parameter = 0.2 bohr**(-1)
 A restricted hybrid HF-DFT SCF calculation will be
 performed using Relaxed Constraint Minimization + Pulay DIIS
 Exchange:     0.2220 Hartree-Fock + 1.0000 wB97X-D + LR-HF
 Correlation:  1.0000 wB97X-D
 Using Euler-Maclaurin-Lebedev (75,302) quadrature formula
 Dispersion:   Grimme D
 SCF converges when DIIS error is below 1.0E-04
 using 6 threads for integral computing
 -------------------------------------------------------
 OpenMP Integral computing Module                
 Release: version 1.0, May 2013, Q-Chem Inc. Pittsburgh 
 -------------------------------------------------------
 using 6 threads for integral computing
 -------------------------------------------------------
 OpenMP Integral computing Module                
 Release: version 1.0, May 2013, Q-Chem Inc. Pittsburgh 
 -------------------------------------------------------
 ---------------------------------------
  Cycle       Energy         DIIS Error
 ---------------------------------------
    1    -155.4350234408      1.06E-01
    2    -154.9249164625      1.36E-02
    3    -154.9532696384      3.04E-03
    4    -154.9794398043      2.41E-03
    5    -154.9801647922      2.26E-04 Done RCA. Switching to DIIS
    6    -154.9809772083      1.01E-04
    7    -154.9809803890      7.57E-06 Convergence criterion met
 ---------------------------------------
 SCF time:  CPU 14.31 s  wall 2.40 s
 SCF   energy in the small basis set = -154.98098039
 Total energy in the small basis set = -154.98098039
 ----------------------------------------------------
  Cycle       Energy    
 ----------------------------------------------------
    1     -18.7522521168     -1.88E+01
 Long-range K will be added via erf
 Coulomb attenuation parameter = 0.2 bohr**(-1)
 A restricted hybrid HF-DFT SCF calculation will be
 performed using Relaxed Constraint Minimization + Pulay DIIS
 Exchange:     0.2220 Hartree-Fock + 1.0000 wB97X-D + LR-HF
 Correlation:  1.0000 wB97X-D
 Using Euler-Maclaurin-Lebedev (75,302) quadrature formula
 Dispersion:   Grimme D
 SCF converges when DIIS error is below 1.0E-05
 Basis2 calculation detected. Using small basis as guess for larger.
 SCFMinFind is unable to tell whether the solution found is close.
 Resetting ReadMinima to 0 and attempting to follow guess.
 SCFMinFind following SCF Guess.
 using 6 threads for integral computing
 -------------------------------------------------------
 OpenMP Integral computing Module                
 Release: version 1.0, May 2013, Q-Chem Inc. Pittsburgh 
 -------------------------------------------------------
 using 6 threads for integral computing
 -------------------------------------------------------
 OpenMP Integral computing Module                
 Release: version 1.0, May 2013, Q-Chem Inc. Pittsburgh 
 -------------------------------------------------------
 ---------------------------------------
  Cycle       Energy         DIIS Error
 ---------------------------------------
    1    -155.0125593137      5.72E-03
    2    -155.0280092363      2.86E-03
    3    -155.0376541402      3.48E-04 Done RCA. Switching to DIIS
    4    -155.0492283473      2.51E-04
    5    -155.0494168881      3.93E-05
    6    -155.0494247295      5.64E-06 Convergence criterion met
 ---------------------------------------
 SCF time:  CPU 39.04 s  wall 6.53 s
 SCF   energy in the final basis set = -155.04942473
 Total energy in the final basis set = -155.04942473
 
 --------------------------------------------------------------
 
                    Orbital Energies (a.u.)
 --------------------------------------------------------------
 
 Alpha MOs
 -- Occupied --
-19.2460 -10.3270 -10.2744  -1.1260  -0.8498  -0.7232  -0.5957  -0.5457
 -0.5236  -0.4704  -0.4587  -0.4109  -0.3621
 -- Virtual --
  0.0658   0.0877   0.0893   0.1022   0.1275   0.1327   0.1365   0.1795
  0.1992   0.2068   0.2362   0.2449   0.2770   0.2872   0.2927   0.3089
  0.3179   0.3303   0.3429   0.3814   0.4582   0.4956   0.5013   0.5213
  0.5649   0.5683   0.5844   0.6039   0.6167   0.6319   0.6592   0.6801
  0.6839   0.7136   0.7617   0.8035   0.8452   0.9036   0.9251   0.9693
  0.9929   1.0485   1.0609   1.1045   1.1374   1.1754   1.1885   1.2156
  1.2306   1.2448   1.2752   1.3090   1.3244   1.3371   1.3786   1.4152
  1.4431   1.4516   1.4713   1.4820   1.5132   1.5327   1.5973   1.6250
  1.6422   1.6975   1.9443   2.0370   2.1217   2.2670   2.2865   2.4289
  2.4445   2.5325   2.5839   2.6017   2.6931   2.8079   2.8489   2.8803
  2.9179   2.9746   3.0068   3.0274   3.0395   3.0622   3.0722   3.0868
  3.1011   3.1706   3.2122   3.2549   3.2702   3.2915   3.3230   3.3301
  3.3625   3.3994   3.4202   3.4395   3.5139   3.5580   3.5697   3.5793
  3.6207   3.6216   3.6604   3.6967   3.7367   3.7573   3.7868   3.8304
  3.8648   3.8831   3.9470   3.9816   3.9862   4.0304   4.0408   4.0676
  4.1055   4.1230   4.1434   4.1813   4.2046   4.2247   4.2878   4.3178
  4.3444   4.3810   4.4969   4.5050   4.5166   4.6235   4.7208   4.7743
  4.8541   4.9283   4.9585   4.9654   5.0202   5.0607   5.1196   5.1902
  5.2186   5.2546   5.2678   5.3195   5.3304   5.3504   5.4035   5.4675
  5.5299   5.5720   5.6776   5.8445   5.9289   6.0313   6.3501   6.3699
  6.4229   6.6560   6.7084   6.8222   7.1319   7.3482   7.4231   7.5526
  7.7258   8.1187  25.1461  25.4197  50.4628
 --------------------------------------------------------------
 
 -----------------------------------------------------------------
                    Cartesian Multipole Moments
 -----------------------------------------------------------------
    Charge (ESU x 10^10)
                 0.0000
    Dipole Moment (Debye)
         X      -0.8588      Y      -1.0681      Z       1.1242
       Tot       1.7727
    Quadrupole Moments (Debye-Ang)
        XX     -13.7854     XY       1.2843     YY     -19.7698
        XZ      -3.6758     YZ       1.5663     ZZ     -21.1197
    Octopole Moments (Debye-Ang^2)
       XXX     223.4900    XXY     -10.2166    XYY      82.7088
       YYY     -41.0316    XXZ      12.5362    XYZ      -4.2966
       YYZ       1.1254    XZZ      89.0571    YZZ     -15.3330
       ZZZ       3.5857
    Hexadecapole Moments (Debye-Ang^3)
      XXXX   -2190.0504   XXXY     123.1216   XXYY    -393.3102
      XYYY     160.7169   YYYY    -107.4486   XXXZ     -33.2714
      XXYZ      10.4544   XYYZ       1.7809   YYYZ      -1.0398
      XXZZ    -407.5692   XYZZ      59.0782   YYZZ     -29.3616
      XZZZ      -0.3353   YZZZ       0.5928   ZZZZ     -53.4720
 -----------------------------------------------------------------
Archival summary:
1\1\centos77-c7\SP\ProcedureUnspecified\BasisUnspecified\126\shihchen\MonJul2714:12:522020MonJul2714:12:522020\0\\#,ProcedureUnspecified,BasisUnspecified,\\0,1\C\H,1,1.08974\H,1,1.09609,2,107.195\O,1,1.41511,2,105.493,3,-117.852,0\H,4,0.957116,1,108.863,2,178.989,0\C,1,1.5176,2,110.27,3,120.028,0\H,6,1.08986,1,110.512,2,160.25,0\H,6,1.09107,1,110.615,2,39.9327,0\H,6,1.09228,1,110.987,2,-79.6279,0\\\@

 Total job time:  11.13s(wall), 57.23s(cpu) 
 Mon Jul 27 14:12:52 2020

        *************************************************************
        *                                                           *
        *  Thank you very much for using Q-Chem.  Have a nice day.  *
        *                                                           *
        *************************************************************


