                  Welcome to Q-Chem
     A Quantum Leap Into The Future Of Chemistry


 Q-Chem 5.3 (devel), Q-Chem, Inc., Pleasanton, CA (2020)

 Yihan Shao,  Zhengting Gan,  E. Epifanovsky,  A. T. B. Gilbert,  M. Wormit,  
 J. Kussmann,  A. W. Lange,  A. Behn,  Jia Deng,  Xintian Feng,  D. Ghosh,  
 M. Goldey,  P. R. Horn,  L. D. Jacobson,  I. Kaliman,  T. Kus,  A. Landau,  
 Jie Liu,  E. I. Proynov,  R. M. Richard,  R. P. Steele,  E. J. Sundstrom,  
 H. L. Woodcock III,  P. M. Zimmerman,  D. Zuev,  B. Alam,  B. Albrecht,  
 E. Alguire,  S. A. Baeppler,  D. Barton,  Z. Benda,  Y. A. Bernard,  
 E. J. Berquist,  K. B. Bravaya,  H. Burton,  K. Carter-Fenk,  D. Casanova,  
 Chun-Min Chang,  Yunqing Chen,  A. Chien,  K. D. Closser,  M. P. Coons,  
 S. Coriani,  S. Dasgupta,  A. L. Dempwolff,  M. Diedenhofen,  Hainam Do,  
 R. G. Edgar,  Po-Tung Fang,  S. Faraji,  S. Fatehi,  Qingguo Feng,  
 J. Fosso-Tande,  J. Gayvert,  Qinghui Ge,  A. Ghysels,  G. Gidofalvi,  
 J. Gomes,  J. Gonthier,  A. Gunina,  D. Hait,  M. W. D. Hanson-Heine,  
 P. H. P. Harbach,  A. W. Hauser,  M. F. Herbst,  J. E. Herr,  
 E. G. Hohenstein,  Z. C. Holden,  Kerwin Hui,  B. C. Huynh,  T.-C. Jagau,  
 Hyunjun Ji,  B. Kaduk,  K. Khistyaev,  Jaehoon Kim,  P. Klunzinger,  K. Koh,  
 D. Kosenkov,  L. Koulias,  T. Kowalczyk,  C. M. Krauter,  A. Kunitsa,  
 Ka Un Lao,  A. Laurent,  K. V. Lawler,  Joonho Lee,  D. Lefrancois,  
 S. Lehtola,  D. S. Levine,  Yi-Pei Li,  You-Sheng Lin,  Fenglai Liu,  
 Kuan-Yu Liu,  E. Livshits,  M. Loipersberger,  A. Luenser,  P. Manohar,  
 E. Mansoor,  S. F. Manzer,  Shan-Ping Mao,  Yuezhi Mao,  N. Mardirossian,  
 A. V. Marenich,  T. Markovich,  L. A. Martinez-Martinez,  S. A. Maurer,  
 N. J. Mayhall,  S. C. McKenzie,  J.-M. Mewes,  P. Morgante,  A. F. Morrison,  
 J. W. Mullinax,  K. Nanda,  T. S. Nguyen-Beck,  R. Olivares-Amaya,  
 K. J. Oosterbaan,  J. A. Parkhill,  S. K. Paul,  F. Pavosevic,  Zheng Pei,  
 T. M. Perrine,  F. Plasser,  P. Pokhilko,  S. Prager,  A. Prociuk,  
 E. Ramos,  B. Rana,  D. R. Rehn,  F. Rob,  M. Scheurer,  M. Schneider,  
 N. Sergueev,  S. M. Sharada,  S. Sharma,  D. W. Small,  T. Stauch,  
 C. J. Stein,  T. Stein,  Yu-Chuan Su,  S. P. Veccham,  Zhen Tao,  
 A. J. W. Thom,  A. Tkatchenko,  T. Tsuchimochi,  N. M. Tubman,  L. Vogt,  
 M. L. Vidal,  O. Vydrov,  M. A. Watson,  J. Wenzel,  M. de Wergifosse,  
 T. A. Wesolowski,  A. White,  J. Witte,  A. Yamada,  Jun Yang,  K. Yao,  
 S. Yeganeh,  S. R. Yost,  Zhi-Qiang You,  A. Zech,  Igor Ying Zhang,  
 Xing Zhang,  Yan Zhao,  Ying Zhu,  B. R. Brooks,  G. K. L. Chan,  
 C. J. Cramer,  M. S. Gordon,  W. J. Hehre,  A. Klamt,  M. W. Schmidt,  
 C. D. Sherrill,  D. G. Truhlar,  A. Aspuru-Guzik,  R. Baer,  A. T. Bell,  
 N. A. Besley,  Jeng-Da Chai,  A. E. DePrince, III,  R. A. DiStasio Jr.,  
 A. Dreuw,  B. D. Dunietz,  T. R. Furlani,  Chao-Ping Hsu,  Yousung Jung,  
 Jing Kong,  D. S. Lambrecht,  WanZhen Liang,  C. Ochsenfeld,  
 V. A. Rassolov,  L. V. Slipchenko,  J. E. Subotnik,  T. Van Voorhis,  
 J. M. Herbert,  A. I. Krylov,  P. M. W. Gill,  M. Head-Gordon

 Contributors to earlier versions of Q-Chem not listed above: 
 R. D. Adamson,  B. Austin,  J. Baker,  G. J. O. Beran,  K. Brandhorst,  
 S. T. Brown,  E. F. C. Byrd,  A. K. Chakraborty,  C.-L. Cheng,  
 Siu Hung Chien,  D. M. Chipman,  D. L. Crittenden,  H. Dachsel,  
 R. J. Doerksen,  A. D. Dutoi,  L. Fusti-Molnar,  W. A. Goddard III,  
 A. Golubeva-Zadorozhnaya,  S. R. Gwaltney,  G. Hawkins,  A. Heyden,  
 S. Hirata,  G. Kedziora,  F. J. Keil,  C. Kelley,  Jihan Kim,  R. A. King,  
 R. Z. Khaliullin,  P. P. Korambath,  W. Kurlancheek,  A. M. Lee,  M. S. Lee,  
 S. V. Levchenko,  Ching Yeh Lin,  D. Liotard,  R. C. Lochan,  I. Lotan,  
 P. E. Maslen,  N. Nair,  D. P. O'Neill,  D. Neuhauser,  E. Neuscamman,  
 C. M. Oana,  R. Olson,  B. Peters,  R. Peverati,  P. A. Pieniazek,  
 Y. M. Rhee,  J. Ritchie,  M. A. Rohrdanz,  E. Rosta,  N. J. Russ,  
 H. F. Schaefer III,  N. E. Schultz,  N. Shenvi,  A. C. Simmonett,  A. Sodt,  
 D. Stuck,  K. S. Thanthiriwatte,  V. Vanovschi,  Tao Wang,  A. Warshel,  
 C. F. Williams,  Q. Wu,  X. Xu,  W. Zhang

 Please cite Q-Chem as follows:
 Y. Shao et al., Mol. Phys. 113, 184-215 (2015)
 DOI: 10.1080/00268976.2014.952696

 Q-Chem 5.3.0 for Intel X86 EM64T Linux

 Parts of Q-Chem use Armadillo 9.800.1 (Horizon Scraper).
 http://arma.sourceforge.net/

 Q-Chem begins on Mon Jul 27 14:14:23 2020  

Host: centos77-c7
0

     Scratch files written to /tmp/29924.centos77-h1/qchem101853//
Processing $rem in /opt/qchem-5.3.0-intel2020u1//config/preferences:
Processing $rem in /home/shihchengli/.qchemrc:

Checking the input file for inconsistencies... 	...done.

--------------------------------------------------------------
User input:
--------------------------------------------------------------
$rem
   JOBTYPE  sp
   EXCHANGE   omegaB97X-D
   BASIS   6-311+G(2df,2pd)
   UNRESTRICTED   False
   max_scf_cycles   250
   geom_opt_max_cycles   1500
   basis2 6-31G*
   scf_algorithm rca_diis
   SYM_IGNORE  TRUE
   print_input   true
   geom_opt_dmax   80
   pop_mulliken false
   XC_GRID 000075000302
$end

$molecule
0 1
C       -5.3591084106     0.2682138760     0.1266619227
C       -4.0749626770     1.0224972580     0.4184687744
H       -5.5116675730     -0.5239256192     0.8594904422
H       -5.3242113699     -0.1793974993     -0.8677482682
H       -6.2220409416     0.9369828611     0.1608958708
O       -3.2716638980     1.2050371323     -0.7321563167
H       -3.5078175464     0.5149048269     1.2072149447
H       -4.3000967816     2.0260964465     0.7785155307
H       -3.0312408017     0.3468107176     -1.0810329004
$end
--------------------------------------------------------------
 ----------------------------------------------------------------
             Standard Nuclear Orientation (Angstroms)
    I     Atom           X                Y                Z
 ----------------------------------------------------------------
    1      C      -5.3591084106     0.2682138760     0.1266619227
    2      C      -4.0749626770     1.0224972580     0.4184687744
    3      H      -5.5116675730    -0.5239256192     0.8594904422
    4      H      -5.3242113699    -0.1793974993    -0.8677482682
    5      H      -6.2220409416     0.9369828611     0.1608958708
    6      O      -3.2716638980     1.2050371323    -0.7321563167
    7      H      -3.5078175464     0.5149048269     1.2072149447
    8      H      -4.3000967816     2.0260964465     0.7785155307
    9      H      -3.0312408017     0.3468107176    -1.0810329004
 ----------------------------------------------------------------
 Nuclear Repulsion Energy =          81.93658140 hartrees
 There are       13 alpha and       13 beta electrons
 Requested basis set is 6-311+G(2df,2pd)
 There are 60 shells and 186 basis functions

 Total QAlloc Memory Limit   2000 MB
 Mega-Array Size       188 MB
 MEM_STATIC part       192 MB

                       Distance Matrix (Angstroms)
             C (  1)   C (  2)   H (  3)   H (  4)   H (  5)   O (  6)
   C (  2)  1.517605
   H (  3)  1.089861  2.156396
   H (  4)  1.091066  2.158594  1.771212
   H (  5)  1.092280  2.164163  1.768309  1.763664
   O (  6)  2.443897  1.415114  3.246578  2.479515  3.094207
   H (  7)  2.157714  1.096095  2.283746  2.843733  2.939378  2.072007
   H (  8)  2.153270  1.089739  2.824371  2.936528  2.293794  2.003482
   H (  9)  2.623675  1.947925  3.267465  2.362223  3.474463  0.957116
             H (  7)   H (  8)
   H (  8)  1.759315
   H (  9)  2.343386  2.808543
 
 A cutoff of  1.0D-09 yielded   1786 shell pairs
 There are     17306 function pairs (     21496 Cartesian)
 Smallest overlap matrix eigenvalue = 1.11E-04

 Scale SEOQF with 1.000000e-02/1.000000e-01/1.000000e-01

 Standard Electronic Orientation quadrupole field applied
 Nucleus-field energy     =     0.0000000024 hartrees
 Requested basis set is 6-31G(d)
 There are 24 shells and 54 basis functions
 A cutoff of  1.0D-09 yielded    298 shell pairs
 There are      1549 function pairs (      1732 Cartesian)
 Smallest overlap matrix eigenvalue = 6.81E-03
 Guess from superposition of atomic densities
 Warning:  Energy on first SCF cycle will be non-variational
 SAD guess density has 26.000000 electrons
 Long-range K will be added via erf
 Coulomb attenuation parameter = 0.2 bohr**(-1)
 A restricted hybrid HF-DFT SCF calculation will be
 performed using Relaxed Constraint Minimization + Pulay DIIS
 Exchange:     0.2220 Hartree-Fock + 1.0000 wB97X-D + LR-HF
 Correlation:  1.0000 wB97X-D
 Using Euler-Maclaurin-Lebedev (75,302) quadrature formula
 Dispersion:   Grimme D
 SCF converges when DIIS error is below 1.0E-04
 using 6 threads for integral computing
 -------------------------------------------------------
 OpenMP Integral computing Module                
 Release: version 1.0, May 2013, Q-Chem Inc. Pittsburgh 
 -------------------------------------------------------
 using 6 threads for integral computing
 -------------------------------------------------------
 OpenMP Integral computing Module                
 Release: version 1.0, May 2013, Q-Chem Inc. Pittsburgh 
 -------------------------------------------------------
 ---------------------------------------
  Cycle       Energy         DIIS Error
 ---------------------------------------
    1    -155.4373595161      1.06E-01
    2    -154.9204091187      1.36E-02
    3    -154.9489574211      3.04E-03
    4    -154.9752126648      2.41E-03
    5    -154.9759408941      2.24E-04 Done RCA. Switching to DIIS
    6    -154.9767554681      9.98E-05 Convergence criterion met
 ---------------------------------------
 SCF time:  CPU 12.94 s  wall 2.17 s
 SCF   energy in the small basis set = -154.97675547
 Total energy in the small basis set = -154.97675547
 ----------------------------------------------------
  Cycle       Energy    
 ----------------------------------------------------
    1     -18.7557697193     -1.88E+01
 Long-range K will be added via erf
 Coulomb attenuation parameter = 0.2 bohr**(-1)
 A restricted hybrid HF-DFT SCF calculation will be
 performed using Relaxed Constraint Minimization + Pulay DIIS
 Exchange:     0.2220 Hartree-Fock + 1.0000 wB97X-D + LR-HF
 Correlation:  1.0000 wB97X-D
 Using Euler-Maclaurin-Lebedev (75,302) quadrature formula
 Dispersion:   Grimme D
 SCF converges when DIIS error is below 1.0E-05
 Basis2 calculation detected. Using small basis as guess for larger.
 SCFMinFind is unable to tell whether the solution found is close.
 Resetting ReadMinima to 0 and attempting to follow guess.
 SCFMinFind following SCF Guess.
 using 6 threads for integral computing
 -------------------------------------------------------
 OpenMP Integral computing Module                
 Release: version 1.0, May 2013, Q-Chem Inc. Pittsburgh 
 -------------------------------------------------------
 using 6 threads for integral computing
 -------------------------------------------------------
 OpenMP Integral computing Module                
 Release: version 1.0, May 2013, Q-Chem Inc. Pittsburgh 
 -------------------------------------------------------
 ---------------------------------------
  Cycle       Energy         DIIS Error
 ---------------------------------------
    1    -155.0085122742      5.72E-03
    2    -155.0239139188      2.87E-03
    3    -155.0336701380      3.48E-04 Done RCA. Switching to DIIS
    4    -155.0453715055      2.52E-04
    5    -155.0455612975      3.95E-05
    6    -155.0455693145      5.64E-06 Convergence criterion met
 ---------------------------------------
 SCF time:  CPU 38.70 s  wall 6.48 s
 SCF   energy in the final basis set = -155.04556931
 Total energy in the final basis set = -155.04556931
 
 --------------------------------------------------------------
 
                    Orbital Energies (a.u.)
 --------------------------------------------------------------
 
 Alpha MOs
 -- Occupied --
-19.2454 -10.3261 -10.2727  -1.1257  -0.8494  -0.7227  -0.5954  -0.5447
 -0.5243  -0.4719  -0.4566  -0.4080  -0.3612
 -- Virtual --
  0.0666   0.0876   0.0899   0.1031   0.1278   0.1321   0.1380   0.1743
  0.1889   0.1989   0.2386   0.2533   0.2814   0.2924   0.3005   0.3085
  0.3184   0.3359   0.3453   0.3981   0.4604   0.4863   0.5063   0.5086
  0.5456   0.5734   0.5873   0.6051   0.6222   0.6310   0.6495   0.6552
  0.6863   0.7156   0.7790   0.7931   0.8662   0.9183   0.9503   1.0051
  1.0158   1.0442   1.0660   1.0826   1.1487   1.1795   1.1966   1.2054
  1.2157   1.2467   1.2837   1.3133   1.3293   1.3597   1.3807   1.3869
  1.4338   1.4391   1.4710   1.4823   1.5097   1.5284   1.5998   1.6102
  1.6549   1.6782   1.9567   2.0360   2.0770   2.2264   2.2842   2.3958
  2.4107   2.5665   2.6285   2.6762   2.7176   2.7768   2.8184   2.8828
  2.9167   2.9733   2.9992   3.0111   3.0372   3.0695   3.0955   3.1101
  3.1566   3.1651   3.1959   3.2180   3.2526   3.2711   3.2818   3.3184
  3.3598   3.4453   3.4682   3.5002   3.5169   3.5500   3.5600   3.5802
  3.6354   3.6479   3.6711   3.6748   3.6995   3.7351   3.7611   3.7897
  3.8719   3.8769   3.9333   3.9494   3.9709   4.0003   4.0638   4.0714
  4.0878   4.1308   4.1624   4.1915   4.1972   4.2157   4.2758   4.3284
  4.3693   4.4059   4.4734   4.5443   4.5884   4.6013   4.7079   4.7609
  4.8587   4.8837   4.9508   4.9868   5.0325   5.0499   5.1198   5.1675
  5.2319   5.2435   5.2634   5.3133   5.3281   5.3678   5.4209   5.4682
  5.5230   5.5745   5.6786   5.8773   5.9535   6.0483   6.3127   6.3653
  6.4475   6.6548   6.7052   6.8226   7.1256   7.3406   7.4180   7.5505
  7.7307   8.1077  25.0936  25.4458  50.4674
 --------------------------------------------------------------
 
 -----------------------------------------------------------------
                    Cartesian Multipole Moments
 -----------------------------------------------------------------
    Charge (ESU x 10^10)
                 0.0000
    Dipole Moment (Debye)
         X      -0.6098      Y      -1.5181      Z       0.6635
       Tot       1.7655
    Quadrupole Moments (Debye-Ang)
        XX     -15.6025     XY       3.3877     YY     -22.1775
        XZ      -2.8755     YZ       2.7036     ZZ     -19.8349
    Octopole Moments (Debye-Ang^2)
       XXX     235.4501    XXY     -19.7650    XYY      90.8830
       YYY     -48.1916    XXZ      12.2781    XYZ      -9.4010
       YYZ       5.0573    XZZ      86.8414    YZZ     -18.1734
       ZZZ       0.4398
    Hexadecapole Moments (Debye-Ang^3)
      XXXX   -2257.7787   XXXY     160.2518   XXYY    -419.5882
      XYYY     180.0144   YYYY    -127.6350   XXXZ     -38.3930
      XXYZ      34.6769   XYYZ     -13.7542   YYYZ      11.5519
      XXZZ    -410.6690   XYZZ      70.2941   YYZZ     -35.5137
      XZZZ      11.1066   YZZZ       5.9764   ZZZZ     -63.8771
 -----------------------------------------------------------------
Archival summary:
1\1\centos77-c7\SP\ProcedureUnspecified\BasisUnspecified\126\shihchen\MonJul2714:14:342020MonJul2714:14:342020\0\\#,ProcedureUnspecified,BasisUnspecified,\\0,1\C\H,1,1.08974\H,1,1.09609,2,107.195\O,1,1.41511,2,105.493,3,-117.852,0\H,4,0.957116,1,108.863,2,178.989,0\C,1,1.5176,2,110.27,3,120.028,0\H,6,1.08986,1,110.512,2,-109.75,0\H,6,1.09107,1,110.615,2,129.933,0\H,6,1.09228,1,110.987,2,10.3721,0\\\@

 Total job time:  10.79s(wall), 55.41s(cpu) 
 Mon Jul 27 14:14:34 2020

        *************************************************************
        *                                                           *
        *  Thank you very much for using Q-Chem.  Have a nice day.  *
        *                                                           *
        *************************************************************


