                  Welcome to Q-Chem
     A Quantum Leap Into The Future Of Chemistry


 Q-Chem 5.3 (devel), Q-Chem, Inc., Pleasanton, CA (2020)

 Yihan Shao,  Zhengting Gan,  E. Epifanovsky,  A. T. B. Gilbert,  M. Wormit,  
 J. Kussmann,  A. W. Lange,  A. Behn,  Jia Deng,  Xintian Feng,  D. Ghosh,  
 M. Goldey,  P. R. Horn,  L. D. Jacobson,  I. Kaliman,  T. Kus,  A. Landau,  
 Jie Liu,  E. I. Proynov,  R. M. Richard,  R. P. Steele,  E. J. Sundstrom,  
 H. L. Woodcock III,  P. M. Zimmerman,  D. Zuev,  B. Alam,  B. Albrecht,  
 E. Alguire,  S. A. Baeppler,  D. Barton,  Z. Benda,  Y. A. Bernard,  
 E. J. Berquist,  K. B. Bravaya,  H. Burton,  K. Carter-Fenk,  D. Casanova,  
 Chun-Min Chang,  Yunqing Chen,  A. Chien,  K. D. Closser,  M. P. Coons,  
 S. Coriani,  S. Dasgupta,  A. L. Dempwolff,  M. Diedenhofen,  Hainam Do,  
 R. G. Edgar,  Po-Tung Fang,  S. Faraji,  S. Fatehi,  Qingguo Feng,  
 J. Fosso-Tande,  J. Gayvert,  Qinghui Ge,  A. Ghysels,  G. Gidofalvi,  
 J. Gomes,  J. Gonthier,  A. Gunina,  D. Hait,  M. W. D. Hanson-Heine,  
 P. H. P. Harbach,  A. W. Hauser,  M. F. Herbst,  J. E. Herr,  
 E. G. Hohenstein,  Z. C. Holden,  Kerwin Hui,  B. C. Huynh,  T.-C. Jagau,  
 Hyunjun Ji,  B. Kaduk,  K. Khistyaev,  Jaehoon Kim,  P. Klunzinger,  K. Koh,  
 D. Kosenkov,  L. Koulias,  T. Kowalczyk,  C. M. Krauter,  A. Kunitsa,  
 Ka Un Lao,  A. Laurent,  K. V. Lawler,  Joonho Lee,  D. Lefrancois,  
 S. Lehtola,  D. S. Levine,  Yi-Pei Li,  You-Sheng Lin,  Fenglai Liu,  
 Kuan-Yu Liu,  E. Livshits,  M. Loipersberger,  A. Luenser,  P. Manohar,  
 E. Mansoor,  S. F. Manzer,  Shan-Ping Mao,  Yuezhi Mao,  N. Mardirossian,  
 A. V. Marenich,  T. Markovich,  L. A. Martinez-Martinez,  S. A. Maurer,  
 N. J. Mayhall,  S. C. McKenzie,  J.-M. Mewes,  P. Morgante,  A. F. Morrison,  
 J. W. Mullinax,  K. Nanda,  T. S. Nguyen-Beck,  R. Olivares-Amaya,  
 K. J. Oosterbaan,  J. A. Parkhill,  S. K. Paul,  F. Pavosevic,  Zheng Pei,  
 T. M. Perrine,  F. Plasser,  P. Pokhilko,  S. Prager,  A. Prociuk,  
 E. Ramos,  B. Rana,  D. R. Rehn,  F. Rob,  M. Scheurer,  M. Schneider,  
 N. Sergueev,  S. M. Sharada,  S. Sharma,  D. W. Small,  T. Stauch,  
 C. J. Stein,  T. Stein,  Yu-Chuan Su,  S. P. Veccham,  Zhen Tao,  
 A. J. W. Thom,  A. Tkatchenko,  T. Tsuchimochi,  N. M. Tubman,  L. Vogt,  
 M. L. Vidal,  O. Vydrov,  M. A. Watson,  J. Wenzel,  M. de Wergifosse,  
 T. A. Wesolowski,  A. White,  J. Witte,  A. Yamada,  Jun Yang,  K. Yao,  
 S. Yeganeh,  S. R. Yost,  Zhi-Qiang You,  A. Zech,  Igor Ying Zhang,  
 Xing Zhang,  Yan Zhao,  Ying Zhu,  B. R. Brooks,  G. K. L. Chan,  
 C. J. Cramer,  M. S. Gordon,  W. J. Hehre,  A. Klamt,  M. W. Schmidt,  
 C. D. Sherrill,  D. G. Truhlar,  A. Aspuru-Guzik,  R. Baer,  A. T. Bell,  
 N. A. Besley,  Jeng-Da Chai,  A. E. DePrince, III,  R. A. DiStasio Jr.,  
 A. Dreuw,  B. D. Dunietz,  T. R. Furlani,  Chao-Ping Hsu,  Yousung Jung,  
 Jing Kong,  D. S. Lambrecht,  WanZhen Liang,  C. Ochsenfeld,  
 V. A. Rassolov,  L. V. Slipchenko,  J. E. Subotnik,  T. Van Voorhis,  
 J. M. Herbert,  A. I. Krylov,  P. M. W. Gill,  M. Head-Gordon

 Contributors to earlier versions of Q-Chem not listed above: 
 R. D. Adamson,  B. Austin,  J. Baker,  G. J. O. Beran,  K. Brandhorst,  
 S. T. Brown,  E. F. C. Byrd,  A. K. Chakraborty,  C.-L. Cheng,  
 Siu Hung Chien,  D. M. Chipman,  D. L. Crittenden,  H. Dachsel,  
 R. J. Doerksen,  A. D. Dutoi,  L. Fusti-Molnar,  W. A. Goddard III,  
 A. Golubeva-Zadorozhnaya,  S. R. Gwaltney,  G. Hawkins,  A. Heyden,  
 S. Hirata,  G. Kedziora,  F. J. Keil,  C. Kelley,  Jihan Kim,  R. A. King,  
 R. Z. Khaliullin,  P. P. Korambath,  W. Kurlancheek,  A. M. Lee,  M. S. Lee,  
 S. V. Levchenko,  Ching Yeh Lin,  D. Liotard,  R. C. Lochan,  I. Lotan,  
 P. E. Maslen,  N. Nair,  D. P. O'Neill,  D. Neuhauser,  E. Neuscamman,  
 C. M. Oana,  R. Olson,  B. Peters,  R. Peverati,  P. A. Pieniazek,  
 Y. M. Rhee,  J. Ritchie,  M. A. Rohrdanz,  E. Rosta,  N. J. Russ,  
 H. F. Schaefer III,  N. E. Schultz,  N. Shenvi,  A. C. Simmonett,  A. Sodt,  
 D. Stuck,  K. S. Thanthiriwatte,  V. Vanovschi,  Tao Wang,  A. Warshel,  
 C. F. Williams,  Q. Wu,  X. Xu,  W. Zhang

 Please cite Q-Chem as follows:
 Y. Shao et al., Mol. Phys. 113, 184-215 (2015)
 DOI: 10.1080/00268976.2014.952696

 Q-Chem 5.3.0 for Intel X86 EM64T Linux

 Parts of Q-Chem use Armadillo 9.800.1 (Horizon Scraper).
 http://arma.sourceforge.net/

 Q-Chem begins on Mon Jul 27 14:19:16 2020  

Host: centos77-c7
0

     Scratch files written to /tmp/29924.centos77-h1/qchem103120//
Processing $rem in /opt/qchem-5.3.0-intel2020u1//config/preferences:
Processing $rem in /home/shihchengli/.qchemrc:

Checking the input file for inconsistencies... 	...done.

--------------------------------------------------------------
User input:
--------------------------------------------------------------
$rem
   JOBTYPE  sp
   EXCHANGE   omegaB97X-D
   BASIS   6-311+G(2df,2pd)
   UNRESTRICTED   False
   max_scf_cycles   250
   geom_opt_max_cycles   1500
   basis2 6-31G*
   scf_algorithm rca_diis
   SYM_IGNORE  TRUE
   print_input   true
   geom_opt_dmax   80
   pop_mulliken false
   XC_GRID 000075000302
$end

$molecule
0 1
C       -5.3296901912     0.2974444015     0.0955071114
C       -4.1248345465     1.2117339390     0.2200962011
H       -5.3075982521     -0.2360955472     -0.8545686678
H       -6.2554317570     0.8722408915     0.1506153959
H       -5.3465975527     -0.4394733879     0.9015733522
O       -2.8959409662     0.5197715178     0.1036642034
H       -4.1659839117     1.7668393404     1.1643360645
H       -4.1230275450     1.9457763010     -0.5853284747
H       -3.0537052774     -0.3210174561     -0.3255851858
$end
--------------------------------------------------------------
 ----------------------------------------------------------------
             Standard Nuclear Orientation (Angstroms)
    I     Atom           X                Y                Z
 ----------------------------------------------------------------
    1      C      -5.3296901912     0.2974444015     0.0955071114
    2      C      -4.1248345465     1.2117339390     0.2200962011
    3      H      -5.3075982521    -0.2360955472    -0.8545686678
    4      H      -6.2554317570     0.8722408915     0.1506153959
    5      H      -5.3465975527    -0.4394733879     0.9015733522
    6      O      -2.8959409662     0.5197715178     0.1036642034
    7      H      -4.1659839117     1.7668393404     1.1643360645
    8      H      -4.1230275450     1.9457763010    -0.5853284747
    9      H      -3.0537052774    -0.3210174561    -0.3255851858
 ----------------------------------------------------------------
 Nuclear Repulsion Energy =          82.05860103 hartrees
 There are       13 alpha and       13 beta electrons
 Requested basis set is 6-311+G(2df,2pd)
 There are 60 shells and 186 basis functions

 Total QAlloc Memory Limit   2000 MB
 Mega-Array Size       188 MB
 MEM_STATIC part       192 MB

                       Distance Matrix (Angstroms)
             C (  1)   C (  2)   H (  3)   H (  4)   H (  5)   O (  6)
   C (  2)  1.517605
   H (  3)  1.089861  2.156396
   H (  4)  1.091066  2.158594  1.771212
   H (  5)  1.092280  2.164163  1.768309  1.763664
   O (  6)  2.443897  1.415114  2.702894  3.378257  2.750005
   H (  7)  2.157714  1.096095  3.064475  2.488720  2.516090  2.072007
   H (  8)  2.153270  1.089739  2.497251  2.498247  3.065521  2.003482
   H (  9)  2.395813  1.947925  2.316694  3.449882  2.603326  0.957116
             H (  7)   H (  8)
   H (  8)  1.759315
   H (  9)  2.795742  2.519776
 
 A cutoff of  1.0D-09 yielded   1788 shell pairs
 There are     17342 function pairs (     21538 Cartesian)
 Smallest overlap matrix eigenvalue = 1.18E-04

 Scale SEOQF with 1.000000e-02/1.000000e-01/1.000000e-01

 Standard Electronic Orientation quadrupole field applied
 Nucleus-field energy     =     0.0000000027 hartrees
 Requested basis set is 6-31G(d)
 There are 24 shells and 54 basis functions
 A cutoff of  1.0D-09 yielded    298 shell pairs
 There are      1549 function pairs (      1732 Cartesian)
 Smallest overlap matrix eigenvalue = 7.21E-03
 Guess from superposition of atomic densities
 Warning:  Energy on first SCF cycle will be non-variational
 SAD guess density has 26.000000 electrons
 Long-range K will be added via erf
 Coulomb attenuation parameter = 0.2 bohr**(-1)
 A restricted hybrid HF-DFT SCF calculation will be
 performed using Relaxed Constraint Minimization + Pulay DIIS
 Exchange:     0.2220 Hartree-Fock + 1.0000 wB97X-D + LR-HF
 Correlation:  1.0000 wB97X-D
 Using Euler-Maclaurin-Lebedev (75,302) quadrature formula
 Dispersion:   Grimme D
 SCF converges when DIIS error is below 1.0E-04
 using 6 threads for integral computing
 -------------------------------------------------------
 OpenMP Integral computing Module                
 Release: version 1.0, May 2013, Q-Chem Inc. Pittsburgh 
 -------------------------------------------------------
 using 6 threads for integral computing
 -------------------------------------------------------
 OpenMP Integral computing Module                
 Release: version 1.0, May 2013, Q-Chem Inc. Pittsburgh 
 -------------------------------------------------------
 ---------------------------------------
  Cycle       Energy         DIIS Error
 ---------------------------------------
    1    -155.4404091776      1.06E-01
    2    -154.9239544271      1.35E-02
    3    -154.9520900723      3.05E-03
    4    -154.9781194536      2.40E-03
    5    -154.9788455852      2.26E-04 Done RCA. Switching to DIIS
    6    -154.9796554291      9.20E-05 Convergence criterion met
 ---------------------------------------
 SCF time:  CPU 13.07 s  wall 2.19 s
 SCF   energy in the small basis set = -154.97965543
 Total energy in the small basis set = -154.97965543
 ----------------------------------------------------
  Cycle       Energy    
 ----------------------------------------------------
    1     -18.7532811535     -1.88E+01
 Long-range K will be added via erf
 Coulomb attenuation parameter = 0.2 bohr**(-1)
 A restricted hybrid HF-DFT SCF calculation will be
 performed using Relaxed Constraint Minimization + Pulay DIIS
 Exchange:     0.2220 Hartree-Fock + 1.0000 wB97X-D + LR-HF
 Correlation:  1.0000 wB97X-D
 Using Euler-Maclaurin-Lebedev (75,302) quadrature formula
 Dispersion:   Grimme D
 SCF converges when DIIS error is below 1.0E-05
 Basis2 calculation detected. Using small basis as guess for larger.
 SCFMinFind is unable to tell whether the solution found is close.
 Resetting ReadMinima to 0 and attempting to follow guess.
 SCFMinFind following SCF Guess.
 using 6 threads for integral computing
 -------------------------------------------------------
 OpenMP Integral computing Module                
 Release: version 1.0, May 2013, Q-Chem Inc. Pittsburgh 
 -------------------------------------------------------
 using 6 threads for integral computing
 -------------------------------------------------------
 OpenMP Integral computing Module                
 Release: version 1.0, May 2013, Q-Chem Inc. Pittsburgh 
 -------------------------------------------------------
 ---------------------------------------
  Cycle       Energy         DIIS Error
 ---------------------------------------
    1    -155.0115345269      5.72E-03
    2    -155.0269971847      2.87E-03
    3    -155.0367091946      3.47E-04 Done RCA. Switching to DIIS
    4    -155.0483458334      2.50E-04
    5    -155.0485308631      3.89E-05
    6    -155.0485383764      5.50E-06 Convergence criterion met
 ---------------------------------------
 SCF time:  CPU 39.08 s  wall 6.54 s
 SCF   energy in the final basis set = -155.04853838
 Total energy in the final basis set = -155.04853838
 
 --------------------------------------------------------------
 
                    Orbital Energies (a.u.)
 --------------------------------------------------------------
 
 Alpha MOs
 -- Occupied --
-19.2439 -10.3270 -10.2809  -1.1252  -0.8518  -0.7283  -0.5780  -0.5572
 -0.5376  -0.4661  -0.4619  -0.4149  -0.3580
 -- Virtual --
  0.0655   0.0862   0.0904   0.1001   0.1270   0.1346   0.1366   0.1752
  0.1885   0.2150   0.2410   0.2477   0.2641   0.2816   0.2885   0.3122
  0.3169   0.3357   0.3449   0.3901   0.4575   0.4874   0.5031   0.5294
  0.5582   0.5678   0.5762   0.6069   0.6102   0.6301   0.6588   0.6700
  0.6866   0.7105   0.7536   0.7972   0.8704   0.9042   0.9317   0.9489
  0.9836   1.0495   1.0829   1.1024   1.1411   1.1654   1.1896   1.2096
  1.2277   1.2357   1.2565   1.2852   1.3262   1.3564   1.3876   1.4137
  1.4555   1.4634   1.4727   1.5024   1.5120   1.5407   1.5878   1.6080
  1.6427   1.7295   1.9402   2.0755   2.1223   2.2693   2.3052   2.4541
  2.4631   2.5186   2.5690   2.6001   2.7174   2.7842   2.8395   2.8647
  2.9102   2.9611   3.0052   3.0142   3.0385   3.0437   3.0686   3.0762
  3.1217   3.1753   3.2198   3.2697   3.2745   3.2954   3.3162   3.3479
  3.3570   3.3929   3.4293   3.4488   3.4900   3.5713   3.5772   3.5913
  3.6068   3.6379   3.6637   3.7180   3.7315   3.7533   3.7894   3.8329
  3.9134   3.9342   3.9376   3.9619   3.9981   4.0181   4.0327   4.0387
  4.0700   4.1097   4.1452   4.1954   4.2118   4.2333   4.2722   4.3352
  4.3635   4.4142   4.4656   4.5211   4.5385   4.6446   4.7152   4.8163
  4.8422   4.9083   4.9652   4.9708   5.0159   5.0447   5.0685   5.2107
  5.2330   5.2478   5.2912   5.3115   5.3370   5.3567   5.4241   5.4805
  5.5356   5.6487   5.7246   5.8237   5.9684   5.9960   6.3602   6.3781
  6.4144   6.6547   6.7078   6.7794   7.1343   7.3853   7.4364   7.5784
  7.7269   8.1256  25.1754  25.4362  50.4641
 --------------------------------------------------------------
 
 -----------------------------------------------------------------
                    Cartesian Multipole Moments
 -----------------------------------------------------------------
    Charge (ESU x 10^10)
                 0.0000
    Dipole Moment (Debye)
         X      -1.7605      Y      -0.5839      Z      -0.5029
       Tot       1.9218
    Quadrupole Moments (Debye-Ang)
        XX      -8.4518     XY       0.0605     YY     -18.8576
        XZ       0.9764     YZ       0.7485     ZZ     -19.7404
    Octopole Moments (Debye-Ang^2)
       XXX     195.1646    XXY      -6.4040    XYY      79.6558
       YYY     -38.0781    XXZ      -3.0930    XYZ      -2.7370
       YYZ      -1.8503    XZZ      83.2050    YZZ     -12.9409
       ZZZ      -7.5432
    Hexadecapole Moments (Debye-Ang^3)
      XXXX   -2024.9541   XXXY     106.4566   XXYY    -381.0238
      XYYY     154.5192   YYYY    -110.4294   XXXZ      22.7696
      XXYZ       8.2015   XYYZ       7.6804   YYYZ      -6.3570
      XXZZ    -384.0262   XYZZ      53.0993   YYZZ     -22.7160
      XZZZ      32.0503   YZZZ      -6.2454   ZZZZ     -36.3253
 -----------------------------------------------------------------
Archival summary:
1\1\centos77-c7\SP\ProcedureUnspecified\BasisUnspecified\126\shihchen\MonJul2714:19:262020MonJul2714:19:262020\0\\#,ProcedureUnspecified,BasisUnspecified,\\0,1\C\H,1,1.08974\H,1,1.09609,2,107.195\O,1,1.41511,2,105.493,3,-117.852,0\H,4,0.957116,1,108.863,2,-101.011,0\C,1,1.5176,2,110.27,3,120.028,0\H,6,1.08986,1,110.512,2,60.2497,0\H,6,1.09107,1,110.615,2,-60.0673,0\H,6,1.09228,1,110.987,2,-179.628,0\\\@

 Total job time:  10.93s(wall), 56.01s(cpu) 
 Mon Jul 27 14:19:26 2020

        *************************************************************
        *                                                           *
        *  Thank you very much for using Q-Chem.  Have a nice day.  *
        *                                                           *
        *************************************************************


