                  Welcome to Q-Chem
     A Quantum Leap Into The Future Of Chemistry


 Q-Chem 5.3 (devel), Q-Chem, Inc., Pleasanton, CA (2020)

 Yihan Shao,  Zhengting Gan,  E. Epifanovsky,  A. T. B. Gilbert,  M. Wormit,  
 J. Kussmann,  A. W. Lange,  A. Behn,  Jia Deng,  Xintian Feng,  D. Ghosh,  
 M. Goldey,  P. R. Horn,  L. D. Jacobson,  I. Kaliman,  T. Kus,  A. Landau,  
 Jie Liu,  E. I. Proynov,  R. M. Richard,  R. P. Steele,  E. J. Sundstrom,  
 H. L. Woodcock III,  P. M. Zimmerman,  D. Zuev,  B. Alam,  B. Albrecht,  
 E. Alguire,  S. A. Baeppler,  D. Barton,  Z. Benda,  Y. A. Bernard,  
 E. J. Berquist,  K. B. Bravaya,  H. Burton,  K. Carter-Fenk,  D. Casanova,  
 Chun-Min Chang,  Yunqing Chen,  A. Chien,  K. D. Closser,  M. P. Coons,  
 S. Coriani,  S. Dasgupta,  A. L. Dempwolff,  M. Diedenhofen,  Hainam Do,  
 R. G. Edgar,  Po-Tung Fang,  S. Faraji,  S. Fatehi,  Qingguo Feng,  
 J. Fosso-Tande,  J. Gayvert,  Qinghui Ge,  A. Ghysels,  G. Gidofalvi,  
 J. Gomes,  J. Gonthier,  A. Gunina,  D. Hait,  M. W. D. Hanson-Heine,  
 P. H. P. Harbach,  A. W. Hauser,  M. F. Herbst,  J. E. Herr,  
 E. G. Hohenstein,  Z. C. Holden,  Kerwin Hui,  B. C. Huynh,  T.-C. Jagau,  
 Hyunjun Ji,  B. Kaduk,  K. Khistyaev,  Jaehoon Kim,  P. Klunzinger,  K. Koh,  
 D. Kosenkov,  L. Koulias,  T. Kowalczyk,  C. M. Krauter,  A. Kunitsa,  
 Ka Un Lao,  A. Laurent,  K. V. Lawler,  Joonho Lee,  D. Lefrancois,  
 S. Lehtola,  D. S. Levine,  Yi-Pei Li,  You-Sheng Lin,  Fenglai Liu,  
 Kuan-Yu Liu,  E. Livshits,  M. Loipersberger,  A. Luenser,  P. Manohar,  
 E. Mansoor,  S. F. Manzer,  Shan-Ping Mao,  Yuezhi Mao,  N. Mardirossian,  
 A. V. Marenich,  T. Markovich,  L. A. Martinez-Martinez,  S. A. Maurer,  
 N. J. Mayhall,  S. C. McKenzie,  J.-M. Mewes,  P. Morgante,  A. F. Morrison,  
 J. W. Mullinax,  K. Nanda,  T. S. Nguyen-Beck,  R. Olivares-Amaya,  
 K. J. Oosterbaan,  J. A. Parkhill,  S. K. Paul,  F. Pavosevic,  Zheng Pei,  
 T. M. Perrine,  F. Plasser,  P. Pokhilko,  S. Prager,  A. Prociuk,  
 E. Ramos,  B. Rana,  D. R. Rehn,  F. Rob,  M. Scheurer,  M. Schneider,  
 N. Sergueev,  S. M. Sharada,  S. Sharma,  D. W. Small,  T. Stauch,  
 C. J. Stein,  T. Stein,  Yu-Chuan Su,  S. P. Veccham,  Zhen Tao,  
 A. J. W. Thom,  A. Tkatchenko,  T. Tsuchimochi,  N. M. Tubman,  L. Vogt,  
 M. L. Vidal,  O. Vydrov,  M. A. Watson,  J. Wenzel,  M. de Wergifosse,  
 T. A. Wesolowski,  A. White,  J. Witte,  A. Yamada,  Jun Yang,  K. Yao,  
 S. Yeganeh,  S. R. Yost,  Zhi-Qiang You,  A. Zech,  Igor Ying Zhang,  
 Xing Zhang,  Yan Zhao,  Ying Zhu,  B. R. Brooks,  G. K. L. Chan,  
 C. J. Cramer,  M. S. Gordon,  W. J. Hehre,  A. Klamt,  M. W. Schmidt,  
 C. D. Sherrill,  D. G. Truhlar,  A. Aspuru-Guzik,  R. Baer,  A. T. Bell,  
 N. A. Besley,  Jeng-Da Chai,  A. E. DePrince, III,  R. A. DiStasio Jr.,  
 A. Dreuw,  B. D. Dunietz,  T. R. Furlani,  Chao-Ping Hsu,  Yousung Jung,  
 Jing Kong,  D. S. Lambrecht,  WanZhen Liang,  C. Ochsenfeld,  
 V. A. Rassolov,  L. V. Slipchenko,  J. E. Subotnik,  T. Van Voorhis,  
 J. M. Herbert,  A. I. Krylov,  P. M. W. Gill,  M. Head-Gordon

 Contributors to earlier versions of Q-Chem not listed above: 
 R. D. Adamson,  B. Austin,  J. Baker,  G. J. O. Beran,  K. Brandhorst,  
 S. T. Brown,  E. F. C. Byrd,  A. K. Chakraborty,  C.-L. Cheng,  
 Siu Hung Chien,  D. M. Chipman,  D. L. Crittenden,  H. Dachsel,  
 R. J. Doerksen,  A. D. Dutoi,  L. Fusti-Molnar,  W. A. Goddard III,  
 A. Golubeva-Zadorozhnaya,  S. R. Gwaltney,  G. Hawkins,  A. Heyden,  
 S. Hirata,  G. Kedziora,  F. J. Keil,  C. Kelley,  Jihan Kim,  R. A. King,  
 R. Z. Khaliullin,  P. P. Korambath,  W. Kurlancheek,  A. M. Lee,  M. S. Lee,  
 S. V. Levchenko,  Ching Yeh Lin,  D. Liotard,  R. C. Lochan,  I. Lotan,  
 P. E. Maslen,  N. Nair,  D. P. O'Neill,  D. Neuhauser,  E. Neuscamman,  
 C. M. Oana,  R. Olson,  B. Peters,  R. Peverati,  P. A. Pieniazek,  
 Y. M. Rhee,  J. Ritchie,  M. A. Rohrdanz,  E. Rosta,  N. J. Russ,  
 H. F. Schaefer III,  N. E. Schultz,  N. Shenvi,  A. C. Simmonett,  A. Sodt,  
 D. Stuck,  K. S. Thanthiriwatte,  V. Vanovschi,  Tao Wang,  A. Warshel,  
 C. F. Williams,  Q. Wu,  X. Xu,  W. Zhang

 Please cite Q-Chem as follows:
 Y. Shao et al., Mol. Phys. 113, 184-215 (2015)
 DOI: 10.1080/00268976.2014.952696

 Q-Chem 5.3.0 for Intel X86 EM64T Linux

 Parts of Q-Chem use Armadillo 9.800.1 (Horizon Scraper).
 http://arma.sourceforge.net/

 Q-Chem begins on Mon Jul 27 14:19:27 2020  

Host: centos77-c7
0

     Scratch files written to /tmp/29924.centos77-h1/qchem103200//
Processing $rem in /opt/qchem-5.3.0-intel2020u1//config/preferences:
Processing $rem in /home/shihchengli/.qchemrc:

Checking the input file for inconsistencies... 	...done.

--------------------------------------------------------------
User input:
--------------------------------------------------------------
$rem
   JOBTYPE  sp
   EXCHANGE   omegaB97X-D
   BASIS   6-311+G(2df,2pd)
   UNRESTRICTED   False
   max_scf_cycles   250
   geom_opt_max_cycles   1500
   basis2 6-31G*
   scf_algorithm rca_diis
   SYM_IGNORE  TRUE
   print_input   true
   geom_opt_dmax   80
   pop_mulliken false
   XC_GRID 000075000302
$end

$molecule
0 1
C       -5.3361857522     0.2962272166     0.1037095110
C       -4.1252757757     1.2021540816     0.2306680414
H       -5.3044604493     -0.2541702502     -0.8364250807
H       -6.2575104360     0.8798650833     0.1345808933
H       -5.3718385947     -0.4261745581     0.9222087611
O       -2.9009589698     0.4976773904     0.1451766121
H       -4.1757755934     1.7741740967     1.1642991609
H       -4.1047562314     1.9218224678     -0.5873702982
H       -3.0260481974     -0.2743555279     -0.4065376009
$end
--------------------------------------------------------------
 ----------------------------------------------------------------
             Standard Nuclear Orientation (Angstroms)
    I     Atom           X                Y                Z
 ----------------------------------------------------------------
    1      C      -5.3361857522     0.2962272166     0.1037095110
    2      C      -4.1252757757     1.2021540816     0.2306680414
    3      H      -5.3044604493    -0.2541702502    -0.8364250807
    4      H      -6.2575104360     0.8798650833     0.1345808933
    5      H      -5.3718385947    -0.4261745581     0.9222087611
    6      O      -2.9009589698     0.4976773904     0.1451766121
    7      H      -4.1757755934     1.7741740967     1.1642991609
    8      H      -4.1047562314     1.9218224678    -0.5873702982
    9      H      -3.0260481974    -0.2743555279    -0.4065376009
 ----------------------------------------------------------------
 Nuclear Repulsion Energy =          82.03310685 hartrees
 There are       13 alpha and       13 beta electrons
 Requested basis set is 6-311+G(2df,2pd)
 There are 60 shells and 186 basis functions

 Total QAlloc Memory Limit   2000 MB
 Mega-Array Size       188 MB
 MEM_STATIC part       192 MB

                       Distance Matrix (Angstroms)
             C (  1)   C (  2)   H (  3)   H (  4)   H (  5)   O (  6)
   C (  2)  1.517605
   H (  3)  1.089861  2.156396
   H (  4)  1.091066  2.158594  1.771212
   H (  5)  1.092280  2.164163  1.768309  1.763664
   O (  6)  2.443897  1.415114  2.702894  3.378257  2.750005
   H (  7)  2.157714  1.096095  3.064475  2.488720  2.516090  2.072007
   H (  8)  2.153270  1.089739  2.497251  2.498247  3.065521  2.003482
   H (  9)  2.433650  1.947925  2.318701  3.473814  2.700250  0.957116
             H (  7)   H (  8)
   H (  8)  1.759315
   H (  9)  2.825929  2.453469
 
 A cutoff of  1.0D-09 yielded   1788 shell pairs
 There are     17342 function pairs (     21538 Cartesian)
 Smallest overlap matrix eigenvalue = 1.30E-04

 Scale SEOQF with 1.000000e-02/1.000000e-01/1.000000e-01

 Standard Electronic Orientation quadrupole field applied
 Nucleus-field energy     =     0.0000000027 hartrees
 Requested basis set is 6-31G(d)
 There are 24 shells and 54 basis functions
 A cutoff of  1.0D-09 yielded    298 shell pairs
 There are      1549 function pairs (      1732 Cartesian)
 Smallest overlap matrix eigenvalue = 7.22E-03
 Guess from superposition of atomic densities
 Warning:  Energy on first SCF cycle will be non-variational
 SAD guess density has 26.000000 electrons
 Long-range K will be added via erf
 Coulomb attenuation parameter = 0.2 bohr**(-1)
 A restricted hybrid HF-DFT SCF calculation will be
 performed using Relaxed Constraint Minimization + Pulay DIIS
 Exchange:     0.2220 Hartree-Fock + 1.0000 wB97X-D + LR-HF
 Correlation:  1.0000 wB97X-D
 Using Euler-Maclaurin-Lebedev (75,302) quadrature formula
 Dispersion:   Grimme D
 SCF converges when DIIS error is below 1.0E-04
 using 6 threads for integral computing
 -------------------------------------------------------
 OpenMP Integral computing Module                
 Release: version 1.0, May 2013, Q-Chem Inc. Pittsburgh 
 -------------------------------------------------------
 using 6 threads for integral computing
 -------------------------------------------------------
 OpenMP Integral computing Module                
 Release: version 1.0, May 2013, Q-Chem Inc. Pittsburgh 
 -------------------------------------------------------
 ---------------------------------------
  Cycle       Energy         DIIS Error
 ---------------------------------------
    1    -155.4391548717      1.06E-01
    2    -154.9241293058      1.35E-02
    3    -154.9523220089      3.05E-03
    4    -154.9783536004      2.41E-03
    5    -154.9790821257      2.25E-04 Done RCA. Switching to DIIS
    6    -154.9798947758      9.33E-05 Convergence criterion met
 ---------------------------------------
 SCF time:  CPU 13.09 s  wall 2.20 s
 SCF   energy in the small basis set = -154.97989478
 Total energy in the small basis set = -154.97989478
 ----------------------------------------------------
  Cycle       Energy    
 ----------------------------------------------------
    1     -18.7529576388     -1.88E+01
 Long-range K will be added via erf
 Coulomb attenuation parameter = 0.2 bohr**(-1)
 A restricted hybrid HF-DFT SCF calculation will be
 performed using Relaxed Constraint Minimization + Pulay DIIS
 Exchange:     0.2220 Hartree-Fock + 1.0000 wB97X-D + LR-HF
 Correlation:  1.0000 wB97X-D
 Using Euler-Maclaurin-Lebedev (75,302) quadrature formula
 Dispersion:   Grimme D
 SCF converges when DIIS error is below 1.0E-05
 Basis2 calculation detected. Using small basis as guess for larger.
 SCFMinFind is unable to tell whether the solution found is close.
 Resetting ReadMinima to 0 and attempting to follow guess.
 SCFMinFind following SCF Guess.
 using 6 threads for integral computing
 -------------------------------------------------------
 OpenMP Integral computing Module                
 Release: version 1.0, May 2013, Q-Chem Inc. Pittsburgh 
 -------------------------------------------------------
 using 6 threads for integral computing
 -------------------------------------------------------
 OpenMP Integral computing Module                
 Release: version 1.0, May 2013, Q-Chem Inc. Pittsburgh 
 -------------------------------------------------------
 ---------------------------------------
  Cycle       Energy         DIIS Error
 ---------------------------------------
    1    -155.0116804790      5.72E-03
    2    -155.0271737171      2.87E-03
    3    -155.0368784315      3.47E-04 Done RCA. Switching to DIIS
    4    -155.0485047620      2.49E-04
    5    -155.0486890864      3.90E-05
    6    -155.0486966755      5.54E-06 Convergence criterion met
 ---------------------------------------
 SCF time:  CPU 39.32 s  wall 6.58 s
 SCF   energy in the final basis set = -155.04869668
 Total energy in the final basis set = -155.04869668
 
 --------------------------------------------------------------
 
                    Orbital Energies (a.u.)
 --------------------------------------------------------------
 
 Alpha MOs
 -- Occupied --
-19.2441 -10.3272 -10.2797  -1.1253  -0.8514  -0.7273  -0.5820  -0.5544
 -0.5355  -0.4664  -0.4621  -0.4140  -0.3582
 -- Virtual --
  0.0655   0.0864   0.0899   0.1006   0.1270   0.1342   0.1366   0.1776
  0.1899   0.2146   0.2412   0.2456   0.2639   0.2823   0.2884   0.3131
  0.3166   0.3351   0.3386   0.3836   0.4578   0.4884   0.5014   0.5284
  0.5618   0.5691   0.5767   0.6063   0.6122   0.6285   0.6605   0.6828
  0.6883   0.7086   0.7401   0.7971   0.8625   0.9067   0.9334   0.9550
  0.9774   1.0478   1.0902   1.0973   1.1395   1.1692   1.1842   1.2051
  1.2325   1.2434   1.2548   1.2883   1.3234   1.3559   1.3862   1.4138
  1.4582   1.4665   1.4743   1.4924   1.5023   1.5394   1.6052   1.6087
  1.6405   1.7194   1.9425   2.0674   2.1196   2.2644   2.2994   2.4585
  2.4674   2.5019   2.5657   2.5915   2.7150   2.7987   2.8393   2.8694
  2.9122   2.9638   3.0070   3.0210   3.0306   3.0461   3.0698   3.0791
  3.1151   3.1749   3.2234   3.2674   3.2776   3.2960   3.3180   3.3481
  3.3599   3.3972   3.4237   3.4482   3.4891   3.5706   3.5768   3.5878
  3.5979   3.6322   3.6747   3.7107   3.7329   3.7653   3.7776   3.8527
  3.9064   3.9253   3.9312   3.9587   3.9892   4.0201   4.0305   4.0429
  4.0759   4.1109   4.1481   4.1878   4.2131   4.2381   4.2736   4.3391
  4.3604   4.4100   4.4675   4.5070   4.5393   4.6450   4.7097   4.8139
  4.8621   4.9101   4.9597   4.9770   5.0153   5.0391   5.0784   5.2076
  5.2344   5.2437   5.2893   5.3075   5.3374   5.3607   5.4240   5.4692
  5.5449   5.6221   5.7269   5.8257   5.9777   5.9986   6.3563   6.3783
  6.4117   6.6526   6.7103   6.7920   7.1286   7.3758   7.4354   7.5727
  7.7279   8.1149  25.1766  25.4316  50.4667
 --------------------------------------------------------------
 
 -----------------------------------------------------------------
                    Cartesian Multipole Moments
 -----------------------------------------------------------------
    Charge (ESU x 10^10)
                 0.0000
    Dipole Moment (Debye)
         X      -1.6895      Y      -0.4584      Z      -0.7095
       Tot       1.8889
    Quadrupole Moments (Debye-Ang)
        XX      -8.9345     XY      -0.3143     YY     -18.9605
        XZ       1.4679     YZ       0.8374     ZZ     -19.5548
    Octopole Moments (Debye-Ang^2)
       XXX     198.0427    XXY      -5.1866    XYY      80.0292
       YYY     -37.6372    XXZ      -4.3509    XYZ      -3.1017
       YYZ      -2.0119    XZZ      82.7085    YZZ     -12.7071
       ZZZ      -8.4480
    Hexadecapole Moments (Debye-Ang^3)
      XXXX   -2043.6451   XXXY     102.2998   XXYY    -382.2841
      XYYY     153.0087   YYYY    -108.9683   XXXZ      26.8598
      XXYZ       9.4679   XYYZ       8.1497   YYYZ      -6.4956
      XXZZ    -383.0377   XYZZ      52.3346   YYZZ     -22.3808
      XZZZ      35.0764   YZZZ      -6.6079   ZZZZ     -36.8289
 -----------------------------------------------------------------
Archival summary:
1\1\centos77-c7\SP\ProcedureUnspecified\BasisUnspecified\126\shihchen\MonJul2714:19:382020MonJul2714:19:382020\0\\#,ProcedureUnspecified,BasisUnspecified,\\0,1\C\H,1,1.08974\H,1,1.09609,2,107.195\O,1,1.41511,2,105.493,3,-117.852,0\H,4,0.957116,1,108.863,2,-91.0105,0\C,1,1.5176,2,110.27,3,120.028,0\H,6,1.08986,1,110.512,2,60.2497,0\H,6,1.09107,1,110.615,2,-60.0673,0\H,6,1.09228,1,110.987,2,-179.628,0\\\@

 Total job time:  10.93s(wall), 56.22s(cpu) 
 Mon Jul 27 14:19:38 2020

        *************************************************************
        *                                                           *
        *  Thank you very much for using Q-Chem.  Have a nice day.  *
        *                                                           *
        *************************************************************


