                  Welcome to Q-Chem
     A Quantum Leap Into The Future Of Chemistry


 Q-Chem 5.3 (devel), Q-Chem, Inc., Pleasanton, CA (2020)

 Yihan Shao,  Zhengting Gan,  E. Epifanovsky,  A. T. B. Gilbert,  M. Wormit,  
 J. Kussmann,  A. W. Lange,  A. Behn,  Jia Deng,  Xintian Feng,  D. Ghosh,  
 M. Goldey,  P. R. Horn,  L. D. Jacobson,  I. Kaliman,  T. Kus,  A. Landau,  
 Jie Liu,  E. I. Proynov,  R. M. Richard,  R. P. Steele,  E. J. Sundstrom,  
 H. L. Woodcock III,  P. M. Zimmerman,  D. Zuev,  B. Alam,  B. Albrecht,  
 E. Alguire,  S. A. Baeppler,  D. Barton,  Z. Benda,  Y. A. Bernard,  
 E. J. Berquist,  K. B. Bravaya,  H. Burton,  K. Carter-Fenk,  D. Casanova,  
 Chun-Min Chang,  Yunqing Chen,  A. Chien,  K. D. Closser,  M. P. Coons,  
 S. Coriani,  S. Dasgupta,  A. L. Dempwolff,  M. Diedenhofen,  Hainam Do,  
 R. G. Edgar,  Po-Tung Fang,  S. Faraji,  S. Fatehi,  Qingguo Feng,  
 J. Fosso-Tande,  J. Gayvert,  Qinghui Ge,  A. Ghysels,  G. Gidofalvi,  
 J. Gomes,  J. Gonthier,  A. Gunina,  D. Hait,  M. W. D. Hanson-Heine,  
 P. H. P. Harbach,  A. W. Hauser,  M. F. Herbst,  J. E. Herr,  
 E. G. Hohenstein,  Z. C. Holden,  Kerwin Hui,  B. C. Huynh,  T.-C. Jagau,  
 Hyunjun Ji,  B. Kaduk,  K. Khistyaev,  Jaehoon Kim,  P. Klunzinger,  K. Koh,  
 D. Kosenkov,  L. Koulias,  T. Kowalczyk,  C. M. Krauter,  A. Kunitsa,  
 Ka Un Lao,  A. Laurent,  K. V. Lawler,  Joonho Lee,  D. Lefrancois,  
 S. Lehtola,  D. S. Levine,  Yi-Pei Li,  You-Sheng Lin,  Fenglai Liu,  
 Kuan-Yu Liu,  E. Livshits,  M. Loipersberger,  A. Luenser,  P. Manohar,  
 E. Mansoor,  S. F. Manzer,  Shan-Ping Mao,  Yuezhi Mao,  N. Mardirossian,  
 A. V. Marenich,  T. Markovich,  L. A. Martinez-Martinez,  S. A. Maurer,  
 N. J. Mayhall,  S. C. McKenzie,  J.-M. Mewes,  P. Morgante,  A. F. Morrison,  
 J. W. Mullinax,  K. Nanda,  T. S. Nguyen-Beck,  R. Olivares-Amaya,  
 K. J. Oosterbaan,  J. A. Parkhill,  S. K. Paul,  F. Pavosevic,  Zheng Pei,  
 T. M. Perrine,  F. Plasser,  P. Pokhilko,  S. Prager,  A. Prociuk,  
 E. Ramos,  B. Rana,  D. R. Rehn,  F. Rob,  M. Scheurer,  M. Schneider,  
 N. Sergueev,  S. M. Sharada,  S. Sharma,  D. W. Small,  T. Stauch,  
 C. J. Stein,  T. Stein,  Yu-Chuan Su,  S. P. Veccham,  Zhen Tao,  
 A. J. W. Thom,  A. Tkatchenko,  T. Tsuchimochi,  N. M. Tubman,  L. Vogt,  
 M. L. Vidal,  O. Vydrov,  M. A. Watson,  J. Wenzel,  M. de Wergifosse,  
 T. A. Wesolowski,  A. White,  J. Witte,  A. Yamada,  Jun Yang,  K. Yao,  
 S. Yeganeh,  S. R. Yost,  Zhi-Qiang You,  A. Zech,  Igor Ying Zhang,  
 Xing Zhang,  Yan Zhao,  Ying Zhu,  B. R. Brooks,  G. K. L. Chan,  
 C. J. Cramer,  M. S. Gordon,  W. J. Hehre,  A. Klamt,  M. W. Schmidt,  
 C. D. Sherrill,  D. G. Truhlar,  A. Aspuru-Guzik,  R. Baer,  A. T. Bell,  
 N. A. Besley,  Jeng-Da Chai,  A. E. DePrince, III,  R. A. DiStasio Jr.,  
 A. Dreuw,  B. D. Dunietz,  T. R. Furlani,  Chao-Ping Hsu,  Yousung Jung,  
 Jing Kong,  D. S. Lambrecht,  WanZhen Liang,  C. Ochsenfeld,  
 V. A. Rassolov,  L. V. Slipchenko,  J. E. Subotnik,  T. Van Voorhis,  
 J. M. Herbert,  A. I. Krylov,  P. M. W. Gill,  M. Head-Gordon

 Contributors to earlier versions of Q-Chem not listed above: 
 R. D. Adamson,  B. Austin,  J. Baker,  G. J. O. Beran,  K. Brandhorst,  
 S. T. Brown,  E. F. C. Byrd,  A. K. Chakraborty,  C.-L. Cheng,  
 Siu Hung Chien,  D. M. Chipman,  D. L. Crittenden,  H. Dachsel,  
 R. J. Doerksen,  A. D. Dutoi,  L. Fusti-Molnar,  W. A. Goddard III,  
 A. Golubeva-Zadorozhnaya,  S. R. Gwaltney,  G. Hawkins,  A. Heyden,  
 S. Hirata,  G. Kedziora,  F. J. Keil,  C. Kelley,  Jihan Kim,  R. A. King,  
 R. Z. Khaliullin,  P. P. Korambath,  W. Kurlancheek,  A. M. Lee,  M. S. Lee,  
 S. V. Levchenko,  Ching Yeh Lin,  D. Liotard,  R. C. Lochan,  I. Lotan,  
 P. E. Maslen,  N. Nair,  D. P. O'Neill,  D. Neuhauser,  E. Neuscamman,  
 C. M. Oana,  R. Olson,  B. Peters,  R. Peverati,  P. A. Pieniazek,  
 Y. M. Rhee,  J. Ritchie,  M. A. Rohrdanz,  E. Rosta,  N. J. Russ,  
 H. F. Schaefer III,  N. E. Schultz,  N. Shenvi,  A. C. Simmonett,  A. Sodt,  
 D. Stuck,  K. S. Thanthiriwatte,  V. Vanovschi,  Tao Wang,  A. Warshel,  
 C. F. Williams,  Q. Wu,  X. Xu,  W. Zhang

 Please cite Q-Chem as follows:
 Y. Shao et al., Mol. Phys. 113, 184-215 (2015)
 DOI: 10.1080/00268976.2014.952696

 Q-Chem 5.3.0 for Intel X86 EM64T Linux

 Parts of Q-Chem use Armadillo 9.800.1 (Horizon Scraper).
 http://arma.sourceforge.net/

 Q-Chem begins on Mon Jul 27 14:20:55 2020  

Host: centos77-c7
0

     Scratch files written to /tmp/29924.centos77-h1/qchem103584//
Processing $rem in /opt/qchem-5.3.0-intel2020u1//config/preferences:
Processing $rem in /home/shihchengli/.qchemrc:

Checking the input file for inconsistencies... 	...done.

--------------------------------------------------------------
User input:
--------------------------------------------------------------
$rem
   JOBTYPE  sp
   EXCHANGE   omegaB97X-D
   BASIS   6-311+G(2df,2pd)
   UNRESTRICTED   False
   max_scf_cycles   250
   geom_opt_max_cycles   1500
   basis2 6-31G*
   scf_algorithm rca_diis
   SYM_IGNORE  TRUE
   print_input   true
   geom_opt_dmax   80
   pop_mulliken false
   XC_GRID 000075000302
$end

$molecule
0 1
C       -5.4413143065     0.2928663591     0.1532498130
C       -4.1376618278     1.0663011607     0.2268279800
H       -5.4600802320     -0.3404800285     -0.7334954211
H       -6.2912669493     0.9756998614     0.1114851435
H       -5.5684460145     -0.3440116365     1.0314869217
O       -2.9996148096     0.2252467098     0.2317502900
H       -4.1350296126     1.7225452708     1.1047578952
H       -4.0258796953     1.7021982148     -0.6510501746
H       -2.5435165521     0.3168540884     -0.6047024477
$end
--------------------------------------------------------------
 ----------------------------------------------------------------
             Standard Nuclear Orientation (Angstroms)
    I     Atom           X                Y                Z
 ----------------------------------------------------------------
    1      C      -5.4413143065     0.2928663591     0.1532498130
    2      C      -4.1376618278     1.0663011607     0.2268279800
    3      H      -5.4600802320    -0.3404800285    -0.7334954211
    4      H      -6.2912669493     0.9756998614     0.1114851435
    5      H      -5.5684460145    -0.3440116365     1.0314869217
    6      O      -2.9996148096     0.2252467098     0.2317502900
    7      H      -4.1350296126     1.7225452708     1.1047578952
    8      H      -4.0258796953     1.7021982148    -0.6510501746
    9      H      -2.5435165521     0.3168540884    -0.6047024477
 ----------------------------------------------------------------
 Nuclear Repulsion Energy =          81.72861876 hartrees
 There are       13 alpha and       13 beta electrons
 Requested basis set is 6-311+G(2df,2pd)
 There are 60 shells and 186 basis functions

 Total QAlloc Memory Limit   2000 MB
 Mega-Array Size       188 MB
 MEM_STATIC part       192 MB

                       Distance Matrix (Angstroms)
             C (  1)   C (  2)   H (  3)   H (  4)   H (  5)   O (  6)
   C (  2)  1.517605
   H (  3)  1.089861  2.156396
   H (  4)  1.091066  2.158594  1.771212
   H (  5)  1.092280  2.164163  1.768309  1.763664
   O (  6)  2.443897  1.415114  2.702894  3.378257  2.750005
   H (  7)  2.157714  1.096095  3.064475  2.488720  2.516090  2.072007
   H (  8)  2.153270  1.089739  2.497251  2.498247  3.065521  2.003482
   H (  9)  2.995380  1.947925  2.992494  3.872032  3.502008  0.957116
             H (  7)   H (  8)
   H (  8)  1.759315
   H (  9)  2.726011  2.029465
 
 A cutoff of  1.0D-09 yielded   1773 shell pairs
 There are     17206 function pairs (     21371 Cartesian)
 Smallest overlap matrix eigenvalue = 1.22E-04

 Scale SEOQF with 1.000000e-02/1.000000e-01/1.000000e-01

 Standard Electronic Orientation quadrupole field applied
 Nucleus-field energy     =     0.0000000023 hartrees
 Requested basis set is 6-31G(d)
 There are 24 shells and 54 basis functions
 A cutoff of  1.0D-09 yielded    298 shell pairs
 There are      1549 function pairs (      1732 Cartesian)
 Smallest overlap matrix eigenvalue = 7.20E-03
 Guess from superposition of atomic densities
 Warning:  Energy on first SCF cycle will be non-variational
 SAD guess density has 26.000000 electrons
 Long-range K will be added via erf
 Coulomb attenuation parameter = 0.2 bohr**(-1)
 A restricted hybrid HF-DFT SCF calculation will be
 performed using Relaxed Constraint Minimization + Pulay DIIS
 Exchange:     0.2220 Hartree-Fock + 1.0000 wB97X-D + LR-HF
 Correlation:  1.0000 wB97X-D
 Using Euler-Maclaurin-Lebedev (75,302) quadrature formula
 Dispersion:   Grimme D
 SCF converges when DIIS error is below 1.0E-04
 using 6 threads for integral computing
 -------------------------------------------------------
 OpenMP Integral computing Module                
 Release: version 1.0, May 2013, Q-Chem Inc. Pittsburgh 
 -------------------------------------------------------
 using 6 threads for integral computing
 -------------------------------------------------------
 OpenMP Integral computing Module                
 Release: version 1.0, May 2013, Q-Chem Inc. Pittsburgh 
 -------------------------------------------------------
 ---------------------------------------
  Cycle       Energy         DIIS Error
 ---------------------------------------
    1    -155.4333816470      1.06E-01
    2    -154.9215494036      1.37E-02
    3    -154.9504886081      2.99E-03
    4    -154.9774841910      2.31E-03
    5    -154.9781525450      2.17E-04 Done RCA. Switching to DIIS
    6    -154.9788995667      8.91E-05 Convergence criterion met
 ---------------------------------------
 SCF time:  CPU 12.96 s  wall 2.18 s
 SCF   energy in the small basis set = -154.97889957
 Total energy in the small basis set = -154.97889957
 ----------------------------------------------------
  Cycle       Energy    
 ----------------------------------------------------
    1     -18.7522142250     -1.88E+01
 Long-range K will be added via erf
 Coulomb attenuation parameter = 0.2 bohr**(-1)
 A restricted hybrid HF-DFT SCF calculation will be
 performed using Relaxed Constraint Minimization + Pulay DIIS
 Exchange:     0.2220 Hartree-Fock + 1.0000 wB97X-D + LR-HF
 Correlation:  1.0000 wB97X-D
 Using Euler-Maclaurin-Lebedev (75,302) quadrature formula
 Dispersion:   Grimme D
 SCF converges when DIIS error is below 1.0E-05
 Basis2 calculation detected. Using small basis as guess for larger.
 SCFMinFind is unable to tell whether the solution found is close.
 Resetting ReadMinima to 0 and attempting to follow guess.
 SCFMinFind following SCF Guess.
 using 6 threads for integral computing
 -------------------------------------------------------
 OpenMP Integral computing Module                
 Release: version 1.0, May 2013, Q-Chem Inc. Pittsburgh 
 -------------------------------------------------------
 using 6 threads for integral computing
 -------------------------------------------------------
 OpenMP Integral computing Module                
 Release: version 1.0, May 2013, Q-Chem Inc. Pittsburgh 
 -------------------------------------------------------
 ---------------------------------------
  Cycle       Energy         DIIS Error
 ---------------------------------------
    1    -155.0103304280      5.73E-03
    2    -155.0254932368      2.92E-03
    3    -155.0355952262      3.54E-04 Done RCA. Switching to DIIS
    4    -155.0477315270      2.60E-04
    5    -155.0479325228      3.99E-05
    6    -155.0479406382      6.20E-06 Convergence criterion met
 ---------------------------------------
 SCF time:  CPU 38.67 s  wall 6.47 s
 SCF   energy in the final basis set = -155.04794064
 Total energy in the final basis set = -155.04794064
 
 --------------------------------------------------------------
 
                    Orbital Energies (a.u.)
 --------------------------------------------------------------
 
 Alpha MOs
 -- Occupied --
-19.2452 -10.3280 -10.2698  -1.1260  -0.8486  -0.7136  -0.6085  -0.5512
 -0.4991  -0.4788  -0.4558  -0.4051  -0.3630
 -- Virtual --
  0.0631   0.0843   0.0914   0.1038   0.1274   0.1341   0.1375   0.1805
  0.2113   0.2233   0.2314   0.2484   0.2497   0.2876   0.2924   0.3055
  0.3166   0.3340   0.3610   0.3861   0.4655   0.4977   0.5181   0.5262
  0.5692   0.5776   0.5878   0.5929   0.6183   0.6326   0.6474   0.6670
  0.6931   0.7149   0.7591   0.8290   0.8629   0.8756   0.9373   0.9664
  0.9882   1.0430   1.0805   1.1093   1.1180   1.1767   1.1848   1.2003
  1.2229   1.2395   1.2537   1.3005   1.3223   1.3580   1.3738   1.4121
  1.4382   1.4572   1.4770   1.4796   1.5341   1.5580   1.5876   1.6239
  1.6597   1.7282   1.9434   2.0482   2.1402   2.2414   2.2898   2.4715
  2.4864   2.5358   2.5440   2.5988   2.7068   2.7995   2.8214   2.8647
  2.9209   2.9781   3.0104   3.0125   3.0375   3.0573   3.0665   3.0937
  3.1489   3.1901   3.2249   3.2511   3.2729   3.3153   3.3227   3.3398
  3.3537   3.3851   3.4058   3.4330   3.4825   3.5634   3.5717   3.5918
  3.6045   3.6257   3.6532   3.7069   3.7413   3.7655   3.8060   3.8219
  3.8647   3.9383   3.9498   3.9843   4.0016   4.0204   4.0325   4.0500
  4.0744   4.1249   4.1342   4.1895   4.2134   4.2267   4.2717   4.3294
  4.3564   4.3934   4.4660   4.4820   4.6009   4.6435   4.7329   4.7643
  4.8388   4.9113   4.9527   4.9815   5.0077   5.0396   5.0980   5.2139
  5.2365   5.2778   5.2989   5.3063   5.3394   5.3701   5.3810   5.4548
  5.5386   5.6488   5.6935   5.8237   5.9676   6.0055   6.3709   6.3870
  6.4215   6.6556   6.6939   6.7868   7.1221   7.3858   7.4380   7.5736
  7.6953   8.1530  25.1821  25.4337  50.4641
 --------------------------------------------------------------
 
 -----------------------------------------------------------------
                    Cartesian Multipole Moments
 -----------------------------------------------------------------
    Charge (ESU x 10^10)
                 0.0000
    Dipole Moment (Debye)
         X      -0.5551      Y       0.9943      Z      -1.3428
       Tot       1.7607
    Quadrupole Moments (Debye-Ang)
        XX     -15.3284     XY      -3.8104     YY     -19.5078
        XZ       2.6064     YZ      -0.1148     ZZ     -19.0310
    Octopole Moments (Debye-Ang^2)
       XXX     230.1718    XXY       4.1983    XYY      83.4975
       YYY     -32.3779    XXZ      -6.7492    XYZ      -0.3053
       YYZ      -3.3006    XZZ      82.7019    YZZ     -10.5137
       ZZZ     -10.8840
    Hexadecapole Moments (Debye-Ang^3)
      XXXX   -2238.0048   XXXY      73.8014   XXYY    -399.2076
      XYYY     136.5717   YYYY     -92.4716   XXXZ      38.8186
      XXYZ       0.7426   XYYZ      13.6862   YYYZ      -5.9905
      XXZZ    -391.8502   XYZZ      45.9882   YYZZ     -20.1373
      XZZZ      45.1676   YZZZ      -6.4282   ZZZZ     -38.2353
 -----------------------------------------------------------------
Archival summary:
1\1\centos77-c7\SP\ProcedureUnspecified\BasisUnspecified\126\shihchen\MonJul2714:21:062020MonJul2714:21:062020\0\\#,ProcedureUnspecified,BasisUnspecified,\\0,1\C\H,1,1.08974\H,1,1.09609,2,107.195\O,1,1.41511,2,105.493,3,-117.852,0\H,4,0.957116,1,108.863,2,-11.0105,0\C,1,1.5176,2,110.27,3,120.028,0\H,6,1.08986,1,110.512,2,60.2497,0\H,6,1.09107,1,110.615,2,-60.0673,0\H,6,1.09228,1,110.987,2,-179.628,0\\\@

 Total job time:  10.87s(wall), 55.86s(cpu) 
 Mon Jul 27 14:21:06 2020

        *************************************************************
        *                                                           *
        *  Thank you very much for using Q-Chem.  Have a nice day.  *
        *                                                           *
        *************************************************************


