                  Welcome to Q-Chem
     A Quantum Leap Into The Future Of Chemistry


 Q-Chem 5.3 (devel), Q-Chem, Inc., Pleasanton, CA (2020)

 Yihan Shao,  Zhengting Gan,  E. Epifanovsky,  A. T. B. Gilbert,  M. Wormit,  
 J. Kussmann,  A. W. Lange,  A. Behn,  Jia Deng,  Xintian Feng,  D. Ghosh,  
 M. Goldey,  P. R. Horn,  L. D. Jacobson,  I. Kaliman,  T. Kus,  A. Landau,  
 Jie Liu,  E. I. Proynov,  R. M. Richard,  R. P. Steele,  E. J. Sundstrom,  
 H. L. Woodcock III,  P. M. Zimmerman,  D. Zuev,  B. Alam,  B. Albrecht,  
 E. Alguire,  S. A. Baeppler,  D. Barton,  Z. Benda,  Y. A. Bernard,  
 E. J. Berquist,  K. B. Bravaya,  H. Burton,  K. Carter-Fenk,  D. Casanova,  
 Chun-Min Chang,  Yunqing Chen,  A. Chien,  K. D. Closser,  M. P. Coons,  
 S. Coriani,  S. Dasgupta,  A. L. Dempwolff,  M. Diedenhofen,  Hainam Do,  
 R. G. Edgar,  Po-Tung Fang,  S. Faraji,  S. Fatehi,  Qingguo Feng,  
 J. Fosso-Tande,  J. Gayvert,  Qinghui Ge,  A. Ghysels,  G. Gidofalvi,  
 J. Gomes,  J. Gonthier,  A. Gunina,  D. Hait,  M. W. D. Hanson-Heine,  
 P. H. P. Harbach,  A. W. Hauser,  M. F. Herbst,  J. E. Herr,  
 E. G. Hohenstein,  Z. C. Holden,  Kerwin Hui,  B. C. Huynh,  T.-C. Jagau,  
 Hyunjun Ji,  B. Kaduk,  K. Khistyaev,  Jaehoon Kim,  P. Klunzinger,  K. Koh,  
 D. Kosenkov,  L. Koulias,  T. Kowalczyk,  C. M. Krauter,  A. Kunitsa,  
 Ka Un Lao,  A. Laurent,  K. V. Lawler,  Joonho Lee,  D. Lefrancois,  
 S. Lehtola,  D. S. Levine,  Yi-Pei Li,  You-Sheng Lin,  Fenglai Liu,  
 Kuan-Yu Liu,  E. Livshits,  M. Loipersberger,  A. Luenser,  P. Manohar,  
 E. Mansoor,  S. F. Manzer,  Shan-Ping Mao,  Yuezhi Mao,  N. Mardirossian,  
 A. V. Marenich,  T. Markovich,  L. A. Martinez-Martinez,  S. A. Maurer,  
 N. J. Mayhall,  S. C. McKenzie,  J.-M. Mewes,  P. Morgante,  A. F. Morrison,  
 J. W. Mullinax,  K. Nanda,  T. S. Nguyen-Beck,  R. Olivares-Amaya,  
 K. J. Oosterbaan,  J. A. Parkhill,  S. K. Paul,  F. Pavosevic,  Zheng Pei,  
 T. M. Perrine,  F. Plasser,  P. Pokhilko,  S. Prager,  A. Prociuk,  
 E. Ramos,  B. Rana,  D. R. Rehn,  F. Rob,  M. Scheurer,  M. Schneider,  
 N. Sergueev,  S. M. Sharada,  S. Sharma,  D. W. Small,  T. Stauch,  
 C. J. Stein,  T. Stein,  Yu-Chuan Su,  S. P. Veccham,  Zhen Tao,  
 A. J. W. Thom,  A. Tkatchenko,  T. Tsuchimochi,  N. M. Tubman,  L. Vogt,  
 M. L. Vidal,  O. Vydrov,  M. A. Watson,  J. Wenzel,  M. de Wergifosse,  
 T. A. Wesolowski,  A. White,  J. Witte,  A. Yamada,  Jun Yang,  K. Yao,  
 S. Yeganeh,  S. R. Yost,  Zhi-Qiang You,  A. Zech,  Igor Ying Zhang,  
 Xing Zhang,  Yan Zhao,  Ying Zhu,  B. R. Brooks,  G. K. L. Chan,  
 C. J. Cramer,  M. S. Gordon,  W. J. Hehre,  A. Klamt,  M. W. Schmidt,  
 C. D. Sherrill,  D. G. Truhlar,  A. Aspuru-Guzik,  R. Baer,  A. T. Bell,  
 N. A. Besley,  Jeng-Da Chai,  A. E. DePrince, III,  R. A. DiStasio Jr.,  
 A. Dreuw,  B. D. Dunietz,  T. R. Furlani,  Chao-Ping Hsu,  Yousung Jung,  
 Jing Kong,  D. S. Lambrecht,  WanZhen Liang,  C. Ochsenfeld,  
 V. A. Rassolov,  L. V. Slipchenko,  J. E. Subotnik,  T. Van Voorhis,  
 J. M. Herbert,  A. I. Krylov,  P. M. W. Gill,  M. Head-Gordon

 Contributors to earlier versions of Q-Chem not listed above: 
 R. D. Adamson,  B. Austin,  J. Baker,  G. J. O. Beran,  K. Brandhorst,  
 S. T. Brown,  E. F. C. Byrd,  A. K. Chakraborty,  C.-L. Cheng,  
 Siu Hung Chien,  D. M. Chipman,  D. L. Crittenden,  H. Dachsel,  
 R. J. Doerksen,  A. D. Dutoi,  L. Fusti-Molnar,  W. A. Goddard III,  
 A. Golubeva-Zadorozhnaya,  S. R. Gwaltney,  G. Hawkins,  A. Heyden,  
 S. Hirata,  G. Kedziora,  F. J. Keil,  C. Kelley,  Jihan Kim,  R. A. King,  
 R. Z. Khaliullin,  P. P. Korambath,  W. Kurlancheek,  A. M. Lee,  M. S. Lee,  
 S. V. Levchenko,  Ching Yeh Lin,  D. Liotard,  R. C. Lochan,  I. Lotan,  
 P. E. Maslen,  N. Nair,  D. P. O'Neill,  D. Neuhauser,  E. Neuscamman,  
 C. M. Oana,  R. Olson,  B. Peters,  R. Peverati,  P. A. Pieniazek,  
 Y. M. Rhee,  J. Ritchie,  M. A. Rohrdanz,  E. Rosta,  N. J. Russ,  
 H. F. Schaefer III,  N. E. Schultz,  N. Shenvi,  A. C. Simmonett,  A. Sodt,  
 D. Stuck,  K. S. Thanthiriwatte,  V. Vanovschi,  Tao Wang,  A. Warshel,  
 C. F. Williams,  Q. Wu,  X. Xu,  W. Zhang

 Please cite Q-Chem as follows:
 Y. Shao et al., Mol. Phys. 113, 184-215 (2015)
 DOI: 10.1080/00268976.2014.952696

 Q-Chem 5.3.0 for Intel X86 EM64T Linux

 Parts of Q-Chem use Armadillo 9.800.1 (Horizon Scraper).
 http://arma.sourceforge.net/

 Q-Chem begins on Mon Jul 27 14:14:00 2020  

Host: centos77-c7
0

     Scratch files written to /tmp/29924.centos77-h1/qchem101773//
Processing $rem in /opt/qchem-5.3.0-intel2020u1//config/preferences:
Processing $rem in /home/shihchengli/.qchemrc:

Checking the input file for inconsistencies... 	...done.

--------------------------------------------------------------
User input:
--------------------------------------------------------------
$rem
   JOBTYPE  sp
   EXCHANGE   omegaB97X-D
   BASIS   6-311+G(2df,2pd)
   UNRESTRICTED   False
   max_scf_cycles   250
   geom_opt_max_cycles   1500
   basis2 6-31G*
   scf_algorithm rca_diis
   SYM_IGNORE  TRUE
   print_input   true
   geom_opt_dmax   80
   pop_mulliken false
   XC_GRID 000075000302
$end

$molecule
0 1
C       -5.3624920219     0.2760362357     0.1198876190
C       -4.0877292805     1.0511346108     0.3979656410
H       -5.3807864855     -0.6485233069     0.6966474316
H       -5.4372240143     0.0269507749     -0.9397335101
H       -6.2437194945     0.8635522267     0.3869823090
O       -3.2273428914     1.1138720636     -0.7237950767
H       -3.5644263625     0.6234895980     1.2609245018
H       -4.3215565387     2.0867220195     0.6437580234
H       -2.9775329105     0.2239857778     -0.9723269389
$end
--------------------------------------------------------------
 ----------------------------------------------------------------
             Standard Nuclear Orientation (Angstroms)
    I     Atom           X                Y                Z
 ----------------------------------------------------------------
    1      C      -5.3624920219     0.2760362357     0.1198876190
    2      C      -4.0877292805     1.0511346108     0.3979656410
    3      H      -5.3807864855    -0.6485233069     0.6966474316
    4      H      -5.4372240143     0.0269507749    -0.9397335101
    5      H      -6.2437194945     0.8635522267     0.3869823090
    6      O      -3.2273428914     1.1138720636    -0.7237950767
    7      H      -3.5644263625     0.6234895980     1.2609245018
    8      H      -4.3215565387     2.0867220195     0.6437580234
    9      H      -2.9775329105     0.2239857778    -0.9723269389
 ----------------------------------------------------------------
 Nuclear Repulsion Energy =          81.93418757 hartrees
 There are       13 alpha and       13 beta electrons
 Requested basis set is 6-311+G(2df,2pd)
 There are 60 shells and 186 basis functions

 Total QAlloc Memory Limit   2000 MB
 Mega-Array Size       188 MB
 MEM_STATIC part       192 MB

                       Distance Matrix (Angstroms)
             C (  1)   C (  2)   H (  3)   H (  4)   H (  5)   O (  6)
   C (  2)  1.517605
   H (  3)  1.089861  2.156396
   H (  4)  1.091066  2.158594  1.771212
   H (  5)  1.092280  2.164163  1.768309  1.763664
   O (  6)  2.443897  1.415114  3.124262  2.472165  3.224130
   H (  7)  2.157714  1.096095  2.288141  2.950614  2.828430  2.072007
   H (  8)  2.153270  1.089739  2.933655  2.827511  2.292769  2.003482
   H (  9)  2.623675  1.947925  3.053257  2.467786  3.595100  0.957116
             H (  7)   H (  8)
   H (  8)  1.759315
   H (  9)  2.343386  2.808543
 
 A cutoff of  1.0D-09 yielded   1788 shell pairs
 There are     17312 function pairs (     21497 Cartesian)
 Smallest overlap matrix eigenvalue = 1.12E-04

 Scale SEOQF with 1.000000e-02/1.000000e-01/1.000000e-01

 Standard Electronic Orientation quadrupole field applied
 Nucleus-field energy     =     0.0000000024 hartrees
 Requested basis set is 6-31G(d)
 There are 24 shells and 54 basis functions
 A cutoff of  1.0D-09 yielded    297 shell pairs
 There are      1548 function pairs (      1731 Cartesian)
 Smallest overlap matrix eigenvalue = 6.82E-03
 Guess from superposition of atomic densities
 Warning:  Energy on first SCF cycle will be non-variational
 SAD guess density has 26.000000 electrons
 Long-range K will be added via erf
 Coulomb attenuation parameter = 0.2 bohr**(-1)
 A restricted hybrid HF-DFT SCF calculation will be
 performed using Relaxed Constraint Minimization + Pulay DIIS
 Exchange:     0.2220 Hartree-Fock + 1.0000 wB97X-D + LR-HF
 Correlation:  1.0000 wB97X-D
 Using Euler-Maclaurin-Lebedev (75,302) quadrature formula
 Dispersion:   Grimme D
 SCF converges when DIIS error is below 1.0E-04
 using 6 threads for integral computing
 -------------------------------------------------------
 OpenMP Integral computing Module                
 Release: version 1.0, May 2013, Q-Chem Inc. Pittsburgh 
 -------------------------------------------------------
 using 6 threads for integral computing
 -------------------------------------------------------
 OpenMP Integral computing Module                
 Release: version 1.0, May 2013, Q-Chem Inc. Pittsburgh 
 -------------------------------------------------------
 ---------------------------------------
  Cycle       Energy         DIIS Error
 ---------------------------------------
    1    -155.4365778265      1.06E-01
    2    -154.9207178587      1.36E-02
    3    -154.9491888839      3.04E-03
    4    -154.9753537738      2.42E-03
    5    -154.9760847668      2.24E-04 Done RCA. Switching to DIIS
    6    -154.9769028539      1.01E-04
    7    -154.9769060266      7.85E-06 Convergence criterion met
 ---------------------------------------
 SCF time:  CPU 14.45 s  wall 2.42 s
 SCF   energy in the small basis set = -154.97690603
 Total energy in the small basis set = -154.97690603
 ----------------------------------------------------
  Cycle       Energy    
 ----------------------------------------------------
    1     -18.7557838168     -1.88E+01
 Long-range K will be added via erf
 Coulomb attenuation parameter = 0.2 bohr**(-1)
 A restricted hybrid HF-DFT SCF calculation will be
 performed using Relaxed Constraint Minimization + Pulay DIIS
 Exchange:     0.2220 Hartree-Fock + 1.0000 wB97X-D + LR-HF
 Correlation:  1.0000 wB97X-D
 Using Euler-Maclaurin-Lebedev (75,302) quadrature formula
 Dispersion:   Grimme D
 SCF converges when DIIS error is below 1.0E-05
 Basis2 calculation detected. Using small basis as guess for larger.
 SCFMinFind is unable to tell whether the solution found is close.
 Resetting ReadMinima to 0 and attempting to follow guess.
 SCFMinFind following SCF Guess.
 using 6 threads for integral computing
 -------------------------------------------------------
 OpenMP Integral computing Module                
 Release: version 1.0, May 2013, Q-Chem Inc. Pittsburgh 
 -------------------------------------------------------
 using 6 threads for integral computing
 -------------------------------------------------------
 OpenMP Integral computing Module                
 Release: version 1.0, May 2013, Q-Chem Inc. Pittsburgh 
 -------------------------------------------------------
 ---------------------------------------
  Cycle       Energy         DIIS Error
 ---------------------------------------
    1    -155.0085486779      5.72E-03
    2    -155.0239697894      2.87E-03
    3    -155.0337199051      3.48E-04 Done RCA. Switching to DIIS
    4    -155.0454152211      2.52E-04
    5    -155.0456050012      3.95E-05
    6    -155.0456130581      5.67E-06 Convergence criterion met
 ---------------------------------------
 SCF time:  CPU 39.64 s  wall 6.63 s
 SCF   energy in the final basis set = -155.04561306
 Total energy in the final basis set = -155.04561306
 
 --------------------------------------------------------------
 
                    Orbital Energies (a.u.)
 --------------------------------------------------------------
 
 Alpha MOs
 -- Occupied --
-19.2455 -10.3259 -10.2721  -1.1258  -0.8492  -0.7223  -0.5957  -0.5447
 -0.5242  -0.4704  -0.4565  -0.4080  -0.3616
 -- Virtual --
  0.0664   0.0876   0.0896   0.1029   0.1268   0.1332   0.1387   0.1747
  0.1862   0.1996   0.2417   0.2585   0.2773   0.2893   0.2979   0.3113
  0.3145   0.3368   0.3467   0.4039   0.4601   0.4830   0.4955   0.5157
  0.5538   0.5749   0.5870   0.6078   0.6169   0.6327   0.6528   0.6626
  0.6852   0.7164   0.7558   0.7899   0.8819   0.9214   0.9494   0.9824
  1.0373   1.0556   1.0679   1.0933   1.1254   1.1797   1.1905   1.2043
  1.2204   1.2521   1.2782   1.3235   1.3401   1.3652   1.3725   1.3854
  1.4386   1.4482   1.4598   1.4765   1.5139   1.5276   1.5879   1.6076
  1.6461   1.7007   1.9516   2.0348   2.0729   2.2151   2.2838   2.3914
  2.4168   2.5861   2.6310   2.6592   2.7192   2.7868   2.8249   2.8820
  2.9173   2.9633   3.0077   3.0184   3.0390   3.0688   3.0970   3.1120
  3.1585   3.1660   3.2040   3.2096   3.2264   3.2751   3.2998   3.3167
  3.3575   3.4335   3.4794   3.4986   3.5110   3.5476   3.5681   3.5954
  3.6222   3.6303   3.6536   3.6940   3.7316   3.7357   3.7411   3.7981
  3.8697   3.8797   3.9239   3.9479   3.9799   4.0135   4.0555   4.0812
  4.1027   4.1156   4.1554   4.1914   4.2092   4.2242   4.2759   4.3167
  4.3792   4.3864   4.4579   4.5445   4.5820   4.6017   4.7054   4.7765
  4.8644   4.8986   4.9497   4.9769   5.0199   5.0467   5.1153   5.1646
  5.2238   5.2546   5.2718   5.3032   5.3336   5.3675   5.4411   5.4588
  5.5229   5.5703   5.6746   5.8704   5.9416   6.0510   6.3130   6.3657
  6.4454   6.6545   6.7044   6.8210   7.1225   7.3525   7.4159   7.5526
  7.7301   8.1114  25.0933  25.4503  50.4661
 --------------------------------------------------------------
 
 -----------------------------------------------------------------
                    Cartesian Multipole Moments
 -----------------------------------------------------------------
    Charge (ESU x 10^10)
                -0.0000
    Dipole Moment (Debye)
         X      -0.6503      Y      -1.4332      Z       0.7664
       Tot       1.7506
    Quadrupole Moments (Debye-Ang)
        XX     -15.2674     XY       2.8708     YY     -21.6111
        XZ      -3.0375     YZ       2.5988     ZZ     -20.2334
    Octopole Moments (Debye-Ang^2)
       XXX     232.8427    XXY     -16.8948    XYY      88.8213
       YYY     -46.3064    XXZ      12.1890    XYZ      -8.8657
       YYZ       4.5089    XZZ      87.8289    YZZ     -17.8458
       ZZZ       1.1741
    Hexadecapole Moments (Debye-Ang^3)
      XXXX   -2240.1418   XXXY     145.7632   XXYY    -412.2623
      XYYY     174.5051   YYYY    -121.1225   XXXZ     -36.4047
      XXYZ      32.5557   XYYZ     -11.7988   YYYZ       8.3759
      XXZZ    -412.3733   XYZZ      68.5620   YYZZ     -34.4383
      XZZZ      10.0044   YZZZ       4.8917   ZZZZ     -62.9804
 -----------------------------------------------------------------
Archival summary:
1\1\centos77-c7\SP\ProcedureUnspecified\BasisUnspecified\126\shihchen\MonJul2714:14:112020MonJul2714:14:112020\0\\#,ProcedureUnspecified,BasisUnspecified,\\0,1\C\H,1,1.08974\H,1,1.09609,2,107.195\O,1,1.41511,2,105.493,3,-117.852,0\H,4,0.957116,1,108.863,2,178.989,0\C,1,1.5176,2,110.27,3,120.028,0\H,6,1.08986,1,110.512,2,-129.75,0\H,6,1.09107,1,110.615,2,109.933,0\H,6,1.09228,1,110.987,2,-9.62785,0\\\@

 Total job time:  11.20s(wall), 57.84s(cpu) 
 Mon Jul 27 14:14:11 2020

        *************************************************************
        *                                                           *
        *  Thank you very much for using Q-Chem.  Have a nice day.  *
        *                                                           *
        *************************************************************


