                  Welcome to Q-Chem
     A Quantum Leap Into The Future Of Chemistry


 Q-Chem 5.3 (devel), Q-Chem, Inc., Pleasanton, CA (2020)

 Yihan Shao,  Zhengting Gan,  E. Epifanovsky,  A. T. B. Gilbert,  M. Wormit,  
 J. Kussmann,  A. W. Lange,  A. Behn,  Jia Deng,  Xintian Feng,  D. Ghosh,  
 M. Goldey,  P. R. Horn,  L. D. Jacobson,  I. Kaliman,  T. Kus,  A. Landau,  
 Jie Liu,  E. I. Proynov,  R. M. Richard,  R. P. Steele,  E. J. Sundstrom,  
 H. L. Woodcock III,  P. M. Zimmerman,  D. Zuev,  B. Alam,  B. Albrecht,  
 E. Alguire,  S. A. Baeppler,  D. Barton,  Z. Benda,  Y. A. Bernard,  
 E. J. Berquist,  K. B. Bravaya,  H. Burton,  K. Carter-Fenk,  D. Casanova,  
 Chun-Min Chang,  Yunqing Chen,  A. Chien,  K. D. Closser,  M. P. Coons,  
 S. Coriani,  S. Dasgupta,  A. L. Dempwolff,  M. Diedenhofen,  Hainam Do,  
 R. G. Edgar,  Po-Tung Fang,  S. Faraji,  S. Fatehi,  Qingguo Feng,  
 J. Fosso-Tande,  J. Gayvert,  Qinghui Ge,  A. Ghysels,  G. Gidofalvi,  
 J. Gomes,  J. Gonthier,  A. Gunina,  D. Hait,  M. W. D. Hanson-Heine,  
 P. H. P. Harbach,  A. W. Hauser,  M. F. Herbst,  J. E. Herr,  
 E. G. Hohenstein,  Z. C. Holden,  Kerwin Hui,  B. C. Huynh,  T.-C. Jagau,  
 Hyunjun Ji,  B. Kaduk,  K. Khistyaev,  Jaehoon Kim,  P. Klunzinger,  K. Koh,  
 D. Kosenkov,  L. Koulias,  T. Kowalczyk,  C. M. Krauter,  A. Kunitsa,  
 Ka Un Lao,  A. Laurent,  K. V. Lawler,  Joonho Lee,  D. Lefrancois,  
 S. Lehtola,  D. S. Levine,  Yi-Pei Li,  You-Sheng Lin,  Fenglai Liu,  
 Kuan-Yu Liu,  E. Livshits,  M. Loipersberger,  A. Luenser,  P. Manohar,  
 E. Mansoor,  S. F. Manzer,  Shan-Ping Mao,  Yuezhi Mao,  N. Mardirossian,  
 A. V. Marenich,  T. Markovich,  L. A. Martinez-Martinez,  S. A. Maurer,  
 N. J. Mayhall,  S. C. McKenzie,  J.-M. Mewes,  P. Morgante,  A. F. Morrison,  
 J. W. Mullinax,  K. Nanda,  T. S. Nguyen-Beck,  R. Olivares-Amaya,  
 K. J. Oosterbaan,  J. A. Parkhill,  S. K. Paul,  F. Pavosevic,  Zheng Pei,  
 T. M. Perrine,  F. Plasser,  P. Pokhilko,  S. Prager,  A. Prociuk,  
 E. Ramos,  B. Rana,  D. R. Rehn,  F. Rob,  M. Scheurer,  M. Schneider,  
 N. Sergueev,  S. M. Sharada,  S. Sharma,  D. W. Small,  T. Stauch,  
 C. J. Stein,  T. Stein,  Yu-Chuan Su,  S. P. Veccham,  Zhen Tao,  
 A. J. W. Thom,  A. Tkatchenko,  T. Tsuchimochi,  N. M. Tubman,  L. Vogt,  
 M. L. Vidal,  O. Vydrov,  M. A. Watson,  J. Wenzel,  M. de Wergifosse,  
 T. A. Wesolowski,  A. White,  J. Witte,  A. Yamada,  Jun Yang,  K. Yao,  
 S. Yeganeh,  S. R. Yost,  Zhi-Qiang You,  A. Zech,  Igor Ying Zhang,  
 Xing Zhang,  Yan Zhao,  Ying Zhu,  B. R. Brooks,  G. K. L. Chan,  
 C. J. Cramer,  M. S. Gordon,  W. J. Hehre,  A. Klamt,  M. W. Schmidt,  
 C. D. Sherrill,  D. G. Truhlar,  A. Aspuru-Guzik,  R. Baer,  A. T. Bell,  
 N. A. Besley,  Jeng-Da Chai,  A. E. DePrince, III,  R. A. DiStasio Jr.,  
 A. Dreuw,  B. D. Dunietz,  T. R. Furlani,  Chao-Ping Hsu,  Yousung Jung,  
 Jing Kong,  D. S. Lambrecht,  WanZhen Liang,  C. Ochsenfeld,  
 V. A. Rassolov,  L. V. Slipchenko,  J. E. Subotnik,  T. Van Voorhis,  
 J. M. Herbert,  A. I. Krylov,  P. M. W. Gill,  M. Head-Gordon

 Contributors to earlier versions of Q-Chem not listed above: 
 R. D. Adamson,  B. Austin,  J. Baker,  G. J. O. Beran,  K. Brandhorst,  
 S. T. Brown,  E. F. C. Byrd,  A. K. Chakraborty,  C.-L. Cheng,  
 Siu Hung Chien,  D. M. Chipman,  D. L. Crittenden,  H. Dachsel,  
 R. J. Doerksen,  A. D. Dutoi,  L. Fusti-Molnar,  W. A. Goddard III,  
 A. Golubeva-Zadorozhnaya,  S. R. Gwaltney,  G. Hawkins,  A. Heyden,  
 S. Hirata,  G. Kedziora,  F. J. Keil,  C. Kelley,  Jihan Kim,  R. A. King,  
 R. Z. Khaliullin,  P. P. Korambath,  W. Kurlancheek,  A. M. Lee,  M. S. Lee,  
 S. V. Levchenko,  Ching Yeh Lin,  D. Liotard,  R. C. Lochan,  I. Lotan,  
 P. E. Maslen,  N. Nair,  D. P. O'Neill,  D. Neuhauser,  E. Neuscamman,  
 C. M. Oana,  R. Olson,  B. Peters,  R. Peverati,  P. A. Pieniazek,  
 Y. M. Rhee,  J. Ritchie,  M. A. Rohrdanz,  E. Rosta,  N. J. Russ,  
 H. F. Schaefer III,  N. E. Schultz,  N. Shenvi,  A. C. Simmonett,  A. Sodt,  
 D. Stuck,  K. S. Thanthiriwatte,  V. Vanovschi,  Tao Wang,  A. Warshel,  
 C. F. Williams,  Q. Wu,  X. Xu,  W. Zhang

 Please cite Q-Chem as follows:
 Y. Shao et al., Mol. Phys. 113, 184-215 (2015)
 DOI: 10.1080/00268976.2014.952696

 Q-Chem 5.3.0 for Intel X86 EM64T Linux

 Parts of Q-Chem use Armadillo 9.800.1 (Horizon Scraper).
 http://arma.sourceforge.net/

 Q-Chem begins on Mon Jul 27 14:21:17 2020  

Host: centos77-c7
0

     Scratch files written to /tmp/29924.centos77-h1/qchem103664//
Processing $rem in /opt/qchem-5.3.0-intel2020u1//config/preferences:
Processing $rem in /home/shihchengli/.qchemrc:

Checking the input file for inconsistencies... 	...done.

--------------------------------------------------------------
User input:
--------------------------------------------------------------
$rem
   JOBTYPE  sp
   EXCHANGE   omegaB97X-D
   BASIS   6-311+G(2df,2pd)
   UNRESTRICTED   False
   max_scf_cycles   250
   geom_opt_max_cycles   1500
   basis2 6-31G*
   scf_algorithm rca_diis
   SYM_IGNORE  TRUE
   print_input   true
   geom_opt_dmax   80
   pop_mulliken false
   XC_GRID 000075000302
$end

$molecule
0 1
C       -5.4662638447     0.2935676637     0.1601643138
C       -4.1418078135     1.0335293187     0.1975527448
H       -5.5242302130     -0.3412440138     -0.7238328304
H       -6.2992937713     0.9978469245     0.1383185227
H       -5.5867677647     -0.3377076290     1.0433668850
O       -3.0258736047     0.1636117664     0.1755953316
H       -4.0996084944     1.6916230062     1.0730846474
H       -4.0366590133     1.6642180804     -0.6848903291
H       -2.4223054804     0.4517748831     -0.5090492858
$end
--------------------------------------------------------------
 ----------------------------------------------------------------
             Standard Nuclear Orientation (Angstroms)
    I     Atom           X                Y                Z
 ----------------------------------------------------------------
    1      C      -5.4662638447     0.2935676637     0.1601643138
    2      C      -4.1418078135     1.0335293187     0.1975527448
    3      H      -5.5242302130    -0.3412440138    -0.7238328304
    4      H      -6.2992937713     0.9978469245     0.1383185227
    5      H      -5.5867677647    -0.3377076290     1.0433668850
    6      O      -3.0258736047     0.1636117664     0.1755953316
    7      H      -4.0996084944     1.6916230062     1.0730846474
    8      H      -4.0366590133     1.6642180804    -0.6848903291
    9      H      -2.4223054804     0.4517748831    -0.5090492858
 ----------------------------------------------------------------
 Nuclear Repulsion Energy =          81.67462185 hartrees
 There are       13 alpha and       13 beta electrons
 Requested basis set is 6-311+G(2df,2pd)
 There are 60 shells and 186 basis functions

 Total QAlloc Memory Limit   2000 MB
 Mega-Array Size       188 MB
 MEM_STATIC part       192 MB

                       Distance Matrix (Angstroms)
             C (  1)   C (  2)   H (  3)   H (  4)   H (  5)   O (  6)
   C (  2)  1.517605
   H (  3)  1.089861  2.156396
   H (  4)  1.091066  2.158594  1.771212
   H (  5)  1.092280  2.164163  1.768309  1.763664
   O (  6)  2.443897  1.415114  2.702894  3.378257  2.750005
   H (  7)  2.157714  1.096095  3.064475  2.488720  2.516090  2.072007
   H (  8)  2.153270  1.089739  2.497251  2.498247  3.065521  2.003482
   H (  9)  3.120666  1.947925  3.208886  3.968415  3.612077  0.957116
             H (  7)   H (  8)
   H (  8)  1.759315
   H (  9)  2.617960  2.026592
 
 A cutoff of  1.0D-09 yielded   1768 shell pairs
 There are     17180 function pairs (     21342 Cartesian)
 Smallest overlap matrix eigenvalue = 1.40E-04

 Scale SEOQF with 1.000000e-02/1.000000e-01/1.000000e-01

 Standard Electronic Orientation quadrupole field applied
 Nucleus-field energy     =     0.0000000023 hartrees
 Requested basis set is 6-31G(d)
 There are 24 shells and 54 basis functions
 A cutoff of  1.0D-09 yielded    298 shell pairs
 There are      1549 function pairs (      1732 Cartesian)
 Smallest overlap matrix eigenvalue = 7.24E-03
 Guess from superposition of atomic densities
 Warning:  Energy on first SCF cycle will be non-variational
 SAD guess density has 26.000000 electrons
 Long-range K will be added via erf
 Coulomb attenuation parameter = 0.2 bohr**(-1)
 A restricted hybrid HF-DFT SCF calculation will be
 performed using Relaxed Constraint Minimization + Pulay DIIS
 Exchange:     0.2220 Hartree-Fock + 1.0000 wB97X-D + LR-HF
 Correlation:  1.0000 wB97X-D
 Using Euler-Maclaurin-Lebedev (75,302) quadrature formula
 Dispersion:   Grimme D
 SCF converges when DIIS error is below 1.0E-04
 using 6 threads for integral computing
 -------------------------------------------------------
 OpenMP Integral computing Module                
 Release: version 1.0, May 2013, Q-Chem Inc. Pittsburgh 
 -------------------------------------------------------
 using 6 threads for integral computing
 -------------------------------------------------------
 OpenMP Integral computing Module                
 Release: version 1.0, May 2013, Q-Chem Inc. Pittsburgh 
 -------------------------------------------------------
 ---------------------------------------
  Cycle       Energy         DIIS Error
 ---------------------------------------
    1    -155.4331378744      1.06E-01
    2    -154.9212068117      1.37E-02
    3    -154.9501359060      2.95E-03
    4    -154.9774112076      2.23E-03
    5    -154.9780381525      2.13E-04 Done RCA. Switching to DIIS
    6    -154.9787380627      8.10E-05 Convergence criterion met
 ---------------------------------------
 SCF time:  CPU 12.82 s  wall 2.15 s
 SCF   energy in the small basis set = -154.97873806
 Total energy in the small basis set = -154.97873806
 ----------------------------------------------------
  Cycle       Energy    
 ----------------------------------------------------
    1     -18.7519354780     -1.88E+01
 Long-range K will be added via erf
 Coulomb attenuation parameter = 0.2 bohr**(-1)
 A restricted hybrid HF-DFT SCF calculation will be
 performed using Relaxed Constraint Minimization + Pulay DIIS
 Exchange:     0.2220 Hartree-Fock + 1.0000 wB97X-D + LR-HF
 Correlation:  1.0000 wB97X-D
 Using Euler-Maclaurin-Lebedev (75,302) quadrature formula
 Dispersion:   Grimme D
 SCF converges when DIIS error is below 1.0E-05
 Basis2 calculation detected. Using small basis as guess for larger.
 SCFMinFind is unable to tell whether the solution found is close.
 Resetting ReadMinima to 0 and attempting to follow guess.
 SCFMinFind following SCF Guess.
 using 6 threads for integral computing
 -------------------------------------------------------
 OpenMP Integral computing Module                
 Release: version 1.0, May 2013, Q-Chem Inc. Pittsburgh 
 -------------------------------------------------------
 using 6 threads for integral computing
 -------------------------------------------------------
 OpenMP Integral computing Module                
 Release: version 1.0, May 2013, Q-Chem Inc. Pittsburgh 
 -------------------------------------------------------
 ---------------------------------------
  Cycle       Energy         DIIS Error
 ---------------------------------------
    1    -155.0102907145      5.74E-03
    2    -155.0252953784      2.94E-03
    3    -155.0354975182      3.55E-04 Done RCA. Switching to DIIS
    4    -155.0477575006      2.63E-04
    5    -155.0479626223      3.98E-05
    6    -155.0479704936      6.27E-06 Convergence criterion met
 ---------------------------------------
 SCF time:  CPU 38.36 s  wall 6.42 s
 SCF   energy in the final basis set = -155.04797049
 Total energy in the final basis set = -155.04797049
 
 --------------------------------------------------------------
 
                    Orbital Energies (a.u.)
 --------------------------------------------------------------
 
 Alpha MOs
 -- Occupied --
-19.2451 -10.3278 -10.2702  -1.1257  -0.8489  -0.7113  -0.6100  -0.5535
 -0.4947  -0.4784  -0.4551  -0.4076  -0.3616
 -- Virtual --
  0.0629   0.0834   0.0936   0.1035   0.1277   0.1341   0.1372   0.1821
  0.2127   0.2250   0.2269   0.2459   0.2517   0.2877   0.2930   0.3059
  0.3208   0.3275   0.3449   0.3859   0.4685   0.5006   0.5147   0.5245
  0.5645   0.5794   0.5888   0.6010   0.6150   0.6336   0.6528   0.6621
  0.6942   0.7151   0.7428   0.8343   0.8603   0.9052   0.9379   0.9496
  0.9767   1.0469   1.0777   1.1077   1.1390   1.1669   1.1840   1.1967
  1.2278   1.2394   1.2498   1.2916   1.3267   1.3584   1.3637   1.4053
  1.4260   1.4568   1.4721   1.4790   1.5365   1.5430   1.5976   1.6289
  1.6558   1.7415   1.9556   2.0581   2.1477   2.2295   2.2890   2.4590
  2.4826   2.5090   2.5442   2.5967   2.7252   2.7943   2.8119   2.8672
  2.9230   2.9860   3.0138   3.0291   3.0435   3.0606   3.0683   3.0877
  3.1362   3.1818   3.2204   3.2707   3.2805   3.3024   3.3183   3.3331
  3.3536   3.4002   3.4096   3.4233   3.4825   3.5677   3.5699   3.5895
  3.5972   3.6203   3.6500   3.7061   3.7388   3.7844   3.8026   3.8212
  3.8494   3.9371   3.9411   3.9655   3.9920   4.0108   4.0361   4.0505
  4.0923   4.1236   4.1374   4.2079   4.2123   4.2185   4.2483   4.3388
  4.3653   4.4015   4.4660   4.4879   4.5842   4.6416   4.7214   4.7613
  4.8570   4.9213   4.9511   4.9672   4.9991   5.0536   5.0864   5.2193
  5.2352   5.2738   5.3030   5.3111   5.3319   5.3663   5.4167   5.4976
  5.5186   5.6173   5.6775   5.8270   5.9664   6.0169   6.3742   6.3858
  6.4254   6.6514   6.6896   6.7878   7.1183   7.3917   7.4375   7.5803
  7.6925   8.1499  25.1844  25.4319  50.4641
 --------------------------------------------------------------
 
 -----------------------------------------------------------------
                    Cartesian Multipole Moments
 -----------------------------------------------------------------
    Charge (ESU x 10^10)
                 0.0000
    Dipole Moment (Debye)
         X      -0.3151      Y       1.3119      Z      -1.0926
       Tot       1.7361
    Quadrupole Moments (Debye-Ang)
        XX     -16.2066     XY      -4.3338     YY     -19.4172
        XZ       1.9646     YZ      -0.3318     ZZ     -19.3780
    Octopole Moments (Debye-Ang^2)
       XXX     232.0912    XXY       5.1083    XYY      83.8610
       YYY     -31.1632    XXZ      -5.0449    XYZ       0.4216
       YYZ      -3.1677    XZZ      84.0410    YZZ     -10.1793
       ZZZ      -9.6673
    Hexadecapole Moments (Debye-Ang^3)
      XXXX   -2243.5294   XXXY      70.8563   XXYY    -402.4202
      XYYY     132.9099   YYYY     -89.6757   XXXZ      34.3148
      XXYZ      -1.4518   XYYZ      13.5244   YYYZ      -5.3124
      XXZZ    -397.4491   XYZZ      45.1518   YYZZ     -19.6080
      XZZZ      41.8774   YZZZ      -5.6062   ZZZZ     -37.4852
 -----------------------------------------------------------------
Archival summary:
1\1\centos77-c7\SP\ProcedureUnspecified\BasisUnspecified\126\shihchen\MonJul2714:21:282020MonJul2714:21:282020\0\\#,ProcedureUnspecified,BasisUnspecified,\\0,1\C\H,1,1.08974\H,1,1.09609,2,107.195\O,1,1.41511,2,105.493,3,-117.852,0\H,4,0.957116,1,108.863,2,8.98949,0\C,1,1.5176,2,110.27,3,120.028,0\H,6,1.08986,1,110.512,2,60.2497,0\H,6,1.09107,1,110.615,2,-60.0673,0\H,6,1.09228,1,110.987,2,-179.628,0\\\@

 Total job time:  10.74s(wall), 55.08s(cpu) 
 Mon Jul 27 14:21:28 2020

        *************************************************************
        *                                                           *
        *  Thank you very much for using Q-Chem.  Have a nice day.  *
        *                                                           *
        *************************************************************


