                  Welcome to Q-Chem
     A Quantum Leap Into The Future Of Chemistry


 Q-Chem 5.3 (devel), Q-Chem, Inc., Pleasanton, CA (2020)

 Yihan Shao,  Zhengting Gan,  E. Epifanovsky,  A. T. B. Gilbert,  M. Wormit,  
 J. Kussmann,  A. W. Lange,  A. Behn,  Jia Deng,  Xintian Feng,  D. Ghosh,  
 M. Goldey,  P. R. Horn,  L. D. Jacobson,  I. Kaliman,  T. Kus,  A. Landau,  
 Jie Liu,  E. I. Proynov,  R. M. Richard,  R. P. Steele,  E. J. Sundstrom,  
 H. L. Woodcock III,  P. M. Zimmerman,  D. Zuev,  B. Alam,  B. Albrecht,  
 E. Alguire,  S. A. Baeppler,  D. Barton,  Z. Benda,  Y. A. Bernard,  
 E. J. Berquist,  K. B. Bravaya,  H. Burton,  K. Carter-Fenk,  D. Casanova,  
 Chun-Min Chang,  Yunqing Chen,  A. Chien,  K. D. Closser,  M. P. Coons,  
 S. Coriani,  S. Dasgupta,  A. L. Dempwolff,  M. Diedenhofen,  Hainam Do,  
 R. G. Edgar,  Po-Tung Fang,  S. Faraji,  S. Fatehi,  Qingguo Feng,  
 J. Fosso-Tande,  J. Gayvert,  Qinghui Ge,  A. Ghysels,  G. Gidofalvi,  
 J. Gomes,  J. Gonthier,  A. Gunina,  D. Hait,  M. W. D. Hanson-Heine,  
 P. H. P. Harbach,  A. W. Hauser,  M. F. Herbst,  J. E. Herr,  
 E. G. Hohenstein,  Z. C. Holden,  Kerwin Hui,  B. C. Huynh,  T.-C. Jagau,  
 Hyunjun Ji,  B. Kaduk,  K. Khistyaev,  Jaehoon Kim,  P. Klunzinger,  K. Koh,  
 D. Kosenkov,  L. Koulias,  T. Kowalczyk,  C. M. Krauter,  A. Kunitsa,  
 Ka Un Lao,  A. Laurent,  K. V. Lawler,  Joonho Lee,  D. Lefrancois,  
 S. Lehtola,  D. S. Levine,  Yi-Pei Li,  You-Sheng Lin,  Fenglai Liu,  
 Kuan-Yu Liu,  E. Livshits,  M. Loipersberger,  A. Luenser,  P. Manohar,  
 E. Mansoor,  S. F. Manzer,  Shan-Ping Mao,  Yuezhi Mao,  N. Mardirossian,  
 A. V. Marenich,  T. Markovich,  L. A. Martinez-Martinez,  S. A. Maurer,  
 N. J. Mayhall,  S. C. McKenzie,  J.-M. Mewes,  P. Morgante,  A. F. Morrison,  
 J. W. Mullinax,  K. Nanda,  T. S. Nguyen-Beck,  R. Olivares-Amaya,  
 K. J. Oosterbaan,  J. A. Parkhill,  S. K. Paul,  F. Pavosevic,  Zheng Pei,  
 T. M. Perrine,  F. Plasser,  P. Pokhilko,  S. Prager,  A. Prociuk,  
 E. Ramos,  B. Rana,  D. R. Rehn,  F. Rob,  M. Scheurer,  M. Schneider,  
 N. Sergueev,  S. M. Sharada,  S. Sharma,  D. W. Small,  T. Stauch,  
 C. J. Stein,  T. Stein,  Yu-Chuan Su,  S. P. Veccham,  Zhen Tao,  
 A. J. W. Thom,  A. Tkatchenko,  T. Tsuchimochi,  N. M. Tubman,  L. Vogt,  
 M. L. Vidal,  O. Vydrov,  M. A. Watson,  J. Wenzel,  M. de Wergifosse,  
 T. A. Wesolowski,  A. White,  J. Witte,  A. Yamada,  Jun Yang,  K. Yao,  
 S. Yeganeh,  S. R. Yost,  Zhi-Qiang You,  A. Zech,  Igor Ying Zhang,  
 Xing Zhang,  Yan Zhao,  Ying Zhu,  B. R. Brooks,  G. K. L. Chan,  
 C. J. Cramer,  M. S. Gordon,  W. J. Hehre,  A. Klamt,  M. W. Schmidt,  
 C. D. Sherrill,  D. G. Truhlar,  A. Aspuru-Guzik,  R. Baer,  A. T. Bell,  
 N. A. Besley,  Jeng-Da Chai,  A. E. DePrince, III,  R. A. DiStasio Jr.,  
 A. Dreuw,  B. D. Dunietz,  T. R. Furlani,  Chao-Ping Hsu,  Yousung Jung,  
 Jing Kong,  D. S. Lambrecht,  WanZhen Liang,  C. Ochsenfeld,  
 V. A. Rassolov,  L. V. Slipchenko,  J. E. Subotnik,  T. Van Voorhis,  
 J. M. Herbert,  A. I. Krylov,  P. M. W. Gill,  M. Head-Gordon

 Contributors to earlier versions of Q-Chem not listed above: 
 R. D. Adamson,  B. Austin,  J. Baker,  G. J. O. Beran,  K. Brandhorst,  
 S. T. Brown,  E. F. C. Byrd,  A. K. Chakraborty,  C.-L. Cheng,  
 Siu Hung Chien,  D. M. Chipman,  D. L. Crittenden,  H. Dachsel,  
 R. J. Doerksen,  A. D. Dutoi,  L. Fusti-Molnar,  W. A. Goddard III,  
 A. Golubeva-Zadorozhnaya,  S. R. Gwaltney,  G. Hawkins,  A. Heyden,  
 S. Hirata,  G. Kedziora,  F. J. Keil,  C. Kelley,  Jihan Kim,  R. A. King,  
 R. Z. Khaliullin,  P. P. Korambath,  W. Kurlancheek,  A. M. Lee,  M. S. Lee,  
 S. V. Levchenko,  Ching Yeh Lin,  D. Liotard,  R. C. Lochan,  I. Lotan,  
 P. E. Maslen,  N. Nair,  D. P. O'Neill,  D. Neuhauser,  E. Neuscamman,  
 C. M. Oana,  R. Olson,  B. Peters,  R. Peverati,  P. A. Pieniazek,  
 Y. M. Rhee,  J. Ritchie,  M. A. Rohrdanz,  E. Rosta,  N. J. Russ,  
 H. F. Schaefer III,  N. E. Schultz,  N. Shenvi,  A. C. Simmonett,  A. Sodt,  
 D. Stuck,  K. S. Thanthiriwatte,  V. Vanovschi,  Tao Wang,  A. Warshel,  
 C. F. Williams,  Q. Wu,  X. Xu,  W. Zhang

 Please cite Q-Chem as follows:
 Y. Shao et al., Mol. Phys. 113, 184-215 (2015)
 DOI: 10.1080/00268976.2014.952696

 Q-Chem 5.3.0 for Intel X86 EM64T Linux

 Parts of Q-Chem use Armadillo 9.800.1 (Horizon Scraper).
 http://arma.sourceforge.net/

 Q-Chem begins on Mon Jul 27 14:23:18 2020  

Host: centos77-c7
0

     Scratch files written to /tmp/29924.centos77-h1/qchem104152//
Processing $rem in /opt/qchem-5.3.0-intel2020u1//config/preferences:
Processing $rem in /home/shihchengli/.qchemrc:

Checking the input file for inconsistencies... 	...done.

--------------------------------------------------------------
User input:
--------------------------------------------------------------
$rem
   JOBTYPE  sp
   EXCHANGE   omegaB97X-D
   BASIS   6-311+G(2df,2pd)
   UNRESTRICTED   False
   max_scf_cycles   250
   geom_opt_max_cycles   1500
   basis2 6-31G*
   scf_algorithm rca_diis
   SYM_IGNORE  TRUE
   print_input   true
   geom_opt_dmax   80
   pop_mulliken false
   XC_GRID 000075000302
$end

$molecule
0 1
C       -5.4529304718     0.2918081397     0.1768198737
C       -4.1596932801     1.0601847832     -0.0238286355
H       -5.6799243139     -0.3101385674     -0.7029135373
H       -6.2833996255     0.9769963262     0.3536347722
H       -5.3819727255     -0.3751697319     1.0388999098
O       -3.0586966166     0.2177146308     -0.3077268976
H       -3.9502029088     1.6853481409     0.8517904352
H       -4.2455206968     1.7261934864     -0.8820805942
H       -2.3904693611     0.3442827921     0.3657146739
$end
--------------------------------------------------------------
 ----------------------------------------------------------------
             Standard Nuclear Orientation (Angstroms)
    I     Atom           X                Y                Z
 ----------------------------------------------------------------
    1      C      -5.4529304718     0.2918081397     0.1768198737
    2      C      -4.1596932801     1.0601847832    -0.0238286355
    3      H      -5.6799243139    -0.3101385674    -0.7029135373
    4      H      -6.2833996255     0.9769963262     0.3536347722
    5      H      -5.3819727255    -0.3751697319     1.0388999098
    6      O      -3.0586966166     0.2177146308    -0.3077268976
    7      H      -3.9502029088     1.6853481409     0.8517904352
    8      H      -4.2455206968     1.7261934864    -0.8820805942
    9      H      -2.3904693611     0.3442827921     0.3657146739
 ----------------------------------------------------------------
 Nuclear Repulsion Energy =          81.68801686 hartrees
 There are       13 alpha and       13 beta electrons
 Requested basis set is 6-311+G(2df,2pd)
 There are 60 shells and 186 basis functions

 Total QAlloc Memory Limit   2000 MB
 Mega-Array Size       188 MB
 MEM_STATIC part       192 MB

                       Distance Matrix (Angstroms)
             C (  1)   C (  2)   H (  3)   H (  4)   H (  5)   O (  6)
   C (  2)  1.517605
   H (  3)  1.089861  2.156396
   H (  4)  1.091066  2.158594  1.771212
   H (  5)  1.092280  2.164163  1.768309  1.763664
   O (  6)  2.443897  1.415114  2.702894  3.378257  2.750005
   H (  7)  2.157714  1.096095  3.064475  2.488720  2.516090  2.072007
   H (  8)  2.153270  1.089739  2.497251  2.498247  3.065521  2.003482
   H (  9)  3.068730  1.947925  3.520049  3.944031  3.149585  0.957116
             H (  7)   H (  8)
   H (  8)  1.759315
   H (  9)  2.113645  2.628286
 
 A cutoff of  1.0D-09 yielded   1768 shell pairs
 There are     17180 function pairs (     21342 Cartesian)
 Smallest overlap matrix eigenvalue = 1.32E-04

 Scale SEOQF with 1.000000e-02/1.000000e-01/1.000000e-01

 Standard Electronic Orientation quadrupole field applied
 Nucleus-field energy     =     0.0000000024 hartrees
 Requested basis set is 6-31G(d)
 There are 24 shells and 54 basis functions
 A cutoff of  1.0D-09 yielded    298 shell pairs
 There are      1549 function pairs (      1732 Cartesian)
 Smallest overlap matrix eigenvalue = 7.22E-03
 Guess from superposition of atomic densities
 Warning:  Energy on first SCF cycle will be non-variational
 SAD guess density has 26.000000 electrons
 Long-range K will be added via erf
 Coulomb attenuation parameter = 0.2 bohr**(-1)
 A restricted hybrid HF-DFT SCF calculation will be
 performed using Relaxed Constraint Minimization + Pulay DIIS
 Exchange:     0.2220 Hartree-Fock + 1.0000 wB97X-D + LR-HF
 Correlation:  1.0000 wB97X-D
 Using Euler-Maclaurin-Lebedev (75,302) quadrature formula
 Dispersion:   Grimme D
 SCF converges when DIIS error is below 1.0E-04
 using 6 threads for integral computing
 -------------------------------------------------------
 OpenMP Integral computing Module                
 Release: version 1.0, May 2013, Q-Chem Inc. Pittsburgh 
 -------------------------------------------------------
 using 6 threads for integral computing
 -------------------------------------------------------
 OpenMP Integral computing Module                
 Release: version 1.0, May 2013, Q-Chem Inc. Pittsburgh 
 -------------------------------------------------------
 ---------------------------------------
  Cycle       Energy         DIIS Error
 ---------------------------------------
    1    -155.4313949252      1.06E-01
    2    -154.9222985471      1.37E-02
    3    -154.9512007451      2.95E-03
    4    -154.9783513554      2.26E-03
    5    -154.9789931274      2.16E-04 Done RCA. Switching to DIIS
    6    -154.9797104260      8.55E-05 Convergence criterion met
 ---------------------------------------
 SCF time:  CPU 13.18 s  wall 2.21 s
 SCF   energy in the small basis set = -154.97971043
 Total energy in the small basis set = -154.97971043
 ----------------------------------------------------
  Cycle       Energy    
 ----------------------------------------------------
    1     -18.7520521728     -1.88E+01
 Long-range K will be added via erf
 Coulomb attenuation parameter = 0.2 bohr**(-1)
 A restricted hybrid HF-DFT SCF calculation will be
 performed using Relaxed Constraint Minimization + Pulay DIIS
 Exchange:     0.2220 Hartree-Fock + 1.0000 wB97X-D + LR-HF
 Correlation:  1.0000 wB97X-D
 Using Euler-Maclaurin-Lebedev (75,302) quadrature formula
 Dispersion:   Grimme D
 SCF converges when DIIS error is below 1.0E-05
 Basis2 calculation detected. Using small basis as guess for larger.
 SCFMinFind is unable to tell whether the solution found is close.
 Resetting ReadMinima to 0 and attempting to follow guess.
 SCFMinFind following SCF Guess.
 using 6 threads for integral computing
 -------------------------------------------------------
 OpenMP Integral computing Module                
 Release: version 1.0, May 2013, Q-Chem Inc. Pittsburgh 
 -------------------------------------------------------
 using 6 threads for integral computing
 -------------------------------------------------------
 OpenMP Integral computing Module                
 Release: version 1.0, May 2013, Q-Chem Inc. Pittsburgh 
 -------------------------------------------------------
 ---------------------------------------
  Cycle       Energy         DIIS Error
 ---------------------------------------
    1    -155.0110930627      5.74E-03
    2    -155.0261566490      2.93E-03
    3    -155.0363242015      3.56E-04 Done RCA. Switching to DIIS
    4    -155.0485492690      2.63E-04
    5    -155.0487549369      3.99E-05
    6    -155.0487629695      6.22E-06 Convergence criterion met
 ---------------------------------------
 SCF time:  CPU 38.55 s  wall 6.45 s
 SCF   energy in the final basis set = -155.04876297
 Total energy in the final basis set = -155.04876297
 
 --------------------------------------------------------------
 
                    Orbital Energies (a.u.)
 --------------------------------------------------------------
 
 Alpha MOs
 -- Occupied --
-19.2455 -10.3271 -10.2696  -1.1256  -0.8487  -0.7128  -0.6101  -0.5485
 -0.4959  -0.4796  -0.4537  -0.4107  -0.3607
 -- Virtual --
  0.0634   0.0840   0.0934   0.1027   0.1278   0.1339   0.1375   0.1813
  0.2120   0.2248   0.2330   0.2434   0.2505   0.2874   0.2917   0.3071
  0.3153   0.3308   0.3535   0.3850   0.4681   0.4996   0.5174   0.5263
  0.5689   0.5767   0.5867   0.5988   0.6129   0.6339   0.6498   0.6678
  0.6956   0.7165   0.7473   0.8347   0.8651   0.8901   0.9388   0.9603
  0.9760   1.0371   1.0741   1.1131   1.1252   1.1717   1.1935   1.2063
  1.2250   1.2329   1.2521   1.2999   1.3329   1.3523   1.3698   1.4161
  1.4321   1.4547   1.4765   1.4879   1.5347   1.5494   1.6003   1.6212
  1.6571   1.7267   1.9366   2.0471   2.1476   2.2302   2.2947   2.4667
  2.4834   2.5162   2.5450   2.5952   2.7144   2.8013   2.8264   2.8691
  2.9227   2.9829   3.0180   3.0303   3.0391   3.0570   3.0675   3.0950
  3.1407   3.1919   3.2123   3.2626   3.2770   3.3093   3.3177   3.3403
  3.3561   3.3817   3.4089   3.4246   3.4823   3.5685   3.5770   3.5960
  3.5985   3.6328   3.6529   3.7037   3.7296   3.7733   3.8037   3.8258
  3.8502   3.9397   3.9619   3.9741   3.9983   4.0149   4.0356   4.0412
  4.0940   4.1250   4.1428   4.2017   4.2092   4.2233   4.2599   4.3294
  4.3573   4.3980   4.4687   4.4794   4.5728   4.6452   4.7271   4.7715
  4.8567   4.9262   4.9502   4.9763   5.0001   5.0535   5.0933   5.2148
  5.2495   5.2773   5.2924   5.3145   5.3383   5.3663   5.3853   5.4822
  5.5274   5.6182   5.7077   5.8249   5.9466   5.9844   6.3714   6.3851
  6.4305   6.6572   6.7007   6.7875   7.1085   7.3986   7.4303   7.5762
  7.6863   8.1513  25.1791  25.4337  50.4644
 --------------------------------------------------------------
 
 -----------------------------------------------------------------
                    Cartesian Multipole Moments
 -----------------------------------------------------------------
    Charge (ESU x 10^10)
                 0.0000
    Dipole Moment (Debye)
         X      -0.1701      Y       1.0384      Z       1.3809
       Tot       1.7362
    Quadrupole Moments (Debye-Ang)
        XX     -16.9701     XY      -3.7700     YY     -19.5203
        XZ      -3.1435     YZ       0.3462     ZZ     -19.8811
    Octopole Moments (Debye-Ang^2)
       XXX     235.9311    XXY       3.8149    XYY      84.1408
       YYY     -32.2569    XXZ       6.6079    XYZ      -0.8126
       YYZ       0.4323    XZZ      85.6043    YZZ     -10.7320
       ZZZ       0.9813
    Hexadecapole Moments (Debye-Ang^3)
      XXXX   -2263.5540   XXXY      75.8711   XXYY    -403.6219
      XYYY     136.8893   YYYY     -92.1041   XXXZ      -1.7533
      XXYZ       3.2046   XYYZ       1.9057   YYYZ       0.3482
      XXZZ    -402.1954   XYZZ      46.6125   YYZZ     -20.1800
      XZZZ       7.7096   YZZZ      -0.1086   ZZZZ     -38.8612
 -----------------------------------------------------------------
Archival summary:
1\1\centos77-c7\SP\ProcedureUnspecified\BasisUnspecified\126\shihchen\MonJul2714:23:292020MonJul2714:23:292020\0\\#,ProcedureUnspecified,BasisUnspecified,\\0,1\C\H,1,1.08974\H,1,1.09609,2,107.195\O,1,1.41511,2,105.493,3,-117.852,0\H,4,0.957116,1,108.863,2,118.989,0\C,1,1.5176,2,110.27,3,120.028,0\H,6,1.08986,1,110.512,2,60.2497,0\H,6,1.09107,1,110.615,2,-60.0673,0\H,6,1.09228,1,110.987,2,-179.628,0\\\@

 Total job time:  10.79s(wall), 55.52s(cpu) 
 Mon Jul 27 14:23:29 2020

        *************************************************************
        *                                                           *
        *  Thank you very much for using Q-Chem.  Have a nice day.  *
        *                                                           *
        *************************************************************


