                  Welcome to Q-Chem
     A Quantum Leap Into The Future Of Chemistry


 Q-Chem 5.3 (devel), Q-Chem, Inc., Pleasanton, CA (2020)

 Yihan Shao,  Zhengting Gan,  E. Epifanovsky,  A. T. B. Gilbert,  M. Wormit,  
 J. Kussmann,  A. W. Lange,  A. Behn,  Jia Deng,  Xintian Feng,  D. Ghosh,  
 M. Goldey,  P. R. Horn,  L. D. Jacobson,  I. Kaliman,  T. Kus,  A. Landau,  
 Jie Liu,  E. I. Proynov,  R. M. Richard,  R. P. Steele,  E. J. Sundstrom,  
 H. L. Woodcock III,  P. M. Zimmerman,  D. Zuev,  B. Alam,  B. Albrecht,  
 E. Alguire,  S. A. Baeppler,  D. Barton,  Z. Benda,  Y. A. Bernard,  
 E. J. Berquist,  K. B. Bravaya,  H. Burton,  K. Carter-Fenk,  D. Casanova,  
 Chun-Min Chang,  Yunqing Chen,  A. Chien,  K. D. Closser,  M. P. Coons,  
 S. Coriani,  S. Dasgupta,  A. L. Dempwolff,  M. Diedenhofen,  Hainam Do,  
 R. G. Edgar,  Po-Tung Fang,  S. Faraji,  S. Fatehi,  Qingguo Feng,  
 J. Fosso-Tande,  J. Gayvert,  Qinghui Ge,  A. Ghysels,  G. Gidofalvi,  
 J. Gomes,  J. Gonthier,  A. Gunina,  D. Hait,  M. W. D. Hanson-Heine,  
 P. H. P. Harbach,  A. W. Hauser,  M. F. Herbst,  J. E. Herr,  
 E. G. Hohenstein,  Z. C. Holden,  Kerwin Hui,  B. C. Huynh,  T.-C. Jagau,  
 Hyunjun Ji,  B. Kaduk,  K. Khistyaev,  Jaehoon Kim,  P. Klunzinger,  K. Koh,  
 D. Kosenkov,  L. Koulias,  T. Kowalczyk,  C. M. Krauter,  A. Kunitsa,  
 Ka Un Lao,  A. Laurent,  K. V. Lawler,  Joonho Lee,  D. Lefrancois,  
 S. Lehtola,  D. S. Levine,  Yi-Pei Li,  You-Sheng Lin,  Fenglai Liu,  
 Kuan-Yu Liu,  E. Livshits,  M. Loipersberger,  A. Luenser,  P. Manohar,  
 E. Mansoor,  S. F. Manzer,  Shan-Ping Mao,  Yuezhi Mao,  N. Mardirossian,  
 A. V. Marenich,  T. Markovich,  L. A. Martinez-Martinez,  S. A. Maurer,  
 N. J. Mayhall,  S. C. McKenzie,  J.-M. Mewes,  P. Morgante,  A. F. Morrison,  
 J. W. Mullinax,  K. Nanda,  T. S. Nguyen-Beck,  R. Olivares-Amaya,  
 K. J. Oosterbaan,  J. A. Parkhill,  S. K. Paul,  F. Pavosevic,  Zheng Pei,  
 T. M. Perrine,  F. Plasser,  P. Pokhilko,  S. Prager,  A. Prociuk,  
 E. Ramos,  B. Rana,  D. R. Rehn,  F. Rob,  M. Scheurer,  M. Schneider,  
 N. Sergueev,  S. M. Sharada,  S. Sharma,  D. W. Small,  T. Stauch,  
 C. J. Stein,  T. Stein,  Yu-Chuan Su,  S. P. Veccham,  Zhen Tao,  
 A. J. W. Thom,  A. Tkatchenko,  T. Tsuchimochi,  N. M. Tubman,  L. Vogt,  
 M. L. Vidal,  O. Vydrov,  M. A. Watson,  J. Wenzel,  M. de Wergifosse,  
 T. A. Wesolowski,  A. White,  J. Witte,  A. Yamada,  Jun Yang,  K. Yao,  
 S. Yeganeh,  S. R. Yost,  Zhi-Qiang You,  A. Zech,  Igor Ying Zhang,  
 Xing Zhang,  Yan Zhao,  Ying Zhu,  B. R. Brooks,  G. K. L. Chan,  
 C. J. Cramer,  M. S. Gordon,  W. J. Hehre,  A. Klamt,  M. W. Schmidt,  
 C. D. Sherrill,  D. G. Truhlar,  A. Aspuru-Guzik,  R. Baer,  A. T. Bell,  
 N. A. Besley,  Jeng-Da Chai,  A. E. DePrince, III,  R. A. DiStasio Jr.,  
 A. Dreuw,  B. D. Dunietz,  T. R. Furlani,  Chao-Ping Hsu,  Yousung Jung,  
 Jing Kong,  D. S. Lambrecht,  WanZhen Liang,  C. Ochsenfeld,  
 V. A. Rassolov,  L. V. Slipchenko,  J. E. Subotnik,  T. Van Voorhis,  
 J. M. Herbert,  A. I. Krylov,  P. M. W. Gill,  M. Head-Gordon

 Contributors to earlier versions of Q-Chem not listed above: 
 R. D. Adamson,  B. Austin,  J. Baker,  G. J. O. Beran,  K. Brandhorst,  
 S. T. Brown,  E. F. C. Byrd,  A. K. Chakraborty,  C.-L. Cheng,  
 Siu Hung Chien,  D. M. Chipman,  D. L. Crittenden,  H. Dachsel,  
 R. J. Doerksen,  A. D. Dutoi,  L. Fusti-Molnar,  W. A. Goddard III,  
 A. Golubeva-Zadorozhnaya,  S. R. Gwaltney,  G. Hawkins,  A. Heyden,  
 S. Hirata,  G. Kedziora,  F. J. Keil,  C. Kelley,  Jihan Kim,  R. A. King,  
 R. Z. Khaliullin,  P. P. Korambath,  W. Kurlancheek,  A. M. Lee,  M. S. Lee,  
 S. V. Levchenko,  Ching Yeh Lin,  D. Liotard,  R. C. Lochan,  I. Lotan,  
 P. E. Maslen,  N. Nair,  D. P. O'Neill,  D. Neuhauser,  E. Neuscamman,  
 C. M. Oana,  R. Olson,  B. Peters,  R. Peverati,  P. A. Pieniazek,  
 Y. M. Rhee,  J. Ritchie,  M. A. Rohrdanz,  E. Rosta,  N. J. Russ,  
 H. F. Schaefer III,  N. E. Schultz,  N. Shenvi,  A. C. Simmonett,  A. Sodt,  
 D. Stuck,  K. S. Thanthiriwatte,  V. Vanovschi,  Tao Wang,  A. Warshel,  
 C. F. Williams,  Q. Wu,  X. Xu,  W. Zhang

 Please cite Q-Chem as follows:
 Y. Shao et al., Mol. Phys. 113, 184-215 (2015)
 DOI: 10.1080/00268976.2014.952696

 Q-Chem 5.3.0 for Intel X86 EM64T Linux

 Parts of Q-Chem use Armadillo 9.800.1 (Horizon Scraper).
 http://arma.sourceforge.net/

 Q-Chem begins on Mon Jul 27 14:15:19 2020  

Host: centos77-c7
0

     Scratch files written to /tmp/29924.centos77-h1/qchem102139//
Processing $rem in /opt/qchem-5.3.0-intel2020u1//config/preferences:
Processing $rem in /home/shihchengli/.qchemrc:

Checking the input file for inconsistencies... 	...done.

--------------------------------------------------------------
User input:
--------------------------------------------------------------
$rem
   JOBTYPE  sp
   EXCHANGE   omegaB97X-D
   BASIS   6-311+G(2df,2pd)
   UNRESTRICTED   False
   max_scf_cycles   250
   geom_opt_max_cycles   1500
   basis2 6-31G*
   scf_algorithm rca_diis
   SYM_IGNORE  TRUE
   print_input   true
   geom_opt_dmax   80
   pop_mulliken false
   XC_GRID 000075000302
$end

$molecule
0 1
C       -5.3493639385     0.2467064692     0.1387230378
C       -4.0385381039     0.9437857006     0.4532720817
H       -5.8423578487     -0.0720034866     1.0569702188
H       -5.1774855761     -0.6305889219     -0.4867655710
H       -6.0270406811     0.9125511641     -0.4002403620
O       -3.3839057553     1.4302784584     -0.7031573882
H       -3.3783101805     0.2739674636     1.0161813240
H       -4.2167659961     1.8194404561     1.0769658612
H       -3.1890419198     0.6930826966     -1.2816392023
$end
--------------------------------------------------------------
 ----------------------------------------------------------------
             Standard Nuclear Orientation (Angstroms)
    I     Atom           X                Y                Z
 ----------------------------------------------------------------
    1      C      -5.3493639385     0.2467064692     0.1387230378
    2      C      -4.0385381039     0.9437857006     0.4532720817
    3      H      -5.8423578487    -0.0720034866     1.0569702188
    4      H      -5.1774855761    -0.6305889219    -0.4867655710
    5      H      -6.0270406811     0.9125511641    -0.4002403620
    6      O      -3.3839057553     1.4302784584    -0.7031573882
    7      H      -3.3783101805     0.2739674636     1.0161813240
    8      H      -4.2167659961     1.8194404561     1.0769658612
    9      H      -3.1890419198     0.6930826966    -1.2816392023
 ----------------------------------------------------------------
 Nuclear Repulsion Energy =          81.90891438 hartrees
 There are       13 alpha and       13 beta electrons
 Requested basis set is 6-311+G(2df,2pd)
 There are 60 shells and 186 basis functions

 Total QAlloc Memory Limit   2000 MB
 Mega-Array Size       188 MB
 MEM_STATIC part       192 MB

                       Distance Matrix (Angstroms)
             C (  1)   C (  2)   H (  3)   H (  4)   H (  5)   O (  6)
   C (  2)  1.517605
   H (  3)  1.089861  2.156396
   H (  4)  1.091066  2.158594  1.771212
   H (  5)  1.092280  2.164163  1.768309  1.763664
   O (  6)  2.443897  1.415114  3.376224  2.740607  2.710344
   H (  7)  2.157714  1.096095  2.488552  2.512788  3.070800  2.072007
   H (  8)  2.153270  1.089739  2.494095  3.061190  2.506328  2.003482
   H (  9)  2.623675  1.947925  3.618637  2.517506  2.979810  0.957116
             H (  7)   H (  8)
   H (  8)  1.759315
   H (  9)  2.343386  2.808543
 
 A cutoff of  1.0D-09 yielded   1784 shell pairs
 There are     17300 function pairs (     21484 Cartesian)
 Smallest overlap matrix eigenvalue = 1.35E-04

 Scale SEOQF with 1.000000e-02/1.000000e-01/1.000000e-01

 Standard Electronic Orientation quadrupole field applied
 Nucleus-field energy     =     0.0000000026 hartrees
 Requested basis set is 6-31G(d)
 There are 24 shells and 54 basis functions
 A cutoff of  1.0D-09 yielded    298 shell pairs
 There are      1549 function pairs (      1732 Cartesian)
 Smallest overlap matrix eigenvalue = 7.18E-03
 Guess from superposition of atomic densities
 Warning:  Energy on first SCF cycle will be non-variational
 SAD guess density has 26.000000 electrons
 Long-range K will be added via erf
 Coulomb attenuation parameter = 0.2 bohr**(-1)
 A restricted hybrid HF-DFT SCF calculation will be
 performed using Relaxed Constraint Minimization + Pulay DIIS
 Exchange:     0.2220 Hartree-Fock + 1.0000 wB97X-D + LR-HF
 Correlation:  1.0000 wB97X-D
 Using Euler-Maclaurin-Lebedev (75,302) quadrature formula
 Dispersion:   Grimme D
 SCF converges when DIIS error is below 1.0E-04
 using 6 threads for integral computing
 -------------------------------------------------------
 OpenMP Integral computing Module                
 Release: version 1.0, May 2013, Q-Chem Inc. Pittsburgh 
 -------------------------------------------------------
 using 6 threads for integral computing
 -------------------------------------------------------
 OpenMP Integral computing Module                
 Release: version 1.0, May 2013, Q-Chem Inc. Pittsburgh 
 -------------------------------------------------------
 ---------------------------------------
  Cycle       Energy         DIIS Error
 ---------------------------------------
    1    -155.4334405078      1.06E-01
    2    -154.9267688728      1.35E-02
    3    -154.9550102172      3.03E-03
    4    -154.9810970399      2.41E-03
    5    -154.9818226870      2.27E-04 Done RCA. Switching to DIIS
    6    -154.9826366191      1.02E-04
    7    -154.9826398786      7.46E-06 Convergence criterion met
 ---------------------------------------
 SCF time:  CPU 14.20 s  wall 2.38 s
 SCF   energy in the small basis set = -154.98263988
 Total energy in the small basis set = -154.98263988
 ----------------------------------------------------
  Cycle       Energy    
 ----------------------------------------------------
    1     -18.7511498004     -1.88E+01
 Long-range K will be added via erf
 Coulomb attenuation parameter = 0.2 bohr**(-1)
 A restricted hybrid HF-DFT SCF calculation will be
 performed using Relaxed Constraint Minimization + Pulay DIIS
 Exchange:     0.2220 Hartree-Fock + 1.0000 wB97X-D + LR-HF
 Correlation:  1.0000 wB97X-D
 Using Euler-Maclaurin-Lebedev (75,302) quadrature formula
 Dispersion:   Grimme D
 SCF converges when DIIS error is below 1.0E-05
 Basis2 calculation detected. Using small basis as guess for larger.
 SCFMinFind is unable to tell whether the solution found is close.
 Resetting ReadMinima to 0 and attempting to follow guess.
 SCFMinFind following SCF Guess.
 using 6 threads for integral computing
 -------------------------------------------------------
 OpenMP Integral computing Module                
 Release: version 1.0, May 2013, Q-Chem Inc. Pittsburgh 
 -------------------------------------------------------
 using 6 threads for integral computing
 -------------------------------------------------------
 OpenMP Integral computing Module                
 Release: version 1.0, May 2013, Q-Chem Inc. Pittsburgh 
 -------------------------------------------------------
 ---------------------------------------
  Cycle       Energy         DIIS Error
 ---------------------------------------
    1    -155.0140169966      5.72E-03
    2    -155.0294994624      2.85E-03
    3    -155.0391276146      3.48E-04 Done RCA. Switching to DIIS
    4    -155.0506849554      2.51E-04
    5    -155.0508735079      3.93E-05
    6    -155.0508813351      5.64E-06 Convergence criterion met
 ---------------------------------------
 SCF time:  CPU 38.90 s  wall 6.51 s
 SCF   energy in the final basis set = -155.05088134
 Total energy in the final basis set = -155.05088134
 
 --------------------------------------------------------------
 
                    Orbital Energies (a.u.)
 --------------------------------------------------------------
 
 Alpha MOs
 -- Occupied --
-19.2462 -10.3273 -10.2744  -1.1261  -0.8498  -0.7230  -0.5962  -0.5456
 -0.5228  -0.4696  -0.4590  -0.4114  -0.3627
 -- Virtual --
  0.0652   0.0875   0.0888   0.1020   0.1265   0.1338   0.1369   0.1813
  0.1975   0.2170   0.2404   0.2438   0.2654   0.2841   0.2891   0.3067
  0.3169   0.3289   0.3432   0.3817   0.4577   0.4933   0.5009   0.5246
  0.5681   0.5778   0.5787   0.6082   0.6130   0.6324   0.6682   0.6812
  0.6903   0.7133   0.7379   0.8042   0.8462   0.8984   0.9283   0.9512
  0.9873   1.0517   1.0606   1.1105   1.1439   1.1732   1.1832   1.2148
  1.2277   1.2363   1.2789   1.2984   1.3234   1.3585   1.3771   1.4141
  1.4503   1.4662   1.4729   1.4865   1.5038   1.5376   1.5950   1.6285
  1.6513   1.7122   1.9385   2.0505   2.1160   2.2801   2.2841   2.4609
  2.4713   2.5019   2.5485   2.5904   2.7057   2.8387   2.8530   2.8815
  2.9149   2.9750   3.0067   3.0287   3.0463   3.0538   3.0634   3.0770
  3.0919   3.1772   3.2216   3.2639   3.2840   3.2900   3.3095   3.3484
  3.3597   3.4009   3.4106   3.4250   3.5089   3.5646   3.5735   3.5815
  3.6082   3.6111   3.6552   3.7104   3.7279   3.7556   3.7923   3.8366
  3.8922   3.9216   3.9570   3.9763   3.9933   4.0147   4.0398   4.0731
  4.0909   4.1073   4.1379   4.1786   4.2087   4.2326   4.3011   4.3198
  4.3444   4.3957   4.4663   4.5112   4.5386   4.6474   4.7209   4.7875
  4.8542   4.9349   4.9463   4.9927   5.0072   5.0609   5.1235   5.2132
  5.2205   5.2503   5.2851   5.3087   5.3269   5.3667   5.4094   5.4802
  5.5376   5.5795   5.6800   5.8232   5.9288   6.0318   6.3582   6.3851
  6.4058   6.6552   6.7089   6.8217   7.1275   7.3529   7.4249   7.5547
  7.7248   8.1111  25.1749  25.4310  50.4667
 --------------------------------------------------------------
 
 -----------------------------------------------------------------
                    Cartesian Multipole Moments
 -----------------------------------------------------------------
    Charge (ESU x 10^10)
                 0.0000
    Dipole Moment (Debye)
         X      -0.5203      Y      -1.6410      Z       0.3604
       Tot       1.7588
    Quadrupole Moments (Debye-Ang)
        XX     -16.2128     XY       4.4181     YY     -23.6928
        XZ      -2.1056     YZ       2.4109     ZZ     -18.6661
    Octopole Moments (Debye-Ang^2)
       XXX     239.1964    XXY     -26.3813    XYY      97.6011
       YYY     -54.4252    XXZ      10.7279    XYZ      -8.7930
       YYZ       5.0839    XZZ      82.8177    YZZ     -16.8294
       ZZZ      -2.0594
    Hexadecapole Moments (Debye-Ang^3)
      XXXX   -2275.3553   XXXY     197.9525   XXYY    -450.6694
      XYYY     202.6619   YYYY    -150.3128   XXXZ     -38.7829
      XXYZ      33.4154   XYYZ     -13.7063   YYYZ      17.8917
      XXZZ    -394.6555   XYZZ      65.1108   YYZZ     -36.5820
      XZZZ      16.0373   YZZZ       7.1050   ZZZZ     -61.7229
 -----------------------------------------------------------------
Archival summary:
1\1\centos77-c7\SP\ProcedureUnspecified\BasisUnspecified\126\shihchen\MonJul2714:15:302020MonJul2714:15:302020\0\\#,ProcedureUnspecified,BasisUnspecified,\\0,1\C\H,1,1.08974\H,1,1.09609,2,107.195\O,1,1.41511,2,105.493,3,-117.852,0\H,4,0.957116,1,108.863,2,178.989,0\C,1,1.5176,2,110.27,3,120.028,0\H,6,1.08986,1,110.512,2,-59.7503,0\H,6,1.09107,1,110.615,2,179.933,0\H,6,1.09228,1,110.987,2,60.3721,0\\\@

 Total job time:  11.09s(wall), 57.00s(cpu) 
 Mon Jul 27 14:15:30 2020

        *************************************************************
        *                                                           *
        *  Thank you very much for using Q-Chem.  Have a nice day.  *
        *                                                           *
        *************************************************************


