                  Welcome to Q-Chem
     A Quantum Leap Into The Future Of Chemistry


 Q-Chem 5.3 (devel), Q-Chem, Inc., Pleasanton, CA (2020)

 Yihan Shao,  Zhengting Gan,  E. Epifanovsky,  A. T. B. Gilbert,  M. Wormit,  
 J. Kussmann,  A. W. Lange,  A. Behn,  Jia Deng,  Xintian Feng,  D. Ghosh,  
 M. Goldey,  P. R. Horn,  L. D. Jacobson,  I. Kaliman,  T. Kus,  A. Landau,  
 Jie Liu,  E. I. Proynov,  R. M. Richard,  R. P. Steele,  E. J. Sundstrom,  
 H. L. Woodcock III,  P. M. Zimmerman,  D. Zuev,  B. Alam,  B. Albrecht,  
 E. Alguire,  S. A. Baeppler,  D. Barton,  Z. Benda,  Y. A. Bernard,  
 E. J. Berquist,  K. B. Bravaya,  H. Burton,  K. Carter-Fenk,  D. Casanova,  
 Chun-Min Chang,  Yunqing Chen,  A. Chien,  K. D. Closser,  M. P. Coons,  
 S. Coriani,  S. Dasgupta,  A. L. Dempwolff,  M. Diedenhofen,  Hainam Do,  
 R. G. Edgar,  Po-Tung Fang,  S. Faraji,  S. Fatehi,  Qingguo Feng,  
 J. Fosso-Tande,  J. Gayvert,  Qinghui Ge,  A. Ghysels,  G. Gidofalvi,  
 J. Gomes,  J. Gonthier,  A. Gunina,  D. Hait,  M. W. D. Hanson-Heine,  
 P. H. P. Harbach,  A. W. Hauser,  M. F. Herbst,  J. E. Herr,  
 E. G. Hohenstein,  Z. C. Holden,  Kerwin Hui,  B. C. Huynh,  T.-C. Jagau,  
 Hyunjun Ji,  B. Kaduk,  K. Khistyaev,  Jaehoon Kim,  P. Klunzinger,  K. Koh,  
 D. Kosenkov,  L. Koulias,  T. Kowalczyk,  C. M. Krauter,  A. Kunitsa,  
 Ka Un Lao,  A. Laurent,  K. V. Lawler,  Joonho Lee,  D. Lefrancois,  
 S. Lehtola,  D. S. Levine,  Yi-Pei Li,  You-Sheng Lin,  Fenglai Liu,  
 Kuan-Yu Liu,  E. Livshits,  M. Loipersberger,  A. Luenser,  P. Manohar,  
 E. Mansoor,  S. F. Manzer,  Shan-Ping Mao,  Yuezhi Mao,  N. Mardirossian,  
 A. V. Marenich,  T. Markovich,  L. A. Martinez-Martinez,  S. A. Maurer,  
 N. J. Mayhall,  S. C. McKenzie,  J.-M. Mewes,  P. Morgante,  A. F. Morrison,  
 J. W. Mullinax,  K. Nanda,  T. S. Nguyen-Beck,  R. Olivares-Amaya,  
 K. J. Oosterbaan,  J. A. Parkhill,  S. K. Paul,  F. Pavosevic,  Zheng Pei,  
 T. M. Perrine,  F. Plasser,  P. Pokhilko,  S. Prager,  A. Prociuk,  
 E. Ramos,  B. Rana,  D. R. Rehn,  F. Rob,  M. Scheurer,  M. Schneider,  
 N. Sergueev,  S. M. Sharada,  S. Sharma,  D. W. Small,  T. Stauch,  
 C. J. Stein,  T. Stein,  Yu-Chuan Su,  S. P. Veccham,  Zhen Tao,  
 A. J. W. Thom,  A. Tkatchenko,  T. Tsuchimochi,  N. M. Tubman,  L. Vogt,  
 M. L. Vidal,  O. Vydrov,  M. A. Watson,  J. Wenzel,  M. de Wergifosse,  
 T. A. Wesolowski,  A. White,  J. Witte,  A. Yamada,  Jun Yang,  K. Yao,  
 S. Yeganeh,  S. R. Yost,  Zhi-Qiang You,  A. Zech,  Igor Ying Zhang,  
 Xing Zhang,  Yan Zhao,  Ying Zhu,  B. R. Brooks,  G. K. L. Chan,  
 C. J. Cramer,  M. S. Gordon,  W. J. Hehre,  A. Klamt,  M. W. Schmidt,  
 C. D. Sherrill,  D. G. Truhlar,  A. Aspuru-Guzik,  R. Baer,  A. T. Bell,  
 N. A. Besley,  Jeng-Da Chai,  A. E. DePrince, III,  R. A. DiStasio Jr.,  
 A. Dreuw,  B. D. Dunietz,  T. R. Furlani,  Chao-Ping Hsu,  Yousung Jung,  
 Jing Kong,  D. S. Lambrecht,  WanZhen Liang,  C. Ochsenfeld,  
 V. A. Rassolov,  L. V. Slipchenko,  J. E. Subotnik,  T. Van Voorhis,  
 J. M. Herbert,  A. I. Krylov,  P. M. W. Gill,  M. Head-Gordon

 Contributors to earlier versions of Q-Chem not listed above: 
 R. D. Adamson,  B. Austin,  J. Baker,  G. J. O. Beran,  K. Brandhorst,  
 S. T. Brown,  E. F. C. Byrd,  A. K. Chakraborty,  C.-L. Cheng,  
 Siu Hung Chien,  D. M. Chipman,  D. L. Crittenden,  H. Dachsel,  
 R. J. Doerksen,  A. D. Dutoi,  L. Fusti-Molnar,  W. A. Goddard III,  
 A. Golubeva-Zadorozhnaya,  S. R. Gwaltney,  G. Hawkins,  A. Heyden,  
 S. Hirata,  G. Kedziora,  F. J. Keil,  C. Kelley,  Jihan Kim,  R. A. King,  
 R. Z. Khaliullin,  P. P. Korambath,  W. Kurlancheek,  A. M. Lee,  M. S. Lee,  
 S. V. Levchenko,  Ching Yeh Lin,  D. Liotard,  R. C. Lochan,  I. Lotan,  
 P. E. Maslen,  N. Nair,  D. P. O'Neill,  D. Neuhauser,  E. Neuscamman,  
 C. M. Oana,  R. Olson,  B. Peters,  R. Peverati,  P. A. Pieniazek,  
 Y. M. Rhee,  J. Ritchie,  M. A. Rohrdanz,  E. Rosta,  N. J. Russ,  
 H. F. Schaefer III,  N. E. Schultz,  N. Shenvi,  A. C. Simmonett,  A. Sodt,  
 D. Stuck,  K. S. Thanthiriwatte,  V. Vanovschi,  Tao Wang,  A. Warshel,  
 C. F. Williams,  Q. Wu,  X. Xu,  W. Zhang

 Please cite Q-Chem as follows:
 Y. Shao et al., Mol. Phys. 113, 184-215 (2015)
 DOI: 10.1080/00268976.2014.952696

 Q-Chem 5.3.0 for Intel X86 EM64T Linux

 Parts of Q-Chem use Armadillo 9.800.1 (Horizon Scraper).
 http://arma.sourceforge.net/

 Q-Chem begins on Mon Jul 27 14:15:53 2020  

Host: centos77-c7
0

     Scratch files written to /tmp/29924.centos77-h1/qchem102265//
Processing $rem in /opt/qchem-5.3.0-intel2020u1//config/preferences:
Processing $rem in /home/shihchengli/.qchemrc:

Checking the input file for inconsistencies... 	...done.

--------------------------------------------------------------
User input:
--------------------------------------------------------------
$rem
   JOBTYPE  sp
   EXCHANGE   omegaB97X-D
   BASIS   6-311+G(2df,2pd)
   UNRESTRICTED   False
   max_scf_cycles   250
   geom_opt_max_cycles   1500
   basis2 6-31G*
   scf_algorithm rca_diis
   SYM_IGNORE  TRUE
   print_input   true
   geom_opt_dmax   80
   pop_mulliken false
   XC_GRID 000075000302
$end

$molecule
0 1
C       -5.3428507286     0.2329377421     0.1422918060
C       -4.0145578020     0.8936546177     0.4620042325
H       -5.9962610523     0.2473492278     1.0144409761
H       -5.1926071068     -0.8036761070     -0.1631324176
H       -5.8507392946     0.7506411246     -0.6744755317
O       -3.4493081984     1.5579724965     -0.6523217861
H       -3.3121173694     0.1564047284     0.8675461366
H       -4.1487915489     1.6628636945     1.2221549150
H       -3.2955768989     0.9190724755     -1.3481983307
$end
--------------------------------------------------------------
 ----------------------------------------------------------------
             Standard Nuclear Orientation (Angstroms)
    I     Atom           X                Y                Z
 ----------------------------------------------------------------
    1      C      -5.3428507286     0.2329377421     0.1422918060
    2      C      -4.0145578020     0.8936546177     0.4620042325
    3      H      -5.9962610523     0.2473492278     1.0144409761
    4      H      -5.1926071068    -0.8036761070    -0.1631324176
    5      H      -5.8507392946     0.7506411246    -0.6744755317
    6      O      -3.4493081984     1.5579724965    -0.6523217861
    7      H      -3.3121173694     0.1564047284     0.8675461366
    8      H      -4.1487915489     1.6628636945     1.2221549150
    9      H      -3.2955768989     0.9190724755    -1.3481983307
 ----------------------------------------------------------------
 Nuclear Repulsion Energy =          81.91995864 hartrees
 There are       13 alpha and       13 beta electrons
 Requested basis set is 6-311+G(2df,2pd)
 There are 60 shells and 186 basis functions

 Total QAlloc Memory Limit   2000 MB
 Mega-Array Size       188 MB
 MEM_STATIC part       192 MB

                       Distance Matrix (Angstroms)
             C (  1)   C (  2)   H (  3)   H (  4)   H (  5)   O (  6)
   C (  2)  1.517605
   H (  3)  1.089861  2.156396
   H (  4)  1.091066  2.158594  1.771212
   H (  5)  1.092280  2.164163  1.768309  1.763664
   O (  6)  2.443897  1.415114  3.314031  2.975867  2.533603
   H (  7)  2.157714  1.096095  2.689698  2.349531  3.029117  2.072007
   H (  8)  2.153270  1.089739  2.336658  3.015359  2.706655  2.003482
   H (  9)  2.623675  1.947925  3.650612  2.823290  2.647853  0.957116
             H (  7)   H (  8)
   H (  8)  1.759315
   H (  9)  2.343386  2.808543
 
 A cutoff of  1.0D-09 yielded   1786 shell pairs
 There are     17299 function pairs (     21473 Cartesian)
 Smallest overlap matrix eigenvalue = 1.25E-04

 Scale SEOQF with 1.000000e-02/1.000000e-01/1.000000e-01

 Standard Electronic Orientation quadrupole field applied
 Nucleus-field energy     =     0.0000000028 hartrees
 Requested basis set is 6-31G(d)
 There are 24 shells and 54 basis functions
 A cutoff of  1.0D-09 yielded    298 shell pairs
 There are      1549 function pairs (      1732 Cartesian)
 Smallest overlap matrix eigenvalue = 6.99E-03
 Guess from superposition of atomic densities
 Warning:  Energy on first SCF cycle will be non-variational
 SAD guess density has 26.000000 electrons
 Long-range K will be added via erf
 Coulomb attenuation parameter = 0.2 bohr**(-1)
 A restricted hybrid HF-DFT SCF calculation will be
 performed using Relaxed Constraint Minimization + Pulay DIIS
 Exchange:     0.2220 Hartree-Fock + 1.0000 wB97X-D + LR-HF
 Correlation:  1.0000 wB97X-D
 Using Euler-Maclaurin-Lebedev (75,302) quadrature formula
 Dispersion:   Grimme D
 SCF converges when DIIS error is below 1.0E-04
 using 6 threads for integral computing
 -------------------------------------------------------
 OpenMP Integral computing Module                
 Release: version 1.0, May 2013, Q-Chem Inc. Pittsburgh 
 -------------------------------------------------------
 using 6 threads for integral computing
 -------------------------------------------------------
 OpenMP Integral computing Module                
 Release: version 1.0, May 2013, Q-Chem Inc. Pittsburgh 
 -------------------------------------------------------
 ---------------------------------------
  Cycle       Energy         DIIS Error
 ---------------------------------------
    1    -155.4345536754      1.06E-01
    2    -154.9236553433      1.35E-02
    3    -154.9519854414      3.04E-03
    4    -154.9780701817      2.42E-03
    5    -154.9787999903      2.25E-04 Done RCA. Switching to DIIS
    6    -154.9796177835      1.02E-04
    7    -154.9796210330      7.68E-06 Convergence criterion met
 ---------------------------------------
 SCF time:  CPU 14.63 s  wall 2.45 s
 SCF   energy in the small basis set = -154.97962103
 Total energy in the small basis set = -154.97962103
 ----------------------------------------------------
  Cycle       Energy    
 ----------------------------------------------------
    1     -18.7537173929     -1.88E+01
 Long-range K will be added via erf
 Coulomb attenuation parameter = 0.2 bohr**(-1)
 A restricted hybrid HF-DFT SCF calculation will be
 performed using Relaxed Constraint Minimization + Pulay DIIS
 Exchange:     0.2220 Hartree-Fock + 1.0000 wB97X-D + LR-HF
 Correlation:  1.0000 wB97X-D
 Using Euler-Maclaurin-Lebedev (75,302) quadrature formula
 Dispersion:   Grimme D
 SCF converges when DIIS error is below 1.0E-05
 Basis2 calculation detected. Using small basis as guess for larger.
 SCFMinFind is unable to tell whether the solution found is close.
 Resetting ReadMinima to 0 and attempting to follow guess.
 SCFMinFind following SCF Guess.
 using 6 threads for integral computing
 -------------------------------------------------------
 OpenMP Integral computing Module                
 Release: version 1.0, May 2013, Q-Chem Inc. Pittsburgh 
 -------------------------------------------------------
 using 6 threads for integral computing
 -------------------------------------------------------
 OpenMP Integral computing Module                
 Release: version 1.0, May 2013, Q-Chem Inc. Pittsburgh 
 -------------------------------------------------------
 ---------------------------------------
  Cycle       Energy         DIIS Error
 ---------------------------------------
    1    -155.0110570422      5.72E-03
    2    -155.0265158338      2.86E-03
    3    -155.0362164460      3.48E-04 Done RCA. Switching to DIIS
    4    -155.0478566575      2.52E-04
    5    -155.0480460402      3.94E-05
    6    -155.0480540187      5.66E-06 Convergence criterion met
 ---------------------------------------
 SCF time:  CPU 38.51 s  wall 6.44 s
 SCF   energy in the final basis set = -155.04805402
 Total energy in the final basis set = -155.04805402
 
 --------------------------------------------------------------
 
                    Orbital Energies (a.u.)
 --------------------------------------------------------------
 
 Alpha MOs
 -- Occupied --
-19.2458 -10.3264 -10.2727  -1.1259  -0.8494  -0.7224  -0.5960  -0.5456
 -0.5231  -0.4683  -0.4585  -0.4095  -0.3623
 -- Virtual --
  0.0657   0.0874   0.0891   0.1026   0.1260   0.1342   0.1383   0.1783
  0.1888   0.2064   0.2433   0.2602   0.2696   0.2822   0.2935   0.3060
  0.3145   0.3344   0.3452   0.3973   0.4597   0.4826   0.4983   0.5273
  0.5612   0.5734   0.5837   0.6091   0.6152   0.6356   0.6574   0.6719
  0.6921   0.7156   0.7319   0.7903   0.8859   0.9009   0.9287   0.9608
  1.0326   1.0565   1.0741   1.0859   1.1357   1.1816   1.1956   1.2075
  1.2338   1.2425   1.2680   1.3174   1.3230   1.3570   1.3857   1.3973
  1.4442   1.4605   1.4717   1.4798   1.5108   1.5287   1.5872   1.6110
  1.6472   1.6980   1.9458   2.0291   2.0869   2.2333   2.2832   2.4101
  2.4396   2.5684   2.5981   2.6104   2.6780   2.8189   2.8418   2.8856
  2.9212   2.9636   3.0035   3.0150   3.0535   3.0739   3.0868   3.0987
  3.1282   3.1817   3.1885   3.2216   3.2601   3.2774   3.3285   3.3451
  3.3585   3.3994   3.4405   3.4706   3.5079   3.5630   3.5666   3.5828
  3.5986   3.6311   3.6501   3.6997   3.7321   3.7469   3.7749   3.8422
  3.8878   3.8940   3.9261   3.9467   3.9974   4.0251   4.0501   4.0842
  4.1115   4.1136   4.1494   4.1967   4.2271   4.2528   4.2750   4.2810
  4.3384   4.3989   4.4800   4.5336   4.5411   4.5904   4.7124   4.7946
  4.8810   4.9414   4.9518   4.9633   4.9892   5.0680   5.1024   5.1791
  5.2093   5.2558   5.2731   5.2909   5.3440   5.3615   5.4232   5.4630
  5.5193   5.5739   5.6788   5.8429   5.9414   6.0417   6.3336   6.3686
  6.4347   6.6561   6.7085   6.8239   7.1244   7.3521   7.4105   7.5512
  7.7233   8.1142  25.1211  25.4316  50.4637
 --------------------------------------------------------------
 
 -----------------------------------------------------------------
                    Cartesian Multipole Moments
 -----------------------------------------------------------------
    Charge (ESU x 10^10)
                 0.0000
    Dipole Moment (Debye)
         X      -0.4872      Y      -1.6721      Z       0.1161
       Tot       1.7455
    Quadrupole Moments (Debye-Ang)
        XX     -16.5656     XY       4.7406     YY     -24.4919
        XZ      -1.1859     YZ       1.8952     ZZ     -17.9223
    Octopole Moments (Debye-Ang^2)
       XXX     242.3196    XXY     -28.5716    XYY     101.4358
       YYY     -58.6024    XXZ       7.1865    XYZ      -7.4319
       YYZ       4.4847    XZZ      79.8040    YZZ     -15.0665
       ZZZ      -4.2361
    Hexadecapole Moments (Debye-Ang^3)
      XXXX   -2296.4534   XXXY     210.3167   XXYY    -470.0201
      XYYY     219.3602   YYYY    -166.8403   XXXZ     -26.7304
      XXYZ      31.5055   XYYZ     -12.6015   YYYZ      19.3106
      XXZZ    -381.1148   XYZZ      57.6603   YYZZ     -35.8455
      XZZZ      23.2748   YZZZ       6.5845   ZZZZ     -57.7676
 -----------------------------------------------------------------
Archival summary:
1\1\centos77-c7\SP\ProcedureUnspecified\BasisUnspecified\126\shihchen\MonJul2714:16:042020MonJul2714:16:042020\0\\#,ProcedureUnspecified,BasisUnspecified,\\0,1\C\H,1,1.08974\H,1,1.09609,2,107.195\O,1,1.41511,2,105.493,3,-117.852,0\H,4,0.957116,1,108.863,2,178.989,0\C,1,1.5176,2,110.27,3,120.028,0\H,6,1.08986,1,110.512,2,-29.7503,0\H,6,1.09107,1,110.615,2,-150.067,0\H,6,1.09228,1,110.987,2,90.3721,0\\\@

 Total job time:  11.12s(wall), 57.01s(cpu) 
 Mon Jul 27 14:16:04 2020

        *************************************************************
        *                                                           *
        *  Thank you very much for using Q-Chem.  Have a nice day.  *
        *                                                           *
        *************************************************************


