                  Welcome to Q-Chem
     A Quantum Leap Into The Future Of Chemistry


 Q-Chem 5.3 (devel), Q-Chem, Inc., Pleasanton, CA (2020)

 Yihan Shao,  Zhengting Gan,  E. Epifanovsky,  A. T. B. Gilbert,  M. Wormit,  
 J. Kussmann,  A. W. Lange,  A. Behn,  Jia Deng,  Xintian Feng,  D. Ghosh,  
 M. Goldey,  P. R. Horn,  L. D. Jacobson,  I. Kaliman,  T. Kus,  A. Landau,  
 Jie Liu,  E. I. Proynov,  R. M. Richard,  R. P. Steele,  E. J. Sundstrom,  
 H. L. Woodcock III,  P. M. Zimmerman,  D. Zuev,  B. Alam,  B. Albrecht,  
 E. Alguire,  S. A. Baeppler,  D. Barton,  Z. Benda,  Y. A. Bernard,  
 E. J. Berquist,  K. B. Bravaya,  H. Burton,  K. Carter-Fenk,  D. Casanova,  
 Chun-Min Chang,  Yunqing Chen,  A. Chien,  K. D. Closser,  M. P. Coons,  
 S. Coriani,  S. Dasgupta,  A. L. Dempwolff,  M. Diedenhofen,  Hainam Do,  
 R. G. Edgar,  Po-Tung Fang,  S. Faraji,  S. Fatehi,  Qingguo Feng,  
 J. Fosso-Tande,  J. Gayvert,  Qinghui Ge,  A. Ghysels,  G. Gidofalvi,  
 J. Gomes,  J. Gonthier,  A. Gunina,  D. Hait,  M. W. D. Hanson-Heine,  
 P. H. P. Harbach,  A. W. Hauser,  M. F. Herbst,  J. E. Herr,  
 E. G. Hohenstein,  Z. C. Holden,  Kerwin Hui,  B. C. Huynh,  T.-C. Jagau,  
 Hyunjun Ji,  B. Kaduk,  K. Khistyaev,  Jaehoon Kim,  P. Klunzinger,  K. Koh,  
 D. Kosenkov,  L. Koulias,  T. Kowalczyk,  C. M. Krauter,  A. Kunitsa,  
 Ka Un Lao,  A. Laurent,  K. V. Lawler,  Joonho Lee,  D. Lefrancois,  
 S. Lehtola,  D. S. Levine,  Yi-Pei Li,  You-Sheng Lin,  Fenglai Liu,  
 Kuan-Yu Liu,  E. Livshits,  M. Loipersberger,  A. Luenser,  P. Manohar,  
 E. Mansoor,  S. F. Manzer,  Shan-Ping Mao,  Yuezhi Mao,  N. Mardirossian,  
 A. V. Marenich,  T. Markovich,  L. A. Martinez-Martinez,  S. A. Maurer,  
 N. J. Mayhall,  S. C. McKenzie,  J.-M. Mewes,  P. Morgante,  A. F. Morrison,  
 J. W. Mullinax,  K. Nanda,  T. S. Nguyen-Beck,  R. Olivares-Amaya,  
 K. J. Oosterbaan,  J. A. Parkhill,  S. K. Paul,  F. Pavosevic,  Zheng Pei,  
 T. M. Perrine,  F. Plasser,  P. Pokhilko,  S. Prager,  A. Prociuk,  
 E. Ramos,  B. Rana,  D. R. Rehn,  F. Rob,  M. Scheurer,  M. Schneider,  
 N. Sergueev,  S. M. Sharada,  S. Sharma,  D. W. Small,  T. Stauch,  
 C. J. Stein,  T. Stein,  Yu-Chuan Su,  S. P. Veccham,  Zhen Tao,  
 A. J. W. Thom,  A. Tkatchenko,  T. Tsuchimochi,  N. M. Tubman,  L. Vogt,  
 M. L. Vidal,  O. Vydrov,  M. A. Watson,  J. Wenzel,  M. de Wergifosse,  
 T. A. Wesolowski,  A. White,  J. Witte,  A. Yamada,  Jun Yang,  K. Yao,  
 S. Yeganeh,  S. R. Yost,  Zhi-Qiang You,  A. Zech,  Igor Ying Zhang,  
 Xing Zhang,  Yan Zhao,  Ying Zhu,  B. R. Brooks,  G. K. L. Chan,  
 C. J. Cramer,  M. S. Gordon,  W. J. Hehre,  A. Klamt,  M. W. Schmidt,  
 C. D. Sherrill,  D. G. Truhlar,  A. Aspuru-Guzik,  R. Baer,  A. T. Bell,  
 N. A. Besley,  Jeng-Da Chai,  A. E. DePrince, III,  R. A. DiStasio Jr.,  
 A. Dreuw,  B. D. Dunietz,  T. R. Furlani,  Chao-Ping Hsu,  Yousung Jung,  
 Jing Kong,  D. S. Lambrecht,  WanZhen Liang,  C. Ochsenfeld,  
 V. A. Rassolov,  L. V. Slipchenko,  J. E. Subotnik,  T. Van Voorhis,  
 J. M. Herbert,  A. I. Krylov,  P. M. W. Gill,  M. Head-Gordon

 Contributors to earlier versions of Q-Chem not listed above: 
 R. D. Adamson,  B. Austin,  J. Baker,  G. J. O. Beran,  K. Brandhorst,  
 S. T. Brown,  E. F. C. Byrd,  A. K. Chakraborty,  C.-L. Cheng,  
 Siu Hung Chien,  D. M. Chipman,  D. L. Crittenden,  H. Dachsel,  
 R. J. Doerksen,  A. D. Dutoi,  L. Fusti-Molnar,  W. A. Goddard III,  
 A. Golubeva-Zadorozhnaya,  S. R. Gwaltney,  G. Hawkins,  A. Heyden,  
 S. Hirata,  G. Kedziora,  F. J. Keil,  C. Kelley,  Jihan Kim,  R. A. King,  
 R. Z. Khaliullin,  P. P. Korambath,  W. Kurlancheek,  A. M. Lee,  M. S. Lee,  
 S. V. Levchenko,  Ching Yeh Lin,  D. Liotard,  R. C. Lochan,  I. Lotan,  
 P. E. Maslen,  N. Nair,  D. P. O'Neill,  D. Neuhauser,  E. Neuscamman,  
 C. M. Oana,  R. Olson,  B. Peters,  R. Peverati,  P. A. Pieniazek,  
 Y. M. Rhee,  J. Ritchie,  M. A. Rohrdanz,  E. Rosta,  N. J. Russ,  
 H. F. Schaefer III,  N. E. Schultz,  N. Shenvi,  A. C. Simmonett,  A. Sodt,  
 D. Stuck,  K. S. Thanthiriwatte,  V. Vanovschi,  Tao Wang,  A. Warshel,  
 C. F. Williams,  Q. Wu,  X. Xu,  W. Zhang

 Please cite Q-Chem as follows:
 Y. Shao et al., Mol. Phys. 113, 184-215 (2015)
 DOI: 10.1080/00268976.2014.952696

 Q-Chem 5.3.0 for Intel X86 EM64T Linux

 Parts of Q-Chem use Armadillo 9.800.1 (Horizon Scraper).
 http://arma.sourceforge.net/

 Q-Chem begins on Mon Jul 27 14:11:33 2020  

Host: centos77-c7
0

     Scratch files written to /tmp/29924.centos77-h1/qchem101197//
Processing $rem in /opt/qchem-5.3.0-intel2020u1//config/preferences:
Processing $rem in /home/shihchengli/.qchemrc:

Checking the input file for inconsistencies... 	...done.

--------------------------------------------------------------
User input:
--------------------------------------------------------------
$rem
   JOBTYPE  sp
   EXCHANGE   omegaB97X-D
   BASIS   6-311+G(2df,2pd)
   UNRESTRICTED   False
   max_scf_cycles   250
   geom_opt_max_cycles   1500
   basis2 6-31G*
   scf_algorithm rca_diis
   SYM_IGNORE  TRUE
   print_input   true
   geom_opt_dmax   80
   pop_mulliken false
   XC_GRID 000075000302
$end

$molecule
0 1
C       -5.3743902601     0.3086134142     0.0577131605
C       -4.1338437769     1.1715807413     0.1972005791
H       -5.2390714608     -0.4297964842     -0.7323732660
H       -6.2437799657     0.9219092467     -0.1840618095
H       -5.5889524020     -0.2213540373     0.9883978865
O       -2.9934499931     0.5965588934     -0.4122251560
H       -3.9382366902     1.3865504563     1.2540591721
H       -4.2808339915     2.1278723996     -0.3042278844
H       -2.8102514595     -0.2447146299     0.0058273179
$end
--------------------------------------------------------------
 ----------------------------------------------------------------
             Standard Nuclear Orientation (Angstroms)
    I     Atom           X                Y                Z
 ----------------------------------------------------------------
    1      C      -5.3743902601     0.3086134142     0.0577131605
    2      C      -4.1338437769     1.1715807413     0.1972005791
    3      H      -5.2390714608    -0.4297964842    -0.7323732660
    4      H      -6.2437799657     0.9219092467    -0.1840618095
    5      H      -5.5889524020    -0.2213540373     0.9883978865
    6      O      -2.9934499931     0.5965588934    -0.4122251560
    7      H      -3.9382366902     1.3865504563     1.2540591721
    8      H      -4.2808339915     2.1278723996    -0.3042278844
    9      H      -2.8102514595    -0.2447146299     0.0058273179
 ----------------------------------------------------------------
 Nuclear Repulsion Energy =          81.92751269 hartrees
 There are       13 alpha and       13 beta electrons
 Requested basis set is 6-311+G(2df,2pd)
 There are 60 shells and 186 basis functions

 Total QAlloc Memory Limit   2000 MB
 Mega-Array Size       188 MB
 MEM_STATIC part       192 MB

                       Distance Matrix (Angstroms)
             C (  1)   C (  2)   H (  3)   H (  4)   H (  5)   O (  6)
   C (  2)  1.517605
   H (  3)  1.089861  2.156396
   H (  4)  1.091066  2.158594  1.771212
   H (  5)  1.092280  2.164163  1.768309  1.763664
   O (  6)  2.443897  1.415114  2.489722  3.274531  3.060614
   H (  7)  2.157714  1.096095  2.989515  2.756740  2.319654  2.072007
   H (  8)  2.153270  1.089739  2.764633  2.306934  2.983441  2.003482
   H (  9)  2.623675  1.947925  2.545263  3.631279  2.947400  0.957116
             H (  7)   H (  8)
   H (  8)  1.759315
   H (  9)  2.343386  2.808543
 
 A cutoff of  1.0D-09 yielded   1791 shell pairs
 There are     17325 function pairs (     21513 Cartesian)
 Smallest overlap matrix eigenvalue = 1.18E-04

 Scale SEOQF with 1.000000e-02/1.000000e-01/1.000000e-01

 Standard Electronic Orientation quadrupole field applied
 Nucleus-field energy     =     0.0000000026 hartrees
 Requested basis set is 6-31G(d)
 There are 24 shells and 54 basis functions
 A cutoff of  1.0D-09 yielded    298 shell pairs
 There are      1549 function pairs (      1732 Cartesian)
 Smallest overlap matrix eigenvalue = 6.89E-03
 Guess from superposition of atomic densities
 Warning:  Energy on first SCF cycle will be non-variational
 SAD guess density has 26.000000 electrons
 Long-range K will be added via erf
 Coulomb attenuation parameter = 0.2 bohr**(-1)
 A restricted hybrid HF-DFT SCF calculation will be
 performed using Relaxed Constraint Minimization + Pulay DIIS
 Exchange:     0.2220 Hartree-Fock + 1.0000 wB97X-D + LR-HF
 Correlation:  1.0000 wB97X-D
 Using Euler-Maclaurin-Lebedev (75,302) quadrature formula
 Dispersion:   Grimme D
 SCF converges when DIIS error is below 1.0E-04
 using 6 threads for integral computing
 -------------------------------------------------------
 OpenMP Integral computing Module                
 Release: version 1.0, May 2013, Q-Chem Inc. Pittsburgh 
 -------------------------------------------------------
 using 6 threads for integral computing
 -------------------------------------------------------
 OpenMP Integral computing Module                
 Release: version 1.0, May 2013, Q-Chem Inc. Pittsburgh 
 -------------------------------------------------------
 ---------------------------------------
  Cycle       Energy         DIIS Error
 ---------------------------------------
    1    -155.4356393399      1.06E-01
    2    -154.9220740281      1.36E-02
    3    -154.9504570083      3.04E-03
    4    -154.9765561775      2.42E-03
    5    -154.9772870020      2.25E-04 Done RCA. Switching to DIIS
    6    -154.9781053817      1.02E-04
    7    -154.9781085964      7.78E-06 Convergence criterion met
 ---------------------------------------
 SCF time:  CPU 14.51 s  wall 2.43 s
 SCF   energy in the small basis set = -154.97810860
 Total energy in the small basis set = -154.97810860
 ----------------------------------------------------
  Cycle       Energy    
 ----------------------------------------------------
    1     -18.7548862950     -1.88E+01
 Long-range K will be added via erf
 Coulomb attenuation parameter = 0.2 bohr**(-1)
 A restricted hybrid HF-DFT SCF calculation will be
 performed using Relaxed Constraint Minimization + Pulay DIIS
 Exchange:     0.2220 Hartree-Fock + 1.0000 wB97X-D + LR-HF
 Correlation:  1.0000 wB97X-D
 Using Euler-Maclaurin-Lebedev (75,302) quadrature formula
 Dispersion:   Grimme D
 SCF converges when DIIS error is below 1.0E-05
 Basis2 calculation detected. Using small basis as guess for larger.
 SCFMinFind is unable to tell whether the solution found is close.
 Resetting ReadMinima to 0 and attempting to follow guess.
 SCFMinFind following SCF Guess.
 using 6 threads for integral computing
 -------------------------------------------------------
 OpenMP Integral computing Module                
 Release: version 1.0, May 2013, Q-Chem Inc. Pittsburgh 
 -------------------------------------------------------
 using 6 threads for integral computing
 -------------------------------------------------------
 OpenMP Integral computing Module                
 Release: version 1.0, May 2013, Q-Chem Inc. Pittsburgh 
 -------------------------------------------------------
 ---------------------------------------
  Cycle       Energy         DIIS Error
 ---------------------------------------
    1    -155.0096499692      5.72E-03
    2    -155.0250917506      2.87E-03
    3    -155.0348114868      3.48E-04 Done RCA. Switching to DIIS
    4    -155.0464715925      2.52E-04
    5    -155.0466608674      3.94E-05
    6    -155.0466688836      5.68E-06 Convergence criterion met
 ---------------------------------------
 SCF time:  CPU 38.97 s  wall 6.52 s
 SCF   energy in the final basis set = -155.04666888
 Total energy in the final basis set = -155.04666888
 
 --------------------------------------------------------------
 
                    Orbital Energies (a.u.)
 --------------------------------------------------------------
 
 Alpha MOs
 -- Occupied --
-19.2457 -10.3261 -10.2723  -1.1259  -0.8492  -0.7223  -0.5957  -0.5451
 -0.5243  -0.4685  -0.4576  -0.4088  -0.3620
 -- Virtual --
  0.0660   0.0875   0.0894   0.1028   0.1263   0.1338   0.1387   0.1765
  0.1864   0.2028   0.2425   0.2599   0.2752   0.2841   0.2961   0.3083
  0.3150   0.3358   0.3463   0.4022   0.4599   0.4810   0.4968   0.5225
  0.5583   0.5734   0.5863   0.6086   0.6155   0.6342   0.6540   0.6691
  0.6865   0.7165   0.7425   0.7886   0.8848   0.9153   0.9370   0.9714
  1.0397   1.0586   1.0720   1.0901   1.1238   1.1803   1.1943   1.2064
  1.2285   1.2499   1.2710   1.3204   1.3407   1.3565   1.3758   1.3900
  1.4404   1.4566   1.4657   1.4727   1.5146   1.5266   1.5849   1.6078
  1.6438   1.7031   1.9477   2.0276   2.0809   2.2205   2.2838   2.3980
  2.4259   2.5809   2.6194   2.6372   2.6887   2.8015   2.8361   2.8836
  2.9210   2.9614   3.0078   3.0161   3.0451   3.0711   3.0971   3.1038
  3.1490   3.1737   3.1894   3.2115   3.2468   3.2725   3.3212   3.3245
  3.3595   3.4178   3.4612   3.4803   3.5154   3.5555   3.5665   3.5841
  3.6091   3.6301   3.6500   3.7002   3.7379   3.7389   3.7568   3.8220
  3.8733   3.8842   3.9248   3.9478   3.9933   4.0206   4.0519   4.0806
  4.1026   4.1171   4.1604   4.1951   4.2262   4.2429   4.2641   4.2930
  4.3534   4.3918   4.4655   4.5398   4.5634   4.5901   4.7080   4.7893
  4.8732   4.9209   4.9491   4.9675   5.0031   5.0562   5.1094   5.1715
  5.2191   5.2580   5.2715   5.2885   5.3419   5.3619   5.4332   5.4554
  5.5185   5.5705   5.6748   5.8575   5.9400   6.0465   6.3223   6.3655
  6.4409   6.6552   6.7062   6.8223   7.1233   7.3547   7.4122   7.5520
  7.7262   8.1142  25.1035  25.4394  50.4640
 --------------------------------------------------------------
 
 -----------------------------------------------------------------
                    Cartesian Multipole Moments
 -----------------------------------------------------------------
    Charge (ESU x 10^10)
                 0.0000
    Dipole Moment (Debye)
         X      -1.0303      Y      -0.7087      Z       1.2216
       Tot       1.7482
    Quadrupole Moments (Debye-Ang)
        XX     -12.9883     XY       0.0958     YY     -19.0303
        XZ      -3.3254     YZ       0.4100     ZZ     -20.6613
    Octopole Moments (Debye-Ang^2)
       XXX     220.4596    XXY      -5.5129    XYY      80.1829
       YYY     -38.0985    XXZ       8.4474    XYZ      -0.5776
       YYZ      -0.3969    XZZ      87.2196    YZZ     -13.9244
       ZZZ       2.2819
    Hexadecapole Moments (Debye-Ang^3)
      XXXX   -2180.9778   XXXY     102.0022   XXYY    -382.8996
      XYYY     152.8475   YYYY    -105.3450   XXXZ      -8.5152
      XXYZ      -2.4751   XYYZ       5.8127   YYYZ      -4.3524
      XXZZ    -402.3766   XYZZ      56.8800   YYZZ     -24.8917
      XZZZ       0.6030   YZZZ      -1.2861   ZZZZ     -42.0537
 -----------------------------------------------------------------
Archival summary:
1\1\centos77-c7\SP\ProcedureUnspecified\BasisUnspecified\126\shihchen\MonJul2714:11:442020MonJul2714:11:442020\0\\#,ProcedureUnspecified,BasisUnspecified,\\0,1\C\H,1,1.08974\H,1,1.09609,2,107.195\O,1,1.41511,2,105.493,3,-117.852,0\H,4,0.957116,1,108.863,2,178.989,0\C,1,1.5176,2,110.27,3,120.028,0\H,6,1.08986,1,110.512,2,100.25,0\H,6,1.09107,1,110.615,2,-20.0673,0\H,6,1.09228,1,110.987,2,-139.628,0\\\@

 Total job time:  11.11s(wall), 57.52s(cpu) 
 Mon Jul 27 14:11:44 2020

        *************************************************************
        *                                                           *
        *  Thank you very much for using Q-Chem.  Have a nice day.  *
        *                                                           *
        *************************************************************


