                  Welcome to Q-Chem
     A Quantum Leap Into The Future Of Chemistry


 Q-Chem 5.3 (devel), Q-Chem, Inc., Pleasanton, CA (2020)

 Yihan Shao,  Zhengting Gan,  E. Epifanovsky,  A. T. B. Gilbert,  M. Wormit,  
 J. Kussmann,  A. W. Lange,  A. Behn,  Jia Deng,  Xintian Feng,  D. Ghosh,  
 M. Goldey,  P. R. Horn,  L. D. Jacobson,  I. Kaliman,  T. Kus,  A. Landau,  
 Jie Liu,  E. I. Proynov,  R. M. Richard,  R. P. Steele,  E. J. Sundstrom,  
 H. L. Woodcock III,  P. M. Zimmerman,  D. Zuev,  B. Alam,  B. Albrecht,  
 E. Alguire,  S. A. Baeppler,  D. Barton,  Z. Benda,  Y. A. Bernard,  
 E. J. Berquist,  K. B. Bravaya,  H. Burton,  K. Carter-Fenk,  D. Casanova,  
 Chun-Min Chang,  Yunqing Chen,  A. Chien,  K. D. Closser,  M. P. Coons,  
 S. Coriani,  S. Dasgupta,  A. L. Dempwolff,  M. Diedenhofen,  Hainam Do,  
 R. G. Edgar,  Po-Tung Fang,  S. Faraji,  S. Fatehi,  Qingguo Feng,  
 J. Fosso-Tande,  J. Gayvert,  Qinghui Ge,  A. Ghysels,  G. Gidofalvi,  
 J. Gomes,  J. Gonthier,  A. Gunina,  D. Hait,  M. W. D. Hanson-Heine,  
 P. H. P. Harbach,  A. W. Hauser,  M. F. Herbst,  J. E. Herr,  
 E. G. Hohenstein,  Z. C. Holden,  Kerwin Hui,  B. C. Huynh,  T.-C. Jagau,  
 Hyunjun Ji,  B. Kaduk,  K. Khistyaev,  Jaehoon Kim,  P. Klunzinger,  K. Koh,  
 D. Kosenkov,  L. Koulias,  T. Kowalczyk,  C. M. Krauter,  A. Kunitsa,  
 Ka Un Lao,  A. Laurent,  K. V. Lawler,  Joonho Lee,  D. Lefrancois,  
 S. Lehtola,  D. S. Levine,  Yi-Pei Li,  You-Sheng Lin,  Fenglai Liu,  
 Kuan-Yu Liu,  E. Livshits,  M. Loipersberger,  A. Luenser,  P. Manohar,  
 E. Mansoor,  S. F. Manzer,  Shan-Ping Mao,  Yuezhi Mao,  N. Mardirossian,  
 A. V. Marenich,  T. Markovich,  L. A. Martinez-Martinez,  S. A. Maurer,  
 N. J. Mayhall,  S. C. McKenzie,  J.-M. Mewes,  P. Morgante,  A. F. Morrison,  
 J. W. Mullinax,  K. Nanda,  T. S. Nguyen-Beck,  R. Olivares-Amaya,  
 K. J. Oosterbaan,  J. A. Parkhill,  S. K. Paul,  F. Pavosevic,  Zheng Pei,  
 T. M. Perrine,  F. Plasser,  P. Pokhilko,  S. Prager,  A. Prociuk,  
 E. Ramos,  B. Rana,  D. R. Rehn,  F. Rob,  M. Scheurer,  M. Schneider,  
 N. Sergueev,  S. M. Sharada,  S. Sharma,  D. W. Small,  T. Stauch,  
 C. J. Stein,  T. Stein,  Yu-Chuan Su,  S. P. Veccham,  Zhen Tao,  
 A. J. W. Thom,  A. Tkatchenko,  T. Tsuchimochi,  N. M. Tubman,  L. Vogt,  
 M. L. Vidal,  O. Vydrov,  M. A. Watson,  J. Wenzel,  M. de Wergifosse,  
 T. A. Wesolowski,  A. White,  J. Witte,  A. Yamada,  Jun Yang,  K. Yao,  
 S. Yeganeh,  S. R. Yost,  Zhi-Qiang You,  A. Zech,  Igor Ying Zhang,  
 Xing Zhang,  Yan Zhao,  Ying Zhu,  B. R. Brooks,  G. K. L. Chan,  
 C. J. Cramer,  M. S. Gordon,  W. J. Hehre,  A. Klamt,  M. W. Schmidt,  
 C. D. Sherrill,  D. G. Truhlar,  A. Aspuru-Guzik,  R. Baer,  A. T. Bell,  
 N. A. Besley,  Jeng-Da Chai,  A. E. DePrince, III,  R. A. DiStasio Jr.,  
 A. Dreuw,  B. D. Dunietz,  T. R. Furlani,  Chao-Ping Hsu,  Yousung Jung,  
 Jing Kong,  D. S. Lambrecht,  WanZhen Liang,  C. Ochsenfeld,  
 V. A. Rassolov,  L. V. Slipchenko,  J. E. Subotnik,  T. Van Voorhis,  
 J. M. Herbert,  A. I. Krylov,  P. M. W. Gill,  M. Head-Gordon

 Contributors to earlier versions of Q-Chem not listed above: 
 R. D. Adamson,  B. Austin,  J. Baker,  G. J. O. Beran,  K. Brandhorst,  
 S. T. Brown,  E. F. C. Byrd,  A. K. Chakraborty,  C.-L. Cheng,  
 Siu Hung Chien,  D. M. Chipman,  D. L. Crittenden,  H. Dachsel,  
 R. J. Doerksen,  A. D. Dutoi,  L. Fusti-Molnar,  W. A. Goddard III,  
 A. Golubeva-Zadorozhnaya,  S. R. Gwaltney,  G. Hawkins,  A. Heyden,  
 S. Hirata,  G. Kedziora,  F. J. Keil,  C. Kelley,  Jihan Kim,  R. A. King,  
 R. Z. Khaliullin,  P. P. Korambath,  W. Kurlancheek,  A. M. Lee,  M. S. Lee,  
 S. V. Levchenko,  Ching Yeh Lin,  D. Liotard,  R. C. Lochan,  I. Lotan,  
 P. E. Maslen,  N. Nair,  D. P. O'Neill,  D. Neuhauser,  E. Neuscamman,  
 C. M. Oana,  R. Olson,  B. Peters,  R. Peverati,  P. A. Pieniazek,  
 Y. M. Rhee,  J. Ritchie,  M. A. Rohrdanz,  E. Rosta,  N. J. Russ,  
 H. F. Schaefer III,  N. E. Schultz,  N. Shenvi,  A. C. Simmonett,  A. Sodt,  
 D. Stuck,  K. S. Thanthiriwatte,  V. Vanovschi,  Tao Wang,  A. Warshel,  
 C. F. Williams,  Q. Wu,  X. Xu,  W. Zhang

 Please cite Q-Chem as follows:
 Y. Shao et al., Mol. Phys. 113, 184-215 (2015)
 DOI: 10.1080/00268976.2014.952696

 Q-Chem 5.3.0 for Intel X86 EM64T Linux

 Parts of Q-Chem use Armadillo 9.800.1 (Horizon Scraper).
 http://arma.sourceforge.net/

 Q-Chem begins on Mon Jul 27 14:18:31 2020  

Host: centos77-c7
0

     Scratch files written to /tmp/29924.centos77-h1/qchem102954//
Processing $rem in /opt/qchem-5.3.0-intel2020u1//config/preferences:
Processing $rem in /home/shihchengli/.qchemrc:

Checking the input file for inconsistencies... 	...done.

--------------------------------------------------------------
User input:
--------------------------------------------------------------
$rem
   JOBTYPE  sp
   EXCHANGE   omegaB97X-D
   BASIS   6-311+G(2df,2pd)
   UNRESTRICTED   False
   max_scf_cycles   250
   geom_opt_max_cycles   1500
   basis2 6-31G*
   scf_algorithm rca_diis
   SYM_IGNORE  TRUE
   print_input   true
   geom_opt_dmax   80
   pop_mulliken false
   XC_GRID 000075000302
$end

$molecule
0 1
C       -5.3315712305     0.3035128320     0.0627133736
C       -4.1266822243     1.2201819652     0.1679992105
H       -5.3743006631     -0.1593480079     -0.9230507743
H       -6.2545893340     0.8620732496     0.2254192892
H       -5.2859733759     -0.4901305888     0.8117977667
O       -2.9049564403     0.5527223108     -0.0858344999
H       -4.1035155055     1.7047537703     1.1508917099
H       -4.1872770844     2.0107369576     -0.5795845171
H       -3.0339441419     -0.3872824889     0.0399584415
$end
--------------------------------------------------------------
 ----------------------------------------------------------------
             Standard Nuclear Orientation (Angstroms)
    I     Atom           X                Y                Z
 ----------------------------------------------------------------
    1      C      -5.3315712305     0.3035128320     0.0627133736
    2      C      -4.1266822243     1.2201819652     0.1679992105
    3      H      -5.3743006631    -0.1593480079    -0.9230507743
    4      H      -6.2545893340     0.8620732496     0.2254192892
    5      H      -5.2859733759    -0.4901305888     0.8117977667
    6      O      -2.9049564403     0.5527223108    -0.0858344999
    7      H      -4.1035155055     1.7047537703     1.1508917099
    8      H      -4.1872770844     2.0107369576    -0.5795845171
    9      H      -3.0339441419    -0.3872824889     0.0399584415
 ----------------------------------------------------------------
 Nuclear Repulsion Energy =          82.05287630 hartrees
 There are       13 alpha and       13 beta electrons
 Requested basis set is 6-311+G(2df,2pd)
 There are 60 shells and 186 basis functions

 Total QAlloc Memory Limit   2000 MB
 Mega-Array Size       188 MB
 MEM_STATIC part       192 MB

                       Distance Matrix (Angstroms)
             C (  1)   C (  2)   H (  3)   H (  4)   H (  5)   O (  6)
   C (  2)  1.517605
   H (  3)  1.089861  2.156396
   H (  4)  1.091066  2.158594  1.771212
   H (  5)  1.092280  2.164163  1.768309  1.763664
   O (  6)  2.443897  1.415114  2.702894  3.378257  2.750005
   H (  7)  2.157714  1.096095  3.064475  2.488720  2.516090  2.072007
   H (  8)  2.153270  1.089739  2.497251  2.498247  3.065521  2.003482
   H (  9)  2.399335  1.947925  2.540986  3.459457  2.382845  0.957116
             H (  7)   H (  8)
   H (  8)  1.759315
   H (  9)  2.598994  2.732125
 
 A cutoff of  1.0D-09 yielded   1788 shell pairs
 There are     17342 function pairs (     21538 Cartesian)
 Smallest overlap matrix eigenvalue = 1.15E-04

 Scale SEOQF with 1.000000e-02/1.000000e-01/1.000000e-01

 Standard Electronic Orientation quadrupole field applied
 Nucleus-field energy     =     0.0000000028 hartrees
 Requested basis set is 6-31G(d)
 There are 24 shells and 54 basis functions
 A cutoff of  1.0D-09 yielded    298 shell pairs
 There are      1549 function pairs (      1732 Cartesian)
 Smallest overlap matrix eigenvalue = 7.21E-03
 Guess from superposition of atomic densities
 Warning:  Energy on first SCF cycle will be non-variational
 SAD guess density has 26.000000 electrons
 Long-range K will be added via erf
 Coulomb attenuation parameter = 0.2 bohr**(-1)
 A restricted hybrid HF-DFT SCF calculation will be
 performed using Relaxed Constraint Minimization + Pulay DIIS
 Exchange:     0.2220 Hartree-Fock + 1.0000 wB97X-D + LR-HF
 Correlation:  1.0000 wB97X-D
 Using Euler-Maclaurin-Lebedev (75,302) quadrature formula
 Dispersion:   Grimme D
 SCF converges when DIIS error is below 1.0E-04
 using 6 threads for integral computing
 -------------------------------------------------------
 OpenMP Integral computing Module                
 Release: version 1.0, May 2013, Q-Chem Inc. Pittsburgh 
 -------------------------------------------------------
 using 6 threads for integral computing
 -------------------------------------------------------
 OpenMP Integral computing Module                
 Release: version 1.0, May 2013, Q-Chem Inc. Pittsburgh 
 -------------------------------------------------------
 ---------------------------------------
  Cycle       Energy         DIIS Error
 ---------------------------------------
    1    -155.4396834561      1.06E-01
    2    -154.9252631852      1.35E-02
    3    -154.9532681760      3.04E-03
    4    -154.9792423693      2.40E-03
    5    -154.9799662031      2.28E-04 Done RCA. Switching to DIIS
    6    -154.9807753899      9.47E-05 Convergence criterion met
 ---------------------------------------
 SCF time:  CPU 12.93 s  wall 2.17 s
 SCF   energy in the small basis set = -154.98077539
 Total energy in the small basis set = -154.98077539
 ----------------------------------------------------
  Cycle       Energy    
 ----------------------------------------------------
    1     -18.7527364833     -1.88E+01
 Long-range K will be added via erf
 Coulomb attenuation parameter = 0.2 bohr**(-1)
 A restricted hybrid HF-DFT SCF calculation will be
 performed using Relaxed Constraint Minimization + Pulay DIIS
 Exchange:     0.2220 Hartree-Fock + 1.0000 wB97X-D + LR-HF
 Correlation:  1.0000 wB97X-D
 Using Euler-Maclaurin-Lebedev (75,302) quadrature formula
 Dispersion:   Grimme D
 SCF converges when DIIS error is below 1.0E-05
 Basis2 calculation detected. Using small basis as guess for larger.
 SCFMinFind is unable to tell whether the solution found is close.
 Resetting ReadMinima to 0 and attempting to follow guess.
 SCFMinFind following SCF Guess.
 using 6 threads for integral computing
 -------------------------------------------------------
 OpenMP Integral computing Module                
 Release: version 1.0, May 2013, Q-Chem Inc. Pittsburgh 
 -------------------------------------------------------
 using 6 threads for integral computing
 -------------------------------------------------------
 OpenMP Integral computing Module                
 Release: version 1.0, May 2013, Q-Chem Inc. Pittsburgh 
 -------------------------------------------------------
 ---------------------------------------
  Cycle       Energy         DIIS Error
 ---------------------------------------
    1    -155.0126052433      5.72E-03
    2    -155.0280453043      2.86E-03
    3    -155.0377030258      3.48E-04 Done RCA. Switching to DIIS
    4    -155.0492857499      2.51E-04
    5    -155.0494726953      3.89E-05
    6    -155.0494801908      5.47E-06 Convergence criterion met
 ---------------------------------------
 SCF time:  CPU 39.28 s  wall 6.57 s
 SCF   energy in the final basis set = -155.04948019
 Total energy in the final basis set = -155.04948019
 
 --------------------------------------------------------------
 
                    Orbital Energies (a.u.)
 --------------------------------------------------------------
 
 Alpha MOs
 -- Occupied --
-19.2447 -10.3269 -10.2807  -1.1254  -0.8518  -0.7284  -0.5802  -0.5536
 -0.5382  -0.4661  -0.4605  -0.4158  -0.3596
 -- Virtual --
  0.0655   0.0864   0.0906   0.0999   0.1269   0.1347   0.1367   0.1752
  0.1875   0.2158   0.2404   0.2493   0.2651   0.2813   0.2891   0.3100
  0.3164   0.3356   0.3454   0.3933   0.4582   0.4862   0.5054   0.5290
  0.5575   0.5672   0.5759   0.6068   0.6115   0.6303   0.6563   0.6717
  0.6856   0.7127   0.7575   0.7932   0.8740   0.8983   0.9357   0.9427
  0.9863   1.0493   1.0886   1.1058   1.1486   1.1673   1.1869   1.2086
  1.2205   1.2330   1.2522   1.2829   1.3321   1.3626   1.3827   1.4120
  1.4511   1.4648   1.4707   1.4987   1.5140   1.5367   1.5961   1.6072
  1.6425   1.7410   1.9346   2.0852   2.1139   2.2685   2.3017   2.4523
  2.4636   2.5140   2.5798   2.6062   2.7154   2.7776   2.8456   2.8729
  2.9097   2.9657   3.0055   3.0169   3.0434   3.0438   3.0625   3.0773
  3.1260   3.1579   3.2121   3.2692   3.2747   3.3009   3.3092   3.3394
  3.3692   3.3907   3.4247   3.4517   3.4912   3.5708   3.5742   3.5986
  3.6135   3.6449   3.6570   3.7164   3.7316   3.7523   3.7892   3.8170
  3.9092   3.9278   3.9478   3.9666   3.9959   4.0145   4.0372   4.0550
  4.0839   4.1114   4.1410   4.2036   4.2131   4.2287   4.2717   4.3256
  4.3690   4.4067   4.4644   4.5351   4.5380   4.6412   4.7189   4.8097
  4.8342   4.9124   4.9637   4.9689   5.0111   5.0465   5.0664   5.2222
  5.2378   5.2479   5.2888   5.3193   5.3364   5.3569   5.4174   5.4983
  5.5176   5.6813   5.7009   5.8197   5.9303   6.0199   6.3599   6.3802
  6.4127   6.6536   6.7058   6.7831   7.1333   7.3785   7.4343   7.5761
  7.7259   8.1334  25.1748  25.4402  50.4619
 --------------------------------------------------------------
 
 -----------------------------------------------------------------
                    Cartesian Multipole Moments
 -----------------------------------------------------------------
    Charge (ESU x 10^10)
                 0.0000
    Dipole Moment (Debye)
         X      -1.7022      Y      -0.7587      Z       0.4192
       Tot       1.9102
    Quadrupole Moments (Debye-Ang)
        XX      -8.7806     XY       0.4876     YY     -18.6412
        XZ      -1.3015     YZ       0.0891     ZZ     -20.1664
    Octopole Moments (Debye-Ang^2)
       XXX     196.7212    XXY      -7.5141    XYY      78.9360
       YYY     -38.4924    XXZ       2.9369    XYZ      -0.2928
       YYZ      -1.2260    XZZ      84.6968    YZZ     -13.3555
       ZZZ      -3.5332
    Hexadecapole Moments (Debye-Ang^3)
      XXXX   -2032.6501   XXXY     110.0577   XXYY    -378.9743
      XYYY     155.8980   YYYY    -111.2008   XXXZ       3.5971
      XXYZ       0.0613   XYYZ       5.9841   YYYZ      -5.5791
      XXZZ    -389.0669   XYZZ      54.6033   YYZZ     -23.4453
      XZZZ      18.9626   YZZZ      -3.7847   ZZZZ     -35.6030
 -----------------------------------------------------------------
Archival summary:
1\1\centos77-c7\SP\ProcedureUnspecified\BasisUnspecified\126\shihchen\MonJul2714:18:422020MonJul2714:18:422020\0\\#,ProcedureUnspecified,BasisUnspecified,\\0,1\C\H,1,1.08974\H,1,1.09609,2,107.195\O,1,1.41511,2,105.493,3,-117.852,0\H,4,0.957116,1,108.863,2,-141.011,0\C,1,1.5176,2,110.27,3,120.028,0\H,6,1.08986,1,110.512,2,60.2497,0\H,6,1.09107,1,110.615,2,-60.0673,0\H,6,1.09228,1,110.987,2,-179.628,0\\\@

 Total job time:  10.94s(wall), 56.05s(cpu) 
 Mon Jul 27 14:18:42 2020

        *************************************************************
        *                                                           *
        *  Thank you very much for using Q-Chem.  Have a nice day.  *
        *                                                           *
        *************************************************************


