                  Welcome to Q-Chem
     A Quantum Leap Into The Future Of Chemistry


 Q-Chem 5.3 (devel), Q-Chem, Inc., Pleasanton, CA (2020)

 Yihan Shao,  Zhengting Gan,  E. Epifanovsky,  A. T. B. Gilbert,  M. Wormit,  
 J. Kussmann,  A. W. Lange,  A. Behn,  Jia Deng,  Xintian Feng,  D. Ghosh,  
 M. Goldey,  P. R. Horn,  L. D. Jacobson,  I. Kaliman,  T. Kus,  A. Landau,  
 Jie Liu,  E. I. Proynov,  R. M. Richard,  R. P. Steele,  E. J. Sundstrom,  
 H. L. Woodcock III,  P. M. Zimmerman,  D. Zuev,  B. Alam,  B. Albrecht,  
 E. Alguire,  S. A. Baeppler,  D. Barton,  Z. Benda,  Y. A. Bernard,  
 E. J. Berquist,  K. B. Bravaya,  H. Burton,  K. Carter-Fenk,  D. Casanova,  
 Chun-Min Chang,  Yunqing Chen,  A. Chien,  K. D. Closser,  M. P. Coons,  
 S. Coriani,  S. Dasgupta,  A. L. Dempwolff,  M. Diedenhofen,  Hainam Do,  
 R. G. Edgar,  Po-Tung Fang,  S. Faraji,  S. Fatehi,  Qingguo Feng,  
 J. Fosso-Tande,  J. Gayvert,  Qinghui Ge,  A. Ghysels,  G. Gidofalvi,  
 J. Gomes,  J. Gonthier,  A. Gunina,  D. Hait,  M. W. D. Hanson-Heine,  
 P. H. P. Harbach,  A. W. Hauser,  M. F. Herbst,  J. E. Herr,  
 E. G. Hohenstein,  Z. C. Holden,  Kerwin Hui,  B. C. Huynh,  T.-C. Jagau,  
 Hyunjun Ji,  B. Kaduk,  K. Khistyaev,  Jaehoon Kim,  P. Klunzinger,  K. Koh,  
 D. Kosenkov,  L. Koulias,  T. Kowalczyk,  C. M. Krauter,  A. Kunitsa,  
 Ka Un Lao,  A. Laurent,  K. V. Lawler,  Joonho Lee,  D. Lefrancois,  
 S. Lehtola,  D. S. Levine,  Yi-Pei Li,  You-Sheng Lin,  Fenglai Liu,  
 Kuan-Yu Liu,  E. Livshits,  M. Loipersberger,  A. Luenser,  P. Manohar,  
 E. Mansoor,  S. F. Manzer,  Shan-Ping Mao,  Yuezhi Mao,  N. Mardirossian,  
 A. V. Marenich,  T. Markovich,  L. A. Martinez-Martinez,  S. A. Maurer,  
 N. J. Mayhall,  S. C. McKenzie,  J.-M. Mewes,  P. Morgante,  A. F. Morrison,  
 J. W. Mullinax,  K. Nanda,  T. S. Nguyen-Beck,  R. Olivares-Amaya,  
 K. J. Oosterbaan,  J. A. Parkhill,  S. K. Paul,  F. Pavosevic,  Zheng Pei,  
 T. M. Perrine,  F. Plasser,  P. Pokhilko,  S. Prager,  A. Prociuk,  
 E. Ramos,  B. Rana,  D. R. Rehn,  F. Rob,  M. Scheurer,  M. Schneider,  
 N. Sergueev,  S. M. Sharada,  S. Sharma,  D. W. Small,  T. Stauch,  
 C. J. Stein,  T. Stein,  Yu-Chuan Su,  S. P. Veccham,  Zhen Tao,  
 A. J. W. Thom,  A. Tkatchenko,  T. Tsuchimochi,  N. M. Tubman,  L. Vogt,  
 M. L. Vidal,  O. Vydrov,  M. A. Watson,  J. Wenzel,  M. de Wergifosse,  
 T. A. Wesolowski,  A. White,  J. Witte,  A. Yamada,  Jun Yang,  K. Yao,  
 S. Yeganeh,  S. R. Yost,  Zhi-Qiang You,  A. Zech,  Igor Ying Zhang,  
 Xing Zhang,  Yan Zhao,  Ying Zhu,  B. R. Brooks,  G. K. L. Chan,  
 C. J. Cramer,  M. S. Gordon,  W. J. Hehre,  A. Klamt,  M. W. Schmidt,  
 C. D. Sherrill,  D. G. Truhlar,  A. Aspuru-Guzik,  R. Baer,  A. T. Bell,  
 N. A. Besley,  Jeng-Da Chai,  A. E. DePrince, III,  R. A. DiStasio Jr.,  
 A. Dreuw,  B. D. Dunietz,  T. R. Furlani,  Chao-Ping Hsu,  Yousung Jung,  
 Jing Kong,  D. S. Lambrecht,  WanZhen Liang,  C. Ochsenfeld,  
 V. A. Rassolov,  L. V. Slipchenko,  J. E. Subotnik,  T. Van Voorhis,  
 J. M. Herbert,  A. I. Krylov,  P. M. W. Gill,  M. Head-Gordon

 Contributors to earlier versions of Q-Chem not listed above: 
 R. D. Adamson,  B. Austin,  J. Baker,  G. J. O. Beran,  K. Brandhorst,  
 S. T. Brown,  E. F. C. Byrd,  A. K. Chakraborty,  C.-L. Cheng,  
 Siu Hung Chien,  D. M. Chipman,  D. L. Crittenden,  H. Dachsel,  
 R. J. Doerksen,  A. D. Dutoi,  L. Fusti-Molnar,  W. A. Goddard III,  
 A. Golubeva-Zadorozhnaya,  S. R. Gwaltney,  G. Hawkins,  A. Heyden,  
 S. Hirata,  G. Kedziora,  F. J. Keil,  C. Kelley,  Jihan Kim,  R. A. King,  
 R. Z. Khaliullin,  P. P. Korambath,  W. Kurlancheek,  A. M. Lee,  M. S. Lee,  
 S. V. Levchenko,  Ching Yeh Lin,  D. Liotard,  R. C. Lochan,  I. Lotan,  
 P. E. Maslen,  N. Nair,  D. P. O'Neill,  D. Neuhauser,  E. Neuscamman,  
 C. M. Oana,  R. Olson,  B. Peters,  R. Peverati,  P. A. Pieniazek,  
 Y. M. Rhee,  J. Ritchie,  M. A. Rohrdanz,  E. Rosta,  N. J. Russ,  
 H. F. Schaefer III,  N. E. Schultz,  N. Shenvi,  A. C. Simmonett,  A. Sodt,  
 D. Stuck,  K. S. Thanthiriwatte,  V. Vanovschi,  Tao Wang,  A. Warshel,  
 C. F. Williams,  Q. Wu,  X. Xu,  W. Zhang

 Please cite Q-Chem as follows:
 Y. Shao et al., Mol. Phys. 113, 184-215 (2015)
 DOI: 10.1080/00268976.2014.952696

 Q-Chem 5.3.0 for Intel X86 EM64T Linux

 Parts of Q-Chem use Armadillo 9.800.1 (Horizon Scraper).
 http://arma.sourceforge.net/

 Q-Chem begins on Mon Jul 27 14:13:37 2020  

Host: centos77-c7
0

     Scratch files written to /tmp/29924.centos77-h1/qchem101687//
Processing $rem in /opt/qchem-5.3.0-intel2020u1//config/preferences:
Processing $rem in /home/shihchengli/.qchemrc:

Checking the input file for inconsistencies... 	...done.

--------------------------------------------------------------
User input:
--------------------------------------------------------------
$rem
   JOBTYPE  sp
   EXCHANGE   omegaB97X-D
   BASIS   6-311+G(2df,2pd)
   UNRESTRICTED   False
   max_scf_cycles   250
   geom_opt_max_cycles   1500
   basis2 6-31G*
   scf_algorithm rca_diis
   SYM_IGNORE  TRUE
   print_input   true
   geom_opt_dmax   80
   pop_mulliken false
   XC_GRID 000075000302
$end

$molecule
0 1
C       -5.3655210804     0.2832692211     0.1121377812
C       -4.0992074871     1.0776039005     0.3740675901
H       -5.2662251344     -0.7315422821     0.4969687113
H       -5.5719114048     0.2312231553     -0.9579648380
H       -6.2269282180     0.7497756623     0.5952795361
O       -3.1842467541     1.0238014684     -0.7041253377
H       -3.6226906072     0.7370604472     1.3005588292
H       -4.3357353444     2.1335561215     0.5027137820
H       -2.9303439695     0.1124723058     -0.8493260540
$end
--------------------------------------------------------------
 ----------------------------------------------------------------
             Standard Nuclear Orientation (Angstroms)
    I     Atom           X                Y                Z
 ----------------------------------------------------------------
    1      C      -5.3655210804     0.2832692211     0.1121377812
    2      C      -4.0992074871     1.0776039005     0.3740675901
    3      H      -5.2662251344    -0.7315422821     0.4969687113
    4      H      -5.5719114048     0.2312231553    -0.9579648380
    5      H      -6.2269282180     0.7497756623     0.5952795361
    6      O      -3.1842467541     1.0238014684    -0.7041253377
    7      H      -3.6226906072     0.7370604472     1.3005588292
    8      H      -4.3357353444     2.1335561215     0.5027137820
    9      H      -2.9303439695     0.1124723058    -0.8493260540
 ----------------------------------------------------------------
 Nuclear Repulsion Energy =          81.92050754 hartrees
 There are       13 alpha and       13 beta electrons
 Requested basis set is 6-311+G(2df,2pd)
 There are 60 shells and 186 basis functions

 Total QAlloc Memory Limit   2000 MB
 Mega-Array Size       188 MB
 MEM_STATIC part       192 MB

                       Distance Matrix (Angstroms)
             C (  1)   C (  2)   H (  3)   H (  4)   H (  5)   O (  6)
   C (  2)  1.517605
   H (  3)  1.089861  2.156396
   H (  4)  1.091066  2.158594  1.771212
   H (  5)  1.092280  2.164163  1.768309  1.763664
   O (  6)  2.443897  1.415114  2.976322  2.528548  3.319857
   H (  7)  2.157714  1.096095  2.346009  3.025932  2.698080  2.072007
   H (  8)  2.153270  1.089739  3.012413  2.698256  2.345214  2.003482
   H (  9)  2.623675  1.947925  2.825104  2.646466  3.655203  0.957116
             H (  7)   H (  8)
   H (  8)  1.759315
   H (  9)  2.343386  2.808543
 
 A cutoff of  1.0D-09 yielded   1788 shell pairs
 There are     17305 function pairs (     21479 Cartesian)
 Smallest overlap matrix eigenvalue = 1.25E-04

 Scale SEOQF with 1.000000e-02/1.000000e-01/1.000000e-01

 Standard Electronic Orientation quadrupole field applied
 Nucleus-field energy     =     0.0000000024 hartrees
 Requested basis set is 6-31G(d)
 There are 24 shells and 54 basis functions
 A cutoff of  1.0D-09 yielded    298 shell pairs
 There are      1549 function pairs (      1732 Cartesian)
 Smallest overlap matrix eigenvalue = 7.00E-03
 Guess from superposition of atomic densities
 Warning:  Energy on first SCF cycle will be non-variational
 SAD guess density has 26.000000 electrons
 Long-range K will be added via erf
 Coulomb attenuation parameter = 0.2 bohr**(-1)
 A restricted hybrid HF-DFT SCF calculation will be
 performed using Relaxed Constraint Minimization + Pulay DIIS
 Exchange:     0.2220 Hartree-Fock + 1.0000 wB97X-D + LR-HF
 Correlation:  1.0000 wB97X-D
 Using Euler-Maclaurin-Lebedev (75,302) quadrature formula
 Dispersion:   Grimme D
 SCF converges when DIIS error is below 1.0E-04
 using 6 threads for integral computing
 -------------------------------------------------------
 OpenMP Integral computing Module                
 Release: version 1.0, May 2013, Q-Chem Inc. Pittsburgh 
 -------------------------------------------------------
 using 6 threads for integral computing
 -------------------------------------------------------
 OpenMP Integral computing Module                
 Release: version 1.0, May 2013, Q-Chem Inc. Pittsburgh 
 -------------------------------------------------------
 ---------------------------------------
  Cycle       Energy         DIIS Error
 ---------------------------------------
    1    -155.4345630861      1.06E-01
    2    -154.9237519081      1.35E-02
    3    -154.9520540252      3.04E-03
    4    -154.9781078383      2.42E-03
    5    -154.9788386724      2.26E-04 Done RCA. Switching to DIIS
    6    -154.9796577254      1.03E-04
    7    -154.9796609925      7.68E-06 Convergence criterion met
 ---------------------------------------
 SCF time:  CPU 14.46 s  wall 2.42 s
 SCF   energy in the small basis set = -154.97966099
 Total energy in the small basis set = -154.97966099
 ----------------------------------------------------
  Cycle       Energy    
 ----------------------------------------------------
    1     -18.7536379900     -1.88E+01
 Long-range K will be added via erf
 Coulomb attenuation parameter = 0.2 bohr**(-1)
 A restricted hybrid HF-DFT SCF calculation will be
 performed using Relaxed Constraint Minimization + Pulay DIIS
 Exchange:     0.2220 Hartree-Fock + 1.0000 wB97X-D + LR-HF
 Correlation:  1.0000 wB97X-D
 Using Euler-Maclaurin-Lebedev (75,302) quadrature formula
 Dispersion:   Grimme D
 SCF converges when DIIS error is below 1.0E-05
 Basis2 calculation detected. Using small basis as guess for larger.
 SCFMinFind is unable to tell whether the solution found is close.
 Resetting ReadMinima to 0 and attempting to follow guess.
 SCFMinFind following SCF Guess.
 using 6 threads for integral computing
 -------------------------------------------------------
 OpenMP Integral computing Module                
 Release: version 1.0, May 2013, Q-Chem Inc. Pittsburgh 
 -------------------------------------------------------
 using 6 threads for integral computing
 -------------------------------------------------------
 OpenMP Integral computing Module                
 Release: version 1.0, May 2013, Q-Chem Inc. Pittsburgh 
 -------------------------------------------------------
 ---------------------------------------
  Cycle       Energy         DIIS Error
 ---------------------------------------
    1    -155.0111005728      5.72E-03
    2    -155.0265625866      2.86E-03
    3    -155.0362492371      3.48E-04 Done RCA. Switching to DIIS
    4    -155.0478730883      2.51E-04
    5    -155.0480622242      3.94E-05
    6    -155.0480702028      5.67E-06 Convergence criterion met
 ---------------------------------------
 SCF time:  CPU 39.04 s  wall 6.53 s
 SCF   energy in the final basis set = -155.04807020
 Total energy in the final basis set = -155.04807020
 
 --------------------------------------------------------------
 
                    Orbital Energies (a.u.)
 --------------------------------------------------------------
 
 Alpha MOs
 -- Occupied --
-19.2460 -10.3264 -10.2727  -1.1260  -0.8493  -0.7224  -0.5962  -0.5451
 -0.5237  -0.4690  -0.4573  -0.4097  -0.3624
 -- Virtual --
  0.0657   0.0875   0.0892   0.1024   0.1262   0.1341   0.1383   0.1783
  0.1885   0.2065   0.2436   0.2600   0.2695   0.2826   0.2937   0.3060
  0.3142   0.3344   0.3453   0.3969   0.4597   0.4827   0.4979   0.5279
  0.5608   0.5731   0.5843   0.6091   0.6151   0.6358   0.6579   0.6717
  0.6921   0.7159   0.7316   0.7900   0.8861   0.9011   0.9287   0.9603
  1.0324   1.0565   1.0743   1.0862   1.1354   1.1811   1.1954   1.2059
  1.2335   1.2440   1.2682   1.3184   1.3227   1.3563   1.3858   1.3976
  1.4443   1.4606   1.4723   1.4796   1.5113   1.5281   1.5889   1.6113
  1.6473   1.6973   1.9457   2.0283   2.0870   2.2328   2.2832   2.4115
  2.4384   2.5692   2.5971   2.6111   2.6783   2.8197   2.8400   2.8867
  2.9211   2.9629   3.0036   3.0159   3.0540   3.0719   3.0867   3.1000
  3.1292   3.1816   3.1868   3.2218   3.2590   3.2775   3.3268   3.3447
  3.3601   3.4010   3.4398   3.4708   3.5085   3.5633   3.5667   3.5816
  3.6004   3.6305   3.6500   3.7000   3.7312   3.7442   3.7756   3.8424
  3.8868   3.8943   3.9269   3.9499   3.9958   4.0276   4.0490   4.0847
  4.1089   4.1143   4.1504   4.1950   4.2250   4.2544   4.2748   4.2809
  4.3410   4.3988   4.4817   4.5337   4.5430   4.5901   4.7107   4.7929
  4.8811   4.9411   4.9522   4.9635   4.9888   5.0640   5.1027   5.1788
  5.2070   5.2579   5.2768   5.2897   5.3443   5.3639   5.4262   5.4628
  5.5182   5.5738   5.6787   5.8427   5.9413   6.0411   6.3332   6.3688
  6.4352   6.6560   6.7081   6.8238   7.1246   7.3523   7.4098   7.5510
  7.7234   8.1142  25.1214  25.4318  50.4637
 --------------------------------------------------------------
 
 -----------------------------------------------------------------
                    Cartesian Multipole Moments
 -----------------------------------------------------------------
    Charge (ESU x 10^10)
                 0.0000
    Dipole Moment (Debye)
         X      -0.7002      Y      -1.3344      Z       0.8799
       Tot       1.7450
    Quadrupole Moments (Debye-Ang)
        XX     -14.8298     XY       2.3845     YY     -21.0575
        XZ      -3.2579     YZ       2.3958     ZZ     -20.5965
    Octopole Moments (Debye-Ang^2)
       XXX     229.3918    XXY     -14.6083    XYY      87.0128
       YYY     -44.6640    XXZ      12.4783    XYZ      -7.9167
       YYZ       3.7020    XZZ      88.5573    YZZ     -17.1858
       ZZZ       1.9212
    Hexadecapole Moments (Debye-Ang^3)
      XXXX   -2216.5038   XXXY     136.5161   XXYY    -407.0240
      XYYY     170.3158   YYYY    -115.8847   XXXZ     -37.0438
      XXYZ      28.2445   XYYZ      -8.6667   YYYZ       5.3157
      XXZZ    -412.1263   XYZZ      65.6059   YYZZ     -33.1441
      XZZZ       8.0405   YZZZ       3.6191   ZZZZ     -61.2208
 -----------------------------------------------------------------
Archival summary:
1\1\centos77-c7\SP\ProcedureUnspecified\BasisUnspecified\126\shihchen\MonJul2714:13:492020MonJul2714:13:492020\0\\#,ProcedureUnspecified,BasisUnspecified,\\0,1\C\H,1,1.08974\H,1,1.09609,2,107.195\O,1,1.41511,2,105.493,3,-117.852,0\H,4,0.957116,1,108.863,2,178.989,0\C,1,1.5176,2,110.27,3,120.028,0\H,6,1.08986,1,110.512,2,-149.75,0\H,6,1.09107,1,110.615,2,89.9327,0\H,6,1.09228,1,110.987,2,-29.6279,0\\\@

 Total job time:  11.12s(wall), 57.40s(cpu) 
 Mon Jul 27 14:13:49 2020

        *************************************************************
        *                                                           *
        *  Thank you very much for using Q-Chem.  Have a nice day.  *
        *                                                           *
        *************************************************************


