                  Welcome to Q-Chem
     A Quantum Leap Into The Future Of Chemistry


 Q-Chem 5.3 (devel), Q-Chem, Inc., Pleasanton, CA (2020)

 Yihan Shao,  Zhengting Gan,  E. Epifanovsky,  A. T. B. Gilbert,  M. Wormit,  
 J. Kussmann,  A. W. Lange,  A. Behn,  Jia Deng,  Xintian Feng,  D. Ghosh,  
 M. Goldey,  P. R. Horn,  L. D. Jacobson,  I. Kaliman,  T. Kus,  A. Landau,  
 Jie Liu,  E. I. Proynov,  R. M. Richard,  R. P. Steele,  E. J. Sundstrom,  
 H. L. Woodcock III,  P. M. Zimmerman,  D. Zuev,  B. Alam,  B. Albrecht,  
 E. Alguire,  S. A. Baeppler,  D. Barton,  Z. Benda,  Y. A. Bernard,  
 E. J. Berquist,  K. B. Bravaya,  H. Burton,  K. Carter-Fenk,  D. Casanova,  
 Chun-Min Chang,  Yunqing Chen,  A. Chien,  K. D. Closser,  M. P. Coons,  
 S. Coriani,  S. Dasgupta,  A. L. Dempwolff,  M. Diedenhofen,  Hainam Do,  
 R. G. Edgar,  Po-Tung Fang,  S. Faraji,  S. Fatehi,  Qingguo Feng,  
 J. Fosso-Tande,  J. Gayvert,  Qinghui Ge,  A. Ghysels,  G. Gidofalvi,  
 J. Gomes,  J. Gonthier,  A. Gunina,  D. Hait,  M. W. D. Hanson-Heine,  
 P. H. P. Harbach,  A. W. Hauser,  M. F. Herbst,  J. E. Herr,  
 E. G. Hohenstein,  Z. C. Holden,  Kerwin Hui,  B. C. Huynh,  T.-C. Jagau,  
 Hyunjun Ji,  B. Kaduk,  K. Khistyaev,  Jaehoon Kim,  P. Klunzinger,  K. Koh,  
 D. Kosenkov,  L. Koulias,  T. Kowalczyk,  C. M. Krauter,  A. Kunitsa,  
 Ka Un Lao,  A. Laurent,  K. V. Lawler,  Joonho Lee,  D. Lefrancois,  
 S. Lehtola,  D. S. Levine,  Yi-Pei Li,  You-Sheng Lin,  Fenglai Liu,  
 Kuan-Yu Liu,  E. Livshits,  M. Loipersberger,  A. Luenser,  P. Manohar,  
 E. Mansoor,  S. F. Manzer,  Shan-Ping Mao,  Yuezhi Mao,  N. Mardirossian,  
 A. V. Marenich,  T. Markovich,  L. A. Martinez-Martinez,  S. A. Maurer,  
 N. J. Mayhall,  S. C. McKenzie,  J.-M. Mewes,  P. Morgante,  A. F. Morrison,  
 J. W. Mullinax,  K. Nanda,  T. S. Nguyen-Beck,  R. Olivares-Amaya,  
 K. J. Oosterbaan,  J. A. Parkhill,  S. K. Paul,  F. Pavosevic,  Zheng Pei,  
 T. M. Perrine,  F. Plasser,  P. Pokhilko,  S. Prager,  A. Prociuk,  
 E. Ramos,  B. Rana,  D. R. Rehn,  F. Rob,  M. Scheurer,  M. Schneider,  
 N. Sergueev,  S. M. Sharada,  S. Sharma,  D. W. Small,  T. Stauch,  
 C. J. Stein,  T. Stein,  Yu-Chuan Su,  S. P. Veccham,  Zhen Tao,  
 A. J. W. Thom,  A. Tkatchenko,  T. Tsuchimochi,  N. M. Tubman,  L. Vogt,  
 M. L. Vidal,  O. Vydrov,  M. A. Watson,  J. Wenzel,  M. de Wergifosse,  
 T. A. Wesolowski,  A. White,  J. Witte,  A. Yamada,  Jun Yang,  K. Yao,  
 S. Yeganeh,  S. R. Yost,  Zhi-Qiang You,  A. Zech,  Igor Ying Zhang,  
 Xing Zhang,  Yan Zhao,  Ying Zhu,  B. R. Brooks,  G. K. L. Chan,  
 C. J. Cramer,  M. S. Gordon,  W. J. Hehre,  A. Klamt,  M. W. Schmidt,  
 C. D. Sherrill,  D. G. Truhlar,  A. Aspuru-Guzik,  R. Baer,  A. T. Bell,  
 N. A. Besley,  Jeng-Da Chai,  A. E. DePrince, III,  R. A. DiStasio Jr.,  
 A. Dreuw,  B. D. Dunietz,  T. R. Furlani,  Chao-Ping Hsu,  Yousung Jung,  
 Jing Kong,  D. S. Lambrecht,  WanZhen Liang,  C. Ochsenfeld,  
 V. A. Rassolov,  L. V. Slipchenko,  J. E. Subotnik,  T. Van Voorhis,  
 J. M. Herbert,  A. I. Krylov,  P. M. W. Gill,  M. Head-Gordon

 Contributors to earlier versions of Q-Chem not listed above: 
 R. D. Adamson,  B. Austin,  J. Baker,  G. J. O. Beran,  K. Brandhorst,  
 S. T. Brown,  E. F. C. Byrd,  A. K. Chakraborty,  C.-L. Cheng,  
 Siu Hung Chien,  D. M. Chipman,  D. L. Crittenden,  H. Dachsel,  
 R. J. Doerksen,  A. D. Dutoi,  L. Fusti-Molnar,  W. A. Goddard III,  
 A. Golubeva-Zadorozhnaya,  S. R. Gwaltney,  G. Hawkins,  A. Heyden,  
 S. Hirata,  G. Kedziora,  F. J. Keil,  C. Kelley,  Jihan Kim,  R. A. King,  
 R. Z. Khaliullin,  P. P. Korambath,  W. Kurlancheek,  A. M. Lee,  M. S. Lee,  
 S. V. Levchenko,  Ching Yeh Lin,  D. Liotard,  R. C. Lochan,  I. Lotan,  
 P. E. Maslen,  N. Nair,  D. P. O'Neill,  D. Neuhauser,  E. Neuscamman,  
 C. M. Oana,  R. Olson,  B. Peters,  R. Peverati,  P. A. Pieniazek,  
 Y. M. Rhee,  J. Ritchie,  M. A. Rohrdanz,  E. Rosta,  N. J. Russ,  
 H. F. Schaefer III,  N. E. Schultz,  N. Shenvi,  A. C. Simmonett,  A. Sodt,  
 D. Stuck,  K. S. Thanthiriwatte,  V. Vanovschi,  Tao Wang,  A. Warshel,  
 C. F. Williams,  Q. Wu,  X. Xu,  W. Zhang

 Please cite Q-Chem as follows:
 Y. Shao et al., Mol. Phys. 113, 184-215 (2015)
 DOI: 10.1080/00268976.2014.952696

 Q-Chem 5.3.0 for Intel X86 EM64T Linux

 Parts of Q-Chem use Armadillo 9.800.1 (Horizon Scraper).
 http://arma.sourceforge.net/

 Q-Chem begins on Mon Jul 27 14:14:34 2020  

Host: centos77-c7
0

     Scratch files written to /tmp/29924.centos77-h1/qchem101933//
Processing $rem in /opt/qchem-5.3.0-intel2020u1//config/preferences:
Processing $rem in /home/shihchengli/.qchemrc:

Checking the input file for inconsistencies... 	...done.

--------------------------------------------------------------
User input:
--------------------------------------------------------------
$rem
   JOBTYPE  sp
   EXCHANGE   omegaB97X-D
   BASIS   6-311+G(2df,2pd)
   UNRESTRICTED   False
   max_scf_cycles   250
   geom_opt_max_cycles   1500
   basis2 6-31G*
   scf_algorithm rca_diis
   SYM_IGNORE  TRUE
   print_input   true
   geom_opt_dmax   80
   pop_mulliken false
   XC_GRID 000075000302
$end

$molecule
0 1
C       -5.3572960054     0.2641115721     0.1296516337
C       -4.0681473722     1.0074742509     0.4273640014
H       -5.5799900923     -0.4476305893     0.9244015039
H       -5.2782016216     -0.2798558022     -0.8128285776
H       -6.1976726011     0.9567081656     0.0450726317
O       -3.2940972157     1.2506748783     -0.7320529401
H       -3.4803674605     0.4629070392     1.1752848018
H       -4.2867237926     1.9908359849     0.8430013571
H       -3.0603138384     0.4119945004     -1.1295844118
$end
--------------------------------------------------------------
 ----------------------------------------------------------------
             Standard Nuclear Orientation (Angstroms)
    I     Atom           X                Y                Z
 ----------------------------------------------------------------
    1      C      -5.3572960054     0.2641115721     0.1296516337
    2      C      -4.0681473722     1.0074742509     0.4273640014
    3      H      -5.5799900923    -0.4476305893     0.9244015039
    4      H      -5.2782016216    -0.2798558022    -0.8128285776
    5      H      -6.1976726011     0.9567081656     0.0450726317
    6      O      -3.2940972157     1.2506748783    -0.7320529401
    7      H      -3.4803674605     0.4629070392     1.1752848018
    8      H      -4.2867237926     1.9908359849     0.8430013571
    9      H      -3.0603138384     0.4119945004    -1.1295844118
 ----------------------------------------------------------------
 Nuclear Repulsion Energy =          81.93222995 hartrees
 There are       13 alpha and       13 beta electrons
 Requested basis set is 6-311+G(2df,2pd)
 There are 60 shells and 186 basis functions

 Total QAlloc Memory Limit   2000 MB
 Mega-Array Size       188 MB
 MEM_STATIC part       192 MB

                       Distance Matrix (Angstroms)
             C (  1)   C (  2)   H (  3)   H (  4)   H (  5)   O (  6)
   C (  2)  1.517605
   H (  3)  1.089861  2.156396
   H (  4)  1.091066  2.158594  1.771212
   H (  5)  1.092280  2.164163  1.768309  1.763664
   O (  6)  2.443897  1.415114  3.294448  2.507134  3.020114
   H (  7)  2.157714  1.096095  2.302268  2.781456  2.984119  2.072007
   H (  8)  2.153270  1.089739  2.761391  2.980074  2.314700  2.003482
   H (  9)  2.623675  1.947925  3.362526  2.344785  3.394047  0.957116
             H (  7)   H (  8)
   H (  8)  1.759315
   H (  9)  2.343386  2.808543
 
 A cutoff of  1.0D-09 yielded   1782 shell pairs
 There are     17255 function pairs (     21421 Cartesian)
 Smallest overlap matrix eigenvalue = 1.15E-04

 Scale SEOQF with 1.000000e-02/1.000000e-01/1.000000e-01

 Standard Electronic Orientation quadrupole field applied
 Nucleus-field energy     =     0.0000000024 hartrees
 Requested basis set is 6-31G(d)
 There are 24 shells and 54 basis functions
 A cutoff of  1.0D-09 yielded    298 shell pairs
 There are      1549 function pairs (      1732 Cartesian)
 Smallest overlap matrix eigenvalue = 6.87E-03
 Guess from superposition of atomic densities
 Warning:  Energy on first SCF cycle will be non-variational
 SAD guess density has 26.000000 electrons
 Long-range K will be added via erf
 Coulomb attenuation parameter = 0.2 bohr**(-1)
 A restricted hybrid HF-DFT SCF calculation will be
 performed using Relaxed Constraint Minimization + Pulay DIIS
 Exchange:     0.2220 Hartree-Fock + 1.0000 wB97X-D + LR-HF
 Correlation:  1.0000 wB97X-D
 Using Euler-Maclaurin-Lebedev (75,302) quadrature formula
 Dispersion:   Grimme D
 SCF converges when DIIS error is below 1.0E-04
 using 6 threads for integral computing
 -------------------------------------------------------
 OpenMP Integral computing Module                
 Release: version 1.0, May 2013, Q-Chem Inc. Pittsburgh 
 -------------------------------------------------------
 using 6 threads for integral computing
 -------------------------------------------------------
 OpenMP Integral computing Module                
 Release: version 1.0, May 2013, Q-Chem Inc. Pittsburgh 
 -------------------------------------------------------
 ---------------------------------------
  Cycle       Energy         DIIS Error
 ---------------------------------------
    1    -155.4369445400      1.06E-01
    2    -154.9215380600      1.36E-02
    3    -154.9500597348      3.04E-03
    4    -154.9763207946      2.41E-03
    5    -154.9770474055      2.24E-04 Done RCA. Switching to DIIS
    6    -154.9778604260      9.97E-05 Convergence criterion met
 ---------------------------------------
 SCF time:  CPU 12.98 s  wall 2.18 s
 SCF   energy in the small basis set = -154.97786043
 Total energy in the small basis set = -154.97786043
 ----------------------------------------------------
  Cycle       Energy    
 ----------------------------------------------------
    1     -18.7548168875     -1.88E+01
 Long-range K will be added via erf
 Coulomb attenuation parameter = 0.2 bohr**(-1)
 A restricted hybrid HF-DFT SCF calculation will be
 performed using Relaxed Constraint Minimization + Pulay DIIS
 Exchange:     0.2220 Hartree-Fock + 1.0000 wB97X-D + LR-HF
 Correlation:  1.0000 wB97X-D
 Using Euler-Maclaurin-Lebedev (75,302) quadrature formula
 Dispersion:   Grimme D
 SCF converges when DIIS error is below 1.0E-05
 Basis2 calculation detected. Using small basis as guess for larger.
 SCFMinFind is unable to tell whether the solution found is close.
 Resetting ReadMinima to 0 and attempting to follow guess.
 SCFMinFind following SCF Guess.
 using 6 threads for integral computing
 -------------------------------------------------------
 OpenMP Integral computing Module                
 Release: version 1.0, May 2013, Q-Chem Inc. Pittsburgh 
 -------------------------------------------------------
 using 6 threads for integral computing
 -------------------------------------------------------
 OpenMP Integral computing Module                
 Release: version 1.0, May 2013, Q-Chem Inc. Pittsburgh 
 -------------------------------------------------------
 ---------------------------------------
  Cycle       Energy         DIIS Error
 ---------------------------------------
    1    -155.0096069724      5.72E-03
    2    -155.0250187908      2.87E-03
    3    -155.0347429248      3.48E-04 Done RCA. Switching to DIIS
    4    -155.0464067802      2.52E-04
    5    -155.0465960481      3.95E-05
    6    -155.0466040072      5.63E-06 Convergence criterion met
 ---------------------------------------
 SCF time:  CPU 39.21 s  wall 6.56 s
 SCF   energy in the final basis set = -155.04660401
 Total energy in the final basis set = -155.04660401
 
 --------------------------------------------------------------
 
                    Orbital Energies (a.u.)
 --------------------------------------------------------------
 
 Alpha MOs
 -- Occupied --
-19.2455 -10.3264 -10.2734  -1.1257  -0.8496  -0.7230  -0.5954  -0.5448
 -0.5241  -0.4723  -0.4570  -0.4087  -0.3614
 -- Virtual --
  0.0665   0.0876   0.0898   0.1028   0.1280   0.1320   0.1374   0.1758
  0.1922   0.2003   0.2370   0.2503   0.2840   0.2890   0.3003   0.3065
  0.3195   0.3345   0.3440   0.3920   0.4598   0.4892   0.5046   0.5174
  0.5461   0.5711   0.5866   0.6033   0.6235   0.6305   0.6489   0.6616
  0.6857   0.7155   0.7848   0.7917   0.8571   0.9125   0.9401   0.9999
  1.0081   1.0422   1.0667   1.0857   1.1420   1.1841   1.1988   1.2112
  1.2203   1.2503   1.2787   1.3075   1.3284   1.3433   1.3799   1.3999
  1.4338   1.4420   1.4722   1.4829   1.5104   1.5286   1.6034   1.6115
  1.6556   1.6710   1.9540   2.0299   2.0932   2.2395   2.2847   2.4049
  2.4149   2.5510   2.6155   2.6759   2.6796   2.7858   2.8244   2.8843
  2.9199   2.9736   2.9980   3.0151   3.0355   3.0674   3.0934   3.1025
  3.1431   3.1670   3.1948   3.2318   3.2670   3.2694   3.2912   3.3262
  3.3612   3.4337   3.4463   3.4887   3.5123   3.5502   3.5627   3.5763
  3.6334   3.6456   3.6615   3.6787   3.7175   3.7374   3.7772   3.8024
  3.8638   3.8779   3.9442   3.9557   3.9737   4.0017   4.0571   4.0754
  4.0902   4.1382   4.1669   4.1913   4.2015   4.2289   4.2594   4.3182
  4.3515   4.4040   4.4723   4.5367   4.5722   4.5980   4.7136   4.7630
  4.8565   4.9035   4.9485   4.9787   5.0304   5.0567   5.1210   5.1694
  5.2212   5.2455   5.2629   5.3125   5.3273   5.3619   5.4098   5.4650
  5.5202   5.5745   5.6782   5.8709   5.9499   6.0411   6.3218   6.3666
  6.4425   6.6555   6.7069   6.8236   7.1291   7.3384   7.4173   7.5491
  7.7287   8.1113  25.1040  25.4311  50.4651
 --------------------------------------------------------------
 
 -----------------------------------------------------------------
                    Cartesian Multipole Moments
 -----------------------------------------------------------------
    Charge (ESU x 10^10)
                 0.0000
    Dipole Moment (Debye)
         X      -0.5912      Y      -1.5531      Z       0.6126
       Tot       1.7712
    Quadrupole Moments (Debye-Ang)
        XX     -15.7343     XY       3.6413     YY     -22.4722
        XZ      -2.7917     YZ       2.7113     ZZ     -19.6217
    Octopole Moments (Debye-Ang^2)
       XXX     236.3399    XXY     -21.3069    XYY      92.0701
       YYY     -49.2638    XXZ      12.3334    XYZ      -9.4961
       YYZ       5.2154    XZZ      86.2267    YZZ     -18.1612
       ZZZ       0.0434
    Hexadecapole Moments (Debye-Ang^3)
      XXXX   -2262.8588   XXXY     168.7317   XXYY    -424.4742
      XYYY     183.5164   YYYY    -131.4534   XXXZ     -39.8519
      XXYZ      34.9881   XYYZ     -14.2518   YYYZ      13.0934
      XXZZ    -408.8583   XYZZ      70.4282   YYZZ     -35.9359
      XZZZ      11.6072   YZZZ       6.3976   ZZZZ     -63.9639
 -----------------------------------------------------------------
Archival summary:
1\1\centos77-c7\SP\ProcedureUnspecified\BasisUnspecified\126\shihchen\MonJul2714:14:452020MonJul2714:14:452020\0\\#,ProcedureUnspecified,BasisUnspecified,\\0,1\C\H,1,1.08974\H,1,1.09609,2,107.195\O,1,1.41511,2,105.493,3,-117.852,0\H,4,0.957116,1,108.863,2,178.989,0\C,1,1.5176,2,110.27,3,120.028,0\H,6,1.08986,1,110.512,2,-99.7503,0\H,6,1.09107,1,110.615,2,139.933,0\H,6,1.09228,1,110.987,2,20.3721,0\\\@

 Total job time:  10.90s(wall), 56.07s(cpu) 
 Mon Jul 27 14:14:45 2020

        *************************************************************
        *                                                           *
        *  Thank you very much for using Q-Chem.  Have a nice day.  *
        *                                                           *
        *************************************************************


