                  Welcome to Q-Chem
     A Quantum Leap Into The Future Of Chemistry


 Q-Chem 5.3 (devel), Q-Chem, Inc., Pleasanton, CA (2020)

 Yihan Shao,  Zhengting Gan,  E. Epifanovsky,  A. T. B. Gilbert,  M. Wormit,  
 J. Kussmann,  A. W. Lange,  A. Behn,  Jia Deng,  Xintian Feng,  D. Ghosh,  
 M. Goldey,  P. R. Horn,  L. D. Jacobson,  I. Kaliman,  T. Kus,  A. Landau,  
 Jie Liu,  E. I. Proynov,  R. M. Richard,  R. P. Steele,  E. J. Sundstrom,  
 H. L. Woodcock III,  P. M. Zimmerman,  D. Zuev,  B. Alam,  B. Albrecht,  
 E. Alguire,  S. A. Baeppler,  D. Barton,  Z. Benda,  Y. A. Bernard,  
 E. J. Berquist,  K. B. Bravaya,  H. Burton,  K. Carter-Fenk,  D. Casanova,  
 Chun-Min Chang,  Yunqing Chen,  A. Chien,  K. D. Closser,  M. P. Coons,  
 S. Coriani,  S. Dasgupta,  A. L. Dempwolff,  M. Diedenhofen,  Hainam Do,  
 R. G. Edgar,  Po-Tung Fang,  S. Faraji,  S. Fatehi,  Qingguo Feng,  
 J. Fosso-Tande,  J. Gayvert,  Qinghui Ge,  A. Ghysels,  G. Gidofalvi,  
 J. Gomes,  J. Gonthier,  A. Gunina,  D. Hait,  M. W. D. Hanson-Heine,  
 P. H. P. Harbach,  A. W. Hauser,  M. F. Herbst,  J. E. Herr,  
 E. G. Hohenstein,  Z. C. Holden,  Kerwin Hui,  B. C. Huynh,  T.-C. Jagau,  
 Hyunjun Ji,  B. Kaduk,  K. Khistyaev,  Jaehoon Kim,  P. Klunzinger,  K. Koh,  
 D. Kosenkov,  L. Koulias,  T. Kowalczyk,  C. M. Krauter,  A. Kunitsa,  
 Ka Un Lao,  A. Laurent,  K. V. Lawler,  Joonho Lee,  D. Lefrancois,  
 S. Lehtola,  D. S. Levine,  Yi-Pei Li,  You-Sheng Lin,  Fenglai Liu,  
 Kuan-Yu Liu,  E. Livshits,  M. Loipersberger,  A. Luenser,  P. Manohar,  
 E. Mansoor,  S. F. Manzer,  Shan-Ping Mao,  Yuezhi Mao,  N. Mardirossian,  
 A. V. Marenich,  T. Markovich,  L. A. Martinez-Martinez,  S. A. Maurer,  
 N. J. Mayhall,  S. C. McKenzie,  J.-M. Mewes,  P. Morgante,  A. F. Morrison,  
 J. W. Mullinax,  K. Nanda,  T. S. Nguyen-Beck,  R. Olivares-Amaya,  
 K. J. Oosterbaan,  J. A. Parkhill,  S. K. Paul,  F. Pavosevic,  Zheng Pei,  
 T. M. Perrine,  F. Plasser,  P. Pokhilko,  S. Prager,  A. Prociuk,  
 E. Ramos,  B. Rana,  D. R. Rehn,  F. Rob,  M. Scheurer,  M. Schneider,  
 N. Sergueev,  S. M. Sharada,  S. Sharma,  D. W. Small,  T. Stauch,  
 C. J. Stein,  T. Stein,  Yu-Chuan Su,  S. P. Veccham,  Zhen Tao,  
 A. J. W. Thom,  A. Tkatchenko,  T. Tsuchimochi,  N. M. Tubman,  L. Vogt,  
 M. L. Vidal,  O. Vydrov,  M. A. Watson,  J. Wenzel,  M. de Wergifosse,  
 T. A. Wesolowski,  A. White,  J. Witte,  A. Yamada,  Jun Yang,  K. Yao,  
 S. Yeganeh,  S. R. Yost,  Zhi-Qiang You,  A. Zech,  Igor Ying Zhang,  
 Xing Zhang,  Yan Zhao,  Ying Zhu,  B. R. Brooks,  G. K. L. Chan,  
 C. J. Cramer,  M. S. Gordon,  W. J. Hehre,  A. Klamt,  M. W. Schmidt,  
 C. D. Sherrill,  D. G. Truhlar,  A. Aspuru-Guzik,  R. Baer,  A. T. Bell,  
 N. A. Besley,  Jeng-Da Chai,  A. E. DePrince, III,  R. A. DiStasio Jr.,  
 A. Dreuw,  B. D. Dunietz,  T. R. Furlani,  Chao-Ping Hsu,  Yousung Jung,  
 Jing Kong,  D. S. Lambrecht,  WanZhen Liang,  C. Ochsenfeld,  
 V. A. Rassolov,  L. V. Slipchenko,  J. E. Subotnik,  T. Van Voorhis,  
 J. M. Herbert,  A. I. Krylov,  P. M. W. Gill,  M. Head-Gordon

 Contributors to earlier versions of Q-Chem not listed above: 
 R. D. Adamson,  B. Austin,  J. Baker,  G. J. O. Beran,  K. Brandhorst,  
 S. T. Brown,  E. F. C. Byrd,  A. K. Chakraborty,  C.-L. Cheng,  
 Siu Hung Chien,  D. M. Chipman,  D. L. Crittenden,  H. Dachsel,  
 R. J. Doerksen,  A. D. Dutoi,  L. Fusti-Molnar,  W. A. Goddard III,  
 A. Golubeva-Zadorozhnaya,  S. R. Gwaltney,  G. Hawkins,  A. Heyden,  
 S. Hirata,  G. Kedziora,  F. J. Keil,  C. Kelley,  Jihan Kim,  R. A. King,  
 R. Z. Khaliullin,  P. P. Korambath,  W. Kurlancheek,  A. M. Lee,  M. S. Lee,  
 S. V. Levchenko,  Ching Yeh Lin,  D. Liotard,  R. C. Lochan,  I. Lotan,  
 P. E. Maslen,  N. Nair,  D. P. O'Neill,  D. Neuhauser,  E. Neuscamman,  
 C. M. Oana,  R. Olson,  B. Peters,  R. Peverati,  P. A. Pieniazek,  
 Y. M. Rhee,  J. Ritchie,  M. A. Rohrdanz,  E. Rosta,  N. J. Russ,  
 H. F. Schaefer III,  N. E. Schultz,  N. Shenvi,  A. C. Simmonett,  A. Sodt,  
 D. Stuck,  K. S. Thanthiriwatte,  V. Vanovschi,  Tao Wang,  A. Warshel,  
 C. F. Williams,  Q. Wu,  X. Xu,  W. Zhang

 Please cite Q-Chem as follows:
 Y. Shao et al., Mol. Phys. 113, 184-215 (2015)
 DOI: 10.1080/00268976.2014.952696

 Q-Chem 5.3.0 for Intel X86 EM64T Linux

 Parts of Q-Chem use Armadillo 9.800.1 (Horizon Scraper).
 http://arma.sourceforge.net/

 Q-Chem begins on Mon Jul 27 14:22:12 2020  

Host: centos77-c7
0

     Scratch files written to /tmp/29924.centos77-h1/qchem103868//
Processing $rem in /opt/qchem-5.3.0-intel2020u1//config/preferences:
Processing $rem in /home/shihchengli/.qchemrc:

Checking the input file for inconsistencies... 	...done.

--------------------------------------------------------------
User input:
--------------------------------------------------------------
$rem
   JOBTYPE  sp
   EXCHANGE   omegaB97X-D
   BASIS   6-311+G(2df,2pd)
   UNRESTRICTED   False
   max_scf_cycles   250
   geom_opt_max_cycles   1500
   basis2 6-31G*
   scf_algorithm rca_diis
   SYM_IGNORE  TRUE
   print_input   true
   geom_opt_dmax   80
   pop_mulliken false
   XC_GRID 000075000302
$end

$molecule
0 1
C       -5.4951049101     0.2947690953     0.1704936854
C       -4.1520551156     0.9971076864     0.0926304905
H       -5.6563548059     -0.3202054147     -0.7147191365
H       -6.3053611183     1.0219961284     0.2415647337
H       -5.5486338989     -0.3506795173     1.0500431197
O       -3.0693945065     0.0974418251     -0.0522666379
H       -4.0066231465     1.6359555341     0.9713495391
H       -4.1137477438     1.6423771741     -0.7846894035
H       -2.2555347543     0.5984574887     -0.1040963903
$end
--------------------------------------------------------------
 ----------------------------------------------------------------
             Standard Nuclear Orientation (Angstroms)
    I     Atom           X                Y                Z
 ----------------------------------------------------------------
    1      C      -5.4951049101     0.2947690953     0.1704936854
    2      C      -4.1520551156     0.9971076864     0.0926304905
    3      H      -5.6563548059    -0.3202054147    -0.7147191365
    4      H      -6.3053611183     1.0219961284     0.2415647337
    5      H      -5.5486338989    -0.3506795173     1.0500431197
    6      O      -3.0693945065     0.0974418251    -0.0522666379
    7      H      -4.0066231465     1.6359555341     0.9713495391
    8      H      -4.1137477438     1.6423771741    -0.7846894035
    9      H      -2.2555347543     0.5984574887    -0.1040963903
 ----------------------------------------------------------------
 Nuclear Repulsion Energy =          81.61173262 hartrees
 There are       13 alpha and       13 beta electrons
 Requested basis set is 6-311+G(2df,2pd)
 There are 60 shells and 186 basis functions

 Total QAlloc Memory Limit   2000 MB
 Mega-Array Size       188 MB
 MEM_STATIC part       192 MB

                       Distance Matrix (Angstroms)
             C (  1)   C (  2)   H (  3)   H (  4)   H (  5)   O (  6)
   C (  2)  1.517605
   H (  3)  1.089861  2.156396
   H (  4)  1.091066  2.158594  1.771212
   H (  5)  1.092280  2.164163  1.768309  1.763664
   O (  6)  2.443897  1.415114  2.702894  3.378257  2.750005
   H (  7)  2.157714  1.096095  3.064475  2.488720  2.516090  2.072007
   H (  8)  2.153270  1.089739  2.497251  2.498247  3.065521  2.003482
   H (  9)  3.265339  1.947925  3.575245  4.086558  3.616269  0.957116
             H (  7)   H (  8)
   H (  8)  1.759315
   H (  9)  2.302020  2.237394
 
 A cutoff of  1.0D-09 yielded   1761 shell pairs
 There are     17090 function pairs (     21228 Cartesian)
 Smallest overlap matrix eigenvalue = 1.13E-04

 Scale SEOQF with 1.000000e-02/1.000000e-01/1.000000e-01

 Standard Electronic Orientation quadrupole field applied
 Nucleus-field energy     =     0.0000000024 hartrees
 Requested basis set is 6-31G(d)
 There are 24 shells and 54 basis functions
 A cutoff of  1.0D-09 yielded    296 shell pairs
 There are      1547 function pairs (      1730 Cartesian)
 Smallest overlap matrix eigenvalue = 7.27E-03
 Guess from superposition of atomic densities
 Warning:  Energy on first SCF cycle will be non-variational
 SAD guess density has 26.000000 electrons
 Long-range K will be added via erf
 Coulomb attenuation parameter = 0.2 bohr**(-1)
 A restricted hybrid HF-DFT SCF calculation will be
 performed using Relaxed Constraint Minimization + Pulay DIIS
 Exchange:     0.2220 Hartree-Fock + 1.0000 wB97X-D + LR-HF
 Correlation:  1.0000 wB97X-D
 Using Euler-Maclaurin-Lebedev (75,302) quadrature formula
 Dispersion:   Grimme D
 SCF converges when DIIS error is below 1.0E-04
 using 6 threads for integral computing
 -------------------------------------------------------
 OpenMP Integral computing Module                
 Release: version 1.0, May 2013, Q-Chem Inc. Pittsburgh 
 -------------------------------------------------------
 using 6 threads for integral computing
 -------------------------------------------------------
 OpenMP Integral computing Module                
 Release: version 1.0, May 2013, Q-Chem Inc. Pittsburgh 
 -------------------------------------------------------
 ---------------------------------------
  Cycle       Energy         DIIS Error
 ---------------------------------------
    1    -155.4310011701      1.06E-01
    2    -154.9226036898      1.37E-02
    3    -154.9513388254      2.90E-03
    4    -154.9788067068      2.12E-03
    5    -154.9793761359      2.08E-04 Done RCA. Switching to DIIS
    6    -154.9800099976      6.88E-05 Convergence criterion met
 ---------------------------------------
 SCF time:  CPU 12.87 s  wall 2.16 s
 SCF   energy in the small basis set = -154.98001000
 Total energy in the small basis set = -154.98001000
 ----------------------------------------------------
  Cycle       Energy    
 ----------------------------------------------------
    1     -18.7509947491     -1.88E+01
 Long-range K will be added via erf
 Coulomb attenuation parameter = 0.2 bohr**(-1)
 A restricted hybrid HF-DFT SCF calculation will be
 performed using Relaxed Constraint Minimization + Pulay DIIS
 Exchange:     0.2220 Hartree-Fock + 1.0000 wB97X-D + LR-HF
 Correlation:  1.0000 wB97X-D
 Using Euler-Maclaurin-Lebedev (75,302) quadrature formula
 Dispersion:   Grimme D
 SCF converges when DIIS error is below 1.0E-05
 Basis2 calculation detected. Using small basis as guess for larger.
 SCFMinFind is unable to tell whether the solution found is close.
 Resetting ReadMinima to 0 and attempting to follow guess.
 SCFMinFind following SCF Guess.
 using 6 threads for integral computing
 -------------------------------------------------------
 OpenMP Integral computing Module                
 Release: version 1.0, May 2013, Q-Chem Inc. Pittsburgh 
 -------------------------------------------------------
 using 6 threads for integral computing
 -------------------------------------------------------
 OpenMP Integral computing Module                
 Release: version 1.0, May 2013, Q-Chem Inc. Pittsburgh 
 -------------------------------------------------------
 ---------------------------------------
  Cycle       Energy         DIIS Error
 ---------------------------------------
    1    -155.0118356291      5.73E-03
    2    -155.0268395558      2.91E-03
    3    -155.0368680535      3.49E-04 Done RCA. Switching to DIIS
    4    -155.0488870740      2.59E-04
    5    -155.0490828960      3.88E-05
    6    -155.0490900219      6.12E-06 Convergence criterion met
 ---------------------------------------
 SCF time:  CPU 38.00 s  wall 6.36 s
 SCF   energy in the final basis set = -155.04909002
 Total energy in the final basis set = -155.04909002
 
 --------------------------------------------------------------
 
                    Orbital Energies (a.u.)
 --------------------------------------------------------------
 
 Alpha MOs
 -- Occupied --
-19.2450 -10.3272 -10.2720  -1.1253  -0.8499  -0.7092  -0.6090  -0.5566
 -0.4949  -0.4729  -0.4544  -0.4154  -0.3574
 -- Virtual --
  0.0629   0.0821   0.0994   0.1024   0.1274   0.1334   0.1363   0.1823
  0.2122   0.2293   0.2390   0.2461   0.2506   0.2878   0.2947   0.3075
  0.3136   0.3211   0.3679   0.4113   0.4648   0.4942   0.5088   0.5149
  0.5651   0.5829   0.5848   0.5985   0.6098   0.6586   0.6634   0.6672
  0.6929   0.7190   0.7918   0.7962   0.8656   0.8676   0.9331   0.9490
  0.9581   1.0662   1.1026   1.1047   1.1247   1.1688   1.1799   1.2221
  1.2278   1.2380   1.2500   1.3082   1.3413   1.3535   1.3685   1.4172
  1.4520   1.4600   1.4705   1.4880   1.5268   1.5545   1.5832   1.6228
  1.6510   1.7543   1.9248   2.0727   2.1131   2.2548   2.3562   2.4479
  2.4790   2.5362   2.5532   2.5777   2.7243   2.8120   2.8507   2.8633
  2.9173   2.9919   3.0071   3.0265   3.0329   3.0507   3.0528   3.0819
  3.1118   3.1669   3.2170   3.2558   3.2920   3.3111   3.3347   3.3414
  3.3507   3.3697   3.3882   3.4869   3.5314   3.5760   3.5793   3.5838
  3.5894   3.6251   3.6501   3.6882   3.7295   3.7358   3.7994   3.8538
  3.8689   3.8967   3.9370   3.9558   4.0025   4.0150   4.0571   4.0745
  4.1001   4.1023   4.1297   4.1964   4.2172   4.2295   4.2720   4.3040
  4.3739   4.4230   4.4653   4.4989   4.5640   4.6873   4.7523   4.7699
  4.8434   4.9087   4.9308   4.9699   5.0309   5.0477   5.0673   5.2280
  5.2398   5.2746   5.2952   5.3012   5.3482   5.3685   5.3982   5.5065
  5.5331   5.6555   5.7012   5.8028   5.9464   6.0238   6.3690   6.3806
  6.4132   6.6533   6.6908   6.8098   7.1264   7.3417   7.4350   7.5990
  7.7034   8.1297  25.1847  25.4333  50.4674
 --------------------------------------------------------------
 
 -----------------------------------------------------------------
                    Cartesian Multipole Moments
 -----------------------------------------------------------------
    Charge (ESU x 10^10)
                 0.0000
    Dipole Moment (Debye)
         X       0.0148      Y       1.6597      Z       0.0662
       Tot       1.6611
    Quadrupole Moments (Debye-Ang)
        XX     -17.1549     XY      -4.7803     YY     -19.2150
        XZ      -0.5344     YZ      -0.0146     ZZ     -20.1801
    Octopole Moments (Debye-Ang^2)
       XXX     232.2510    XXY       5.6288    XYY      84.1687
       YYY     -29.7534    XXZ       1.1057    XYZ      -0.2293
       YYZ      -1.4889    XZZ      86.6790    YZZ      -9.9926
       ZZZ      -4.5622
    Hexadecapole Moments (Debye-Ang^3)
      XXXX   -2232.7010   XXXY      68.5276   XXYY    -406.1934
      XYYY     128.8460   YYYY     -86.8298   XXXZ      13.9596
      XXYZ       1.2349   XYYZ       8.0741   YYYZ      -2.7240
      XXZZ    -406.9544   XYZZ      44.4631   YYZZ     -19.1262
      XZZZ      25.8362   YZZZ      -3.1613   ZZZZ     -35.9414
 -----------------------------------------------------------------
Archival summary:
1\1\centos77-c7\SP\ProcedureUnspecified\BasisUnspecified\126\shihchen\MonJul2714:22:232020MonJul2714:22:232020\0\\#,ProcedureUnspecified,BasisUnspecified,\\0,1\C\H,1,1.08974\H,1,1.09609,2,107.195\O,1,1.41511,2,105.493,3,-117.852,0\H,4,0.957116,1,108.863,2,58.9895,0\C,1,1.5176,2,110.27,3,120.028,0\H,6,1.08986,1,110.512,2,60.2497,0\H,6,1.09107,1,110.615,2,-60.0673,0\H,6,1.09228,1,110.987,2,-179.628,0\\\@

 Total job time:  10.64s(wall), 54.69s(cpu) 
 Mon Jul 27 14:22:23 2020

        *************************************************************
        *                                                           *
        *  Thank you very much for using Q-Chem.  Have a nice day.  *
        *                                                           *
        *************************************************************


