                  Welcome to Q-Chem
     A Quantum Leap Into The Future Of Chemistry


 Q-Chem 5.3 (devel), Q-Chem, Inc., Pleasanton, CA (2020)

 Yihan Shao,  Zhengting Gan,  E. Epifanovsky,  A. T. B. Gilbert,  M. Wormit,  
 J. Kussmann,  A. W. Lange,  A. Behn,  Jia Deng,  Xintian Feng,  D. Ghosh,  
 M. Goldey,  P. R. Horn,  L. D. Jacobson,  I. Kaliman,  T. Kus,  A. Landau,  
 Jie Liu,  E. I. Proynov,  R. M. Richard,  R. P. Steele,  E. J. Sundstrom,  
 H. L. Woodcock III,  P. M. Zimmerman,  D. Zuev,  B. Alam,  B. Albrecht,  
 E. Alguire,  S. A. Baeppler,  D. Barton,  Z. Benda,  Y. A. Bernard,  
 E. J. Berquist,  K. B. Bravaya,  H. Burton,  K. Carter-Fenk,  D. Casanova,  
 Chun-Min Chang,  Yunqing Chen,  A. Chien,  K. D. Closser,  M. P. Coons,  
 S. Coriani,  S. Dasgupta,  A. L. Dempwolff,  M. Diedenhofen,  Hainam Do,  
 R. G. Edgar,  Po-Tung Fang,  S. Faraji,  S. Fatehi,  Qingguo Feng,  
 J. Fosso-Tande,  J. Gayvert,  Qinghui Ge,  A. Ghysels,  G. Gidofalvi,  
 J. Gomes,  J. Gonthier,  A. Gunina,  D. Hait,  M. W. D. Hanson-Heine,  
 P. H. P. Harbach,  A. W. Hauser,  M. F. Herbst,  J. E. Herr,  
 E. G. Hohenstein,  Z. C. Holden,  Kerwin Hui,  B. C. Huynh,  T.-C. Jagau,  
 Hyunjun Ji,  B. Kaduk,  K. Khistyaev,  Jaehoon Kim,  P. Klunzinger,  K. Koh,  
 D. Kosenkov,  L. Koulias,  T. Kowalczyk,  C. M. Krauter,  A. Kunitsa,  
 Ka Un Lao,  A. Laurent,  K. V. Lawler,  Joonho Lee,  D. Lefrancois,  
 S. Lehtola,  D. S. Levine,  Yi-Pei Li,  You-Sheng Lin,  Fenglai Liu,  
 Kuan-Yu Liu,  E. Livshits,  M. Loipersberger,  A. Luenser,  P. Manohar,  
 E. Mansoor,  S. F. Manzer,  Shan-Ping Mao,  Yuezhi Mao,  N. Mardirossian,  
 A. V. Marenich,  T. Markovich,  L. A. Martinez-Martinez,  S. A. Maurer,  
 N. J. Mayhall,  S. C. McKenzie,  J.-M. Mewes,  P. Morgante,  A. F. Morrison,  
 J. W. Mullinax,  K. Nanda,  T. S. Nguyen-Beck,  R. Olivares-Amaya,  
 K. J. Oosterbaan,  J. A. Parkhill,  S. K. Paul,  F. Pavosevic,  Zheng Pei,  
 T. M. Perrine,  F. Plasser,  P. Pokhilko,  S. Prager,  A. Prociuk,  
 E. Ramos,  B. Rana,  D. R. Rehn,  F. Rob,  M. Scheurer,  M. Schneider,  
 N. Sergueev,  S. M. Sharada,  S. Sharma,  D. W. Small,  T. Stauch,  
 C. J. Stein,  T. Stein,  Yu-Chuan Su,  S. P. Veccham,  Zhen Tao,  
 A. J. W. Thom,  A. Tkatchenko,  T. Tsuchimochi,  N. M. Tubman,  L. Vogt,  
 M. L. Vidal,  O. Vydrov,  M. A. Watson,  J. Wenzel,  M. de Wergifosse,  
 T. A. Wesolowski,  A. White,  J. Witte,  A. Yamada,  Jun Yang,  K. Yao,  
 S. Yeganeh,  S. R. Yost,  Zhi-Qiang You,  A. Zech,  Igor Ying Zhang,  
 Xing Zhang,  Yan Zhao,  Ying Zhu,  B. R. Brooks,  G. K. L. Chan,  
 C. J. Cramer,  M. S. Gordon,  W. J. Hehre,  A. Klamt,  M. W. Schmidt,  
 C. D. Sherrill,  D. G. Truhlar,  A. Aspuru-Guzik,  R. Baer,  A. T. Bell,  
 N. A. Besley,  Jeng-Da Chai,  A. E. DePrince, III,  R. A. DiStasio Jr.,  
 A. Dreuw,  B. D. Dunietz,  T. R. Furlani,  Chao-Ping Hsu,  Yousung Jung,  
 Jing Kong,  D. S. Lambrecht,  WanZhen Liang,  C. Ochsenfeld,  
 V. A. Rassolov,  L. V. Slipchenko,  J. E. Subotnik,  T. Van Voorhis,  
 J. M. Herbert,  A. I. Krylov,  P. M. W. Gill,  M. Head-Gordon

 Contributors to earlier versions of Q-Chem not listed above: 
 R. D. Adamson,  B. Austin,  J. Baker,  G. J. O. Beran,  K. Brandhorst,  
 S. T. Brown,  E. F. C. Byrd,  A. K. Chakraborty,  C.-L. Cheng,  
 Siu Hung Chien,  D. M. Chipman,  D. L. Crittenden,  H. Dachsel,  
 R. J. Doerksen,  A. D. Dutoi,  L. Fusti-Molnar,  W. A. Goddard III,  
 A. Golubeva-Zadorozhnaya,  S. R. Gwaltney,  G. Hawkins,  A. Heyden,  
 S. Hirata,  G. Kedziora,  F. J. Keil,  C. Kelley,  Jihan Kim,  R. A. King,  
 R. Z. Khaliullin,  P. P. Korambath,  W. Kurlancheek,  A. M. Lee,  M. S. Lee,  
 S. V. Levchenko,  Ching Yeh Lin,  D. Liotard,  R. C. Lochan,  I. Lotan,  
 P. E. Maslen,  N. Nair,  D. P. O'Neill,  D. Neuhauser,  E. Neuscamman,  
 C. M. Oana,  R. Olson,  B. Peters,  R. Peverati,  P. A. Pieniazek,  
 Y. M. Rhee,  J. Ritchie,  M. A. Rohrdanz,  E. Rosta,  N. J. Russ,  
 H. F. Schaefer III,  N. E. Schultz,  N. Shenvi,  A. C. Simmonett,  A. Sodt,  
 D. Stuck,  K. S. Thanthiriwatte,  V. Vanovschi,  Tao Wang,  A. Warshel,  
 C. F. Williams,  Q. Wu,  X. Xu,  W. Zhang

 Please cite Q-Chem as follows:
 Y. Shao et al., Mol. Phys. 113, 184-215 (2015)
 DOI: 10.1080/00268976.2014.952696

 Q-Chem 5.3.0 for Intel X86 EM64T Linux

 Parts of Q-Chem use Armadillo 9.800.1 (Horizon Scraper).
 http://arma.sourceforge.net/

 Q-Chem begins on Mon Jul 27 14:11:44 2020  

Host: centos77-c7
0

     Scratch files written to /tmp/29924.centos77-h1/qchem101237//
Processing $rem in /opt/qchem-5.3.0-intel2020u1//config/preferences:
Processing $rem in /home/shihchengli/.qchemrc:

Checking the input file for inconsistencies... 	...done.

--------------------------------------------------------------
User input:
--------------------------------------------------------------
$rem
   JOBTYPE  sp
   EXCHANGE   omegaB97X-D
   BASIS   6-311+G(2df,2pd)
   UNRESTRICTED   False
   max_scf_cycles   250
   geom_opt_max_cycles   1500
   basis2 6-31G*
   scf_algorithm rca_diis
   SYM_IGNORE  TRUE
   print_input   true
   geom_opt_dmax   80
   pop_mulliken false
   XC_GRID 000075000302
$end

$molecule
0 1
C       -5.3741896680     0.3075013295     0.0631356858
C       -4.1328974105     1.1672192442     0.2154628440
H       -5.1935620824     -0.5021924152     -0.6436645914
H       -6.2129618657     0.9044512367     -0.2981638897
H       -5.6655709854     -0.1318644888     1.0197605220
O       -3.0063827473     0.6281086307     -0.4500236654
H       -3.9117909505     1.3294557845     1.2766958225
H       -4.2948142224     2.1469659727     -0.2333240285
H       -2.8106400677     -0.2324252943     -0.0795686992
$end
--------------------------------------------------------------
 ----------------------------------------------------------------
             Standard Nuclear Orientation (Angstroms)
    I     Atom           X                Y                Z
 ----------------------------------------------------------------
    1      C      -5.3741896680     0.3075013295     0.0631356858
    2      C      -4.1328974105     1.1672192442     0.2154628440
    3      H      -5.1935620824    -0.5021924152    -0.6436645914
    4      H      -6.2129618657     0.9044512367    -0.2981638897
    5      H      -5.6655709854    -0.1318644888     1.0197605220
    6      O      -3.0063827473     0.6281086307    -0.4500236654
    7      H      -3.9117909505     1.3294557845     1.2766958225
    8      H      -4.2948142224     2.1469659727    -0.2333240285
    9      H      -2.8106400677    -0.2324252943    -0.0795686992
 ----------------------------------------------------------------
 Nuclear Repulsion Energy =          81.93357699 hartrees
 There are       13 alpha and       13 beta electrons
 Requested basis set is 6-311+G(2df,2pd)
 There are 60 shells and 186 basis functions

 Total QAlloc Memory Limit   2000 MB
 Mega-Array Size       188 MB
 MEM_STATIC part       192 MB

                       Distance Matrix (Angstroms)
             C (  1)   C (  2)   H (  3)   H (  4)   H (  5)   O (  6)
   C (  2)  1.517605
   H (  3)  1.089861  2.156396
   H (  4)  1.091066  2.158594  1.771212
   H (  5)  1.092280  2.164163  1.768309  1.763664
   O (  6)  2.443897  1.415114  2.469581  3.222045  3.131949
   H (  7)  2.157714  1.096095  2.947144  2.820674  2.297219  2.072007
   H (  8)  2.153270  1.089739  2.827396  2.286337  2.939773  2.003482
   H (  9)  2.623675  1.947925  2.463594  3.593893  3.060926  0.957116
             H (  7)   H (  8)
   H (  8)  1.759315
   H (  9)  2.343386  2.808543
 
 A cutoff of  1.0D-09 yielded   1788 shell pairs
 There are     17312 function pairs (     21497 Cartesian)
 Smallest overlap matrix eigenvalue = 1.12E-04

 Scale SEOQF with 1.000000e-02/1.000000e-01/1.000000e-01

 Standard Electronic Orientation quadrupole field applied
 Nucleus-field energy     =     0.0000000026 hartrees
 Requested basis set is 6-31G(d)
 There are 24 shells and 54 basis functions
 A cutoff of  1.0D-09 yielded    297 shell pairs
 There are      1548 function pairs (      1731 Cartesian)
 Smallest overlap matrix eigenvalue = 6.82E-03
 Guess from superposition of atomic densities
 Warning:  Energy on first SCF cycle will be non-variational
 SAD guess density has 26.000000 electrons
 Long-range K will be added via erf
 Coulomb attenuation parameter = 0.2 bohr**(-1)
 A restricted hybrid HF-DFT SCF calculation will be
 performed using Relaxed Constraint Minimization + Pulay DIIS
 Exchange:     0.2220 Hartree-Fock + 1.0000 wB97X-D + LR-HF
 Correlation:  1.0000 wB97X-D
 Using Euler-Maclaurin-Lebedev (75,302) quadrature formula
 Dispersion:   Grimme D
 SCF converges when DIIS error is below 1.0E-04
 using 6 threads for integral computing
 -------------------------------------------------------
 OpenMP Integral computing Module                
 Release: version 1.0, May 2013, Q-Chem Inc. Pittsburgh 
 -------------------------------------------------------
 using 6 threads for integral computing
 -------------------------------------------------------
 OpenMP Integral computing Module                
 Release: version 1.0, May 2013, Q-Chem Inc. Pittsburgh 
 -------------------------------------------------------
 ---------------------------------------
  Cycle       Energy         DIIS Error
 ---------------------------------------
    1    -155.4366231093      1.06E-01
    2    -154.9207175853      1.36E-02
    3    -154.9491808734      3.04E-03
    4    -154.9753364943      2.42E-03
    5    -154.9760672678      2.24E-04 Done RCA. Switching to DIIS
    6    -154.9768850553      1.01E-04
    7    -154.9768882232      7.86E-06 Convergence criterion met
 ---------------------------------------
 SCF time:  CPU 14.62 s  wall 2.45 s
 SCF   energy in the small basis set = -154.97688822
 Total energy in the small basis set = -154.97688822
 ----------------------------------------------------
  Cycle       Energy    
 ----------------------------------------------------
    1     -18.7557758834     -1.88E+01
 Long-range K will be added via erf
 Coulomb attenuation parameter = 0.2 bohr**(-1)
 A restricted hybrid HF-DFT SCF calculation will be
 performed using Relaxed Constraint Minimization + Pulay DIIS
 Exchange:     0.2220 Hartree-Fock + 1.0000 wB97X-D + LR-HF
 Correlation:  1.0000 wB97X-D
 Using Euler-Maclaurin-Lebedev (75,302) quadrature formula
 Dispersion:   Grimme D
 SCF converges when DIIS error is below 1.0E-05
 Basis2 calculation detected. Using small basis as guess for larger.
 SCFMinFind is unable to tell whether the solution found is close.
 Resetting ReadMinima to 0 and attempting to follow guess.
 SCFMinFind following SCF Guess.
 using 6 threads for integral computing
 -------------------------------------------------------
 OpenMP Integral computing Module                
 Release: version 1.0, May 2013, Q-Chem Inc. Pittsburgh 
 -------------------------------------------------------
 using 6 threads for integral computing
 -------------------------------------------------------
 OpenMP Integral computing Module                
 Release: version 1.0, May 2013, Q-Chem Inc. Pittsburgh 
 -------------------------------------------------------
 ---------------------------------------
  Cycle       Energy         DIIS Error
 ---------------------------------------
    1    -155.0085328499      5.72E-03
    2    -155.0239481641      2.87E-03
    3    -155.0336969728      3.48E-04 Done RCA. Switching to DIIS
    4    -155.0453902287      2.52E-04
    5    -155.0455799353      3.95E-05
    6    -155.0455879728      5.67E-06 Convergence criterion met
 ---------------------------------------
 SCF time:  CPU 39.22 s  wall 6.56 s
 SCF   energy in the final basis set = -155.04558797
 Total energy in the final basis set = -155.04558797
 
 --------------------------------------------------------------
 
                    Orbital Energies (a.u.)
 --------------------------------------------------------------
 
 Alpha MOs
 -- Occupied --
-19.2456 -10.3260 -10.2721  -1.1258  -0.8492  -0.7224  -0.5954  -0.5451
 -0.5245  -0.4690  -0.4575  -0.4081  -0.3616
 -- Virtual --
  0.0664   0.0875   0.0896   0.1031   0.1267   0.1333   0.1387   0.1748
  0.1857   0.2001   0.2414   0.2586   0.2771   0.2891   0.2978   0.3113
  0.3148   0.3367   0.3468   0.4041   0.4600   0.4825   0.4961   0.5158
  0.5544   0.5742   0.5875   0.6079   0.6169   0.6322   0.6527   0.6621
  0.6853   0.7162   0.7557   0.7898   0.8812   0.9213   0.9502   0.9830
  1.0381   1.0547   1.0677   1.0939   1.1247   1.1797   1.1917   1.2030
  1.2194   1.2522   1.2794   1.3233   1.3405   1.3651   1.3721   1.3844
  1.4387   1.4490   1.4600   1.4760   1.5139   1.5277   1.5860   1.6075
  1.6462   1.7010   1.9517   2.0347   2.0726   2.2159   2.2838   2.3906
  2.4174   2.5853   2.6319   2.6576   2.7197   2.7847   2.8270   2.8822
  2.9174   2.9634   3.0079   3.0172   3.0382   3.0694   3.0950   3.1128
  3.1582   3.1663   3.2044   3.2106   3.2280   3.2753   3.2979   3.3164
  3.3577   3.4343   3.4796   3.4981   3.5103   3.5477   3.5664   3.5940
  3.6224   3.6300   3.6546   3.6944   3.7304   3.7357   3.7434   3.7977
  3.8687   3.8795   3.9234   3.9481   3.9805   4.0131   4.0583   4.0789
  4.1007   4.1149   4.1551   4.1912   4.2110   4.2254   4.2762   4.3173
  4.3779   4.3856   4.4586   4.5463   4.5817   4.5996   4.7055   4.7791
  4.8615   4.8977   4.9501   4.9778   5.0196   5.0492   5.1150   5.1654
  5.2269   5.2517   5.2727   5.3052   5.3326   5.3643   5.4384   5.4580
  5.5238   5.5701   5.6747   5.8703   5.9422   6.0512   6.3137   6.3645
  6.4454   6.6545   6.7043   6.8210   7.1224   7.3523   7.4163   7.5527
  7.7296   8.1113  25.0934  25.4501  50.4661
 --------------------------------------------------------------
 
 -----------------------------------------------------------------
                    Cartesian Multipole Moments
 -----------------------------------------------------------------
    Charge (ESU x 10^10)
                -0.0000
    Dipole Moment (Debye)
         X      -0.9992      Y      -0.7787      Z       1.2115
       Tot       1.7528
    Quadrupole Moments (Debye-Ang)
        XX     -13.1784     XY       0.2911     YY     -19.0882
        XZ      -3.3777     YZ       0.5954     ZZ     -20.7974
    Octopole Moments (Debye-Ang^2)
       XXX     221.6691    XXY      -6.1667    XYY      80.3125
       YYY     -38.4657    XXZ       8.9450    XYZ      -1.0589
       YYZ      -0.3290    XZZ      87.6575    YZZ     -14.1427
       ZZZ       2.7844
    Hexadecapole Moments (Debye-Ang^3)
      XXXX   -2189.5647   XXXY     104.7770   XXYY    -383.2696
      XYYY     153.6255   YYYY    -105.3922   XXXZ     -10.5486
      XXYZ      -1.5855   XYYZ       6.1035   YYYZ      -4.1536
      XXZZ    -403.4832   XYZZ      57.2587   YYZZ     -25.5493
      XZZZ      -0.7472   YZZZ      -1.1333   ZZZZ     -43.7432
 -----------------------------------------------------------------
Archival summary:
1\1\centos77-c7\SP\ProcedureUnspecified\BasisUnspecified\126\shihchen\MonJul2714:11:552020MonJul2714:11:552020\0\\#,ProcedureUnspecified,BasisUnspecified,\\0,1\C\H,1,1.08974\H,1,1.09609,2,107.195\O,1,1.41511,2,105.493,3,-117.852,0\H,4,0.957116,1,108.863,2,178.989,0\C,1,1.5176,2,110.27,3,120.028,0\H,6,1.08986,1,110.512,2,110.25,0\H,6,1.09107,1,110.615,2,-10.0673,0\H,6,1.09228,1,110.987,2,-129.628,0\\\@

 Total job time:  11.19s(wall), 57.81s(cpu) 
 Mon Jul 27 14:11:55 2020

        *************************************************************
        *                                                           *
        *  Thank you very much for using Q-Chem.  Have a nice day.  *
        *                                                           *
        *************************************************************


