                  Welcome to Q-Chem
     A Quantum Leap Into The Future Of Chemistry


 Q-Chem 5.3 (devel), Q-Chem, Inc., Pleasanton, CA (2020)

 Yihan Shao,  Zhengting Gan,  E. Epifanovsky,  A. T. B. Gilbert,  M. Wormit,  
 J. Kussmann,  A. W. Lange,  A. Behn,  Jia Deng,  Xintian Feng,  D. Ghosh,  
 M. Goldey,  P. R. Horn,  L. D. Jacobson,  I. Kaliman,  T. Kus,  A. Landau,  
 Jie Liu,  E. I. Proynov,  R. M. Richard,  R. P. Steele,  E. J. Sundstrom,  
 H. L. Woodcock III,  P. M. Zimmerman,  D. Zuev,  B. Alam,  B. Albrecht,  
 E. Alguire,  S. A. Baeppler,  D. Barton,  Z. Benda,  Y. A. Bernard,  
 E. J. Berquist,  K. B. Bravaya,  H. Burton,  K. Carter-Fenk,  D. Casanova,  
 Chun-Min Chang,  Yunqing Chen,  A. Chien,  K. D. Closser,  M. P. Coons,  
 S. Coriani,  S. Dasgupta,  A. L. Dempwolff,  M. Diedenhofen,  Hainam Do,  
 R. G. Edgar,  Po-Tung Fang,  S. Faraji,  S. Fatehi,  Qingguo Feng,  
 J. Fosso-Tande,  J. Gayvert,  Qinghui Ge,  A. Ghysels,  G. Gidofalvi,  
 J. Gomes,  J. Gonthier,  A. Gunina,  D. Hait,  M. W. D. Hanson-Heine,  
 P. H. P. Harbach,  A. W. Hauser,  M. F. Herbst,  J. E. Herr,  
 E. G. Hohenstein,  Z. C. Holden,  Kerwin Hui,  B. C. Huynh,  T.-C. Jagau,  
 Hyunjun Ji,  B. Kaduk,  K. Khistyaev,  Jaehoon Kim,  P. Klunzinger,  K. Koh,  
 D. Kosenkov,  L. Koulias,  T. Kowalczyk,  C. M. Krauter,  A. Kunitsa,  
 Ka Un Lao,  A. Laurent,  K. V. Lawler,  Joonho Lee,  D. Lefrancois,  
 S. Lehtola,  D. S. Levine,  Yi-Pei Li,  You-Sheng Lin,  Fenglai Liu,  
 Kuan-Yu Liu,  E. Livshits,  M. Loipersberger,  A. Luenser,  P. Manohar,  
 E. Mansoor,  S. F. Manzer,  Shan-Ping Mao,  Yuezhi Mao,  N. Mardirossian,  
 A. V. Marenich,  T. Markovich,  L. A. Martinez-Martinez,  S. A. Maurer,  
 N. J. Mayhall,  S. C. McKenzie,  J.-M. Mewes,  P. Morgante,  A. F. Morrison,  
 J. W. Mullinax,  K. Nanda,  T. S. Nguyen-Beck,  R. Olivares-Amaya,  
 K. J. Oosterbaan,  J. A. Parkhill,  S. K. Paul,  F. Pavosevic,  Zheng Pei,  
 T. M. Perrine,  F. Plasser,  P. Pokhilko,  S. Prager,  A. Prociuk,  
 E. Ramos,  B. Rana,  D. R. Rehn,  F. Rob,  M. Scheurer,  M. Schneider,  
 N. Sergueev,  S. M. Sharada,  S. Sharma,  D. W. Small,  T. Stauch,  
 C. J. Stein,  T. Stein,  Yu-Chuan Su,  S. P. Veccham,  Zhen Tao,  
 A. J. W. Thom,  A. Tkatchenko,  T. Tsuchimochi,  N. M. Tubman,  L. Vogt,  
 M. L. Vidal,  O. Vydrov,  M. A. Watson,  J. Wenzel,  M. de Wergifosse,  
 T. A. Wesolowski,  A. White,  J. Witte,  A. Yamada,  Jun Yang,  K. Yao,  
 S. Yeganeh,  S. R. Yost,  Zhi-Qiang You,  A. Zech,  Igor Ying Zhang,  
 Xing Zhang,  Yan Zhao,  Ying Zhu,  B. R. Brooks,  G. K. L. Chan,  
 C. J. Cramer,  M. S. Gordon,  W. J. Hehre,  A. Klamt,  M. W. Schmidt,  
 C. D. Sherrill,  D. G. Truhlar,  A. Aspuru-Guzik,  R. Baer,  A. T. Bell,  
 N. A. Besley,  Jeng-Da Chai,  A. E. DePrince, III,  R. A. DiStasio Jr.,  
 A. Dreuw,  B. D. Dunietz,  T. R. Furlani,  Chao-Ping Hsu,  Yousung Jung,  
 Jing Kong,  D. S. Lambrecht,  WanZhen Liang,  C. Ochsenfeld,  
 V. A. Rassolov,  L. V. Slipchenko,  J. E. Subotnik,  T. Van Voorhis,  
 J. M. Herbert,  A. I. Krylov,  P. M. W. Gill,  M. Head-Gordon

 Contributors to earlier versions of Q-Chem not listed above: 
 R. D. Adamson,  B. Austin,  J. Baker,  G. J. O. Beran,  K. Brandhorst,  
 S. T. Brown,  E. F. C. Byrd,  A. K. Chakraborty,  C.-L. Cheng,  
 Siu Hung Chien,  D. M. Chipman,  D. L. Crittenden,  H. Dachsel,  
 R. J. Doerksen,  A. D. Dutoi,  L. Fusti-Molnar,  W. A. Goddard III,  
 A. Golubeva-Zadorozhnaya,  S. R. Gwaltney,  G. Hawkins,  A. Heyden,  
 S. Hirata,  G. Kedziora,  F. J. Keil,  C. Kelley,  Jihan Kim,  R. A. King,  
 R. Z. Khaliullin,  P. P. Korambath,  W. Kurlancheek,  A. M. Lee,  M. S. Lee,  
 S. V. Levchenko,  Ching Yeh Lin,  D. Liotard,  R. C. Lochan,  I. Lotan,  
 P. E. Maslen,  N. Nair,  D. P. O'Neill,  D. Neuhauser,  E. Neuscamman,  
 C. M. Oana,  R. Olson,  B. Peters,  R. Peverati,  P. A. Pieniazek,  
 Y. M. Rhee,  J. Ritchie,  M. A. Rohrdanz,  E. Rosta,  N. J. Russ,  
 H. F. Schaefer III,  N. E. Schultz,  N. Shenvi,  A. C. Simmonett,  A. Sodt,  
 D. Stuck,  K. S. Thanthiriwatte,  V. Vanovschi,  Tao Wang,  A. Warshel,  
 C. F. Williams,  Q. Wu,  X. Xu,  W. Zhang

 Please cite Q-Chem as follows:
 Y. Shao et al., Mol. Phys. 113, 184-215 (2015)
 DOI: 10.1080/00268976.2014.952696

 Q-Chem 5.3.0 for Intel X86 EM64T Linux

 Parts of Q-Chem use Armadillo 9.800.1 (Horizon Scraper).
 http://arma.sourceforge.net/

 Q-Chem begins on Mon Jul 27 14:15:42 2020  

Host: centos77-c7
0

     Scratch files written to /tmp/29924.centos77-h1/qchem102218//
Processing $rem in /opt/qchem-5.3.0-intel2020u1//config/preferences:
Processing $rem in /home/shihchengli/.qchemrc:

Checking the input file for inconsistencies... 	...done.

--------------------------------------------------------------
User input:
--------------------------------------------------------------
$rem
   JOBTYPE  sp
   EXCHANGE   omegaB97X-D
   BASIS   6-311+G(2df,2pd)
   UNRESTRICTED   False
   max_scf_cycles   250
   geom_opt_max_cycles   1500
   basis2 6-31G*
   scf_algorithm rca_diis
   SYM_IGNORE  TRUE
   print_input   true
   geom_opt_dmax   80
   pop_mulliken false
   XC_GRID 000075000302
$end

$molecule
0 1
C       -5.3450643020     0.2375718234     0.1414205785
C       -4.0226688020     0.9104857105     0.4601398383
H       -5.9508977766     0.1402547048     1.0421381238
H       -5.1793389375     -0.7568294789     -0.2758641301
H       -5.9118320658     0.8161905153     -0.5914171817
O       -3.4278337984     1.5163491259     -0.6719593953
H       -3.3330509581     0.1930195873     0.9195892781
H       -4.1727819731     1.7174188625     1.1769768400
H       -3.2593413864     0.8427591492     -1.3307139514
$end
--------------------------------------------------------------
 ----------------------------------------------------------------
             Standard Nuclear Orientation (Angstroms)
    I     Atom           X                Y                Z
 ----------------------------------------------------------------
    1      C      -5.3450643020     0.2375718234     0.1414205785
    2      C      -4.0226688020     0.9104857105     0.4601398383
    3      H      -5.9508977766     0.1402547048     1.0421381238
    4      H      -5.1793389375    -0.7568294789    -0.2758641301
    5      H      -5.9118320658     0.8161905153    -0.5914171817
    6      O      -3.4278337984     1.5163491259    -0.6719593953
    7      H      -3.3330509581     0.1930195873     0.9195892781
    8      H      -4.1727819731     1.7174188625     1.1769768400
    9      H      -3.2593413864     0.8427591492    -1.3307139514
 ----------------------------------------------------------------
 Nuclear Repulsion Energy =          81.91358489 hartrees
 There are       13 alpha and       13 beta electrons
 Requested basis set is 6-311+G(2df,2pd)
 There are 60 shells and 186 basis functions

 Total QAlloc Memory Limit   2000 MB
 Mega-Array Size       188 MB
 MEM_STATIC part       192 MB

                       Distance Matrix (Angstroms)
             C (  1)   C (  2)   H (  3)   H (  4)   H (  5)   O (  6)
   C (  2)  1.517605
   H (  3)  1.089861  2.156396
   H (  4)  1.091066  2.158594  1.771212
   H (  5)  1.092280  2.164163  1.768309  1.763664
   O (  6)  2.443897  1.415114  3.346284  2.896895  2.582045
   H (  7)  2.157714  1.096095  2.621245  2.395851  3.053129  2.072007
   H (  8)  2.153270  1.089739  2.380614  3.040692  2.638887  2.003482
   H (  9)  2.623675  1.947925  3.656284  2.712523  2.753720  0.957116
             H (  7)   H (  8)
   H (  8)  1.759315
   H (  9)  2.343386  2.808543
 
 A cutoff of  1.0D-09 yielded   1787 shell pairs
 There are     17328 function pairs (     21515 Cartesian)
 Smallest overlap matrix eigenvalue = 1.31E-04

 Scale SEOQF with 1.000000e-02/1.000000e-01/1.000000e-01

 Standard Electronic Orientation quadrupole field applied
 Nucleus-field energy     =     0.0000000027 hartrees
 Requested basis set is 6-31G(d)
 There are 24 shells and 54 basis functions
 A cutoff of  1.0D-09 yielded    298 shell pairs
 There are      1549 function pairs (      1732 Cartesian)
 Smallest overlap matrix eigenvalue = 7.09E-03
 Guess from superposition of atomic densities
 Warning:  Energy on first SCF cycle will be non-variational
 SAD guess density has 26.000000 electrons
 Long-range K will be added via erf
 Coulomb attenuation parameter = 0.2 bohr**(-1)
 A restricted hybrid HF-DFT SCF calculation will be
 performed using Relaxed Constraint Minimization + Pulay DIIS
 Exchange:     0.2220 Hartree-Fock + 1.0000 wB97X-D + LR-HF
 Correlation:  1.0000 wB97X-D
 Using Euler-Maclaurin-Lebedev (75,302) quadrature formula
 Dispersion:   Grimme D
 SCF converges when DIIS error is below 1.0E-04
 using 6 threads for integral computing
 -------------------------------------------------------
 OpenMP Integral computing Module                
 Release: version 1.0, May 2013, Q-Chem Inc. Pittsburgh 
 -------------------------------------------------------
 using 6 threads for integral computing
 -------------------------------------------------------
 OpenMP Integral computing Module                
 Release: version 1.0, May 2013, Q-Chem Inc. Pittsburgh 
 -------------------------------------------------------
 ---------------------------------------
  Cycle       Energy         DIIS Error
 ---------------------------------------
    1    -155.4337305214      1.06E-01
    2    -154.9252939975      1.35E-02
    3    -154.9535565362      3.03E-03
    4    -154.9796128528      2.41E-03
    5    -154.9803415462      2.26E-04 Done RCA. Switching to DIIS
    6    -154.9811585868      1.03E-04
    7    -154.9811618626      7.57E-06 Convergence criterion met
 ---------------------------------------
 SCF time:  CPU 14.30 s  wall 2.40 s
 SCF   energy in the small basis set = -154.98116186
 Total energy in the small basis set = -154.98116186
 ----------------------------------------------------
  Cycle       Energy    
 ----------------------------------------------------
    1     -18.7524628877     -1.88E+01
 Long-range K will be added via erf
 Coulomb attenuation parameter = 0.2 bohr**(-1)
 A restricted hybrid HF-DFT SCF calculation will be
 performed using Relaxed Constraint Minimization + Pulay DIIS
 Exchange:     0.2220 Hartree-Fock + 1.0000 wB97X-D + LR-HF
 Correlation:  1.0000 wB97X-D
 Using Euler-Maclaurin-Lebedev (75,302) quadrature formula
 Dispersion:   Grimme D
 SCF converges when DIIS error is below 1.0E-05
 Basis2 calculation detected. Using small basis as guess for larger.
 SCFMinFind is unable to tell whether the solution found is close.
 Resetting ReadMinima to 0 and attempting to follow guess.
 SCFMinFind following SCF Guess.
 using 6 threads for integral computing
 -------------------------------------------------------
 OpenMP Integral computing Module                
 Release: version 1.0, May 2013, Q-Chem Inc. Pittsburgh 
 -------------------------------------------------------
 using 6 threads for integral computing
 -------------------------------------------------------
 OpenMP Integral computing Module                
 Release: version 1.0, May 2013, Q-Chem Inc. Pittsburgh 
 -------------------------------------------------------
 ---------------------------------------
  Cycle       Energy         DIIS Error
 ---------------------------------------
    1    -155.0125328547      5.72E-03
    2    -155.0280098338      2.86E-03
    3    -155.0376738287      3.48E-04 Done RCA. Switching to DIIS
    4    -155.0492724136      2.51E-04
    5    -155.0494613638      3.93E-05
    6    -155.0494692817      5.66E-06 Convergence criterion met
 ---------------------------------------
 SCF time:  CPU 38.91 s  wall 6.51 s
 SCF   energy in the final basis set = -155.04946928
 Total energy in the final basis set = -155.04946928
 
 --------------------------------------------------------------
 
                    Orbital Energies (a.u.)
 --------------------------------------------------------------
 
 Alpha MOs
 -- Occupied --
-19.2461 -10.3268 -10.2733  -1.1260  -0.8495  -0.7226  -0.5962  -0.5457
 -0.5229  -0.4682  -0.4590  -0.4104  -0.3626
 -- Virtual --
  0.0654   0.0874   0.0889   0.1023   0.1260   0.1343   0.1379   0.1799
  0.1915   0.2114   0.2434   0.2583   0.2623   0.2829   0.2907   0.3050
  0.3144   0.3326   0.3443   0.3915   0.4589   0.4857   0.5000   0.5288
  0.5650   0.5734   0.5816   0.6093   0.6150   0.6349   0.6640   0.6719
  0.6967   0.7142   0.7272   0.7940   0.8750   0.8928   0.9290   0.9515
  1.0165   1.0547   1.0683   1.0948   1.1429   1.1832   1.1919   1.2066
  1.2236   1.2491   1.2698   1.3023   1.3251   1.3597   1.3885   1.4006
  1.4476   1.4650   1.4755   1.4883   1.5066   1.5310   1.5911   1.6171
  1.6553   1.6938   1.9437   2.0375   2.0936   2.2521   2.2824   2.4259
  2.4565   2.5519   2.5689   2.5934   2.6822   2.8328   2.8463   2.8879
  2.9188   2.9683   3.0003   3.0161   3.0557   3.0702   3.0733   3.0929
  3.1090   3.1801   3.2039   3.2393   3.2639   3.2943   3.3241   3.3510
  3.3565   3.3956   3.4214   3.4581   3.5021   3.5650   3.5708   3.5821
  3.6002   3.6244   3.6524   3.7034   3.7258   3.7501   3.7858   3.8521
  3.9009   3.9041   3.9278   3.9540   3.9945   4.0370   4.0506   4.0721
  4.1058   4.1197   4.1364   4.1826   4.2236   4.2523   4.2728   4.3184
  4.3354   4.3935   4.4872   4.5245   4.5351   4.6062   4.7156   4.7958
  4.8750   4.9418   4.9554   4.9727   4.9914   5.0777   5.0995   5.1871
  5.2037   5.2580   5.2830   5.3020   5.3398   5.3560   5.4171   5.4751
  5.5237   5.5785   5.6839   5.8296   5.9409   6.0375   6.3455   6.3727
  6.4261   6.6562   6.7094   6.8242   7.1248   7.3495   7.4127   7.5512
  7.7224   8.1117  25.1446  25.4296  50.4654
 --------------------------------------------------------------
 
 -----------------------------------------------------------------
                    Cartesian Multipole Moments
 -----------------------------------------------------------------
    Charge (ESU x 10^10)
                 0.0000
    Dipole Moment (Debye)
         X      -0.4952      Y      -1.6638      Z       0.1992
       Tot       1.7473
    Quadrupole Moments (Debye-Ang)
        XX     -16.4539     XY       4.6469     YY     -24.2491
        XZ      -1.5123     YZ       2.0884     ZZ     -18.1635
    Octopole Moments (Debye-Ang^2)
       XXX     241.1806    XXY     -27.9201    XYY     100.2698
       YYY     -57.2482    XXZ       8.5103    XYZ      -7.9521
       YYZ       4.7182    XZZ      80.7851    YZZ     -15.6643
       ZZZ      -3.4810
    Hexadecapole Moments (Debye-Ang^3)
      XXXX   -2287.9624   XXXY     206.6604   XXYY    -464.1310
      XYYY     213.8954   YYYY    -161.2283   XXXZ     -31.5970
      XXYZ      32.2325   XYYZ     -12.9617   YYYZ      19.0797
      XXZZ    -385.4222   XYZZ      60.1491   YYZZ     -36.2106
      XZZZ      20.5855   YZZZ       6.8549   ZZZZ     -59.2395
 -----------------------------------------------------------------
Archival summary:
1\1\centos77-c7\SP\ProcedureUnspecified\BasisUnspecified\126\shihchen\MonJul2714:15:532020MonJul2714:15:532020\0\\#,ProcedureUnspecified,BasisUnspecified,\\0,1\C\H,1,1.08974\H,1,1.09609,2,107.195\O,1,1.41511,2,105.493,3,-117.852,0\H,4,0.957116,1,108.863,2,178.989,0\C,1,1.5176,2,110.27,3,120.028,0\H,6,1.08986,1,110.512,2,-39.7503,0\H,6,1.09107,1,110.615,2,-160.067,0\H,6,1.09228,1,110.987,2,80.3721,0\\\@

 Total job time:  11.08s(wall), 57.05s(cpu) 
 Mon Jul 27 14:15:53 2020

        *************************************************************
        *                                                           *
        *  Thank you very much for using Q-Chem.  Have a nice day.  *
        *                                                           *
        *************************************************************


