                  Welcome to Q-Chem
     A Quantum Leap Into The Future Of Chemistry


 Q-Chem 5.3 (devel), Q-Chem, Inc., Pleasanton, CA (2020)

 Yihan Shao,  Zhengting Gan,  E. Epifanovsky,  A. T. B. Gilbert,  M. Wormit,  
 J. Kussmann,  A. W. Lange,  A. Behn,  Jia Deng,  Xintian Feng,  D. Ghosh,  
 M. Goldey,  P. R. Horn,  L. D. Jacobson,  I. Kaliman,  T. Kus,  A. Landau,  
 Jie Liu,  E. I. Proynov,  R. M. Richard,  R. P. Steele,  E. J. Sundstrom,  
 H. L. Woodcock III,  P. M. Zimmerman,  D. Zuev,  B. Alam,  B. Albrecht,  
 E. Alguire,  S. A. Baeppler,  D. Barton,  Z. Benda,  Y. A. Bernard,  
 E. J. Berquist,  K. B. Bravaya,  H. Burton,  K. Carter-Fenk,  D. Casanova,  
 Chun-Min Chang,  Yunqing Chen,  A. Chien,  K. D. Closser,  M. P. Coons,  
 S. Coriani,  S. Dasgupta,  A. L. Dempwolff,  M. Diedenhofen,  Hainam Do,  
 R. G. Edgar,  Po-Tung Fang,  S. Faraji,  S. Fatehi,  Qingguo Feng,  
 J. Fosso-Tande,  J. Gayvert,  Qinghui Ge,  A. Ghysels,  G. Gidofalvi,  
 J. Gomes,  J. Gonthier,  A. Gunina,  D. Hait,  M. W. D. Hanson-Heine,  
 P. H. P. Harbach,  A. W. Hauser,  M. F. Herbst,  J. E. Herr,  
 E. G. Hohenstein,  Z. C. Holden,  Kerwin Hui,  B. C. Huynh,  T.-C. Jagau,  
 Hyunjun Ji,  B. Kaduk,  K. Khistyaev,  Jaehoon Kim,  P. Klunzinger,  K. Koh,  
 D. Kosenkov,  L. Koulias,  T. Kowalczyk,  C. M. Krauter,  A. Kunitsa,  
 Ka Un Lao,  A. Laurent,  K. V. Lawler,  Joonho Lee,  D. Lefrancois,  
 S. Lehtola,  D. S. Levine,  Yi-Pei Li,  You-Sheng Lin,  Fenglai Liu,  
 Kuan-Yu Liu,  E. Livshits,  M. Loipersberger,  A. Luenser,  P. Manohar,  
 E. Mansoor,  S. F. Manzer,  Shan-Ping Mao,  Yuezhi Mao,  N. Mardirossian,  
 A. V. Marenich,  T. Markovich,  L. A. Martinez-Martinez,  S. A. Maurer,  
 N. J. Mayhall,  S. C. McKenzie,  J.-M. Mewes,  P. Morgante,  A. F. Morrison,  
 J. W. Mullinax,  K. Nanda,  T. S. Nguyen-Beck,  R. Olivares-Amaya,  
 K. J. Oosterbaan,  J. A. Parkhill,  S. K. Paul,  F. Pavosevic,  Zheng Pei,  
 T. M. Perrine,  F. Plasser,  P. Pokhilko,  S. Prager,  A. Prociuk,  
 E. Ramos,  B. Rana,  D. R. Rehn,  F. Rob,  M. Scheurer,  M. Schneider,  
 N. Sergueev,  S. M. Sharada,  S. Sharma,  D. W. Small,  T. Stauch,  
 C. J. Stein,  T. Stein,  Yu-Chuan Su,  S. P. Veccham,  Zhen Tao,  
 A. J. W. Thom,  A. Tkatchenko,  T. Tsuchimochi,  N. M. Tubman,  L. Vogt,  
 M. L. Vidal,  O. Vydrov,  M. A. Watson,  J. Wenzel,  M. de Wergifosse,  
 T. A. Wesolowski,  A. White,  J. Witte,  A. Yamada,  Jun Yang,  K. Yao,  
 S. Yeganeh,  S. R. Yost,  Zhi-Qiang You,  A. Zech,  Igor Ying Zhang,  
 Xing Zhang,  Yan Zhao,  Ying Zhu,  B. R. Brooks,  G. K. L. Chan,  
 C. J. Cramer,  M. S. Gordon,  W. J. Hehre,  A. Klamt,  M. W. Schmidt,  
 C. D. Sherrill,  D. G. Truhlar,  A. Aspuru-Guzik,  R. Baer,  A. T. Bell,  
 N. A. Besley,  Jeng-Da Chai,  A. E. DePrince, III,  R. A. DiStasio Jr.,  
 A. Dreuw,  B. D. Dunietz,  T. R. Furlani,  Chao-Ping Hsu,  Yousung Jung,  
 Jing Kong,  D. S. Lambrecht,  WanZhen Liang,  C. Ochsenfeld,  
 V. A. Rassolov,  L. V. Slipchenko,  J. E. Subotnik,  T. Van Voorhis,  
 J. M. Herbert,  A. I. Krylov,  P. M. W. Gill,  M. Head-Gordon

 Contributors to earlier versions of Q-Chem not listed above: 
 R. D. Adamson,  B. Austin,  J. Baker,  G. J. O. Beran,  K. Brandhorst,  
 S. T. Brown,  E. F. C. Byrd,  A. K. Chakraborty,  C.-L. Cheng,  
 Siu Hung Chien,  D. M. Chipman,  D. L. Crittenden,  H. Dachsel,  
 R. J. Doerksen,  A. D. Dutoi,  L. Fusti-Molnar,  W. A. Goddard III,  
 A. Golubeva-Zadorozhnaya,  S. R. Gwaltney,  G. Hawkins,  A. Heyden,  
 S. Hirata,  G. Kedziora,  F. J. Keil,  C. Kelley,  Jihan Kim,  R. A. King,  
 R. Z. Khaliullin,  P. P. Korambath,  W. Kurlancheek,  A. M. Lee,  M. S. Lee,  
 S. V. Levchenko,  Ching Yeh Lin,  D. Liotard,  R. C. Lochan,  I. Lotan,  
 P. E. Maslen,  N. Nair,  D. P. O'Neill,  D. Neuhauser,  E. Neuscamman,  
 C. M. Oana,  R. Olson,  B. Peters,  R. Peverati,  P. A. Pieniazek,  
 Y. M. Rhee,  J. Ritchie,  M. A. Rohrdanz,  E. Rosta,  N. J. Russ,  
 H. F. Schaefer III,  N. E. Schultz,  N. Shenvi,  A. C. Simmonett,  A. Sodt,  
 D. Stuck,  K. S. Thanthiriwatte,  V. Vanovschi,  Tao Wang,  A. Warshel,  
 C. F. Williams,  Q. Wu,  X. Xu,  W. Zhang

 Please cite Q-Chem as follows:
 Y. Shao et al., Mol. Phys. 113, 184-215 (2015)
 DOI: 10.1080/00268976.2014.952696

 Q-Chem 5.3.0 for Intel X86 EM64T Linux

 Parts of Q-Chem use Armadillo 9.800.1 (Horizon Scraper).
 http://arma.sourceforge.net/

 Q-Chem begins on Mon Jul 27 14:18:20 2020  

Host: centos77-c7
0

     Scratch files written to /tmp/29924.centos77-h1/qchem102915//
Processing $rem in /opt/qchem-5.3.0-intel2020u1//config/preferences:
Processing $rem in /home/shihchengli/.qchemrc:

Checking the input file for inconsistencies... 	...done.

--------------------------------------------------------------
User input:
--------------------------------------------------------------
$rem
   JOBTYPE  sp
   EXCHANGE   omegaB97X-D
   BASIS   6-311+G(2df,2pd)
   UNRESTRICTED   False
   max_scf_cycles   250
   geom_opt_max_cycles   1500
   basis2 6-31G*
   scf_algorithm rca_diis
   SYM_IGNORE  TRUE
   print_input   true
   geom_opt_dmax   80
   pop_mulliken false
   XC_GRID 000075000302
$end

$molecule
0 1
C       -5.3389623413     0.3052119212     0.0551985675
C       -4.1279634974     1.2144277182     0.1548648049
H       -5.4011758027     -0.1405501890     -0.9373852038
H       -6.2562614030     0.8651299174     0.2435589760
H       -5.2841427978     -0.5013059717     0.7897733954
O       -2.9141299899     0.5458168013     -0.1316932034
H       -4.0852539246     1.6820359331     1.1452902924
H       -4.1977663898     2.0179006555     -0.5779988646
H       -2.9971538535     -0.3714467861     0.1287012356
$end
--------------------------------------------------------------
 ----------------------------------------------------------------
             Standard Nuclear Orientation (Angstroms)
    I     Atom           X                Y                Z
 ----------------------------------------------------------------
    1      C      -5.3389623413     0.3052119212     0.0551985675
    2      C      -4.1279634974     1.2144277182     0.1548648049
    3      H      -5.4011758027    -0.1405501890    -0.9373852038
    4      H      -6.2562614030     0.8651299174     0.2435589760
    5      H      -5.2841427978    -0.5013059717     0.7897733954
    6      O      -2.9141299899     0.5458168013    -0.1316932034
    7      H      -4.0852539246     1.6820359331     1.1452902924
    8      H      -4.1977663898     2.0179006555    -0.5779988646
    9      H      -2.9971538535    -0.3714467861     0.1287012356
 ----------------------------------------------------------------
 Nuclear Repulsion Energy =          82.02499650 hartrees
 There are       13 alpha and       13 beta electrons
 Requested basis set is 6-311+G(2df,2pd)
 There are 60 shells and 186 basis functions

 Total QAlloc Memory Limit   2000 MB
 Mega-Array Size       188 MB
 MEM_STATIC part       192 MB

                       Distance Matrix (Angstroms)
             C (  1)   C (  2)   H (  3)   H (  4)   H (  5)   O (  6)
   C (  2)  1.517605
   H (  3)  1.089861  2.156396
   H (  4)  1.091066  2.158594  1.771212
   H (  5)  1.092280  2.164163  1.768309  1.763664
   O (  6)  2.443897  1.415114  2.702894  3.378257  2.750005
   H (  7)  2.157714  1.096095  3.064475  2.488720  2.516090  2.072007
   H (  8)  2.153270  1.089739  2.497251  2.498247  3.065521  2.003482
   H (  9)  2.438716  1.947925  2.639920  3.487706  2.384156  0.957116
             H (  7)   H (  8)
   H (  8)  1.759315
   H (  9)  2.536574  2.765841
 
 A cutoff of  1.0D-09 yielded   1788 shell pairs
 There are     17342 function pairs (     21538 Cartesian)
 Smallest overlap matrix eigenvalue = 1.27E-04

 Scale SEOQF with 1.000000e-02/1.000000e-01/1.000000e-01

 Standard Electronic Orientation quadrupole field applied
 Nucleus-field energy     =     0.0000000028 hartrees
 Requested basis set is 6-31G(d)
 There are 24 shells and 54 basis functions
 A cutoff of  1.0D-09 yielded    298 shell pairs
 There are      1549 function pairs (      1732 Cartesian)
 Smallest overlap matrix eigenvalue = 7.23E-03
 Guess from superposition of atomic densities
 Warning:  Energy on first SCF cycle will be non-variational
 SAD guess density has 26.000000 electrons
 Long-range K will be added via erf
 Coulomb attenuation parameter = 0.2 bohr**(-1)
 A restricted hybrid HF-DFT SCF calculation will be
 performed using Relaxed Constraint Minimization + Pulay DIIS
 Exchange:     0.2220 Hartree-Fock + 1.0000 wB97X-D + LR-HF
 Correlation:  1.0000 wB97X-D
 Using Euler-Maclaurin-Lebedev (75,302) quadrature formula
 Dispersion:   Grimme D
 SCF converges when DIIS error is below 1.0E-04
 using 6 threads for integral computing
 -------------------------------------------------------
 OpenMP Integral computing Module                
 Release: version 1.0, May 2013, Q-Chem Inc. Pittsburgh 
 -------------------------------------------------------
 using 6 threads for integral computing
 -------------------------------------------------------
 OpenMP Integral computing Module                
 Release: version 1.0, May 2013, Q-Chem Inc. Pittsburgh 
 -------------------------------------------------------
 ---------------------------------------
  Cycle       Energy         DIIS Error
 ---------------------------------------
    1    -155.4381573075      1.06E-01
    2    -154.9259487213      1.35E-02
    3    -154.9539610926      3.04E-03
    4    -154.9799181412      2.40E-03
    5    -154.9806433416      2.28E-04 Done RCA. Switching to DIIS
    6    -154.9814549107      9.70E-05 Convergence criterion met
 ---------------------------------------
 SCF time:  CPU 13.02 s  wall 2.19 s
 SCF   energy in the small basis set = -154.98145491
 Total energy in the small basis set = -154.98145491
 ----------------------------------------------------
  Cycle       Energy    
 ----------------------------------------------------
    1     -18.7522155472     -1.88E+01
 Long-range K will be added via erf
 Coulomb attenuation parameter = 0.2 bohr**(-1)
 A restricted hybrid HF-DFT SCF calculation will be
 performed using Relaxed Constraint Minimization + Pulay DIIS
 Exchange:     0.2220 Hartree-Fock + 1.0000 wB97X-D + LR-HF
 Correlation:  1.0000 wB97X-D
 Using Euler-Maclaurin-Lebedev (75,302) quadrature formula
 Dispersion:   Grimme D
 SCF converges when DIIS error is below 1.0E-05
 Basis2 calculation detected. Using small basis as guess for larger.
 SCFMinFind is unable to tell whether the solution found is close.
 Resetting ReadMinima to 0 and attempting to follow guess.
 SCFMinFind following SCF Guess.
 using 6 threads for integral computing
 -------------------------------------------------------
 OpenMP Integral computing Module                
 Release: version 1.0, May 2013, Q-Chem Inc. Pittsburgh 
 -------------------------------------------------------
 using 6 threads for integral computing
 -------------------------------------------------------
 OpenMP Integral computing Module                
 Release: version 1.0, May 2013, Q-Chem Inc. Pittsburgh 
 -------------------------------------------------------
 ---------------------------------------
  Cycle       Energy         DIIS Error
 ---------------------------------------
    1    -155.0131751938      5.72E-03
    2    -155.0286362952      2.86E-03
    3    -155.0382669833      3.48E-04 Done RCA. Switching to DIIS
    4    -155.0498203311      2.51E-04
    5    -155.0500073988      3.89E-05
    6    -155.0500149585      5.50E-06 Convergence criterion met
 ---------------------------------------
 SCF time:  CPU 39.26 s  wall 6.57 s
 SCF   energy in the final basis set = -155.05001496
 Total energy in the final basis set = -155.05001496
 
 --------------------------------------------------------------
 
                    Orbital Energies (a.u.)
 --------------------------------------------------------------
 
 Alpha MOs
 -- Occupied --
-19.2451 -10.3270 -10.2795  -1.1256  -0.8514  -0.7275  -0.5843  -0.5500
 -0.5364  -0.4663  -0.4602  -0.4152  -0.3604
 -- Virtual --
  0.0656   0.0868   0.0902   0.1003   0.1269   0.1344   0.1367   0.1777
  0.1887   0.2157   0.2402   0.2478   0.2656   0.2818   0.2892   0.3098
  0.3162   0.3345   0.3397   0.3860   0.4587   0.4864   0.5038   0.5279
  0.5608   0.5679   0.5762   0.6087   0.6124   0.6288   0.6585   0.6818
  0.6891   0.7112   0.7418   0.7950   0.8677   0.9008   0.9344   0.9483
  0.9815   1.0481   1.0935   1.1048   1.1503   1.1671   1.1791   1.2080
  1.2304   1.2343   1.2513   1.2872   1.3290   1.3625   1.3766   1.4119
  1.4551   1.4687   1.4718   1.4890   1.5037   1.5370   1.6023   1.6166
  1.6407   1.7324   1.9377   2.0741   2.1146   2.2594   2.2927   2.4582
  2.4673   2.4989   2.5751   2.5959   2.7113   2.7915   2.8469   2.8796
  2.9122   2.9690   3.0145   3.0220   3.0317   3.0470   3.0631   3.0799
  3.1185   3.1527   3.2184   3.2658   3.2771   3.3011   3.3137   3.3394
  3.3732   3.3945   3.4196   3.4507   3.4887   3.5701   3.5740   3.5943
  3.6112   3.6364   3.6611   3.7178   3.7293   3.7621   3.7760   3.8339
  3.9114   3.9226   3.9341   3.9620   3.9906   4.0216   4.0366   4.0472
  4.0891   4.1128   4.1462   4.2033   4.2115   4.2387   4.2730   4.3213
  4.3669   4.3992   4.4657   4.5213   4.5375   4.6401   4.7129   4.8065
  4.8574   4.9132   4.9598   4.9788   5.0070   5.0488   5.0712   5.2201
  5.2360   5.2494   5.2931   5.3106   5.3375   5.3591   5.4191   5.4803
  5.5256   5.6523   5.6998   5.8245   5.9296   6.0291   6.3566   6.3806
  6.4096   6.6517   6.7078   6.7962   7.1264   7.3671   7.4321   7.5681
  7.7261   8.1250  25.1751  25.4353  50.4646
 --------------------------------------------------------------
 
 -----------------------------------------------------------------
                    Cartesian Multipole Moments
 -----------------------------------------------------------------
    Charge (ESU x 10^10)
                 0.0000
    Dipole Moment (Debye)
         X      -1.6051      Y      -0.7146      Z       0.6473
       Tot       1.8724
    Quadrupole Moments (Debye-Ang)
        XX      -9.4042     XY       0.3083     YY     -18.6623
        XZ      -1.8632     YZ      -0.0682     ZZ     -20.1606
    Octopole Moments (Debye-Ang^2)
       XXX     200.2406    XXY      -6.8000    XYY      79.0387
       YYY     -38.2648    XXZ       4.4291    XYZ       0.2705
       YYZ      -1.0401    XZZ      84.8207    YZZ     -13.3029
       ZZZ      -2.5588
    Hexadecapole Moments (Debye-Ang^3)
      XXXX   -2054.4637   XXXY     107.5609   XXYY    -379.5054
      XYYY     155.1187   YYYY    -110.1430   XXXZ      -1.1585
      XXYZ      -1.7086   XYYZ       5.4196   YYYZ      -5.2692
      XXZZ    -390.1371   XYZZ      54.4938   YYZZ     -23.3671
      XZZZ      15.7189   YZZZ      -3.1154   ZZZZ     -35.8399
 -----------------------------------------------------------------
Archival summary:
1\1\centos77-c7\SP\ProcedureUnspecified\BasisUnspecified\126\shihchen\MonJul2714:18:302020MonJul2714:18:302020\0\\#,ProcedureUnspecified,BasisUnspecified,\\0,1\C\H,1,1.08974\H,1,1.09609,2,107.195\O,1,1.41511,2,105.493,3,-117.852,0\H,4,0.957116,1,108.863,2,-151.011,0\C,1,1.5176,2,110.27,3,120.028,0\H,6,1.08986,1,110.512,2,60.2497,0\H,6,1.09107,1,110.615,2,-60.0673,0\H,6,1.09228,1,110.987,2,-179.628,0\\\@

 Total job time:  10.93s(wall), 56.15s(cpu) 
 Mon Jul 27 14:18:30 2020

        *************************************************************
        *                                                           *
        *  Thank you very much for using Q-Chem.  Have a nice day.  *
        *                                                           *
        *************************************************************


