                  Welcome to Q-Chem
     A Quantum Leap Into The Future Of Chemistry


 Q-Chem 5.3 (devel), Q-Chem, Inc., Pleasanton, CA (2020)

 Yihan Shao,  Zhengting Gan,  E. Epifanovsky,  A. T. B. Gilbert,  M. Wormit,  
 J. Kussmann,  A. W. Lange,  A. Behn,  Jia Deng,  Xintian Feng,  D. Ghosh,  
 M. Goldey,  P. R. Horn,  L. D. Jacobson,  I. Kaliman,  T. Kus,  A. Landau,  
 Jie Liu,  E. I. Proynov,  R. M. Richard,  R. P. Steele,  E. J. Sundstrom,  
 H. L. Woodcock III,  P. M. Zimmerman,  D. Zuev,  B. Alam,  B. Albrecht,  
 E. Alguire,  S. A. Baeppler,  D. Barton,  Z. Benda,  Y. A. Bernard,  
 E. J. Berquist,  K. B. Bravaya,  H. Burton,  K. Carter-Fenk,  D. Casanova,  
 Chun-Min Chang,  Yunqing Chen,  A. Chien,  K. D. Closser,  M. P. Coons,  
 S. Coriani,  S. Dasgupta,  A. L. Dempwolff,  M. Diedenhofen,  Hainam Do,  
 R. G. Edgar,  Po-Tung Fang,  S. Faraji,  S. Fatehi,  Qingguo Feng,  
 J. Fosso-Tande,  J. Gayvert,  Qinghui Ge,  A. Ghysels,  G. Gidofalvi,  
 J. Gomes,  J. Gonthier,  A. Gunina,  D. Hait,  M. W. D. Hanson-Heine,  
 P. H. P. Harbach,  A. W. Hauser,  M. F. Herbst,  J. E. Herr,  
 E. G. Hohenstein,  Z. C. Holden,  Kerwin Hui,  B. C. Huynh,  T.-C. Jagau,  
 Hyunjun Ji,  B. Kaduk,  K. Khistyaev,  Jaehoon Kim,  P. Klunzinger,  K. Koh,  
 D. Kosenkov,  L. Koulias,  T. Kowalczyk,  C. M. Krauter,  A. Kunitsa,  
 Ka Un Lao,  A. Laurent,  K. V. Lawler,  Joonho Lee,  D. Lefrancois,  
 S. Lehtola,  D. S. Levine,  Yi-Pei Li,  You-Sheng Lin,  Fenglai Liu,  
 Kuan-Yu Liu,  E. Livshits,  M. Loipersberger,  A. Luenser,  P. Manohar,  
 E. Mansoor,  S. F. Manzer,  Shan-Ping Mao,  Yuezhi Mao,  N. Mardirossian,  
 A. V. Marenich,  T. Markovich,  L. A. Martinez-Martinez,  S. A. Maurer,  
 N. J. Mayhall,  S. C. McKenzie,  J.-M. Mewes,  P. Morgante,  A. F. Morrison,  
 J. W. Mullinax,  K. Nanda,  T. S. Nguyen-Beck,  R. Olivares-Amaya,  
 K. J. Oosterbaan,  J. A. Parkhill,  S. K. Paul,  F. Pavosevic,  Zheng Pei,  
 T. M. Perrine,  F. Plasser,  P. Pokhilko,  S. Prager,  A. Prociuk,  
 E. Ramos,  B. Rana,  D. R. Rehn,  F. Rob,  M. Scheurer,  M. Schneider,  
 N. Sergueev,  S. M. Sharada,  S. Sharma,  D. W. Small,  T. Stauch,  
 C. J. Stein,  T. Stein,  Yu-Chuan Su,  S. P. Veccham,  Zhen Tao,  
 A. J. W. Thom,  A. Tkatchenko,  T. Tsuchimochi,  N. M. Tubman,  L. Vogt,  
 M. L. Vidal,  O. Vydrov,  M. A. Watson,  J. Wenzel,  M. de Wergifosse,  
 T. A. Wesolowski,  A. White,  J. Witte,  A. Yamada,  Jun Yang,  K. Yao,  
 S. Yeganeh,  S. R. Yost,  Zhi-Qiang You,  A. Zech,  Igor Ying Zhang,  
 Xing Zhang,  Yan Zhao,  Ying Zhu,  B. R. Brooks,  G. K. L. Chan,  
 C. J. Cramer,  M. S. Gordon,  W. J. Hehre,  A. Klamt,  M. W. Schmidt,  
 C. D. Sherrill,  D. G. Truhlar,  A. Aspuru-Guzik,  R. Baer,  A. T. Bell,  
 N. A. Besley,  Jeng-Da Chai,  A. E. DePrince, III,  R. A. DiStasio Jr.,  
 A. Dreuw,  B. D. Dunietz,  T. R. Furlani,  Chao-Ping Hsu,  Yousung Jung,  
 Jing Kong,  D. S. Lambrecht,  WanZhen Liang,  C. Ochsenfeld,  
 V. A. Rassolov,  L. V. Slipchenko,  J. E. Subotnik,  T. Van Voorhis,  
 J. M. Herbert,  A. I. Krylov,  P. M. W. Gill,  M. Head-Gordon

 Contributors to earlier versions of Q-Chem not listed above: 
 R. D. Adamson,  B. Austin,  J. Baker,  G. J. O. Beran,  K. Brandhorst,  
 S. T. Brown,  E. F. C. Byrd,  A. K. Chakraborty,  C.-L. Cheng,  
 Siu Hung Chien,  D. M. Chipman,  D. L. Crittenden,  H. Dachsel,  
 R. J. Doerksen,  A. D. Dutoi,  L. Fusti-Molnar,  W. A. Goddard III,  
 A. Golubeva-Zadorozhnaya,  S. R. Gwaltney,  G. Hawkins,  A. Heyden,  
 S. Hirata,  G. Kedziora,  F. J. Keil,  C. Kelley,  Jihan Kim,  R. A. King,  
 R. Z. Khaliullin,  P. P. Korambath,  W. Kurlancheek,  A. M. Lee,  M. S. Lee,  
 S. V. Levchenko,  Ching Yeh Lin,  D. Liotard,  R. C. Lochan,  I. Lotan,  
 P. E. Maslen,  N. Nair,  D. P. O'Neill,  D. Neuhauser,  E. Neuscamman,  
 C. M. Oana,  R. Olson,  B. Peters,  R. Peverati,  P. A. Pieniazek,  
 Y. M. Rhee,  J. Ritchie,  M. A. Rohrdanz,  E. Rosta,  N. J. Russ,  
 H. F. Schaefer III,  N. E. Schultz,  N. Shenvi,  A. C. Simmonett,  A. Sodt,  
 D. Stuck,  K. S. Thanthiriwatte,  V. Vanovschi,  Tao Wang,  A. Warshel,  
 C. F. Williams,  Q. Wu,  X. Xu,  W. Zhang

 Please cite Q-Chem as follows:
 Y. Shao et al., Mol. Phys. 113, 184-215 (2015)
 DOI: 10.1080/00268976.2014.952696

 Q-Chem 5.3.0 for Intel X86 EM64T Linux

 Parts of Q-Chem use Armadillo 9.800.1 (Horizon Scraper).
 http://arma.sourceforge.net/

 Q-Chem begins on Mon Jul 27 14:22:23 2020  

Host: centos77-c7
0

     Scratch files written to /tmp/29924.centos77-h1/qchem103907//
Processing $rem in /opt/qchem-5.3.0-intel2020u1//config/preferences:
Processing $rem in /home/shihchengli/.qchemrc:

Checking the input file for inconsistencies... 	...done.

--------------------------------------------------------------
User input:
--------------------------------------------------------------
$rem
   JOBTYPE  sp
   EXCHANGE   omegaB97X-D
   BASIS   6-311+G(2df,2pd)
   UNRESTRICTED   False
   max_scf_cycles   250
   geom_opt_max_cycles   1500
   basis2 6-31G*
   scf_algorithm rca_diis
   SYM_IGNORE  TRUE
   print_input   true
   geom_opt_dmax   80
   pop_mulliken false
   XC_GRID 000075000302
$end

$molecule
0 1
C       -5.4937729042     0.2945818355     0.1717279899
C       -4.1539049263     0.9999334473     0.0699545643
H       -5.6724456888     -0.3154182020     -0.7135815080
H       -6.3036569154     1.0198251714     0.2641150388
H       -5.5277024782     -0.3561927992     1.0483223262
O       -3.0729167833     0.1032140615     -0.1029812970
H       -3.9912252594     1.6338148290     0.9492462771
H       -4.1351465472     1.6504866366     -0.8040929367
H       -2.2520384971     0.5869750199     -0.0124004545
$end
--------------------------------------------------------------
 ----------------------------------------------------------------
             Standard Nuclear Orientation (Angstroms)
    I     Atom           X                Y                Z
 ----------------------------------------------------------------
    1      C      -5.4937729042     0.2945818355     0.1717279899
    2      C      -4.1539049263     0.9999334473     0.0699545643
    3      H      -5.6724456888    -0.3154182020    -0.7135815080
    4      H      -6.3036569154     1.0198251714     0.2641150388
    5      H      -5.5277024782    -0.3561927992     1.0483223262
    6      O      -3.0729167833     0.1032140615    -0.1029812970
    7      H      -3.9912252594     1.6338148290     0.9492462771
    8      H      -4.1351465472     1.6504866366    -0.8040929367
    9      H      -2.2520384971     0.5869750199    -0.0124004545
 ----------------------------------------------------------------
 Nuclear Repulsion Energy =          81.61297033 hartrees
 There are       13 alpha and       13 beta electrons
 Requested basis set is 6-311+G(2df,2pd)
 There are 60 shells and 186 basis functions

 Total QAlloc Memory Limit   2000 MB
 Mega-Array Size       188 MB
 MEM_STATIC part       192 MB

                       Distance Matrix (Angstroms)
             C (  1)   C (  2)   H (  3)   H (  4)   H (  5)   O (  6)
   C (  2)  1.517605
   H (  3)  1.089861  2.156396
   H (  4)  1.091066  2.158594  1.771212
   H (  5)  1.092280  2.164163  1.768309  1.763664
   O (  6)  2.443897  1.415114  2.702894  3.378257  2.750005
   H (  7)  2.157714  1.096095  3.064475  2.488720  2.516090  2.072007
   H (  8)  2.153270  1.089739  2.497251  2.498247  3.065521  2.003482
   H (  9)  3.260098  1.947925  3.606266  4.084046  3.569968  0.957116
             H (  7)   H (  8)
   H (  8)  1.759315
   H (  9)  2.246199  2.303026
 
 A cutoff of  1.0D-09 yielded   1761 shell pairs
 There are     17090 function pairs (     21228 Cartesian)
 Smallest overlap matrix eigenvalue = 1.18E-04

 Scale SEOQF with 1.000000e-02/1.000000e-01/1.000000e-01

 Standard Electronic Orientation quadrupole field applied
 Nucleus-field energy     =     0.0000000024 hartrees
 Requested basis set is 6-31G(d)
 There are 24 shells and 54 basis functions
 A cutoff of  1.0D-09 yielded    296 shell pairs
 There are      1547 function pairs (      1730 Cartesian)
 Smallest overlap matrix eigenvalue = 7.27E-03
 Guess from superposition of atomic densities
 Warning:  Energy on first SCF cycle will be non-variational
 SAD guess density has 26.000000 electrons
 Long-range K will be added via erf
 Coulomb attenuation parameter = 0.2 bohr**(-1)
 A restricted hybrid HF-DFT SCF calculation will be
 performed using Relaxed Constraint Minimization + Pulay DIIS
 Exchange:     0.2220 Hartree-Fock + 1.0000 wB97X-D + LR-HF
 Correlation:  1.0000 wB97X-D
 Using Euler-Maclaurin-Lebedev (75,302) quadrature formula
 Dispersion:   Grimme D
 SCF converges when DIIS error is below 1.0E-04
 using 6 threads for integral computing
 -------------------------------------------------------
 OpenMP Integral computing Module                
 Release: version 1.0, May 2013, Q-Chem Inc. Pittsburgh 
 -------------------------------------------------------
 using 6 threads for integral computing
 -------------------------------------------------------
 OpenMP Integral computing Module                
 Release: version 1.0, May 2013, Q-Chem Inc. Pittsburgh 
 -------------------------------------------------------
 ---------------------------------------
  Cycle       Energy         DIIS Error
 ---------------------------------------
    1    -155.4308830834      1.06E-01
    2    -154.9225216664      1.37E-02
    3    -154.9512776761      2.90E-03
    4    -154.9787499989      2.12E-03
    5    -154.9793212545      2.09E-04 Done RCA. Switching to DIIS
    6    -154.9799571436      6.92E-05 Convergence criterion met
 ---------------------------------------
 SCF time:  CPU 12.85 s  wall 2.15 s
 SCF   energy in the small basis set = -154.97995714
 Total energy in the small basis set = -154.97995714
 ----------------------------------------------------
  Cycle       Energy    
 ----------------------------------------------------
    1     -18.7511038250     -1.88E+01
 Long-range K will be added via erf
 Coulomb attenuation parameter = 0.2 bohr**(-1)
 A restricted hybrid HF-DFT SCF calculation will be
 performed using Relaxed Constraint Minimization + Pulay DIIS
 Exchange:     0.2220 Hartree-Fock + 1.0000 wB97X-D + LR-HF
 Correlation:  1.0000 wB97X-D
 Using Euler-Maclaurin-Lebedev (75,302) quadrature formula
 Dispersion:   Grimme D
 SCF converges when DIIS error is below 1.0E-05
 Basis2 calculation detected. Using small basis as guess for larger.
 SCFMinFind is unable to tell whether the solution found is close.
 Resetting ReadMinima to 0 and attempting to follow guess.
 SCFMinFind following SCF Guess.
 using 6 threads for integral computing
 -------------------------------------------------------
 OpenMP Integral computing Module                
 Release: version 1.0, May 2013, Q-Chem Inc. Pittsburgh 
 -------------------------------------------------------
 using 6 threads for integral computing
 -------------------------------------------------------
 OpenMP Integral computing Module                
 Release: version 1.0, May 2013, Q-Chem Inc. Pittsburgh 
 -------------------------------------------------------
 ---------------------------------------
  Cycle       Energy         DIIS Error
 ---------------------------------------
    1    -155.0117523040      5.73E-03
    2    -155.0267502072      2.91E-03
    3    -155.0368039460      3.49E-04 Done RCA. Switching to DIIS
    4    -155.0488558768      2.59E-04
    5    -155.0490527507      3.89E-05
    6    -155.0490599235      6.13E-06 Convergence criterion met
 ---------------------------------------
 SCF time:  CPU 38.37 s  wall 6.42 s
 SCF   energy in the final basis set = -155.04905992
 Total energy in the final basis set = -155.04905992
 
 --------------------------------------------------------------
 
                    Orbital Energies (a.u.)
 --------------------------------------------------------------
 
 Alpha MOs
 -- Occupied --
-19.2449 -10.3271 -10.2719  -1.1253  -0.8499  -0.7093  -0.6092  -0.5559
 -0.4948  -0.4734  -0.4541  -0.4156  -0.3572
 -- Virtual --
  0.0630   0.0821   0.0994   0.1021   0.1275   0.1334   0.1364   0.1824
  0.2123   0.2292   0.2386   0.2442   0.2516   0.2877   0.2941   0.3076
  0.3150   0.3214   0.3650   0.4054   0.4665   0.4950   0.5086   0.5166
  0.5612   0.5827   0.5862   0.5981   0.6131   0.6557   0.6630   0.6676
  0.6954   0.7190   0.7718   0.8151   0.8644   0.8718   0.9320   0.9481
  0.9595   1.0643   1.0947   1.1051   1.1292   1.1678   1.1832   1.2195
  1.2292   1.2401   1.2482   1.3078   1.3396   1.3533   1.3691   1.4153
  1.4522   1.4634   1.4676   1.4866   1.5275   1.5503   1.5860   1.6223
  1.6507   1.7503   1.9347   2.0646   2.1222   2.2540   2.3542   2.4490
  2.4786   2.5277   2.5522   2.5760   2.7266   2.8092   2.8436   2.8666
  2.9185   2.9917   3.0110   3.0304   3.0367   3.0506   3.0527   3.0813
  3.1139   3.1660   3.2219   3.2566   3.2924   3.3113   3.3351   3.3431
  3.3494   3.3680   3.3898   3.4844   3.5250   3.5745   3.5795   3.5839
  3.5902   3.6241   3.6650   3.6746   3.7271   3.7398   3.7935   3.8652
  3.8661   3.8968   3.9379   3.9595   3.9992   4.0095   4.0589   4.0733
  4.1014   4.1057   4.1308   4.1973   4.2191   4.2212   4.2695   4.3043
  4.3771   4.4237   4.4670   4.4970   4.5635   4.6848   4.7490   4.7682
  4.8461   4.9130   4.9307   4.9696   5.0340   5.0445   5.0699   5.2214
  5.2437   5.2713   5.2982   5.3027   5.3448   5.3737   5.4001   5.5001
  5.5395   5.6413   5.7111   5.8069   5.9459   6.0224   6.3696   6.3799
  6.4151   6.6515   6.6938   6.8080   7.1299   7.3391   7.4397   7.5979
  7.7013   8.1295  25.1842  25.4330  50.4674
 --------------------------------------------------------------
 
 -----------------------------------------------------------------
                    Cartesian Multipole Moments
 -----------------------------------------------------------------
    Charge (ESU x 10^10)
                 0.0000
    Dipole Moment (Debye)
         X       0.0322      Y       1.6302      Z       0.3325
       Tot       1.6641
    Quadrupole Moments (Debye-Ang)
        XX     -17.2559     XY      -4.7181     YY     -19.2391
        XZ      -1.0684     YZ       0.1202     ZZ     -20.2216
    Octopole Moments (Debye-Ang^2)
       XXX     232.8262    XXY       5.4637    XYY      84.2401
       YYY     -29.8855    XXZ       2.3242    XYZ      -0.5508
       YYZ      -1.0481    XZZ      86.7989    YZZ     -10.0505
       ZZZ      -3.4366
    Hexadecapole Moments (Debye-Ang^3)
      XXXX   -2236.1493   XXXY      69.2980   XXYY    -406.4886
      XYYY     129.3209   YYYY     -87.0770   XXXZ       9.9031
      XXYZ       2.3730   XYYZ       6.6167   YYYZ      -2.1270
      XXZZ    -407.2968   XYZZ      44.6093   YYZZ     -19.1649
      XZZZ      22.1038   YZZZ      -2.6888   ZZZZ     -36.1186
 -----------------------------------------------------------------
Archival summary:
1\1\centos77-c7\SP\ProcedureUnspecified\BasisUnspecified\126\shihchen\MonJul2714:22:342020MonJul2714:22:342020\0\\#,ProcedureUnspecified,BasisUnspecified,\\0,1\C\H,1,1.08974\H,1,1.09609,2,107.195\O,1,1.41511,2,105.493,3,-117.852,0\H,4,0.957116,1,108.863,2,68.9895,0\C,1,1.5176,2,110.27,3,120.028,0\H,6,1.08986,1,110.512,2,60.2497,0\H,6,1.09107,1,110.615,2,-60.0673,0\H,6,1.09228,1,110.987,2,-179.628,0\\\@

 Total job time:  10.71s(wall), 54.97s(cpu) 
 Mon Jul 27 14:22:34 2020

        *************************************************************
        *                                                           *
        *  Thank you very much for using Q-Chem.  Have a nice day.  *
        *                                                           *
        *************************************************************


