                  Welcome to Q-Chem
     A Quantum Leap Into The Future Of Chemistry


 Q-Chem 5.3 (devel), Q-Chem, Inc., Pleasanton, CA (2020)

 Yihan Shao,  Zhengting Gan,  E. Epifanovsky,  A. T. B. Gilbert,  M. Wormit,  
 J. Kussmann,  A. W. Lange,  A. Behn,  Jia Deng,  Xintian Feng,  D. Ghosh,  
 M. Goldey,  P. R. Horn,  L. D. Jacobson,  I. Kaliman,  T. Kus,  A. Landau,  
 Jie Liu,  E. I. Proynov,  R. M. Richard,  R. P. Steele,  E. J. Sundstrom,  
 H. L. Woodcock III,  P. M. Zimmerman,  D. Zuev,  B. Alam,  B. Albrecht,  
 E. Alguire,  S. A. Baeppler,  D. Barton,  Z. Benda,  Y. A. Bernard,  
 E. J. Berquist,  K. B. Bravaya,  H. Burton,  K. Carter-Fenk,  D. Casanova,  
 Chun-Min Chang,  Yunqing Chen,  A. Chien,  K. D. Closser,  M. P. Coons,  
 S. Coriani,  S. Dasgupta,  A. L. Dempwolff,  M. Diedenhofen,  Hainam Do,  
 R. G. Edgar,  Po-Tung Fang,  S. Faraji,  S. Fatehi,  Qingguo Feng,  
 J. Fosso-Tande,  J. Gayvert,  Qinghui Ge,  A. Ghysels,  G. Gidofalvi,  
 J. Gomes,  J. Gonthier,  A. Gunina,  D. Hait,  M. W. D. Hanson-Heine,  
 P. H. P. Harbach,  A. W. Hauser,  M. F. Herbst,  J. E. Herr,  
 E. G. Hohenstein,  Z. C. Holden,  Kerwin Hui,  B. C. Huynh,  T.-C. Jagau,  
 Hyunjun Ji,  B. Kaduk,  K. Khistyaev,  Jaehoon Kim,  P. Klunzinger,  K. Koh,  
 D. Kosenkov,  L. Koulias,  T. Kowalczyk,  C. M. Krauter,  A. Kunitsa,  
 Ka Un Lao,  A. Laurent,  K. V. Lawler,  Joonho Lee,  D. Lefrancois,  
 S. Lehtola,  D. S. Levine,  Yi-Pei Li,  You-Sheng Lin,  Fenglai Liu,  
 Kuan-Yu Liu,  E. Livshits,  M. Loipersberger,  A. Luenser,  P. Manohar,  
 E. Mansoor,  S. F. Manzer,  Shan-Ping Mao,  Yuezhi Mao,  N. Mardirossian,  
 A. V. Marenich,  T. Markovich,  L. A. Martinez-Martinez,  S. A. Maurer,  
 N. J. Mayhall,  S. C. McKenzie,  J.-M. Mewes,  P. Morgante,  A. F. Morrison,  
 J. W. Mullinax,  K. Nanda,  T. S. Nguyen-Beck,  R. Olivares-Amaya,  
 K. J. Oosterbaan,  J. A. Parkhill,  S. K. Paul,  F. Pavosevic,  Zheng Pei,  
 T. M. Perrine,  F. Plasser,  P. Pokhilko,  S. Prager,  A. Prociuk,  
 E. Ramos,  B. Rana,  D. R. Rehn,  F. Rob,  M. Scheurer,  M. Schneider,  
 N. Sergueev,  S. M. Sharada,  S. Sharma,  D. W. Small,  T. Stauch,  
 C. J. Stein,  T. Stein,  Yu-Chuan Su,  S. P. Veccham,  Zhen Tao,  
 A. J. W. Thom,  A. Tkatchenko,  T. Tsuchimochi,  N. M. Tubman,  L. Vogt,  
 M. L. Vidal,  O. Vydrov,  M. A. Watson,  J. Wenzel,  M. de Wergifosse,  
 T. A. Wesolowski,  A. White,  J. Witte,  A. Yamada,  Jun Yang,  K. Yao,  
 S. Yeganeh,  S. R. Yost,  Zhi-Qiang You,  A. Zech,  Igor Ying Zhang,  
 Xing Zhang,  Yan Zhao,  Ying Zhu,  B. R. Brooks,  G. K. L. Chan,  
 C. J. Cramer,  M. S. Gordon,  W. J. Hehre,  A. Klamt,  M. W. Schmidt,  
 C. D. Sherrill,  D. G. Truhlar,  A. Aspuru-Guzik,  R. Baer,  A. T. Bell,  
 N. A. Besley,  Jeng-Da Chai,  A. E. DePrince, III,  R. A. DiStasio Jr.,  
 A. Dreuw,  B. D. Dunietz,  T. R. Furlani,  Chao-Ping Hsu,  Yousung Jung,  
 Jing Kong,  D. S. Lambrecht,  WanZhen Liang,  C. Ochsenfeld,  
 V. A. Rassolov,  L. V. Slipchenko,  J. E. Subotnik,  T. Van Voorhis,  
 J. M. Herbert,  A. I. Krylov,  P. M. W. Gill,  M. Head-Gordon

 Contributors to earlier versions of Q-Chem not listed above: 
 R. D. Adamson,  B. Austin,  J. Baker,  G. J. O. Beran,  K. Brandhorst,  
 S. T. Brown,  E. F. C. Byrd,  A. K. Chakraborty,  C.-L. Cheng,  
 Siu Hung Chien,  D. M. Chipman,  D. L. Crittenden,  H. Dachsel,  
 R. J. Doerksen,  A. D. Dutoi,  L. Fusti-Molnar,  W. A. Goddard III,  
 A. Golubeva-Zadorozhnaya,  S. R. Gwaltney,  G. Hawkins,  A. Heyden,  
 S. Hirata,  G. Kedziora,  F. J. Keil,  C. Kelley,  Jihan Kim,  R. A. King,  
 R. Z. Khaliullin,  P. P. Korambath,  W. Kurlancheek,  A. M. Lee,  M. S. Lee,  
 S. V. Levchenko,  Ching Yeh Lin,  D. Liotard,  R. C. Lochan,  I. Lotan,  
 P. E. Maslen,  N. Nair,  D. P. O'Neill,  D. Neuhauser,  E. Neuscamman,  
 C. M. Oana,  R. Olson,  B. Peters,  R. Peverati,  P. A. Pieniazek,  
 Y. M. Rhee,  J. Ritchie,  M. A. Rohrdanz,  E. Rosta,  N. J. Russ,  
 H. F. Schaefer III,  N. E. Schultz,  N. Shenvi,  A. C. Simmonett,  A. Sodt,  
 D. Stuck,  K. S. Thanthiriwatte,  V. Vanovschi,  Tao Wang,  A. Warshel,  
 C. F. Williams,  Q. Wu,  X. Xu,  W. Zhang

 Please cite Q-Chem as follows:
 Y. Shao et al., Mol. Phys. 113, 184-215 (2015)
 DOI: 10.1080/00268976.2014.952696

 Q-Chem 5.3.0 for Intel X86 EM64T Linux

 Parts of Q-Chem use Armadillo 9.800.1 (Horizon Scraper).
 http://arma.sourceforge.net/

 Q-Chem begins on Mon Jul 27 14:16:16 2020  

Host: centos77-c7
0

     Scratch files written to /tmp/29924.centos77-h1/qchem102386//
Processing $rem in /opt/qchem-5.3.0-intel2020u1//config/preferences:
Processing $rem in /home/shihchengli/.qchemrc:

Checking the input file for inconsistencies... 	...done.

--------------------------------------------------------------
User input:
--------------------------------------------------------------
$rem
   JOBTYPE  sp
   EXCHANGE   omegaB97X-D
   BASIS   6-311+G(2df,2pd)
   UNRESTRICTED   False
   max_scf_cycles   250
   geom_opt_max_cycles   1500
   basis2 6-31G*
   scf_algorithm rca_diis
   SYM_IGNORE  TRUE
   print_input   true
   geom_opt_dmax   80
   pop_mulliken false
   XC_GRID 000075000302
$end

$molecule
0 1
C       -5.3383255069     0.2235957243     0.1430668986
C       -3.9981146557     0.8598986805     0.4625639200
H       -6.0661766397     0.4554904786     0.9204049643
H       -5.2410082163     -0.8606250990     0.0694467541
H       -5.7274249331     0.5886565893     -0.8100378559
O       -3.4909474822     1.6377385150     -0.6052818012
H       -3.2739569556     0.0914919922     0.7567933937
H       -4.0972195941     1.5475246840     1.3021346754
H       -3.3696360163     1.0734484350     -1.3687809489
$end
--------------------------------------------------------------
 ----------------------------------------------------------------
             Standard Nuclear Orientation (Angstroms)
    I     Atom           X                Y                Z
 ----------------------------------------------------------------
    1      C      -5.3383255069     0.2235957243     0.1430668986
    2      C      -3.9981146557     0.8598986805     0.4625639200
    3      H      -6.0661766397     0.4554904786     0.9204049643
    4      H      -5.2410082163    -0.8606250990     0.0694467541
    5      H      -5.7274249331     0.5886565893    -0.8100378559
    6      O      -3.4909474822     1.6377385150    -0.6052818012
    7      H      -3.2739569556     0.0914919922     0.7567933937
    8      H      -4.0972195941     1.5475246840     1.3021346754
    9      H      -3.3696360163     1.0734484350    -1.3687809489
 ----------------------------------------------------------------
 Nuclear Repulsion Energy =          81.93237129 hartrees
 There are       13 alpha and       13 beta electrons
 Requested basis set is 6-311+G(2df,2pd)
 There are 60 shells and 186 basis functions

 Total QAlloc Memory Limit   2000 MB
 Mega-Array Size       188 MB
 MEM_STATIC part       192 MB

                       Distance Matrix (Angstroms)
             C (  1)   C (  2)   H (  3)   H (  4)   H (  5)   O (  6)
   C (  2)  1.517605
   H (  3)  1.089861  2.156396
   H (  4)  1.091066  2.158594  1.771212
   H (  5)  1.092280  2.164163  1.768309  1.763664
   O (  6)  2.443897  1.415114  3.218266  3.124067  2.478776
   H (  7)  2.157714  1.096095  2.820595  2.290909  2.953242  2.072007
   H (  8)  2.153270  1.089739  2.283648  2.937168  2.835184  2.003482
   H (  9)  2.623675  1.947925  3.590763  3.051422  2.471110  0.957116
             H (  7)   H (  8)
   H (  8)  1.759315
   H (  9)  2.343386  2.808543
 
 A cutoff of  1.0D-09 yielded   1788 shell pairs
 There are     17312 function pairs (     21497 Cartesian)
 Smallest overlap matrix eigenvalue = 1.13E-04

 Scale SEOQF with 1.000000e-02/1.000000e-01/1.000000e-01

 Standard Electronic Orientation quadrupole field applied
 Nucleus-field energy     =     0.0000000029 hartrees
 Requested basis set is 6-31G(d)
 There are 24 shells and 54 basis functions
 A cutoff of  1.0D-09 yielded    297 shell pairs
 There are      1548 function pairs (      1731 Cartesian)
 Smallest overlap matrix eigenvalue = 6.82E-03
 Guess from superposition of atomic densities
 Warning:  Energy on first SCF cycle will be non-variational
 SAD guess density has 26.000000 electrons
 Long-range K will be added via erf
 Coulomb attenuation parameter = 0.2 bohr**(-1)
 A restricted hybrid HF-DFT SCF calculation will be
 performed using Relaxed Constraint Minimization + Pulay DIIS
 Exchange:     0.2220 Hartree-Fock + 1.0000 wB97X-D + LR-HF
 Correlation:  1.0000 wB97X-D
 Using Euler-Maclaurin-Lebedev (75,302) quadrature formula
 Dispersion:   Grimme D
 SCF converges when DIIS error is below 1.0E-04
 using 6 threads for integral computing
 -------------------------------------------------------
 OpenMP Integral computing Module                
 Release: version 1.0, May 2013, Q-Chem Inc. Pittsburgh 
 -------------------------------------------------------
 using 6 threads for integral computing
 -------------------------------------------------------
 OpenMP Integral computing Module                
 Release: version 1.0, May 2013, Q-Chem Inc. Pittsburgh 
 -------------------------------------------------------
 ---------------------------------------
  Cycle       Energy         DIIS Error
 ---------------------------------------
    1    -155.4365395698      1.06E-01
    2    -154.9205625444      1.36E-02
    3    -154.9490610630      3.04E-03
    4    -154.9752588694      2.42E-03
    5    -154.9759886322      2.24E-04 Done RCA. Switching to DIIS
    6    -154.9768052622      1.01E-04
    7    -154.9768084191      7.86E-06 Convergence criterion met
 ---------------------------------------
 SCF time:  CPU 14.24 s  wall 2.39 s
 SCF   energy in the small basis set = -154.97680842
 Total energy in the small basis set = -154.97680842
 ----------------------------------------------------
  Cycle       Energy    
 ----------------------------------------------------
    1     -18.7558399287     -1.88E+01
 Long-range K will be added via erf
 Coulomb attenuation parameter = 0.2 bohr**(-1)
 A restricted hybrid HF-DFT SCF calculation will be
 performed using Relaxed Constraint Minimization + Pulay DIIS
 Exchange:     0.2220 Hartree-Fock + 1.0000 wB97X-D + LR-HF
 Correlation:  1.0000 wB97X-D
 Using Euler-Maclaurin-Lebedev (75,302) quadrature formula
 Dispersion:   Grimme D
 SCF converges when DIIS error is below 1.0E-05
 Basis2 calculation detected. Using small basis as guess for larger.
 SCFMinFind is unable to tell whether the solution found is close.
 Resetting ReadMinima to 0 and attempting to follow guess.
 SCFMinFind following SCF Guess.
 using 6 threads for integral computing
 -------------------------------------------------------
 OpenMP Integral computing Module                
 Release: version 1.0, May 2013, Q-Chem Inc. Pittsburgh 
 -------------------------------------------------------
 using 6 threads for integral computing
 -------------------------------------------------------
 OpenMP Integral computing Module                
 Release: version 1.0, May 2013, Q-Chem Inc. Pittsburgh 
 -------------------------------------------------------
 ---------------------------------------
  Cycle       Energy         DIIS Error
 ---------------------------------------
    1    -155.0084427542      5.72E-03
    2    -155.0238477146      2.87E-03
    3    -155.0336147186      3.48E-04 Done RCA. Switching to DIIS
    4    -155.0453306464      2.52E-04
    5    -155.0455209431      3.95E-05
    6    -155.0455289978      5.67E-06 Convergence criterion met
 ---------------------------------------
 SCF time:  CPU 38.99 s  wall 6.52 s
 SCF   energy in the final basis set = -155.04552900
 Total energy in the final basis set = -155.04552900
 
 --------------------------------------------------------------
 
                    Orbital Energies (a.u.)
 --------------------------------------------------------------
 
 Alpha MOs
 -- Occupied --
-19.2454 -10.3260 -10.2721  -1.1257  -0.8492  -0.7223  -0.5955  -0.5454
 -0.5237  -0.4696  -0.4575  -0.4079  -0.3614
 -- Virtual --
  0.0663   0.0875   0.0896   0.1030   0.1267   0.1333   0.1387   0.1748
  0.1862   0.1999   0.2413   0.2586   0.2773   0.2890   0.2979   0.3112
  0.3147   0.3367   0.3467   0.4038   0.4602   0.4831   0.4957   0.5154
  0.5536   0.5750   0.5868   0.6078   0.6172   0.6324   0.6526   0.6632
  0.6848   0.7162   0.7558   0.7900   0.8817   0.9220   0.9489   0.9833
  1.0361   1.0553   1.0678   1.0938   1.1257   1.1796   1.1914   1.2037
  1.2208   1.2521   1.2773   1.3237   1.3401   1.3658   1.3724   1.3843
  1.4384   1.4484   1.4600   1.4762   1.5141   1.5275   1.5862   1.6074
  1.6461   1.7018   1.9519   2.0354   2.0727   2.2154   2.2836   2.3902
  2.4171   2.5857   2.6319   2.6587   2.7192   2.7855   2.8255   2.8818
  2.9173   2.9637   3.0081   3.0183   3.0375   3.0713   3.0951   3.1127
  3.1584   3.1668   3.2031   3.2098   3.2264   3.2756   3.2992   3.3166
  3.3577   3.4338   3.4797   3.4980   3.5117   3.5484   3.5666   3.5938
  3.6221   3.6289   3.6555   3.6933   3.7317   3.7372   3.7425   3.7973
  3.8715   3.8786   3.9224   3.9475   3.9804   4.0111   4.0583   4.0802
  4.1016   4.1181   4.1557   4.1915   4.2076   4.2240   4.2755   4.3170
  4.3787   4.3862   4.4573   4.5427   4.5823   4.6016   4.7063   4.7785
  4.8651   4.8968   4.9503   4.9767   5.0204   5.0480   5.1164   5.1655
  5.2228   5.2516   5.2662   5.3090   5.3319   5.3669   5.4411   5.4583
  5.5241   5.5704   5.6746   5.8702   5.9424   6.0509   6.3129   6.3657
  6.4451   6.6546   6.7046   6.8211   7.1226   7.3522   7.4166   7.5527
  7.7296   8.1113  25.0931  25.4501  50.4661
 --------------------------------------------------------------
 
 -----------------------------------------------------------------
                    Cartesian Multipole Moments
 -----------------------------------------------------------------
    Charge (ESU x 10^10)
                -0.0000
    Dipole Moment (Debye)
         X      -0.4781      Y      -1.6853      Z      -0.0422
       Tot       1.7523
    Quadrupole Moments (Debye-Ang)
        XX     -16.7612     XY       4.9394     YY     -24.8892
        XZ      -0.5422     YZ       1.4563     ZZ     -17.4918
    Octopole Moments (Debye-Ang^2)
       XXX     244.6415    XXY     -30.0533    XYY     103.3477
       YYY     -61.0386    XXZ       4.4477    XYZ      -6.1570
       YYZ       3.8659    XZZ      78.0964    YZZ     -13.9767
       ZZZ      -5.6916
    Hexadecapole Moments (Debye-Ang^3)
      XXXX   -2315.3079   XXXY     219.0252   XXYY    -479.6195
      XYYY     229.3002   YYYY    -178.0914   XXXZ     -15.9191
      XXYZ      29.0716   XYYZ     -11.5674   YYYZ      18.9355
      XXZZ    -374.1288   XYZZ      53.3856   YYZZ     -34.7900
      XZZZ      28.7458   YZZZ       5.8035   ZZZZ     -54.5959
 -----------------------------------------------------------------
Archival summary:
1\1\centos77-c7\SP\ProcedureUnspecified\BasisUnspecified\126\shihchen\MonJul2714:16:272020MonJul2714:16:272020\0\\#,ProcedureUnspecified,BasisUnspecified,\\0,1\C\H,1,1.08974\H,1,1.09609,2,107.195\O,1,1.41511,2,105.493,3,-117.852,0\H,4,0.957116,1,108.863,2,178.989,0\C,1,1.5176,2,110.27,3,120.028,0\H,6,1.08986,1,110.512,2,-9.75029,0\H,6,1.09107,1,110.615,2,-130.067,0\H,6,1.09228,1,110.987,2,110.372,0\\\@

 Total job time:  11.08s(wall), 57.14s(cpu) 
 Mon Jul 27 14:16:27 2020

        *************************************************************
        *                                                           *
        *  Thank you very much for using Q-Chem.  Have a nice day.  *
        *                                                           *
        *************************************************************


