                  Welcome to Q-Chem
     A Quantum Leap Into The Future Of Chemistry


 Q-Chem 5.3 (devel), Q-Chem, Inc., Pleasanton, CA (2020)

 Yihan Shao,  Zhengting Gan,  E. Epifanovsky,  A. T. B. Gilbert,  M. Wormit,  
 J. Kussmann,  A. W. Lange,  A. Behn,  Jia Deng,  Xintian Feng,  D. Ghosh,  
 M. Goldey,  P. R. Horn,  L. D. Jacobson,  I. Kaliman,  T. Kus,  A. Landau,  
 Jie Liu,  E. I. Proynov,  R. M. Richard,  R. P. Steele,  E. J. Sundstrom,  
 H. L. Woodcock III,  P. M. Zimmerman,  D. Zuev,  B. Alam,  B. Albrecht,  
 E. Alguire,  S. A. Baeppler,  D. Barton,  Z. Benda,  Y. A. Bernard,  
 E. J. Berquist,  K. B. Bravaya,  H. Burton,  K. Carter-Fenk,  D. Casanova,  
 Chun-Min Chang,  Yunqing Chen,  A. Chien,  K. D. Closser,  M. P. Coons,  
 S. Coriani,  S. Dasgupta,  A. L. Dempwolff,  M. Diedenhofen,  Hainam Do,  
 R. G. Edgar,  Po-Tung Fang,  S. Faraji,  S. Fatehi,  Qingguo Feng,  
 J. Fosso-Tande,  J. Gayvert,  Qinghui Ge,  A. Ghysels,  G. Gidofalvi,  
 J. Gomes,  J. Gonthier,  A. Gunina,  D. Hait,  M. W. D. Hanson-Heine,  
 P. H. P. Harbach,  A. W. Hauser,  M. F. Herbst,  J. E. Herr,  
 E. G. Hohenstein,  Z. C. Holden,  Kerwin Hui,  B. C. Huynh,  T.-C. Jagau,  
 Hyunjun Ji,  B. Kaduk,  K. Khistyaev,  Jaehoon Kim,  P. Klunzinger,  K. Koh,  
 D. Kosenkov,  L. Koulias,  T. Kowalczyk,  C. M. Krauter,  A. Kunitsa,  
 Ka Un Lao,  A. Laurent,  K. V. Lawler,  Joonho Lee,  D. Lefrancois,  
 S. Lehtola,  D. S. Levine,  Yi-Pei Li,  You-Sheng Lin,  Fenglai Liu,  
 Kuan-Yu Liu,  E. Livshits,  M. Loipersberger,  A. Luenser,  P. Manohar,  
 E. Mansoor,  S. F. Manzer,  Shan-Ping Mao,  Yuezhi Mao,  N. Mardirossian,  
 A. V. Marenich,  T. Markovich,  L. A. Martinez-Martinez,  S. A. Maurer,  
 N. J. Mayhall,  S. C. McKenzie,  J.-M. Mewes,  P. Morgante,  A. F. Morrison,  
 J. W. Mullinax,  K. Nanda,  T. S. Nguyen-Beck,  R. Olivares-Amaya,  
 K. J. Oosterbaan,  J. A. Parkhill,  S. K. Paul,  F. Pavosevic,  Zheng Pei,  
 T. M. Perrine,  F. Plasser,  P. Pokhilko,  S. Prager,  A. Prociuk,  
 E. Ramos,  B. Rana,  D. R. Rehn,  F. Rob,  M. Scheurer,  M. Schneider,  
 N. Sergueev,  S. M. Sharada,  S. Sharma,  D. W. Small,  T. Stauch,  
 C. J. Stein,  T. Stein,  Yu-Chuan Su,  S. P. Veccham,  Zhen Tao,  
 A. J. W. Thom,  A. Tkatchenko,  T. Tsuchimochi,  N. M. Tubman,  L. Vogt,  
 M. L. Vidal,  O. Vydrov,  M. A. Watson,  J. Wenzel,  M. de Wergifosse,  
 T. A. Wesolowski,  A. White,  J. Witte,  A. Yamada,  Jun Yang,  K. Yao,  
 S. Yeganeh,  S. R. Yost,  Zhi-Qiang You,  A. Zech,  Igor Ying Zhang,  
 Xing Zhang,  Yan Zhao,  Ying Zhu,  B. R. Brooks,  G. K. L. Chan,  
 C. J. Cramer,  M. S. Gordon,  W. J. Hehre,  A. Klamt,  M. W. Schmidt,  
 C. D. Sherrill,  D. G. Truhlar,  A. Aspuru-Guzik,  R. Baer,  A. T. Bell,  
 N. A. Besley,  Jeng-Da Chai,  A. E. DePrince, III,  R. A. DiStasio Jr.,  
 A. Dreuw,  B. D. Dunietz,  T. R. Furlani,  Chao-Ping Hsu,  Yousung Jung,  
 Jing Kong,  D. S. Lambrecht,  WanZhen Liang,  C. Ochsenfeld,  
 V. A. Rassolov,  L. V. Slipchenko,  J. E. Subotnik,  T. Van Voorhis,  
 J. M. Herbert,  A. I. Krylov,  P. M. W. Gill,  M. Head-Gordon

 Contributors to earlier versions of Q-Chem not listed above: 
 R. D. Adamson,  B. Austin,  J. Baker,  G. J. O. Beran,  K. Brandhorst,  
 S. T. Brown,  E. F. C. Byrd,  A. K. Chakraborty,  C.-L. Cheng,  
 Siu Hung Chien,  D. M. Chipman,  D. L. Crittenden,  H. Dachsel,  
 R. J. Doerksen,  A. D. Dutoi,  L. Fusti-Molnar,  W. A. Goddard III,  
 A. Golubeva-Zadorozhnaya,  S. R. Gwaltney,  G. Hawkins,  A. Heyden,  
 S. Hirata,  G. Kedziora,  F. J. Keil,  C. Kelley,  Jihan Kim,  R. A. King,  
 R. Z. Khaliullin,  P. P. Korambath,  W. Kurlancheek,  A. M. Lee,  M. S. Lee,  
 S. V. Levchenko,  Ching Yeh Lin,  D. Liotard,  R. C. Lochan,  I. Lotan,  
 P. E. Maslen,  N. Nair,  D. P. O'Neill,  D. Neuhauser,  E. Neuscamman,  
 C. M. Oana,  R. Olson,  B. Peters,  R. Peverati,  P. A. Pieniazek,  
 Y. M. Rhee,  J. Ritchie,  M. A. Rohrdanz,  E. Rosta,  N. J. Russ,  
 H. F. Schaefer III,  N. E. Schultz,  N. Shenvi,  A. C. Simmonett,  A. Sodt,  
 D. Stuck,  K. S. Thanthiriwatte,  V. Vanovschi,  Tao Wang,  A. Warshel,  
 C. F. Williams,  Q. Wu,  X. Xu,  W. Zhang

 Please cite Q-Chem as follows:
 Y. Shao et al., Mol. Phys. 113, 184-215 (2015)
 DOI: 10.1080/00268976.2014.952696

 Q-Chem 5.3.0 for Intel X86 EM64T Linux

 Parts of Q-Chem use Armadillo 9.800.1 (Horizon Scraper).
 http://arma.sourceforge.net/

 Q-Chem begins on Mon Jul 27 14:18:53 2020  

Host: centos77-c7
0

     Scratch files written to /tmp/29924.centos77-h1/qchem103040//
Processing $rem in /opt/qchem-5.3.0-intel2020u1//config/preferences:
Processing $rem in /home/shihchengli/.qchemrc:

Checking the input file for inconsistencies... 	...done.

--------------------------------------------------------------
User input:
--------------------------------------------------------------
$rem
   JOBTYPE  sp
   EXCHANGE   omegaB97X-D
   BASIS   6-311+G(2df,2pd)
   UNRESTRICTED   False
   max_scf_cycles   250
   geom_opt_max_cycles   1500
   basis2 6-31G*
   scf_algorithm rca_diis
   SYM_IGNORE  TRUE
   print_input   true
   geom_opt_dmax   80
   pop_mulliken false
   XC_GRID 000075000302
$end

$molecule
0 1
C       -5.3249077289     0.3002833896     0.0788272304
C       -4.1250452440     1.2222041038     0.1950904587
H       -5.3311567423     -0.1979954130     -0.8904385234
H       -6.2534929913     0.8627950978     0.1871571114
H       -5.3066219435     -0.4656726986     0.8573215288
O       -2.8945608594     0.5480760107     0.0106797009
H       -4.1382479233     1.7420425867     1.1599831146
H       -4.1583719781     1.9851026044     -0.5823447923
H       -3.0704045890     -0.3796156813     -0.1459658291
$end
--------------------------------------------------------------
 ----------------------------------------------------------------
             Standard Nuclear Orientation (Angstroms)
    I     Atom           X                Y                Z
 ----------------------------------------------------------------
    1      C      -5.3249077289     0.3002833896     0.0788272304
    2      C      -4.1250452440     1.2222041038     0.1950904587
    3      H      -5.3311567423    -0.1979954130    -0.8904385234
    4      H      -6.2534929913     0.8627950978     0.1871571114
    5      H      -5.3066219435    -0.4656726986     0.8573215288
    6      O      -2.8945608594     0.5480760107     0.0106797009
    7      H      -4.1382479233     1.7420425867     1.1599831146
    8      H      -4.1583719781     1.9851026044    -0.5823447923
    9      H      -3.0704045890    -0.3796156813    -0.1459658291
 ----------------------------------------------------------------
 Nuclear Repulsion Energy =          82.07852270 hartrees
 There are       13 alpha and       13 beta electrons
 Requested basis set is 6-311+G(2df,2pd)
 There are 60 shells and 186 basis functions

 Total QAlloc Memory Limit   2000 MB
 Mega-Array Size       188 MB
 MEM_STATIC part       192 MB

                       Distance Matrix (Angstroms)
             C (  1)   C (  2)   H (  3)   H (  4)   H (  5)   O (  6)
   C (  2)  1.517605
   H (  3)  1.089861  2.156396
   H (  4)  1.091066  2.158594  1.771212
   H (  5)  1.092280  2.164163  1.768309  1.763664
   O (  6)  2.443897  1.415114  2.702894  3.378257  2.750005
   H (  7)  2.157714  1.096095  3.064475  2.488720  2.516090  2.072007
   H (  8)  2.153270  1.089739  2.497251  2.498247  3.065521  2.003482
   H (  9)  2.365498  1.947925  2.387096  3.433163  2.452480  0.957116
             H (  7)   H (  8)
   H (  8)  1.759315
   H (  9)  2.710577  2.639317
 
 A cutoff of  1.0D-09 yielded   1788 shell pairs
 There are     17342 function pairs (     21538 Cartesian)
 Smallest overlap matrix eigenvalue = 1.01E-04

 Scale SEOQF with 1.000000e-02/1.000000e-01/1.000000e-01

 Standard Electronic Orientation quadrupole field applied
 Nucleus-field energy     =     0.0000000028 hartrees
 Requested basis set is 6-31G(d)
 There are 24 shells and 54 basis functions
 A cutoff of  1.0D-09 yielded    298 shell pairs
 There are      1549 function pairs (      1732 Cartesian)
 Smallest overlap matrix eigenvalue = 7.18E-03
 Guess from superposition of atomic densities
 Warning:  Energy on first SCF cycle will be non-variational
 SAD guess density has 26.000000 electrons
 Long-range K will be added via erf
 Coulomb attenuation parameter = 0.2 bohr**(-1)
 A restricted hybrid HF-DFT SCF calculation will be
 performed using Relaxed Constraint Minimization + Pulay DIIS
 Exchange:     0.2220 Hartree-Fock + 1.0000 wB97X-D + LR-HF
 Correlation:  1.0000 wB97X-D
 Using Euler-Maclaurin-Lebedev (75,302) quadrature formula
 Dispersion:   Grimme D
 SCF converges when DIIS error is below 1.0E-04
 using 6 threads for integral computing
 -------------------------------------------------------
 OpenMP Integral computing Module                
 Release: version 1.0, May 2013, Q-Chem Inc. Pittsburgh 
 -------------------------------------------------------
 using 6 threads for integral computing
 -------------------------------------------------------
 OpenMP Integral computing Module                
 Release: version 1.0, May 2013, Q-Chem Inc. Pittsburgh 
 -------------------------------------------------------
 ---------------------------------------
  Cycle       Energy         DIIS Error
 ---------------------------------------
    1    -155.4413133665      1.06E-01
    2    -154.9241525729      1.35E-02
    3    -154.9522042370      3.05E-03
    4    -154.9782229497      2.40E-03
    5    -154.9789461477      2.27E-04 Done RCA. Switching to DIIS
    6    -154.9797532102      9.18E-05 Convergence criterion met
 ---------------------------------------
 SCF time:  CPU 12.97 s  wall 2.18 s
 SCF   energy in the small basis set = -154.97975321
 Total energy in the small basis set = -154.97975321
 ----------------------------------------------------
  Cycle       Energy    
 ----------------------------------------------------
    1     -18.7534317418     -1.88E+01
 Long-range K will be added via erf
 Coulomb attenuation parameter = 0.2 bohr**(-1)
 A restricted hybrid HF-DFT SCF calculation will be
 performed using Relaxed Constraint Minimization + Pulay DIIS
 Exchange:     0.2220 Hartree-Fock + 1.0000 wB97X-D + LR-HF
 Correlation:  1.0000 wB97X-D
 Using Euler-Maclaurin-Lebedev (75,302) quadrature formula
 Dispersion:   Grimme D
 SCF converges when DIIS error is below 1.0E-05
 Basis2 calculation detected. Using small basis as guess for larger.
 SCFMinFind is unable to tell whether the solution found is close.
 Resetting ReadMinima to 0 and attempting to follow guess.
 SCFMinFind following SCF Guess.
 using 6 threads for integral computing
 -------------------------------------------------------
 OpenMP Integral computing Module                
 Release: version 1.0, May 2013, Q-Chem Inc. Pittsburgh 
 -------------------------------------------------------
 using 6 threads for integral computing
 -------------------------------------------------------
 OpenMP Integral computing Module                
 Release: version 1.0, May 2013, Q-Chem Inc. Pittsburgh 
 -------------------------------------------------------
 ---------------------------------------
  Cycle       Energy         DIIS Error
 ---------------------------------------
    1    -155.0117055959      5.72E-03
    2    -155.0271341424      2.87E-03
    3    -155.0368332750      3.48E-04 Done RCA. Switching to DIIS
    4    -155.0484586684      2.51E-04
    5    -155.0486447376      3.88E-05
    6    -155.0486521709      5.45E-06 Convergence criterion met
 ---------------------------------------
 SCF time:  CPU 39.55 s  wall 6.62 s
 SCF   energy in the final basis set = -155.04865217
 Total energy in the final basis set = -155.04865217
 
 --------------------------------------------------------------
 
                    Orbital Energies (a.u.)
 --------------------------------------------------------------
 
 Alpha MOs
 -- Occupied --
-19.2440 -10.3268 -10.2819  -1.1252  -0.8522  -0.7291  -0.5742  -0.5599
 -0.5393  -0.4661  -0.4610  -0.4159  -0.3584
 -- Virtual --
  0.0654   0.0860   0.0908   0.0996   0.1269   0.1351   0.1365   0.1728
  0.1868   0.2159   0.2406   0.2505   0.2643   0.2809   0.2889   0.3104
  0.3178   0.3342   0.3527   0.4079   0.4564   0.4866   0.5066   0.5310
  0.5546   0.5690   0.5759   0.6032   0.6086   0.6336   0.6502   0.6582
  0.6858   0.7142   0.7717   0.7942   0.8874   0.8916   0.9231   0.9449
  0.9940   1.0499   1.0799   1.1056   1.1435   1.1736   1.1940   1.1975
  1.2262   1.2333   1.2540   1.2770   1.3320   1.3589   1.3912   1.4158
  1.4447   1.4613   1.4688   1.5096   1.5266   1.5453   1.5686   1.6068
  1.6471   1.7458   1.9303   2.0995   2.1123   2.2831   2.3186   2.4395
  2.4609   2.5487   2.5680   2.6166   2.7211   2.7635   2.8440   2.8595
  2.9068   2.9638   2.9951   3.0091   3.0408   3.0550   3.0652   3.0742
  3.1278   3.1735   3.2099   3.2697   3.2736   3.2962   3.3060   3.3478
  3.3574   3.3834   3.4341   3.4433   3.4998   3.5696   3.5727   3.6037
  3.6109   3.6476   3.6565   3.7196   3.7312   3.7384   3.8016   3.8098
  3.9060   3.9405   3.9550   3.9907   4.0014   4.0128   4.0160   4.0609
  4.0677   4.1105   4.1341   4.2011   4.2077   4.2299   4.2648   4.3354
  4.3672   4.4111   4.4632   4.5317   4.5515   4.6495   4.7275   4.8008
  4.8232   4.9127   4.9523   4.9758   5.0159   5.0415   5.0729   5.2223
  5.2357   5.2431   5.2867   5.3196   5.3319   5.3531   5.4266   5.5034
  5.5278   5.6818   5.7190   5.8124   5.9447   6.0020   6.3624   6.3803
  6.4169   6.6595   6.7025   6.7688   7.1439   7.3983   7.4344   7.5853
  7.7270   8.1411  25.1746  25.4460  50.4608
 --------------------------------------------------------------
 
 -----------------------------------------------------------------
                    Cartesian Multipole Moments
 -----------------------------------------------------------------
    Charge (ESU x 10^10)
                 0.0000
    Dipole Moment (Debye)
         X      -1.8009      Y      -0.7435      Z      -0.0510
       Tot       1.9490
    Quadrupole Moments (Debye-Ang)
        XX      -8.1569     XY       0.5163     YY     -18.7010
        XZ      -0.1317     YZ       0.4468     ZZ     -20.0362
    Octopole Moments (Debye-Ang^2)
       XXX     193.2770    XXY      -7.8227    XYY      79.1192
       YYY     -38.5736    XXZ      -0.1832    XYZ      -1.5952
       YYZ      -1.5484    XZZ      84.1170    YZZ     -13.2731
       ZZZ      -5.5693
    Hexadecapole Moments (Debye-Ang^3)
      XXXX   -2011.9068   XXXY     111.2914   XXYY    -379.3718
      XYYY     156.2256   YYYY    -111.8876   XXXZ      13.4916
      XXYZ       4.3283   XYYZ       6.8785   YYYZ      -6.0323
      XXZZ    -386.5628   XYZZ      54.2291   YYZZ     -23.2729
      XZZZ      25.6040   YZZZ      -5.1592   ZZZZ     -35.6238
 -----------------------------------------------------------------
Archival summary:
1\1\centos77-c7\SP\ProcedureUnspecified\BasisUnspecified\126\shihchen\MonJul2714:19:042020MonJul2714:19:042020\0\\#,ProcedureUnspecified,BasisUnspecified,\\0,1\C\H,1,1.08974\H,1,1.09609,2,107.195\O,1,1.41511,2,105.493,3,-117.852,0\H,4,0.957116,1,108.863,2,-121.011,0\C,1,1.5176,2,110.27,3,120.028,0\H,6,1.08986,1,110.512,2,60.2497,0\H,6,1.09107,1,110.615,2,-60.0673,0\H,6,1.09228,1,110.987,2,-179.628,0\\\@

 Total job time:  10.96s(wall), 56.36s(cpu) 
 Mon Jul 27 14:19:04 2020

        *************************************************************
        *                                                           *
        *  Thank you very much for using Q-Chem.  Have a nice day.  *
        *                                                           *
        *************************************************************


