                  Welcome to Q-Chem
     A Quantum Leap Into The Future Of Chemistry


 Q-Chem 5.3 (devel), Q-Chem, Inc., Pleasanton, CA (2020)

 Yihan Shao,  Zhengting Gan,  E. Epifanovsky,  A. T. B. Gilbert,  M. Wormit,  
 J. Kussmann,  A. W. Lange,  A. Behn,  Jia Deng,  Xintian Feng,  D. Ghosh,  
 M. Goldey,  P. R. Horn,  L. D. Jacobson,  I. Kaliman,  T. Kus,  A. Landau,  
 Jie Liu,  E. I. Proynov,  R. M. Richard,  R. P. Steele,  E. J. Sundstrom,  
 H. L. Woodcock III,  P. M. Zimmerman,  D. Zuev,  B. Alam,  B. Albrecht,  
 E. Alguire,  S. A. Baeppler,  D. Barton,  Z. Benda,  Y. A. Bernard,  
 E. J. Berquist,  K. B. Bravaya,  H. Burton,  K. Carter-Fenk,  D. Casanova,  
 Chun-Min Chang,  Yunqing Chen,  A. Chien,  K. D. Closser,  M. P. Coons,  
 S. Coriani,  S. Dasgupta,  A. L. Dempwolff,  M. Diedenhofen,  Hainam Do,  
 R. G. Edgar,  Po-Tung Fang,  S. Faraji,  S. Fatehi,  Qingguo Feng,  
 J. Fosso-Tande,  J. Gayvert,  Qinghui Ge,  A. Ghysels,  G. Gidofalvi,  
 J. Gomes,  J. Gonthier,  A. Gunina,  D. Hait,  M. W. D. Hanson-Heine,  
 P. H. P. Harbach,  A. W. Hauser,  M. F. Herbst,  J. E. Herr,  
 E. G. Hohenstein,  Z. C. Holden,  Kerwin Hui,  B. C. Huynh,  T.-C. Jagau,  
 Hyunjun Ji,  B. Kaduk,  K. Khistyaev,  Jaehoon Kim,  P. Klunzinger,  K. Koh,  
 D. Kosenkov,  L. Koulias,  T. Kowalczyk,  C. M. Krauter,  A. Kunitsa,  
 Ka Un Lao,  A. Laurent,  K. V. Lawler,  Joonho Lee,  D. Lefrancois,  
 S. Lehtola,  D. S. Levine,  Yi-Pei Li,  You-Sheng Lin,  Fenglai Liu,  
 Kuan-Yu Liu,  E. Livshits,  M. Loipersberger,  A. Luenser,  P. Manohar,  
 E. Mansoor,  S. F. Manzer,  Shan-Ping Mao,  Yuezhi Mao,  N. Mardirossian,  
 A. V. Marenich,  T. Markovich,  L. A. Martinez-Martinez,  S. A. Maurer,  
 N. J. Mayhall,  S. C. McKenzie,  J.-M. Mewes,  P. Morgante,  A. F. Morrison,  
 J. W. Mullinax,  K. Nanda,  T. S. Nguyen-Beck,  R. Olivares-Amaya,  
 K. J. Oosterbaan,  J. A. Parkhill,  S. K. Paul,  F. Pavosevic,  Zheng Pei,  
 T. M. Perrine,  F. Plasser,  P. Pokhilko,  S. Prager,  A. Prociuk,  
 E. Ramos,  B. Rana,  D. R. Rehn,  F. Rob,  M. Scheurer,  M. Schneider,  
 N. Sergueev,  S. M. Sharada,  S. Sharma,  D. W. Small,  T. Stauch,  
 C. J. Stein,  T. Stein,  Yu-Chuan Su,  S. P. Veccham,  Zhen Tao,  
 A. J. W. Thom,  A. Tkatchenko,  T. Tsuchimochi,  N. M. Tubman,  L. Vogt,  
 M. L. Vidal,  O. Vydrov,  M. A. Watson,  J. Wenzel,  M. de Wergifosse,  
 T. A. Wesolowski,  A. White,  J. Witte,  A. Yamada,  Jun Yang,  K. Yao,  
 S. Yeganeh,  S. R. Yost,  Zhi-Qiang You,  A. Zech,  Igor Ying Zhang,  
 Xing Zhang,  Yan Zhao,  Ying Zhu,  B. R. Brooks,  G. K. L. Chan,  
 C. J. Cramer,  M. S. Gordon,  W. J. Hehre,  A. Klamt,  M. W. Schmidt,  
 C. D. Sherrill,  D. G. Truhlar,  A. Aspuru-Guzik,  R. Baer,  A. T. Bell,  
 N. A. Besley,  Jeng-Da Chai,  A. E. DePrince, III,  R. A. DiStasio Jr.,  
 A. Dreuw,  B. D. Dunietz,  T. R. Furlani,  Chao-Ping Hsu,  Yousung Jung,  
 Jing Kong,  D. S. Lambrecht,  WanZhen Liang,  C. Ochsenfeld,  
 V. A. Rassolov,  L. V. Slipchenko,  J. E. Subotnik,  T. Van Voorhis,  
 J. M. Herbert,  A. I. Krylov,  P. M. W. Gill,  M. Head-Gordon

 Contributors to earlier versions of Q-Chem not listed above: 
 R. D. Adamson,  B. Austin,  J. Baker,  G. J. O. Beran,  K. Brandhorst,  
 S. T. Brown,  E. F. C. Byrd,  A. K. Chakraborty,  C.-L. Cheng,  
 Siu Hung Chien,  D. M. Chipman,  D. L. Crittenden,  H. Dachsel,  
 R. J. Doerksen,  A. D. Dutoi,  L. Fusti-Molnar,  W. A. Goddard III,  
 A. Golubeva-Zadorozhnaya,  S. R. Gwaltney,  G. Hawkins,  A. Heyden,  
 S. Hirata,  G. Kedziora,  F. J. Keil,  C. Kelley,  Jihan Kim,  R. A. King,  
 R. Z. Khaliullin,  P. P. Korambath,  W. Kurlancheek,  A. M. Lee,  M. S. Lee,  
 S. V. Levchenko,  Ching Yeh Lin,  D. Liotard,  R. C. Lochan,  I. Lotan,  
 P. E. Maslen,  N. Nair,  D. P. O'Neill,  D. Neuhauser,  E. Neuscamman,  
 C. M. Oana,  R. Olson,  B. Peters,  R. Peverati,  P. A. Pieniazek,  
 Y. M. Rhee,  J. Ritchie,  M. A. Rohrdanz,  E. Rosta,  N. J. Russ,  
 H. F. Schaefer III,  N. E. Schultz,  N. Shenvi,  A. C. Simmonett,  A. Sodt,  
 D. Stuck,  K. S. Thanthiriwatte,  V. Vanovschi,  Tao Wang,  A. Warshel,  
 C. F. Williams,  Q. Wu,  X. Xu,  W. Zhang

 Please cite Q-Chem as follows:
 Y. Shao et al., Mol. Phys. 113, 184-215 (2015)
 DOI: 10.1080/00268976.2014.952696

 Q-Chem 5.3.0 for Intel X86 EM64T Linux

 Parts of Q-Chem use Armadillo 9.800.1 (Horizon Scraper).
 http://arma.sourceforge.net/

 Q-Chem begins on Mon Jul 27 14:20:44 2020  

Host: centos77-c7
0

     Scratch files written to /tmp/29924.centos77-h1/qchem103537//
Processing $rem in /opt/qchem-5.3.0-intel2020u1//config/preferences:
Processing $rem in /home/shihchengli/.qchemrc:

Checking the input file for inconsistencies... 	...done.

--------------------------------------------------------------
User input:
--------------------------------------------------------------
$rem
   JOBTYPE  sp
   EXCHANGE   omegaB97X-D
   BASIS   6-311+G(2df,2pd)
   UNRESTRICTED   False
   max_scf_cycles   250
   geom_opt_max_cycles   1500
   basis2 6-31G*
   scf_algorithm rca_diis
   SYM_IGNORE  TRUE
   print_input   true
   geom_opt_dmax   80
   pop_mulliken false
   XC_GRID 000075000302
$end

$molecule
0 1
C       -5.4271319583     0.2926691915     0.1490154553
C       -4.1356388209     1.0847297620     0.2373922230
H       -5.4288612849     -0.3369668239     -0.7405644536
H       -6.2865945392     0.9631935651     0.1026850015
H       -5.5526040439     -0.3498646967     1.0233628862
O       -2.9854844874     0.2603730535     0.2487438991
H       -4.1502990216     1.7370640739     1.1181130757
H       -4.0255028538     1.7260570541     -0.6367357631
H       -2.6106929897     0.2399648204     -0.6317023241
$end
--------------------------------------------------------------
 ----------------------------------------------------------------
             Standard Nuclear Orientation (Angstroms)
    I     Atom           X                Y                Z
 ----------------------------------------------------------------
    1      C      -5.4271319583     0.2926691915     0.1490154553
    2      C      -4.1356388209     1.0847297620     0.2373922230
    3      H      -5.4288612849    -0.3369668239    -0.7405644536
    4      H      -6.2865945392     0.9631935651     0.1026850015
    5      H      -5.5526040439    -0.3498646967     1.0233628862
    6      O      -2.9854844874     0.2603730535     0.2487438991
    7      H      -4.1502990216     1.7370640739     1.1181130757
    8      H      -4.0255028538     1.7260570541    -0.6367357631
    9      H      -2.6106929897     0.2399648204    -0.6317023241
 ----------------------------------------------------------------
 Nuclear Repulsion Energy =          81.76111935 hartrees
 There are       13 alpha and       13 beta electrons
 Requested basis set is 6-311+G(2df,2pd)
 There are 60 shells and 186 basis functions

 Total QAlloc Memory Limit   2000 MB
 Mega-Array Size       188 MB
 MEM_STATIC part       192 MB

                       Distance Matrix (Angstroms)
             C (  1)   C (  2)   H (  3)   H (  4)   H (  5)   O (  6)
   C (  2)  1.517605
   H (  3)  1.089861  2.156396
   H (  4)  1.091066  2.158594  1.771212
   H (  5)  1.092280  2.164163  1.768309  1.763664
   O (  6)  2.443897  1.415114  2.702894  3.378257  2.750005
   H (  7)  2.157714  1.096095  3.064475  2.488720  2.516090  2.072007
   H (  8)  2.153270  1.089739  2.497251  2.498247  3.065521  2.003482
   H (  9)  2.923119  1.947925  2.878676  3.817674  3.426657  0.957116
             H (  7)   H (  8)
   H (  8)  1.759315
   H (  9)  2.770117  2.051873
 
 A cutoff of  1.0D-09 yielded   1776 shell pairs
 There are     17245 function pairs (     21422 Cartesian)
 Smallest overlap matrix eigenvalue = 1.12E-04

 Scale SEOQF with 1.000000e-02/1.000000e-01/1.000000e-01

 Standard Electronic Orientation quadrupole field applied
 Nucleus-field energy     =     0.0000000024 hartrees
 Requested basis set is 6-31G(d)
 There are 24 shells and 54 basis functions
 A cutoff of  1.0D-09 yielded    298 shell pairs
 There are      1549 function pairs (      1732 Cartesian)
 Smallest overlap matrix eigenvalue = 7.17E-03
 Guess from superposition of atomic densities
 Warning:  Energy on first SCF cycle will be non-variational
 SAD guess density has 26.000000 electrons
 Long-range K will be added via erf
 Coulomb attenuation parameter = 0.2 bohr**(-1)
 A restricted hybrid HF-DFT SCF calculation will be
 performed using Relaxed Constraint Minimization + Pulay DIIS
 Exchange:     0.2220 Hartree-Fock + 1.0000 wB97X-D + LR-HF
 Correlation:  1.0000 wB97X-D
 Using Euler-Maclaurin-Lebedev (75,302) quadrature formula
 Dispersion:   Grimme D
 SCF converges when DIIS error is below 1.0E-04
 using 6 threads for integral computing
 -------------------------------------------------------
 OpenMP Integral computing Module                
 Release: version 1.0, May 2013, Q-Chem Inc. Pittsburgh 
 -------------------------------------------------------
 using 6 threads for integral computing
 -------------------------------------------------------
 OpenMP Integral computing Module                
 Release: version 1.0, May 2013, Q-Chem Inc. Pittsburgh 
 -------------------------------------------------------
 ---------------------------------------
  Cycle       Energy         DIIS Error
 ---------------------------------------
    1    -155.4333199562      1.06E-01
    2    -154.9221000989      1.37E-02
    3    -154.9509897762      3.01E-03
    4    -154.9778035764      2.34E-03
    5    -154.9784913218      2.19E-04 Done RCA. Switching to DIIS
    6    -154.9792602620      9.26E-05 Convergence criterion met
 ---------------------------------------
 SCF time:  CPU 12.88 s  wall 2.16 s
 SCF   energy in the small basis set = -154.97926026
 Total energy in the small basis set = -154.97926026
 ----------------------------------------------------
  Cycle       Energy    
 ----------------------------------------------------
    1     -18.7522007879     -1.88E+01
 Long-range K will be added via erf
 Coulomb attenuation parameter = 0.2 bohr**(-1)
 A restricted hybrid HF-DFT SCF calculation will be
 performed using Relaxed Constraint Minimization + Pulay DIIS
 Exchange:     0.2220 Hartree-Fock + 1.0000 wB97X-D + LR-HF
 Correlation:  1.0000 wB97X-D
 Using Euler-Maclaurin-Lebedev (75,302) quadrature formula
 Dispersion:   Grimme D
 SCF converges when DIIS error is below 1.0E-05
 Basis2 calculation detected. Using small basis as guess for larger.
 SCFMinFind is unable to tell whether the solution found is close.
 Resetting ReadMinima to 0 and attempting to follow guess.
 SCFMinFind following SCF Guess.
 using 6 threads for integral computing
 -------------------------------------------------------
 OpenMP Integral computing Module                
 Release: version 1.0, May 2013, Q-Chem Inc. Pittsburgh 
 -------------------------------------------------------
 using 6 threads for integral computing
 -------------------------------------------------------
 OpenMP Integral computing Module                
 Release: version 1.0, May 2013, Q-Chem Inc. Pittsburgh 
 -------------------------------------------------------
 ---------------------------------------
  Cycle       Energy         DIIS Error
 ---------------------------------------
    1    -155.0106568556      5.73E-03
    2    -155.0259282474      2.91E-03
    3    -155.0359289478      3.52E-04 Done RCA. Switching to DIIS
    4    -155.0479358532      2.57E-04
    5    -155.0481324417      3.99E-05
    6    -155.0481405940      6.12E-06 Convergence criterion met
 ---------------------------------------
 SCF time:  CPU 38.62 s  wall 6.46 s
 SCF   energy in the final basis set = -155.04814059
 Total energy in the final basis set = -155.04814059
 
 --------------------------------------------------------------
 
                    Orbital Energies (a.u.)
 --------------------------------------------------------------
 
 Alpha MOs
 -- Occupied --
-19.2453 -10.3280 -10.2700  -1.1260  -0.8485  -0.7152  -0.6068  -0.5503
 -0.5030  -0.4777  -0.4563  -0.4048  -0.3631
 -- Virtual --
  0.0634   0.0848   0.0905   0.1039   0.1271   0.1341   0.1374   0.1798
  0.2097   0.2222   0.2347   0.2482   0.2512   0.2873   0.2919   0.3059
  0.3149   0.3368   0.3662   0.3918   0.4616   0.4973   0.5174   0.5265
  0.5710   0.5770   0.5865   0.5901   0.6230   0.6336   0.6422   0.6700
  0.6961   0.7159   0.7707   0.8252   0.8480   0.8706   0.9358   0.9674
  0.9912   1.0430   1.0859   1.0991   1.1177   1.1795   1.1857   1.2041
  1.2256   1.2398   1.2588   1.3073   1.3212   1.3564   1.3825   1.4133
  1.4438   1.4564   1.4787   1.4842   1.5326   1.5693   1.5772   1.6197
  1.6598   1.7200   1.9406   2.0407   2.1300   2.2559   2.2900   2.4712
  2.4885   2.5429   2.5507   2.6045   2.7009   2.8076   2.8324   2.8630
  2.9196   2.9739   3.0023   3.0178   3.0339   3.0546   3.0670   3.0939
  3.1592   3.1884   3.2146   3.2497   3.2727   3.3139   3.3184   3.3445
  3.3488   3.3853   3.4095   3.4402   3.4796   3.5608   3.5735   3.5892
  3.6045   3.6265   3.6540   3.7071   3.7310   3.7688   3.8042   3.8276
  3.8771   3.9353   3.9557   3.9860   4.0108   4.0181   4.0337   4.0643
  4.0747   4.1238   4.1297   4.1775   4.2134   4.2337   4.2772   4.3257
  4.3576   4.3934   4.4657   4.4829   4.5900   4.6453   4.7436   4.7630
  4.8290   4.9070   4.9472   4.9849   5.0136   5.0358   5.1050   5.2125
  5.2392   5.2769   5.2922   5.3050   5.3396   5.3667   5.3902   5.4382
  5.5373   5.6666   5.7061   5.8212   5.9661   6.0023   6.3688   6.3879
  6.4165   6.6541   6.6979   6.7903   7.1285   7.3638   7.4423   7.5703
  7.7011   8.1475  25.1806  25.4350  50.4635
 --------------------------------------------------------------
 
 -----------------------------------------------------------------
                    Cartesian Multipole Moments
 -----------------------------------------------------------------
    Charge (ESU x 10^10)
                 0.0000
    Dipole Moment (Debye)
         X      -0.6964      Y       0.8122      Z      -1.4032
       Tot       1.7645
    Quadrupole Moments (Debye-Ang)
        XX     -14.7102     XY      -3.4735     YY     -19.5193
        XZ       2.7982     YZ       0.0556     ZZ     -18.9178
    Octopole Moments (Debye-Ang^2)
       XXX     228.0093    XXY       3.5325    XYY      83.2036
       YYY     -33.0482    XXZ      -7.2942    XYZ      -0.8507
       YYZ      -3.2489    XZZ      82.1653    YZZ     -10.7358
       ZZZ     -11.2158
    Hexadecapole Moments (Debye-Ang^3)
      XXXX   -2227.2133   XXXY      75.6936   XXYY    -397.1641
      XYYY     138.5895   YYYY     -94.1933   XXXZ      39.8372
      XXYZ       2.4517   XYYZ      13.2990   YYYZ      -6.2556
      XXZZ    -389.2265   XYZZ      46.5401   YYZZ     -20.4282
      XZZZ      45.8957   YZZZ      -6.7157   ZZZZ     -38.4652
 -----------------------------------------------------------------
Archival summary:
1\1\centos77-c7\SP\ProcedureUnspecified\BasisUnspecified\126\shihchen\MonJul2714:20:552020MonJul2714:20:552020\0\\#,ProcedureUnspecified,BasisUnspecified,\\0,1\C\H,1,1.08974\H,1,1.09609,2,107.195\O,1,1.41511,2,105.493,3,-117.852,0\H,4,0.957116,1,108.863,2,-21.0105,0\C,1,1.5176,2,110.27,3,120.028,0\H,6,1.08986,1,110.512,2,60.2497,0\H,6,1.09107,1,110.615,2,-60.0673,0\H,6,1.09228,1,110.987,2,-179.628,0\\\@

 Total job time:  10.79s(wall), 55.30s(cpu) 
 Mon Jul 27 14:20:55 2020

        *************************************************************
        *                                                           *
        *  Thank you very much for using Q-Chem.  Have a nice day.  *
        *                                                           *
        *************************************************************


