                  Welcome to Q-Chem
     A Quantum Leap Into The Future Of Chemistry


 Q-Chem 5.3 (devel), Q-Chem, Inc., Pleasanton, CA (2020)

 Yihan Shao,  Zhengting Gan,  E. Epifanovsky,  A. T. B. Gilbert,  M. Wormit,  
 J. Kussmann,  A. W. Lange,  A. Behn,  Jia Deng,  Xintian Feng,  D. Ghosh,  
 M. Goldey,  P. R. Horn,  L. D. Jacobson,  I. Kaliman,  T. Kus,  A. Landau,  
 Jie Liu,  E. I. Proynov,  R. M. Richard,  R. P. Steele,  E. J. Sundstrom,  
 H. L. Woodcock III,  P. M. Zimmerman,  D. Zuev,  B. Alam,  B. Albrecht,  
 E. Alguire,  S. A. Baeppler,  D. Barton,  Z. Benda,  Y. A. Bernard,  
 E. J. Berquist,  K. B. Bravaya,  H. Burton,  K. Carter-Fenk,  D. Casanova,  
 Chun-Min Chang,  Yunqing Chen,  A. Chien,  K. D. Closser,  M. P. Coons,  
 S. Coriani,  S. Dasgupta,  A. L. Dempwolff,  M. Diedenhofen,  Hainam Do,  
 R. G. Edgar,  Po-Tung Fang,  S. Faraji,  S. Fatehi,  Qingguo Feng,  
 J. Fosso-Tande,  J. Gayvert,  Qinghui Ge,  A. Ghysels,  G. Gidofalvi,  
 J. Gomes,  J. Gonthier,  A. Gunina,  D. Hait,  M. W. D. Hanson-Heine,  
 P. H. P. Harbach,  A. W. Hauser,  M. F. Herbst,  J. E. Herr,  
 E. G. Hohenstein,  Z. C. Holden,  Kerwin Hui,  B. C. Huynh,  T.-C. Jagau,  
 Hyunjun Ji,  B. Kaduk,  K. Khistyaev,  Jaehoon Kim,  P. Klunzinger,  K. Koh,  
 D. Kosenkov,  L. Koulias,  T. Kowalczyk,  C. M. Krauter,  A. Kunitsa,  
 Ka Un Lao,  A. Laurent,  K. V. Lawler,  Joonho Lee,  D. Lefrancois,  
 S. Lehtola,  D. S. Levine,  Yi-Pei Li,  You-Sheng Lin,  Fenglai Liu,  
 Kuan-Yu Liu,  E. Livshits,  M. Loipersberger,  A. Luenser,  P. Manohar,  
 E. Mansoor,  S. F. Manzer,  Shan-Ping Mao,  Yuezhi Mao,  N. Mardirossian,  
 A. V. Marenich,  T. Markovich,  L. A. Martinez-Martinez,  S. A. Maurer,  
 N. J. Mayhall,  S. C. McKenzie,  J.-M. Mewes,  P. Morgante,  A. F. Morrison,  
 J. W. Mullinax,  K. Nanda,  T. S. Nguyen-Beck,  R. Olivares-Amaya,  
 K. J. Oosterbaan,  J. A. Parkhill,  S. K. Paul,  F. Pavosevic,  Zheng Pei,  
 T. M. Perrine,  F. Plasser,  P. Pokhilko,  S. Prager,  A. Prociuk,  
 E. Ramos,  B. Rana,  D. R. Rehn,  F. Rob,  M. Scheurer,  M. Schneider,  
 N. Sergueev,  S. M. Sharada,  S. Sharma,  D. W. Small,  T. Stauch,  
 C. J. Stein,  T. Stein,  Yu-Chuan Su,  S. P. Veccham,  Zhen Tao,  
 A. J. W. Thom,  A. Tkatchenko,  T. Tsuchimochi,  N. M. Tubman,  L. Vogt,  
 M. L. Vidal,  O. Vydrov,  M. A. Watson,  J. Wenzel,  M. de Wergifosse,  
 T. A. Wesolowski,  A. White,  J. Witte,  A. Yamada,  Jun Yang,  K. Yao,  
 S. Yeganeh,  S. R. Yost,  Zhi-Qiang You,  A. Zech,  Igor Ying Zhang,  
 Xing Zhang,  Yan Zhao,  Ying Zhu,  B. R. Brooks,  G. K. L. Chan,  
 C. J. Cramer,  M. S. Gordon,  W. J. Hehre,  A. Klamt,  M. W. Schmidt,  
 C. D. Sherrill,  D. G. Truhlar,  A. Aspuru-Guzik,  R. Baer,  A. T. Bell,  
 N. A. Besley,  Jeng-Da Chai,  A. E. DePrince, III,  R. A. DiStasio Jr.,  
 A. Dreuw,  B. D. Dunietz,  T. R. Furlani,  Chao-Ping Hsu,  Yousung Jung,  
 Jing Kong,  D. S. Lambrecht,  WanZhen Liang,  C. Ochsenfeld,  
 V. A. Rassolov,  L. V. Slipchenko,  J. E. Subotnik,  T. Van Voorhis,  
 J. M. Herbert,  A. I. Krylov,  P. M. W. Gill,  M. Head-Gordon

 Contributors to earlier versions of Q-Chem not listed above: 
 R. D. Adamson,  B. Austin,  J. Baker,  G. J. O. Beran,  K. Brandhorst,  
 S. T. Brown,  E. F. C. Byrd,  A. K. Chakraborty,  C.-L. Cheng,  
 Siu Hung Chien,  D. M. Chipman,  D. L. Crittenden,  H. Dachsel,  
 R. J. Doerksen,  A. D. Dutoi,  L. Fusti-Molnar,  W. A. Goddard III,  
 A. Golubeva-Zadorozhnaya,  S. R. Gwaltney,  G. Hawkins,  A. Heyden,  
 S. Hirata,  G. Kedziora,  F. J. Keil,  C. Kelley,  Jihan Kim,  R. A. King,  
 R. Z. Khaliullin,  P. P. Korambath,  W. Kurlancheek,  A. M. Lee,  M. S. Lee,  
 S. V. Levchenko,  Ching Yeh Lin,  D. Liotard,  R. C. Lochan,  I. Lotan,  
 P. E. Maslen,  N. Nair,  D. P. O'Neill,  D. Neuhauser,  E. Neuscamman,  
 C. M. Oana,  R. Olson,  B. Peters,  R. Peverati,  P. A. Pieniazek,  
 Y. M. Rhee,  J. Ritchie,  M. A. Rohrdanz,  E. Rosta,  N. J. Russ,  
 H. F. Schaefer III,  N. E. Schultz,  N. Shenvi,  A. C. Simmonett,  A. Sodt,  
 D. Stuck,  K. S. Thanthiriwatte,  V. Vanovschi,  Tao Wang,  A. Warshel,  
 C. F. Williams,  Q. Wu,  X. Xu,  W. Zhang

 Please cite Q-Chem as follows:
 Y. Shao et al., Mol. Phys. 113, 184-215 (2015)
 DOI: 10.1080/00268976.2014.952696

 Q-Chem 5.3.0 for Intel X86 EM64T Linux

 Parts of Q-Chem use Armadillo 9.800.1 (Horizon Scraper).
 http://arma.sourceforge.net/

 Q-Chem begins on Mon Jul 27 14:20:33 2020  

Host: centos77-c7
0

     Scratch files written to /tmp/29924.centos77-h1/qchem103498//
Processing $rem in /opt/qchem-5.3.0-intel2020u1//config/preferences:
Processing $rem in /home/shihchengli/.qchemrc:

Checking the input file for inconsistencies... 	...done.

--------------------------------------------------------------
User input:
--------------------------------------------------------------
$rem
   JOBTYPE  sp
   EXCHANGE   omegaB97X-D
   BASIS   6-311+G(2df,2pd)
   UNRESTRICTED   False
   max_scf_cycles   250
   geom_opt_max_cycles   1500
   basis2 6-31G*
   scf_algorithm rca_diis
   SYM_IGNORE  TRUE
   print_input   true
   geom_opt_dmax   80
   pop_mulliken false
   XC_GRID 000075000302
$end

$molecule
0 1
C       -5.4123393197     0.2926236585     0.1442147371
C       -4.1336772730     1.1037880009     0.2450150570
H       -5.3993960002     -0.3312210727     -0.7493439564
H       -6.2817214367     0.9501890831     0.0972272768
H       -5.5328486480     -0.3573761406     1.0137285290
O       -2.9710835512     0.2970894984     0.2577114525
H       -4.1633065903     1.7501339194     1.1297654476
H       -4.0284847214     1.7523450455     -0.6243747576
H       -2.6799524595     0.1596480075     -0.6436337858
$end
--------------------------------------------------------------
 ----------------------------------------------------------------
             Standard Nuclear Orientation (Angstroms)
    I     Atom           X                Y                Z
 ----------------------------------------------------------------
    1      C      -5.4123393197     0.2926236585     0.1442147371
    2      C      -4.1336772730     1.1037880009     0.2450150570
    3      H      -5.3993960002    -0.3312210727    -0.7493439564
    4      H      -6.2817214367     0.9501890831     0.0972272768
    5      H      -5.5328486480    -0.3573761406     1.0137285290
    6      O      -2.9710835512     0.2970894984     0.2577114525
    7      H      -4.1633065903     1.7501339194     1.1297654476
    8      H      -4.0284847214     1.7523450455    -0.6243747576
    9      H      -2.6799524595     0.1596480075    -0.6436337858
 ----------------------------------------------------------------
 Nuclear Repulsion Energy =          81.79703955 hartrees
 There are       13 alpha and       13 beta electrons
 Requested basis set is 6-311+G(2df,2pd)
 There are 60 shells and 186 basis functions

 Total QAlloc Memory Limit   2000 MB
 Mega-Array Size       188 MB
 MEM_STATIC part       192 MB

                       Distance Matrix (Angstroms)
             C (  1)   C (  2)   H (  3)   H (  4)   H (  5)   O (  6)
   C (  2)  1.517605
   H (  3)  1.089861  2.156396
   H (  4)  1.091066  2.158594  1.771212
   H (  5)  1.092280  2.164163  1.768309  1.763664
   O (  6)  2.443897  1.415114  2.702894  3.378257  2.750005
   H (  7)  2.157714  1.096095  3.064475  2.488720  2.516090  2.072007
   H (  8)  2.153270  1.089739  2.497251  2.498247  3.065521  2.003482
   H (  9)  2.846810  1.947925  2.765411  3.761193  3.339638  0.957116
             H (  7)   H (  8)
   H (  8)  1.759315
   H (  9)  2.806231  2.087006
 
 A cutoff of  1.0D-09 yielded   1777 shell pairs
 There are     17257 function pairs (     21434 Cartesian)
 Smallest overlap matrix eigenvalue = 1.08E-04

 Scale SEOQF with 1.000000e-02/1.000000e-01/1.000000e-01

 Standard Electronic Orientation quadrupole field applied
 Nucleus-field energy     =     0.0000000024 hartrees
 Requested basis set is 6-31G(d)
 There are 24 shells and 54 basis functions
 A cutoff of  1.0D-09 yielded    298 shell pairs
 There are      1549 function pairs (      1732 Cartesian)
 Smallest overlap matrix eigenvalue = 7.15E-03
 Guess from superposition of atomic densities
 Warning:  Energy on first SCF cycle will be non-variational
 SAD guess density has 26.000000 electrons
 Long-range K will be added via erf
 Coulomb attenuation parameter = 0.2 bohr**(-1)
 A restricted hybrid HF-DFT SCF calculation will be
 performed using Relaxed Constraint Minimization + Pulay DIIS
 Exchange:     0.2220 Hartree-Fock + 1.0000 wB97X-D + LR-HF
 Correlation:  1.0000 wB97X-D
 Using Euler-Maclaurin-Lebedev (75,302) quadrature formula
 Dispersion:   Grimme D
 SCF converges when DIIS error is below 1.0E-04
 using 6 threads for integral computing
 -------------------------------------------------------
 OpenMP Integral computing Module                
 Release: version 1.0, May 2013, Q-Chem Inc. Pittsburgh 
 -------------------------------------------------------
 using 6 threads for integral computing
 -------------------------------------------------------
 OpenMP Integral computing Module                
 Release: version 1.0, May 2013, Q-Chem Inc. Pittsburgh 
 -------------------------------------------------------
 ---------------------------------------
  Cycle       Energy         DIIS Error
 ---------------------------------------
    1    -155.4332930911      1.06E-01
    2    -154.9227844468      1.37E-02
    3    -154.9515917664      3.02E-03
    4    -154.9782150299      2.37E-03
    5    -154.9789194804      2.20E-04 Done RCA. Switching to DIIS
    6    -154.9797071604      9.53E-05 Convergence criterion met
 ---------------------------------------
 SCF time:  CPU 13.02 s  wall 2.18 s
 SCF   energy in the small basis set = -154.97970716
 Total energy in the small basis set = -154.97970716
 ----------------------------------------------------
  Cycle       Energy    
 ----------------------------------------------------
    1     -18.7521220947     -1.88E+01
 Long-range K will be added via erf
 Coulomb attenuation parameter = 0.2 bohr**(-1)
 A restricted hybrid HF-DFT SCF calculation will be
 performed using Relaxed Constraint Minimization + Pulay DIIS
 Exchange:     0.2220 Hartree-Fock + 1.0000 wB97X-D + LR-HF
 Correlation:  1.0000 wB97X-D
 Using Euler-Maclaurin-Lebedev (75,302) quadrature formula
 Dispersion:   Grimme D
 SCF converges when DIIS error is below 1.0E-05
 Basis2 calculation detected. Using small basis as guess for larger.
 SCFMinFind is unable to tell whether the solution found is close.
 Resetting ReadMinima to 0 and attempting to follow guess.
 SCFMinFind following SCF Guess.
 using 6 threads for integral computing
 -------------------------------------------------------
 OpenMP Integral computing Module                
 Release: version 1.0, May 2013, Q-Chem Inc. Pittsburgh 
 -------------------------------------------------------
 using 6 threads for integral computing
 -------------------------------------------------------
 OpenMP Integral computing Module                
 Release: version 1.0, May 2013, Q-Chem Inc. Pittsburgh 
 -------------------------------------------------------
 ---------------------------------------
  Cycle       Energy         DIIS Error
 ---------------------------------------
    1    -155.0110874123      5.73E-03
    2    -155.0264635114      2.89E-03
    3    -155.0363588163      3.49E-04 Done RCA. Switching to DIIS
    4    -155.0482304631      2.53E-04
    5    -155.0484224750      3.98E-05
    6    -155.0484306137      6.03E-06 Convergence criterion met
 ---------------------------------------
 SCF time:  CPU 38.53 s  wall 6.44 s
 SCF   energy in the final basis set = -155.04843061
 Total energy in the final basis set = -155.04843061
 
 --------------------------------------------------------------
 
                    Orbital Energies (a.u.)
 --------------------------------------------------------------
 
 Alpha MOs
 -- Occupied --
-19.2453 -10.3280 -10.2707  -1.1260  -0.8487  -0.7168  -0.6045  -0.5497
 -0.5076  -0.4761  -0.4571  -0.4053  -0.3627
 -- Virtual --
  0.0638   0.0853   0.0899   0.1038   0.1268   0.1340   0.1372   0.1795
  0.2079   0.2207   0.2371   0.2465   0.2548   0.2868   0.2911   0.3067
  0.3138   0.3389   0.3649   0.3954   0.4577   0.4981   0.5157   0.5243
  0.5733   0.5783   0.5847   0.5903   0.6243   0.6308   0.6429   0.6723
  0.6986   0.7175   0.7821   0.8197   0.8235   0.8761   0.9343   0.9650
  0.9917   1.0418   1.0856   1.0973   1.1179   1.1802   1.1856   1.2070
  1.2286   1.2415   1.2673   1.3120   1.3208   1.3535   1.3927   1.4134
  1.4468   1.4578   1.4768   1.4888   1.5309   1.5624   1.5806   1.6149
  1.6586   1.7126   1.9400   2.0347   2.1203   2.2732   2.2898   2.4698
  2.4862   2.5365   2.5579   2.6104   2.6996   2.8179   2.8454   2.8645
  2.9194   2.9732   2.9964   3.0202   3.0321   3.0536   3.0685   3.0910
  3.1595   3.1859   3.2071   3.2542   3.2730   3.3057   3.3130   3.3466
  3.3486   3.3894   3.4149   3.4373   3.4798   3.5589   3.5742   3.5846
  3.6049   3.6250   3.6539   3.7076   3.7214   3.7763   3.7948   3.8324
  3.8869   3.9295   3.9629   3.9872   4.0115   4.0212   4.0377   4.0689
  4.0919   4.1166   4.1267   4.1705   4.2125   4.2363   4.2720   4.3279
  4.3579   4.3963   4.4654   4.4876   4.5718   4.6474   4.7437   4.7666
  4.8235   4.9111   4.9425   4.9833   5.0099   5.0429   5.1116   5.2124
  5.2442   5.2720   5.2818   5.3023   5.3392   5.3619   5.4080   5.4324
  5.5372   5.6600   5.7190   5.8206   5.9663   5.9991   6.3666   6.3890
  6.4108   6.6525   6.7015   6.7969   7.1343   7.3487   7.4397   7.5674
  7.7096   8.1365  25.1790  25.4356  50.4626
 --------------------------------------------------------------
 
 -----------------------------------------------------------------
                    Cartesian Multipole Moments
 -----------------------------------------------------------------
    Charge (ESU x 10^10)
                 0.0000
    Dipole Moment (Debye)
         X      -0.8484      Y       0.6204      Z      -1.4172
       Tot       1.7644
    Quadrupole Moments (Debye-Ang)
        XX     -13.9738     XY      -3.0892     YY     -19.5028
        XZ       2.8893     YZ       0.2466     ZZ     -18.8587
    Octopole Moments (Debye-Ang^2)
       XXX     224.9518    XXY       2.7017    XYY      82.8353
       YYY     -33.7416    XXZ      -7.5951    XYZ      -1.4536
       YYZ      -3.1327    XZZ      81.7688    YZZ     -10.9865
       ZZZ     -11.3459
    Hexadecapole Moments (Debye-Ang^3)
      XXXX   -2210.2791   XXXY      77.9732   XXYY    -394.9014
      XYYY     140.6730   YYYY     -96.1224   XXXZ      40.0193
      XXYZ       4.3587   XYYZ      12.6669   YYYZ      -6.4672
      XXZZ    -386.8979   XYZZ      47.1848   YYZZ     -20.7098
      XZZZ      45.9797   YZZZ      -6.9120   ZZZZ     -38.5778
 -----------------------------------------------------------------
Archival summary:
1\1\centos77-c7\SP\ProcedureUnspecified\BasisUnspecified\126\shihchen\MonJul2714:20:442020MonJul2714:20:442020\0\\#,ProcedureUnspecified,BasisUnspecified,\\0,1\C\H,1,1.08974\H,1,1.09609,2,107.195\O,1,1.41511,2,105.493,3,-117.852,0\H,4,0.957116,1,108.863,2,-31.0105,0\C,1,1.5176,2,110.27,3,120.028,0\H,6,1.08986,1,110.512,2,60.2497,0\H,6,1.09107,1,110.615,2,-60.0673,0\H,6,1.09228,1,110.987,2,-179.628,0\\\@

 Total job time:  10.78s(wall), 55.48s(cpu) 
 Mon Jul 27 14:20:44 2020

        *************************************************************
        *                                                           *
        *  Thank you very much for using Q-Chem.  Have a nice day.  *
        *                                                           *
        *************************************************************


