                  Welcome to Q-Chem
     A Quantum Leap Into The Future Of Chemistry


 Q-Chem 5.3 (devel), Q-Chem, Inc., Pleasanton, CA (2020)

 Yihan Shao,  Zhengting Gan,  E. Epifanovsky,  A. T. B. Gilbert,  M. Wormit,  
 J. Kussmann,  A. W. Lange,  A. Behn,  Jia Deng,  Xintian Feng,  D. Ghosh,  
 M. Goldey,  P. R. Horn,  L. D. Jacobson,  I. Kaliman,  T. Kus,  A. Landau,  
 Jie Liu,  E. I. Proynov,  R. M. Richard,  R. P. Steele,  E. J. Sundstrom,  
 H. L. Woodcock III,  P. M. Zimmerman,  D. Zuev,  B. Alam,  B. Albrecht,  
 E. Alguire,  S. A. Baeppler,  D. Barton,  Z. Benda,  Y. A. Bernard,  
 E. J. Berquist,  K. B. Bravaya,  H. Burton,  K. Carter-Fenk,  D. Casanova,  
 Chun-Min Chang,  Yunqing Chen,  A. Chien,  K. D. Closser,  M. P. Coons,  
 S. Coriani,  S. Dasgupta,  A. L. Dempwolff,  M. Diedenhofen,  Hainam Do,  
 R. G. Edgar,  Po-Tung Fang,  S. Faraji,  S. Fatehi,  Qingguo Feng,  
 J. Fosso-Tande,  J. Gayvert,  Qinghui Ge,  A. Ghysels,  G. Gidofalvi,  
 J. Gomes,  J. Gonthier,  A. Gunina,  D. Hait,  M. W. D. Hanson-Heine,  
 P. H. P. Harbach,  A. W. Hauser,  M. F. Herbst,  J. E. Herr,  
 E. G. Hohenstein,  Z. C. Holden,  Kerwin Hui,  B. C. Huynh,  T.-C. Jagau,  
 Hyunjun Ji,  B. Kaduk,  K. Khistyaev,  Jaehoon Kim,  P. Klunzinger,  K. Koh,  
 D. Kosenkov,  L. Koulias,  T. Kowalczyk,  C. M. Krauter,  A. Kunitsa,  
 Ka Un Lao,  A. Laurent,  K. V. Lawler,  Joonho Lee,  D. Lefrancois,  
 S. Lehtola,  D. S. Levine,  Yi-Pei Li,  You-Sheng Lin,  Fenglai Liu,  
 Kuan-Yu Liu,  E. Livshits,  M. Loipersberger,  A. Luenser,  P. Manohar,  
 E. Mansoor,  S. F. Manzer,  Shan-Ping Mao,  Yuezhi Mao,  N. Mardirossian,  
 A. V. Marenich,  T. Markovich,  L. A. Martinez-Martinez,  S. A. Maurer,  
 N. J. Mayhall,  S. C. McKenzie,  J.-M. Mewes,  P. Morgante,  A. F. Morrison,  
 J. W. Mullinax,  K. Nanda,  T. S. Nguyen-Beck,  R. Olivares-Amaya,  
 K. J. Oosterbaan,  J. A. Parkhill,  S. K. Paul,  F. Pavosevic,  Zheng Pei,  
 T. M. Perrine,  F. Plasser,  P. Pokhilko,  S. Prager,  A. Prociuk,  
 E. Ramos,  B. Rana,  D. R. Rehn,  F. Rob,  M. Scheurer,  M. Schneider,  
 N. Sergueev,  S. M. Sharada,  S. Sharma,  D. W. Small,  T. Stauch,  
 C. J. Stein,  T. Stein,  Yu-Chuan Su,  S. P. Veccham,  Zhen Tao,  
 A. J. W. Thom,  A. Tkatchenko,  T. Tsuchimochi,  N. M. Tubman,  L. Vogt,  
 M. L. Vidal,  O. Vydrov,  M. A. Watson,  J. Wenzel,  M. de Wergifosse,  
 T. A. Wesolowski,  A. White,  J. Witte,  A. Yamada,  Jun Yang,  K. Yao,  
 S. Yeganeh,  S. R. Yost,  Zhi-Qiang You,  A. Zech,  Igor Ying Zhang,  
 Xing Zhang,  Yan Zhao,  Ying Zhu,  B. R. Brooks,  G. K. L. Chan,  
 C. J. Cramer,  M. S. Gordon,  W. J. Hehre,  A. Klamt,  M. W. Schmidt,  
 C. D. Sherrill,  D. G. Truhlar,  A. Aspuru-Guzik,  R. Baer,  A. T. Bell,  
 N. A. Besley,  Jeng-Da Chai,  A. E. DePrince, III,  R. A. DiStasio Jr.,  
 A. Dreuw,  B. D. Dunietz,  T. R. Furlani,  Chao-Ping Hsu,  Yousung Jung,  
 Jing Kong,  D. S. Lambrecht,  WanZhen Liang,  C. Ochsenfeld,  
 V. A. Rassolov,  L. V. Slipchenko,  J. E. Subotnik,  T. Van Voorhis,  
 J. M. Herbert,  A. I. Krylov,  P. M. W. Gill,  M. Head-Gordon

 Contributors to earlier versions of Q-Chem not listed above: 
 R. D. Adamson,  B. Austin,  J. Baker,  G. J. O. Beran,  K. Brandhorst,  
 S. T. Brown,  E. F. C. Byrd,  A. K. Chakraborty,  C.-L. Cheng,  
 Siu Hung Chien,  D. M. Chipman,  D. L. Crittenden,  H. Dachsel,  
 R. J. Doerksen,  A. D. Dutoi,  L. Fusti-Molnar,  W. A. Goddard III,  
 A. Golubeva-Zadorozhnaya,  S. R. Gwaltney,  G. Hawkins,  A. Heyden,  
 S. Hirata,  G. Kedziora,  F. J. Keil,  C. Kelley,  Jihan Kim,  R. A. King,  
 R. Z. Khaliullin,  P. P. Korambath,  W. Kurlancheek,  A. M. Lee,  M. S. Lee,  
 S. V. Levchenko,  Ching Yeh Lin,  D. Liotard,  R. C. Lochan,  I. Lotan,  
 P. E. Maslen,  N. Nair,  D. P. O'Neill,  D. Neuhauser,  E. Neuscamman,  
 C. M. Oana,  R. Olson,  B. Peters,  R. Peverati,  P. A. Pieniazek,  
 Y. M. Rhee,  J. Ritchie,  M. A. Rohrdanz,  E. Rosta,  N. J. Russ,  
 H. F. Schaefer III,  N. E. Schultz,  N. Shenvi,  A. C. Simmonett,  A. Sodt,  
 D. Stuck,  K. S. Thanthiriwatte,  V. Vanovschi,  Tao Wang,  A. Warshel,  
 C. F. Williams,  Q. Wu,  X. Xu,  W. Zhang

 Please cite Q-Chem as follows:
 Y. Shao et al., Mol. Phys. 113, 184-215 (2015)
 DOI: 10.1080/00268976.2014.952696

 Q-Chem 5.3.0 for Intel X86 EM64T Linux

 Parts of Q-Chem use Armadillo 9.800.1 (Horizon Scraper).
 http://arma.sourceforge.net/

 Q-Chem begins on Mon Jul 27 14:22:01 2020  

Host: centos77-c7
0

     Scratch files written to /tmp/29924.centos77-h1/qchem103829//
Processing $rem in /opt/qchem-5.3.0-intel2020u1//config/preferences:
Processing $rem in /home/shihchengli/.qchemrc:

Checking the input file for inconsistencies... 	...done.

--------------------------------------------------------------
User input:
--------------------------------------------------------------
$rem
   JOBTYPE  sp
   EXCHANGE   omegaB97X-D
   BASIS   6-311+G(2df,2pd)
   UNRESTRICTED   False
   max_scf_cycles   250
   geom_opt_max_cycles   1500
   basis2 6-31G*
   scf_algorithm rca_diis
   SYM_IGNORE  TRUE
   print_input   true
   geom_opt_dmax   80
   pop_mulliken false
   XC_GRID 000075000302
$end

$molecule
0 1
C       -5.4939617846     0.2947813218     0.1690422006
C       -4.1500947409     0.9978273421     0.1154456827
H       -5.6360591952     -0.3254147782     -0.7158092221
H       -6.3060793984     1.0217006968     0.2188275204
H       -5.5655337752     -0.3456436053     1.0509774785
O       -3.0639484207     0.0982841356     -0.0014133135
H       -4.0236927245     1.6418452760     0.9933338461
H       -4.0937878380     1.6380727434     -0.7645802952
H       -2.2696521225     0.5957668678     -0.1955138972
$end
--------------------------------------------------------------
 ----------------------------------------------------------------
             Standard Nuclear Orientation (Angstroms)
    I     Atom           X                Y                Z
 ----------------------------------------------------------------
    1      C      -5.4939617846     0.2947813218     0.1690422006
    2      C      -4.1500947409     0.9978273421     0.1154456827
    3      H      -5.6360591952    -0.3254147782    -0.7158092221
    4      H      -6.3060793984     1.0217006968     0.2188275204
    5      H      -5.5655337752    -0.3456436053     1.0509774785
    6      O      -3.0639484207     0.0982841356    -0.0014133135
    7      H      -4.0236927245     1.6418452760     0.9933338461
    8      H      -4.0937878380     1.6380727434    -0.7645802952
    9      H      -2.2696521225     0.5957668678    -0.1955138972
 ----------------------------------------------------------------
 Nuclear Repulsion Energy =          81.61527147 hartrees
 There are       13 alpha and       13 beta electrons
 Requested basis set is 6-311+G(2df,2pd)
 There are 60 shells and 186 basis functions

 Total QAlloc Memory Limit   2000 MB
 Mega-Array Size       188 MB
 MEM_STATIC part       192 MB

                       Distance Matrix (Angstroms)
             C (  1)   C (  2)   H (  3)   H (  4)   H (  5)   O (  6)
   C (  2)  1.517605
   H (  3)  1.089861  2.156396
   H (  4)  1.091066  2.158594  1.771212
   H (  5)  1.092280  2.164163  1.768309  1.763664
   O (  6)  2.443897  1.415114  2.702894  3.378257  2.750005
   H (  7)  2.157714  1.096095  3.064475  2.488720  2.516090  2.072007
   H (  8)  2.153270  1.089739  2.497251  2.498247  3.065521  2.003482
   H (  9)  3.258783  1.947925  3.528736  4.079932  3.647305  0.957116
             H (  7)   H (  8)
   H (  8)  1.759315
   H (  9)  2.363112  2.176628
 
 A cutoff of  1.0D-09 yielded   1761 shell pairs
 There are     17090 function pairs (     21228 Cartesian)
 Smallest overlap matrix eigenvalue = 1.17E-04

 Scale SEOQF with 1.000000e-02/1.000000e-01/1.000000e-01

 Standard Electronic Orientation quadrupole field applied
 Nucleus-field energy     =     0.0000000024 hartrees
 Requested basis set is 6-31G(d)
 There are 24 shells and 54 basis functions
 A cutoff of  1.0D-09 yielded    296 shell pairs
 There are      1547 function pairs (      1730 Cartesian)
 Smallest overlap matrix eigenvalue = 7.27E-03
 Guess from superposition of atomic densities
 Warning:  Energy on first SCF cycle will be non-variational
 SAD guess density has 26.000000 electrons
 Long-range K will be added via erf
 Coulomb attenuation parameter = 0.2 bohr**(-1)
 A restricted hybrid HF-DFT SCF calculation will be
 performed using Relaxed Constraint Minimization + Pulay DIIS
 Exchange:     0.2220 Hartree-Fock + 1.0000 wB97X-D + LR-HF
 Correlation:  1.0000 wB97X-D
 Using Euler-Maclaurin-Lebedev (75,302) quadrature formula
 Dispersion:   Grimme D
 SCF converges when DIIS error is below 1.0E-04
 using 6 threads for integral computing
 -------------------------------------------------------
 OpenMP Integral computing Module                
 Release: version 1.0, May 2013, Q-Chem Inc. Pittsburgh 
 -------------------------------------------------------
 using 6 threads for integral computing
 -------------------------------------------------------
 OpenMP Integral computing Module                
 Release: version 1.0, May 2013, Q-Chem Inc. Pittsburgh 
 -------------------------------------------------------
 ---------------------------------------
  Cycle       Energy         DIIS Error
 ---------------------------------------
    1    -155.4312964117      1.06E-01
    2    -154.9224900340      1.37E-02
    3    -154.9512313180      2.90E-03
    4    -154.9786894643      2.13E-03
    5    -154.9792618352      2.09E-04 Done RCA. Switching to DIIS
    6    -154.9798991494      6.95E-05 Convergence criterion met
 ---------------------------------------
 SCF time:  CPU 12.70 s  wall 2.13 s
 SCF   energy in the small basis set = -154.97989915
 Total energy in the small basis set = -154.97989915
 ----------------------------------------------------
  Cycle       Energy    
 ----------------------------------------------------
    1     -18.7510125491     -1.88E+01
 Long-range K will be added via erf
 Coulomb attenuation parameter = 0.2 bohr**(-1)
 A restricted hybrid HF-DFT SCF calculation will be
 performed using Relaxed Constraint Minimization + Pulay DIIS
 Exchange:     0.2220 Hartree-Fock + 1.0000 wB97X-D + LR-HF
 Correlation:  1.0000 wB97X-D
 Using Euler-Maclaurin-Lebedev (75,302) quadrature formula
 Dispersion:   Grimme D
 SCF converges when DIIS error is below 1.0E-05
 Basis2 calculation detected. Using small basis as guess for larger.
 SCFMinFind is unable to tell whether the solution found is close.
 Resetting ReadMinima to 0 and attempting to follow guess.
 SCFMinFind following SCF Guess.
 using 6 threads for integral computing
 -------------------------------------------------------
 OpenMP Integral computing Module                
 Release: version 1.0, May 2013, Q-Chem Inc. Pittsburgh 
 -------------------------------------------------------
 using 6 threads for integral computing
 -------------------------------------------------------
 OpenMP Integral computing Module                
 Release: version 1.0, May 2013, Q-Chem Inc. Pittsburgh 
 -------------------------------------------------------
 ---------------------------------------
  Cycle       Energy         DIIS Error
 ---------------------------------------
    1    -155.0117122337      5.73E-03
    2    -155.0267073698      2.91E-03
    3    -155.0367502559      3.49E-04 Done RCA. Switching to DIIS
    4    -155.0487894712      2.59E-04
    5    -155.0489861811      3.89E-05
    6    -155.0489933529      6.13E-06 Convergence criterion met
 ---------------------------------------
 SCF time:  CPU 38.60 s  wall 6.46 s
 SCF   energy in the final basis set = -155.04899335
 Total energy in the final basis set = -155.04899335
 
 --------------------------------------------------------------
 
                    Orbital Energies (a.u.)
 --------------------------------------------------------------
 
 Alpha MOs
 -- Occupied --
-19.2450 -10.3273 -10.2720  -1.1253  -0.8499  -0.7093  -0.6091  -0.5568
 -0.4948  -0.4732  -0.4547  -0.4145  -0.3579
 -- Virtual --
  0.0629   0.0821   0.0987   0.1027   0.1274   0.1335   0.1363   0.1824
  0.2120   0.2290   0.2369   0.2471   0.2504   0.2878   0.2947   0.3072
  0.3139   0.3215   0.3650   0.4051   0.4661   0.4946   0.5092   0.5155
  0.5621   0.5821   0.5871   0.5989   0.6127   0.6576   0.6613   0.6665
  0.6945   0.7190   0.7704   0.8166   0.8621   0.8716   0.9331   0.9488
  0.9593   1.0647   1.1014   1.1050   1.1285   1.1681   1.1775   1.2193
  1.2285   1.2375   1.2515   1.3075   1.3410   1.3526   1.3674   1.4140
  1.4512   1.4582   1.4677   1.4873   1.5268   1.5559   1.5827   1.6249
  1.6503   1.7558   1.9261   2.0719   2.1143   2.2527   2.3435   2.4488
  2.4783   2.5290   2.5598   2.5829   2.7263   2.8082   2.8476   2.8640
  2.9181   2.9851   3.0179   3.0269   3.0389   3.0497   3.0538   3.0827
  3.1099   3.1680   3.2113   3.2573   3.2925   3.3111   3.3315   3.3383
  3.3490   3.3755   3.3903   3.4825   3.5233   3.5766   3.5784   3.5838
  3.5930   3.6257   3.6416   3.7009   3.7221   3.7434   3.8053   3.8463
  3.8727   3.8987   3.9373   3.9560   4.0015   4.0092   4.0552   4.0684
  4.1000   4.1107   4.1304   4.1975   4.2124   4.2389   4.2663   4.3106
  4.3722   4.4211   4.4646   4.4989   4.5588   4.6803   4.7488   4.7677
  4.8441   4.9100   4.9323   4.9697   5.0227   5.0529   5.0681   5.2321
  5.2343   5.2758   5.2967   5.3007   5.3436   5.3784   5.3932   5.5121
  5.5271   5.6605   5.6932   5.8050   5.9477   6.0265   6.3699   6.3810
  6.4148   6.6526   6.6894   6.8066   7.1259   7.3409   7.4363   7.5969
  7.7030   8.1316  25.1851  25.4331  50.4665
 --------------------------------------------------------------
 
 -----------------------------------------------------------------
                    Cartesian Multipole Moments
 -----------------------------------------------------------------
    Charge (ESU x 10^10)
                 0.0000
    Dipole Moment (Debye)
         X      -0.0200      Y       1.6537      Z      -0.1999
       Tot       1.6658
    Quadrupole Moments (Debye-Ang)
        XX     -17.0314     XY      -4.7907     YY     -19.2172
        XZ       0.0092     YZ      -0.1462     ZZ     -20.0887
    Octopole Moments (Debye-Ang^2)
       XXX     231.9595    XXY       5.7051    XYY      84.1075
       YYY     -29.7718    XXZ      -0.1743    XYZ       0.0891
       YYZ      -1.9257    XZZ      86.3967    YZZ      -9.9652
       ZZZ      -5.6982
    Hexadecapole Moments (Debye-Ang^3)
      XXXX   -2231.9239   XXXY      68.1984   XXYY    -405.7587
      XYYY     128.8351   YYYY     -86.8684   XXXZ      18.3170
      XXYZ       0.0867   XYYZ       9.5197   YYYZ      -3.3189
      XXZZ    -406.0169   XYZZ      44.4252   YYZZ     -19.1280
      XZZZ      29.5669   YZZZ      -3.6298   ZZZZ     -35.9774
 -----------------------------------------------------------------
Archival summary:
1\1\centos77-c7\SP\ProcedureUnspecified\BasisUnspecified\126\shihchen\MonJul2714:22:122020MonJul2714:22:122020\0\\#,ProcedureUnspecified,BasisUnspecified,\\0,1\C\H,1,1.08974\H,1,1.09609,2,107.195\O,1,1.41511,2,105.493,3,-117.852,0\H,4,0.957116,1,108.863,2,48.9895,0\C,1,1.5176,2,110.27,3,120.028,0\H,6,1.08986,1,110.512,2,60.2497,0\H,6,1.09107,1,110.615,2,-60.0673,0\H,6,1.09228,1,110.987,2,-179.628,0\\\@

 Total job time:  10.71s(wall), 55.07s(cpu) 
 Mon Jul 27 14:22:12 2020

        *************************************************************
        *                                                           *
        *  Thank you very much for using Q-Chem.  Have a nice day.  *
        *                                                           *
        *************************************************************


