                  Welcome to Q-Chem
     A Quantum Leap Into The Future Of Chemistry


 Q-Chem 5.3 (devel), Q-Chem, Inc., Pleasanton, CA (2020)

 Yihan Shao,  Zhengting Gan,  E. Epifanovsky,  A. T. B. Gilbert,  M. Wormit,  
 J. Kussmann,  A. W. Lange,  A. Behn,  Jia Deng,  Xintian Feng,  D. Ghosh,  
 M. Goldey,  P. R. Horn,  L. D. Jacobson,  I. Kaliman,  T. Kus,  A. Landau,  
 Jie Liu,  E. I. Proynov,  R. M. Richard,  R. P. Steele,  E. J. Sundstrom,  
 H. L. Woodcock III,  P. M. Zimmerman,  D. Zuev,  B. Alam,  B. Albrecht,  
 E. Alguire,  S. A. Baeppler,  D. Barton,  Z. Benda,  Y. A. Bernard,  
 E. J. Berquist,  K. B. Bravaya,  H. Burton,  K. Carter-Fenk,  D. Casanova,  
 Chun-Min Chang,  Yunqing Chen,  A. Chien,  K. D. Closser,  M. P. Coons,  
 S. Coriani,  S. Dasgupta,  A. L. Dempwolff,  M. Diedenhofen,  Hainam Do,  
 R. G. Edgar,  Po-Tung Fang,  S. Faraji,  S. Fatehi,  Qingguo Feng,  
 J. Fosso-Tande,  J. Gayvert,  Qinghui Ge,  A. Ghysels,  G. Gidofalvi,  
 J. Gomes,  J. Gonthier,  A. Gunina,  D. Hait,  M. W. D. Hanson-Heine,  
 P. H. P. Harbach,  A. W. Hauser,  M. F. Herbst,  J. E. Herr,  
 E. G. Hohenstein,  Z. C. Holden,  Kerwin Hui,  B. C. Huynh,  T.-C. Jagau,  
 Hyunjun Ji,  B. Kaduk,  K. Khistyaev,  Jaehoon Kim,  P. Klunzinger,  K. Koh,  
 D. Kosenkov,  L. Koulias,  T. Kowalczyk,  C. M. Krauter,  A. Kunitsa,  
 Ka Un Lao,  A. Laurent,  K. V. Lawler,  Joonho Lee,  D. Lefrancois,  
 S. Lehtola,  D. S. Levine,  Yi-Pei Li,  You-Sheng Lin,  Fenglai Liu,  
 Kuan-Yu Liu,  E. Livshits,  M. Loipersberger,  A. Luenser,  P. Manohar,  
 E. Mansoor,  S. F. Manzer,  Shan-Ping Mao,  Yuezhi Mao,  N. Mardirossian,  
 A. V. Marenich,  T. Markovich,  L. A. Martinez-Martinez,  S. A. Maurer,  
 N. J. Mayhall,  S. C. McKenzie,  J.-M. Mewes,  P. Morgante,  A. F. Morrison,  
 J. W. Mullinax,  K. Nanda,  T. S. Nguyen-Beck,  R. Olivares-Amaya,  
 K. J. Oosterbaan,  J. A. Parkhill,  S. K. Paul,  F. Pavosevic,  Zheng Pei,  
 T. M. Perrine,  F. Plasser,  P. Pokhilko,  S. Prager,  A. Prociuk,  
 E. Ramos,  B. Rana,  D. R. Rehn,  F. Rob,  M. Scheurer,  M. Schneider,  
 N. Sergueev,  S. M. Sharada,  S. Sharma,  D. W. Small,  T. Stauch,  
 C. J. Stein,  T. Stein,  Yu-Chuan Su,  S. P. Veccham,  Zhen Tao,  
 A. J. W. Thom,  A. Tkatchenko,  T. Tsuchimochi,  N. M. Tubman,  L. Vogt,  
 M. L. Vidal,  O. Vydrov,  M. A. Watson,  J. Wenzel,  M. de Wergifosse,  
 T. A. Wesolowski,  A. White,  J. Witte,  A. Yamada,  Jun Yang,  K. Yao,  
 S. Yeganeh,  S. R. Yost,  Zhi-Qiang You,  A. Zech,  Igor Ying Zhang,  
 Xing Zhang,  Yan Zhao,  Ying Zhu,  B. R. Brooks,  G. K. L. Chan,  
 C. J. Cramer,  M. S. Gordon,  W. J. Hehre,  A. Klamt,  M. W. Schmidt,  
 C. D. Sherrill,  D. G. Truhlar,  A. Aspuru-Guzik,  R. Baer,  A. T. Bell,  
 N. A. Besley,  Jeng-Da Chai,  A. E. DePrince, III,  R. A. DiStasio Jr.,  
 A. Dreuw,  B. D. Dunietz,  T. R. Furlani,  Chao-Ping Hsu,  Yousung Jung,  
 Jing Kong,  D. S. Lambrecht,  WanZhen Liang,  C. Ochsenfeld,  
 V. A. Rassolov,  L. V. Slipchenko,  J. E. Subotnik,  T. Van Voorhis,  
 J. M. Herbert,  A. I. Krylov,  P. M. W. Gill,  M. Head-Gordon

 Contributors to earlier versions of Q-Chem not listed above: 
 R. D. Adamson,  B. Austin,  J. Baker,  G. J. O. Beran,  K. Brandhorst,  
 S. T. Brown,  E. F. C. Byrd,  A. K. Chakraborty,  C.-L. Cheng,  
 Siu Hung Chien,  D. M. Chipman,  D. L. Crittenden,  H. Dachsel,  
 R. J. Doerksen,  A. D. Dutoi,  L. Fusti-Molnar,  W. A. Goddard III,  
 A. Golubeva-Zadorozhnaya,  S. R. Gwaltney,  G. Hawkins,  A. Heyden,  
 S. Hirata,  G. Kedziora,  F. J. Keil,  C. Kelley,  Jihan Kim,  R. A. King,  
 R. Z. Khaliullin,  P. P. Korambath,  W. Kurlancheek,  A. M. Lee,  M. S. Lee,  
 S. V. Levchenko,  Ching Yeh Lin,  D. Liotard,  R. C. Lochan,  I. Lotan,  
 P. E. Maslen,  N. Nair,  D. P. O'Neill,  D. Neuhauser,  E. Neuscamman,  
 C. M. Oana,  R. Olson,  B. Peters,  R. Peverati,  P. A. Pieniazek,  
 Y. M. Rhee,  J. Ritchie,  M. A. Rohrdanz,  E. Rosta,  N. J. Russ,  
 H. F. Schaefer III,  N. E. Schultz,  N. Shenvi,  A. C. Simmonett,  A. Sodt,  
 D. Stuck,  K. S. Thanthiriwatte,  V. Vanovschi,  Tao Wang,  A. Warshel,  
 C. F. Williams,  Q. Wu,  X. Xu,  W. Zhang

 Please cite Q-Chem as follows:
 Y. Shao et al., Mol. Phys. 113, 184-215 (2015)
 DOI: 10.1080/00268976.2014.952696

 Q-Chem 5.3.0 for Intel X86 EM64T Linux

 Parts of Q-Chem use Armadillo 9.800.1 (Horizon Scraper).
 http://arma.sourceforge.net/

 Q-Chem begins on Mon Jul 27 14:21:50 2020  

Host: centos77-c7
0

     Scratch files written to /tmp/29924.centos77-h1/qchem103781//
Processing $rem in /opt/qchem-5.3.0-intel2020u1//config/preferences:
Processing $rem in /home/shihchengli/.qchemrc:

Checking the input file for inconsistencies... 	...done.

--------------------------------------------------------------
User input:
--------------------------------------------------------------
$rem
   JOBTYPE  sp
   EXCHANGE   omegaB97X-D
   BASIS   6-311+G(2df,2pd)
   UNRESTRICTED   False
   max_scf_cycles   250
   geom_opt_max_cycles   1500
   basis2 6-31G*
   scf_algorithm rca_diis
   SYM_IGNORE  TRUE
   print_input   true
   geom_opt_dmax   80
   pop_mulliken false
   XC_GRID 000075000302
$end

$molecule
0 1
C       -5.4903795678     0.2946305317     0.1673274264
C       -4.1480634996     1.0020511594     0.1378562034
H       -5.6120614086     -0.3305834140     -0.7170356034
H       -6.3057931141     1.0189733901     0.1965429480
H       -5.5780204290     -0.3415087214     1.0509123978
O       -3.0567137839     0.1056946957     0.0481415319
H       -4.0420097215     1.6509963225     1.0148094335
H       -4.0757232558     1.6379677133     -0.7441343797
H       -2.2940452196     0.5789983227     -0.2841099578
$end
--------------------------------------------------------------
 ----------------------------------------------------------------
             Standard Nuclear Orientation (Angstroms)
    I     Atom           X                Y                Z
 ----------------------------------------------------------------
    1      C      -5.4903795678     0.2946305317     0.1673274264
    2      C      -4.1480634996     1.0020511594     0.1378562034
    3      H      -5.6120614086    -0.3305834140    -0.7170356034
    4      H      -6.3057931141     1.0189733901     0.1965429480
    5      H      -5.5780204290    -0.3415087214     1.0509123978
    6      O      -3.0567137839     0.1056946957     0.0481415319
    7      H      -4.0420097215     1.6509963225     1.0148094335
    8      H      -4.0757232558     1.6379677133    -0.7441343797
    9      H      -2.2940452196     0.5789983227    -0.2841099578
 ----------------------------------------------------------------
 Nuclear Repulsion Energy =          81.62351292 hartrees
 There are       13 alpha and       13 beta electrons
 Requested basis set is 6-311+G(2df,2pd)
 There are 60 shells and 186 basis functions

 Total QAlloc Memory Limit   2000 MB
 Mega-Array Size       188 MB
 MEM_STATIC part       192 MB

                       Distance Matrix (Angstroms)
             C (  1)   C (  2)   H (  3)   H (  4)   H (  5)   O (  6)
   C (  2)  1.517605
   H (  3)  1.089861  2.156396
   H (  4)  1.091066  2.158594  1.771212
   H (  5)  1.092280  2.164163  1.768309  1.763664
   O (  6)  2.443897  1.415114  2.702894  3.378257  2.750005
   H (  7)  2.157714  1.096095  3.064475  2.488720  2.516090  2.072007
   H (  8)  2.153270  1.089739  2.497251  2.498247  3.065521  2.003482
   H (  9)  3.240558  1.947925  3.467563  4.064324  3.662528  0.957116
             H (  7)   H (  8)
   H (  8)  1.759315
   H (  9)  2.427293  2.123067
 
 A cutoff of  1.0D-09 yielded   1762 shell pairs
 There are     17115 function pairs (     21264 Cartesian)
 Smallest overlap matrix eigenvalue = 1.26E-04

 Scale SEOQF with 1.000000e-02/1.000000e-01/1.000000e-01

 Standard Electronic Orientation quadrupole field applied
 Nucleus-field energy     =     0.0000000024 hartrees
 Requested basis set is 6-31G(d)
 There are 24 shells and 54 basis functions
 A cutoff of  1.0D-09 yielded    297 shell pairs
 There are      1548 function pairs (      1731 Cartesian)
 Smallest overlap matrix eigenvalue = 7.27E-03
 Guess from superposition of atomic densities
 Warning:  Energy on first SCF cycle will be non-variational
 SAD guess density has 26.000000 electrons
 Long-range K will be added via erf
 Coulomb attenuation parameter = 0.2 bohr**(-1)
 A restricted hybrid HF-DFT SCF calculation will be
 performed using Relaxed Constraint Minimization + Pulay DIIS
 Exchange:     0.2220 Hartree-Fock + 1.0000 wB97X-D + LR-HF
 Correlation:  1.0000 wB97X-D
 Using Euler-Maclaurin-Lebedev (75,302) quadrature formula
 Dispersion:   Grimme D
 SCF converges when DIIS error is below 1.0E-04
 using 6 threads for integral computing
 -------------------------------------------------------
 OpenMP Integral computing Module                
 Release: version 1.0, May 2013, Q-Chem Inc. Pittsburgh 
 -------------------------------------------------------
 using 6 threads for integral computing
 -------------------------------------------------------
 OpenMP Integral computing Module                
 Release: version 1.0, May 2013, Q-Chem Inc. Pittsburgh 
 -------------------------------------------------------
 ---------------------------------------
  Cycle       Energy         DIIS Error
 ---------------------------------------
    1    -155.4317395400      1.06E-01
    2    -154.9221945555      1.37E-02
    3    -154.9509683775      2.91E-03
    4    -154.9784107515      2.14E-03
    5    -154.9789907195      2.09E-04 Done RCA. Switching to DIIS
    6    -154.9796368172      7.12E-05 Convergence criterion met
 ---------------------------------------
 SCF time:  CPU 13.12 s  wall 2.20 s
 SCF   energy in the small basis set = -154.97963682
 Total energy in the small basis set = -154.97963682
 ----------------------------------------------------
  Cycle       Energy    
 ----------------------------------------------------
    1     -18.7511542994     -1.88E+01
 Long-range K will be added via erf
 Coulomb attenuation parameter = 0.2 bohr**(-1)
 A restricted hybrid HF-DFT SCF calculation will be
 performed using Relaxed Constraint Minimization + Pulay DIIS
 Exchange:     0.2220 Hartree-Fock + 1.0000 wB97X-D + LR-HF
 Correlation:  1.0000 wB97X-D
 Using Euler-Maclaurin-Lebedev (75,302) quadrature formula
 Dispersion:   Grimme D
 SCF converges when DIIS error is below 1.0E-05
 Basis2 calculation detected. Using small basis as guess for larger.
 SCFMinFind is unable to tell whether the solution found is close.
 Resetting ReadMinima to 0 and attempting to follow guess.
 SCFMinFind following SCF Guess.
 using 6 threads for integral computing
 -------------------------------------------------------
 OpenMP Integral computing Module                
 Release: version 1.0, May 2013, Q-Chem Inc. Pittsburgh 
 -------------------------------------------------------
 using 6 threads for integral computing
 -------------------------------------------------------
 OpenMP Integral computing Module                
 Release: version 1.0, May 2013, Q-Chem Inc. Pittsburgh 
 -------------------------------------------------------
 ---------------------------------------
  Cycle       Energy         DIIS Error
 ---------------------------------------
    1    -155.0114016703      5.73E-03
    2    -155.0263784126      2.92E-03
    3    -155.0364676839      3.51E-04 Done RCA. Switching to DIIS
    4    -155.0485698151      2.61E-04
    5    -155.0487689248      3.90E-05
    6    -155.0487762247      6.17E-06 Convergence criterion met
 ---------------------------------------
 SCF time:  CPU 38.98 s  wall 6.52 s
 SCF   energy in the final basis set = -155.04877622
 Total energy in the final basis set = -155.04877622
 
 --------------------------------------------------------------
 
                    Orbital Energies (a.u.)
 --------------------------------------------------------------
 
 Alpha MOs
 -- Occupied --
-19.2450 -10.3274 -10.2717  -1.1254  -0.8497  -0.7095  -0.6093  -0.5565
 -0.4945  -0.4741  -0.4548  -0.4131  -0.3586
 -- Virtual --
  0.0630   0.0823   0.0976   0.1028   0.1276   0.1336   0.1365   0.1827
  0.2119   0.2284   0.2334   0.2466   0.2514   0.2878   0.2943   0.3068
  0.3155   0.3227   0.3570   0.3960   0.4679   0.4966   0.5094   0.5179
  0.5584   0.5817   0.5885   0.5993   0.6177   0.6519   0.6608   0.6637
  0.6977   0.7190   0.7517   0.8314   0.8596   0.8806   0.9324   0.9472
  0.9625   1.0612   1.0954   1.1033   1.1382   1.1657   1.1782   1.2124
  1.2296   1.2387   1.2516   1.3051   1.3383   1.3524   1.3654   1.4078
  1.4450   1.4560   1.4672   1.4849   1.5280   1.5531   1.5862   1.6277
  1.6498   1.7543   1.9376   2.0649   2.1236   2.2479   2.3232   2.4509
  2.4768   2.5185   2.5596   2.5896   2.7312   2.8006   2.8380   2.8663
  2.9201   2.9825   3.0244   3.0314   3.0511   3.0522   3.0546   3.0832
  3.1102   3.1692   3.2077   3.2611   3.2924   3.3108   3.3250   3.3359
  3.3464   3.3832   3.3951   3.4720   3.5076   3.5765   3.5779   3.5834
  3.5957   3.6226   3.6389   3.7151   3.7166   3.7519   3.8100   3.8418
  3.8728   3.9029   3.9383   3.9580   3.9985   3.9991   4.0530   4.0620
  4.0991   4.1228   4.1326   4.1993   4.2104   4.2397   4.2563   4.3239
  4.3714   4.4181   4.4645   4.4973   4.5534   4.6676   4.7402   4.7637
  4.8479   4.9137   4.9344   4.9697   5.0140   5.0562   5.0718   5.2279
  5.2348   5.2748   5.2999   5.3028   5.3381   5.3864   5.3965   5.5108
  5.5250   5.6506   5.6919   5.8120   5.9504   6.0288   6.3718   6.3814
  6.4184   6.6497   6.6895   6.8007   7.1267   7.3414   7.4419   7.5927
  7.7005   8.1349  25.1854  25.4326  50.4652
 --------------------------------------------------------------
 
 -----------------------------------------------------------------
                    Cartesian Multipole Moments
 -----------------------------------------------------------------
    Charge (ESU x 10^10)
                 0.0000
    Dipole Moment (Debye)
         X      -0.0709      Y       1.6132      Z      -0.4567
       Tot       1.6781
    Quadrupole Moments (Debye-Ang)
        XX     -16.8868     XY      -4.7498     YY     -19.2449
        XZ       0.5464     YZ      -0.2576     ZZ     -19.9513
    Octopole Moments (Debye-Ang^2)
       XXX     231.9338    XXY       5.6895    XYY      84.0582
       YYY     -29.9376    XXZ      -1.4739    XYZ       0.3544
       YYZ      -2.3335    XZZ      85.9622    YZZ      -9.9686
       ZZZ      -6.8093
    Hexadecapole Moments (Debye-Ang^3)
      XXXX   -2233.6376   XXXY      68.3262   XXYY    -405.1971
      XYYY     129.2822   YYYY     -87.1883   XXXZ      22.7593
      XXYZ      -0.8967   XYYZ      10.8675   YYYZ      -3.8901
      XXZZ    -404.5145   XYZZ      44.4870   YYZZ     -19.1714
      XZZZ      33.1534   YZZZ      -4.1106   ZZZZ     -36.2068
 -----------------------------------------------------------------
Archival summary:
1\1\centos77-c7\SP\ProcedureUnspecified\BasisUnspecified\126\shihchen\MonJul2714:22:012020MonJul2714:22:012020\0\\#,ProcedureUnspecified,BasisUnspecified,\\0,1\C\H,1,1.08974\H,1,1.09609,2,107.195\O,1,1.41511,2,105.493,3,-117.852,0\H,4,0.957116,1,108.863,2,38.9895,0\C,1,1.5176,2,110.27,3,120.028,0\H,6,1.08986,1,110.512,2,60.2497,0\H,6,1.09107,1,110.615,2,-60.0673,0\H,6,1.09228,1,110.987,2,-179.628,0\\\@

 Total job time:  10.86s(wall), 55.95s(cpu) 
 Mon Jul 27 14:22:01 2020

        *************************************************************
        *                                                           *
        *  Thank you very much for using Q-Chem.  Have a nice day.  *
        *                                                           *
        *************************************************************


