                  Welcome to Q-Chem
     A Quantum Leap Into The Future Of Chemistry


 Q-Chem 5.3 (devel), Q-Chem, Inc., Pleasanton, CA (2020)

 Yihan Shao,  Zhengting Gan,  E. Epifanovsky,  A. T. B. Gilbert,  M. Wormit,  
 J. Kussmann,  A. W. Lange,  A. Behn,  Jia Deng,  Xintian Feng,  D. Ghosh,  
 M. Goldey,  P. R. Horn,  L. D. Jacobson,  I. Kaliman,  T. Kus,  A. Landau,  
 Jie Liu,  E. I. Proynov,  R. M. Richard,  R. P. Steele,  E. J. Sundstrom,  
 H. L. Woodcock III,  P. M. Zimmerman,  D. Zuev,  B. Alam,  B. Albrecht,  
 E. Alguire,  S. A. Baeppler,  D. Barton,  Z. Benda,  Y. A. Bernard,  
 E. J. Berquist,  K. B. Bravaya,  H. Burton,  K. Carter-Fenk,  D. Casanova,  
 Chun-Min Chang,  Yunqing Chen,  A. Chien,  K. D. Closser,  M. P. Coons,  
 S. Coriani,  S. Dasgupta,  A. L. Dempwolff,  M. Diedenhofen,  Hainam Do,  
 R. G. Edgar,  Po-Tung Fang,  S. Faraji,  S. Fatehi,  Qingguo Feng,  
 J. Fosso-Tande,  J. Gayvert,  Qinghui Ge,  A. Ghysels,  G. Gidofalvi,  
 J. Gomes,  J. Gonthier,  A. Gunina,  D. Hait,  M. W. D. Hanson-Heine,  
 P. H. P. Harbach,  A. W. Hauser,  M. F. Herbst,  J. E. Herr,  
 E. G. Hohenstein,  Z. C. Holden,  Kerwin Hui,  B. C. Huynh,  T.-C. Jagau,  
 Hyunjun Ji,  B. Kaduk,  K. Khistyaev,  Jaehoon Kim,  P. Klunzinger,  K. Koh,  
 D. Kosenkov,  L. Koulias,  T. Kowalczyk,  C. M. Krauter,  A. Kunitsa,  
 Ka Un Lao,  A. Laurent,  K. V. Lawler,  Joonho Lee,  D. Lefrancois,  
 S. Lehtola,  D. S. Levine,  Yi-Pei Li,  You-Sheng Lin,  Fenglai Liu,  
 Kuan-Yu Liu,  E. Livshits,  M. Loipersberger,  A. Luenser,  P. Manohar,  
 E. Mansoor,  S. F. Manzer,  Shan-Ping Mao,  Yuezhi Mao,  N. Mardirossian,  
 A. V. Marenich,  T. Markovich,  L. A. Martinez-Martinez,  S. A. Maurer,  
 N. J. Mayhall,  S. C. McKenzie,  J.-M. Mewes,  P. Morgante,  A. F. Morrison,  
 J. W. Mullinax,  K. Nanda,  T. S. Nguyen-Beck,  R. Olivares-Amaya,  
 K. J. Oosterbaan,  J. A. Parkhill,  S. K. Paul,  F. Pavosevic,  Zheng Pei,  
 T. M. Perrine,  F. Plasser,  P. Pokhilko,  S. Prager,  A. Prociuk,  
 E. Ramos,  B. Rana,  D. R. Rehn,  F. Rob,  M. Scheurer,  M. Schneider,  
 N. Sergueev,  S. M. Sharada,  S. Sharma,  D. W. Small,  T. Stauch,  
 C. J. Stein,  T. Stein,  Yu-Chuan Su,  S. P. Veccham,  Zhen Tao,  
 A. J. W. Thom,  A. Tkatchenko,  T. Tsuchimochi,  N. M. Tubman,  L. Vogt,  
 M. L. Vidal,  O. Vydrov,  M. A. Watson,  J. Wenzel,  M. de Wergifosse,  
 T. A. Wesolowski,  A. White,  J. Witte,  A. Yamada,  Jun Yang,  K. Yao,  
 S. Yeganeh,  S. R. Yost,  Zhi-Qiang You,  A. Zech,  Igor Ying Zhang,  
 Xing Zhang,  Yan Zhao,  Ying Zhu,  B. R. Brooks,  G. K. L. Chan,  
 C. J. Cramer,  M. S. Gordon,  W. J. Hehre,  A. Klamt,  M. W. Schmidt,  
 C. D. Sherrill,  D. G. Truhlar,  A. Aspuru-Guzik,  R. Baer,  A. T. Bell,  
 N. A. Besley,  Jeng-Da Chai,  A. E. DePrince, III,  R. A. DiStasio Jr.,  
 A. Dreuw,  B. D. Dunietz,  T. R. Furlani,  Chao-Ping Hsu,  Yousung Jung,  
 Jing Kong,  D. S. Lambrecht,  WanZhen Liang,  C. Ochsenfeld,  
 V. A. Rassolov,  L. V. Slipchenko,  J. E. Subotnik,  T. Van Voorhis,  
 J. M. Herbert,  A. I. Krylov,  P. M. W. Gill,  M. Head-Gordon

 Contributors to earlier versions of Q-Chem not listed above: 
 R. D. Adamson,  B. Austin,  J. Baker,  G. J. O. Beran,  K. Brandhorst,  
 S. T. Brown,  E. F. C. Byrd,  A. K. Chakraborty,  C.-L. Cheng,  
 Siu Hung Chien,  D. M. Chipman,  D. L. Crittenden,  H. Dachsel,  
 R. J. Doerksen,  A. D. Dutoi,  L. Fusti-Molnar,  W. A. Goddard III,  
 A. Golubeva-Zadorozhnaya,  S. R. Gwaltney,  G. Hawkins,  A. Heyden,  
 S. Hirata,  G. Kedziora,  F. J. Keil,  C. Kelley,  Jihan Kim,  R. A. King,  
 R. Z. Khaliullin,  P. P. Korambath,  W. Kurlancheek,  A. M. Lee,  M. S. Lee,  
 S. V. Levchenko,  Ching Yeh Lin,  D. Liotard,  R. C. Lochan,  I. Lotan,  
 P. E. Maslen,  N. Nair,  D. P. O'Neill,  D. Neuhauser,  E. Neuscamman,  
 C. M. Oana,  R. Olson,  B. Peters,  R. Peverati,  P. A. Pieniazek,  
 Y. M. Rhee,  J. Ritchie,  M. A. Rohrdanz,  E. Rosta,  N. J. Russ,  
 H. F. Schaefer III,  N. E. Schultz,  N. Shenvi,  A. C. Simmonett,  A. Sodt,  
 D. Stuck,  K. S. Thanthiriwatte,  V. Vanovschi,  Tao Wang,  A. Warshel,  
 C. F. Williams,  Q. Wu,  X. Xu,  W. Zhang

 Please cite Q-Chem as follows:
 Y. Shao et al., Mol. Phys. 113, 184-215 (2015)
 DOI: 10.1080/00268976.2014.952696

 Q-Chem 5.3.0 for Intel X86 EM64T Linux

 Parts of Q-Chem use Armadillo 9.800.1 (Horizon Scraper).
 http://arma.sourceforge.net/

 Q-Chem begins on Mon Jul 27 14:14:56 2020  

Host: centos77-c7
0

     Scratch files written to /tmp/29924.centos77-h1/qchem102019//
Processing $rem in /opt/qchem-5.3.0-intel2020u1//config/preferences:
Processing $rem in /home/shihchengli/.qchemrc:

Checking the input file for inconsistencies... 	...done.

--------------------------------------------------------------
User input:
--------------------------------------------------------------
$rem
   JOBTYPE  sp
   EXCHANGE   omegaB97X-D
   BASIS   6-311+G(2df,2pd)
   UNRESTRICTED   False
   max_scf_cycles   250
   geom_opt_max_cycles   1500
   basis2 6-31G*
   scf_algorithm rca_diis
   SYM_IGNORE  TRUE
   print_input   true
   geom_opt_dmax   80
   pop_mulliken false
   XC_GRID 000075000302
$end

$molecule
0 1
C       -5.3534558026     0.2555844780     0.1347823195
C       -4.0537645204     0.9762514018     0.4422992788
H       -5.7158358159     -0.2715941448     1.0171429841
H       -5.2104898727     -0.4682118319     -0.6690242612
H       -6.1251802902     0.9596700508     -0.1842494861
O       -3.3391345999     1.3413490050     -0.7232716762
H       -3.4276223878     0.3643168443     1.1017735569
H       -4.2549238686     1.9109583515     0.9651646513
H       -3.1224028418     0.5488958453     -1.2143073668
$end
--------------------------------------------------------------
 ----------------------------------------------------------------
             Standard Nuclear Orientation (Angstroms)
    I     Atom           X                Y                Z
 ----------------------------------------------------------------
    1      C      -5.3534558026     0.2555844780     0.1347823195
    2      C      -4.0537645204     0.9762514018     0.4422992788
    3      H      -5.7158358159    -0.2715941448     1.0171429841
    4      H      -5.2104898727    -0.4682118319    -0.6690242612
    5      H      -6.1251802902     0.9596700508    -0.1842494861
    6      O      -3.3391345999     1.3413490050    -0.7232716762
    7      H      -3.4276223878     0.3643168443     1.1017735569
    8      H      -4.2549238686     1.9109583515     0.9651646513
    9      H      -3.1224028418     0.5488958453    -1.2143073668
 ----------------------------------------------------------------
 Nuclear Repulsion Energy =          81.91804252 hartrees
 There are       13 alpha and       13 beta electrons
 Requested basis set is 6-311+G(2df,2pd)
 There are 60 shells and 186 basis functions

 Total QAlloc Memory Limit   2000 MB
 Mega-Array Size       188 MB
 MEM_STATIC part       192 MB

                       Distance Matrix (Angstroms)
             C (  1)   C (  2)   H (  3)   H (  4)   H (  5)   O (  6)
   C (  2)  1.517605
   H (  3)  1.089861  2.156396
   H (  4)  1.091066  2.158594  1.771212
   H (  5)  1.092280  2.164163  1.768309  1.763664
   O (  6)  2.443897  1.415114  3.358472  2.603733  2.863263
   H (  7)  2.157714  1.096095  2.376440  2.647158  3.047149  2.072007
   H (  8)  2.153270  1.089739  2.626880  3.040416  2.392480  2.003482
   H (  9)  2.623675  1.947925  3.518305  2.385781  3.201004  0.957116
             H (  7)   H (  8)
   H (  8)  1.759315
   H (  9)  2.343386  2.808543
 
 A cutoff of  1.0D-09 yielded   1783 shell pairs
 There are     17312 function pairs (     21499 Cartesian)
 Smallest overlap matrix eigenvalue = 1.28E-04

 Scale SEOQF with 1.000000e-02/1.000000e-01/1.000000e-01

 Standard Electronic Orientation quadrupole field applied
 Nucleus-field energy     =     0.0000000025 hartrees
 Requested basis set is 6-31G(d)
 There are 24 shells and 54 basis functions
 A cutoff of  1.0D-09 yielded    298 shell pairs
 There are      1549 function pairs (      1732 Cartesian)
 Smallest overlap matrix eigenvalue = 7.07E-03
 Guess from superposition of atomic densities
 Warning:  Energy on first SCF cycle will be non-variational
 SAD guess density has 26.000000 electrons
 Long-range K will be added via erf
 Coulomb attenuation parameter = 0.2 bohr**(-1)
 A restricted hybrid HF-DFT SCF calculation will be
 performed using Relaxed Constraint Minimization + Pulay DIIS
 Exchange:     0.2220 Hartree-Fock + 1.0000 wB97X-D + LR-HF
 Correlation:  1.0000 wB97X-D
 Using Euler-Maclaurin-Lebedev (75,302) quadrature formula
 Dispersion:   Grimme D
 SCF converges when DIIS error is below 1.0E-04
 using 6 threads for integral computing
 -------------------------------------------------------
 OpenMP Integral computing Module                
 Release: version 1.0, May 2013, Q-Chem Inc. Pittsburgh 
 -------------------------------------------------------
 using 6 threads for integral computing
 -------------------------------------------------------
 OpenMP Integral computing Module                
 Release: version 1.0, May 2013, Q-Chem Inc. Pittsburgh 
 -------------------------------------------------------
 ---------------------------------------
  Cycle       Energy         DIIS Error
 ---------------------------------------
    1    -155.4350250648      1.06E-01
    2    -154.9249217028      1.36E-02
    3    -154.9532935905      3.04E-03
    4    -154.9794846727      2.41E-03
    5    -154.9802091128      2.26E-04 Done RCA. Switching to DIIS
    6    -154.9810208593      1.01E-04
    7    -154.9810240301      7.54E-06 Convergence criterion met
 ---------------------------------------
 SCF time:  CPU 14.25 s  wall 2.39 s
 SCF   energy in the small basis set = -154.98102403
 Total energy in the small basis set = -154.98102403
 ----------------------------------------------------
  Cycle       Energy    
 ----------------------------------------------------
    1     -18.7522978325     -1.88E+01
 Long-range K will be added via erf
 Coulomb attenuation parameter = 0.2 bohr**(-1)
 A restricted hybrid HF-DFT SCF calculation will be
 performed using Relaxed Constraint Minimization + Pulay DIIS
 Exchange:     0.2220 Hartree-Fock + 1.0000 wB97X-D + LR-HF
 Correlation:  1.0000 wB97X-D
 Using Euler-Maclaurin-Lebedev (75,302) quadrature formula
 Dispersion:   Grimme D
 SCF converges when DIIS error is below 1.0E-05
 Basis2 calculation detected. Using small basis as guess for larger.
 SCFMinFind is unable to tell whether the solution found is close.
 Resetting ReadMinima to 0 and attempting to follow guess.
 SCFMinFind following SCF Guess.
 using 6 threads for integral computing
 -------------------------------------------------------
 OpenMP Integral computing Module                
 Release: version 1.0, May 2013, Q-Chem Inc. Pittsburgh 
 -------------------------------------------------------
 using 6 threads for integral computing
 -------------------------------------------------------
 OpenMP Integral computing Module                
 Release: version 1.0, May 2013, Q-Chem Inc. Pittsburgh 
 -------------------------------------------------------
 ---------------------------------------
  Cycle       Energy         DIIS Error
 ---------------------------------------
    1    -155.0125974864      5.72E-03
    2    -155.0280532288      2.86E-03
    3    -155.0377032835      3.48E-04 Done RCA. Switching to DIIS
    4    -155.0492829850      2.51E-04
    5    -155.0494714291      3.93E-05
    6    -155.0494792775      5.63E-06 Convergence criterion met
 ---------------------------------------
 SCF time:  CPU 39.20 s  wall 6.56 s
 SCF   energy in the final basis set = -155.04947928
 Total energy in the final basis set = -155.04947928
 
 --------------------------------------------------------------
 
                    Orbital Energies (a.u.)
 --------------------------------------------------------------
 
 Alpha MOs
 -- Occupied --
-19.2459 -10.3271 -10.2744  -1.1259  -0.8498  -0.7232  -0.5958  -0.5453
 -0.5233  -0.4717  -0.4581  -0.4106  -0.3621
 -- Virtual --
  0.0658   0.0877   0.0892   0.1022   0.1274   0.1328   0.1366   0.1796
  0.1990   0.2073   0.2359   0.2448   0.2771   0.2869   0.2922   0.3090
  0.3183   0.3305   0.3428   0.3816   0.4582   0.4956   0.5019   0.5208
  0.5649   0.5687   0.5836   0.6040   0.6166   0.6320   0.6590   0.6805
  0.6834   0.7136   0.7620   0.8034   0.8444   0.9040   0.9257   0.9698
  0.9922   1.0483   1.0615   1.1045   1.1378   1.1757   1.1881   1.2161
  1.2309   1.2447   1.2746   1.3086   1.3250   1.3371   1.3785   1.4146
  1.4426   1.4519   1.4717   1.4825   1.5129   1.5331   1.5972   1.6252
  1.6421   1.6967   1.9445   2.0373   2.1213   2.2671   2.2863   2.4283
  2.4457   2.5310   2.5832   2.6034   2.6931   2.8086   2.8476   2.8804
  2.9179   2.9740   3.0067   3.0277   3.0394   3.0624   3.0718   3.0863
  3.1009   3.1717   3.2142   3.2556   3.2707   3.2891   3.3238   3.3310
  3.3626   3.3963   3.4202   3.4423   3.5134   3.5578   3.5702   3.5779
  3.6202   3.6219   3.6609   3.6965   3.7379   3.7570   3.7864   3.8272
  3.8649   3.8856   3.9477   3.9809   3.9851   4.0311   4.0405   4.0671
  4.1038   4.1235   4.1444   4.1827   4.2039   4.2266   4.2884   4.3167
  4.3441   4.3808   4.4959   4.5018   4.5166   4.6232   4.7223   4.7757
  4.8524   4.9280   4.9586   4.9665   5.0214   5.0663   5.1191   5.1877
  5.2194   5.2552   5.2686   5.3169   5.3323   5.3469   5.4023   5.4684
  5.5294   5.5718   5.6774   5.8454   5.9295   6.0310   6.3502   6.3704
  6.4227   6.6561   6.7085   6.8224   7.1320   7.3484   7.4231   7.5526
  7.7263   8.1184  25.1458  25.4196  50.4628
 --------------------------------------------------------------
 
 -----------------------------------------------------------------
                    Cartesian Multipole Moments
 -----------------------------------------------------------------
    Charge (ESU x 10^10)
                 0.0000
    Dipole Moment (Debye)
         X      -0.5542      Y      -1.6063      Z       0.4993
       Tot       1.7711
    Quadrupole Moments (Debye-Ang)
        XX     -15.9734     XY       4.0876     YY     -23.0832
        XZ      -2.5378     YZ       2.6259     ZZ     -19.1616
    Octopole Moments (Debye-Ang^2)
       XXX     237.7193    XXY     -24.1786    XYY      94.7456
       YYY     -51.6917    XXZ      12.0092    XYZ      -9.3397
       YYZ       5.2843    XZZ      84.6994    YZZ     -17.7329
       ZZZ      -0.8824
    Hexadecapole Moments (Debye-Ang^3)
      XXXX   -2268.7284   XXXY     185.1756   XXYY    -436.6579
      XYYY     192.1740   YYYY    -140.2353   XXXZ     -41.3577
      XXYZ      34.5224   XYYZ     -14.3472   YYYZ      15.8401
      XXZZ    -403.0117   XYZZ      68.8837   YYZZ     -36.4815
      XZZZ      13.1289   YZZZ       6.9495   ZZZZ     -63.3522
 -----------------------------------------------------------------
Archival summary:
1\1\centos77-c7\SP\ProcedureUnspecified\BasisUnspecified\126\shihchen\MonJul2714:15:082020MonJul2714:15:082020\0\\#,ProcedureUnspecified,BasisUnspecified,\\0,1\C\H,1,1.08974\H,1,1.09609,2,107.195\O,1,1.41511,2,105.493,3,-117.852,0\H,4,0.957116,1,108.863,2,178.989,0\C,1,1.5176,2,110.27,3,120.028,0\H,6,1.08986,1,110.512,2,-79.7503,0\H,6,1.09107,1,110.615,2,159.933,0\H,6,1.09228,1,110.987,2,40.3721,0\\\@

 Total job time:  11.16s(wall), 57.57s(cpu) 
 Mon Jul 27 14:15:08 2020

        *************************************************************
        *                                                           *
        *  Thank you very much for using Q-Chem.  Have a nice day.  *
        *                                                           *
        *************************************************************


