                  Welcome to Q-Chem
     A Quantum Leap Into The Future Of Chemistry


 Q-Chem 5.3 (devel), Q-Chem, Inc., Pleasanton, CA (2020)

 Yihan Shao,  Zhengting Gan,  E. Epifanovsky,  A. T. B. Gilbert,  M. Wormit,  
 J. Kussmann,  A. W. Lange,  A. Behn,  Jia Deng,  Xintian Feng,  D. Ghosh,  
 M. Goldey,  P. R. Horn,  L. D. Jacobson,  I. Kaliman,  T. Kus,  A. Landau,  
 Jie Liu,  E. I. Proynov,  R. M. Richard,  R. P. Steele,  E. J. Sundstrom,  
 H. L. Woodcock III,  P. M. Zimmerman,  D. Zuev,  B. Alam,  B. Albrecht,  
 E. Alguire,  S. A. Baeppler,  D. Barton,  Z. Benda,  Y. A. Bernard,  
 E. J. Berquist,  K. B. Bravaya,  H. Burton,  K. Carter-Fenk,  D. Casanova,  
 Chun-Min Chang,  Yunqing Chen,  A. Chien,  K. D. Closser,  M. P. Coons,  
 S. Coriani,  S. Dasgupta,  A. L. Dempwolff,  M. Diedenhofen,  Hainam Do,  
 R. G. Edgar,  Po-Tung Fang,  S. Faraji,  S. Fatehi,  Qingguo Feng,  
 J. Fosso-Tande,  J. Gayvert,  Qinghui Ge,  A. Ghysels,  G. Gidofalvi,  
 J. Gomes,  J. Gonthier,  A. Gunina,  D. Hait,  M. W. D. Hanson-Heine,  
 P. H. P. Harbach,  A. W. Hauser,  M. F. Herbst,  J. E. Herr,  
 E. G. Hohenstein,  Z. C. Holden,  Kerwin Hui,  B. C. Huynh,  T.-C. Jagau,  
 Hyunjun Ji,  B. Kaduk,  K. Khistyaev,  Jaehoon Kim,  P. Klunzinger,  K. Koh,  
 D. Kosenkov,  L. Koulias,  T. Kowalczyk,  C. M. Krauter,  A. Kunitsa,  
 Ka Un Lao,  A. Laurent,  K. V. Lawler,  Joonho Lee,  D. Lefrancois,  
 S. Lehtola,  D. S. Levine,  Yi-Pei Li,  You-Sheng Lin,  Fenglai Liu,  
 Kuan-Yu Liu,  E. Livshits,  M. Loipersberger,  A. Luenser,  P. Manohar,  
 E. Mansoor,  S. F. Manzer,  Shan-Ping Mao,  Yuezhi Mao,  N. Mardirossian,  
 A. V. Marenich,  T. Markovich,  L. A. Martinez-Martinez,  S. A. Maurer,  
 N. J. Mayhall,  S. C. McKenzie,  J.-M. Mewes,  P. Morgante,  A. F. Morrison,  
 J. W. Mullinax,  K. Nanda,  T. S. Nguyen-Beck,  R. Olivares-Amaya,  
 K. J. Oosterbaan,  J. A. Parkhill,  S. K. Paul,  F. Pavosevic,  Zheng Pei,  
 T. M. Perrine,  F. Plasser,  P. Pokhilko,  S. Prager,  A. Prociuk,  
 E. Ramos,  B. Rana,  D. R. Rehn,  F. Rob,  M. Scheurer,  M. Schneider,  
 N. Sergueev,  S. M. Sharada,  S. Sharma,  D. W. Small,  T. Stauch,  
 C. J. Stein,  T. Stein,  Yu-Chuan Su,  S. P. Veccham,  Zhen Tao,  
 A. J. W. Thom,  A. Tkatchenko,  T. Tsuchimochi,  N. M. Tubman,  L. Vogt,  
 M. L. Vidal,  O. Vydrov,  M. A. Watson,  J. Wenzel,  M. de Wergifosse,  
 T. A. Wesolowski,  A. White,  J. Witte,  A. Yamada,  Jun Yang,  K. Yao,  
 S. Yeganeh,  S. R. Yost,  Zhi-Qiang You,  A. Zech,  Igor Ying Zhang,  
 Xing Zhang,  Yan Zhao,  Ying Zhu,  B. R. Brooks,  G. K. L. Chan,  
 C. J. Cramer,  M. S. Gordon,  W. J. Hehre,  A. Klamt,  M. W. Schmidt,  
 C. D. Sherrill,  D. G. Truhlar,  A. Aspuru-Guzik,  R. Baer,  A. T. Bell,  
 N. A. Besley,  Jeng-Da Chai,  A. E. DePrince, III,  R. A. DiStasio Jr.,  
 A. Dreuw,  B. D. Dunietz,  T. R. Furlani,  Chao-Ping Hsu,  Yousung Jung,  
 Jing Kong,  D. S. Lambrecht,  WanZhen Liang,  C. Ochsenfeld,  
 V. A. Rassolov,  L. V. Slipchenko,  J. E. Subotnik,  T. Van Voorhis,  
 J. M. Herbert,  A. I. Krylov,  P. M. W. Gill,  M. Head-Gordon

 Contributors to earlier versions of Q-Chem not listed above: 
 R. D. Adamson,  B. Austin,  J. Baker,  G. J. O. Beran,  K. Brandhorst,  
 S. T. Brown,  E. F. C. Byrd,  A. K. Chakraborty,  C.-L. Cheng,  
 Siu Hung Chien,  D. M. Chipman,  D. L. Crittenden,  H. Dachsel,  
 R. J. Doerksen,  A. D. Dutoi,  L. Fusti-Molnar,  W. A. Goddard III,  
 A. Golubeva-Zadorozhnaya,  S. R. Gwaltney,  G. Hawkins,  A. Heyden,  
 S. Hirata,  G. Kedziora,  F. J. Keil,  C. Kelley,  Jihan Kim,  R. A. King,  
 R. Z. Khaliullin,  P. P. Korambath,  W. Kurlancheek,  A. M. Lee,  M. S. Lee,  
 S. V. Levchenko,  Ching Yeh Lin,  D. Liotard,  R. C. Lochan,  I. Lotan,  
 P. E. Maslen,  N. Nair,  D. P. O'Neill,  D. Neuhauser,  E. Neuscamman,  
 C. M. Oana,  R. Olson,  B. Peters,  R. Peverati,  P. A. Pieniazek,  
 Y. M. Rhee,  J. Ritchie,  M. A. Rohrdanz,  E. Rosta,  N. J. Russ,  
 H. F. Schaefer III,  N. E. Schultz,  N. Shenvi,  A. C. Simmonett,  A. Sodt,  
 D. Stuck,  K. S. Thanthiriwatte,  V. Vanovschi,  Tao Wang,  A. Warshel,  
 C. F. Williams,  Q. Wu,  X. Xu,  W. Zhang

 Please cite Q-Chem as follows:
 Y. Shao et al., Mol. Phys. 113, 184-215 (2015)
 DOI: 10.1080/00268976.2014.952696

 Q-Chem 5.3.0 for Intel X86 EM64T Linux

 Parts of Q-Chem use Armadillo 9.800.1 (Horizon Scraper).
 http://arma.sourceforge.net/

 Q-Chem begins on Mon Jul 27 14:23:29 2020  

Host: centos77-c7
0

     Scratch files written to /tmp/29924.centos77-h1/qchem104191//
Processing $rem in /opt/qchem-5.3.0-intel2020u1//config/preferences:
Processing $rem in /home/shihchengli/.qchemrc:

Checking the input file for inconsistencies... 	...done.

--------------------------------------------------------------
User input:
--------------------------------------------------------------
$rem
   JOBTYPE  sp
   EXCHANGE   omegaB97X-D
   BASIS   6-311+G(2df,2pd)
   UNRESTRICTED   False
   max_scf_cycles   250
   geom_opt_max_cycles   1500
   basis2 6-31G*
   scf_algorithm rca_diis
   SYM_IGNORE  TRUE
   print_input   true
   geom_opt_dmax   80
   pop_mulliken false
   XC_GRID 000075000302
$end

$molecule
0 1
C       -5.4393121908     0.2911820197     0.1782073949
C       -4.1598147331     1.0786952589     -0.0358815544
H       -5.6664976667     -0.3141541453     -0.6991476095
H       -6.2779919420     0.9639552593     0.3637277911
H       -5.3494432119     -0.3745889130     1.0394559673
O       -3.0494301858     0.2526725120     -0.3313141405
H       -3.9505181909     1.7069847337     0.8375435938
H       -4.2644965425     1.7432762563     -0.8931470790
H       -2.4453053361     0.2691970184     0.4108656365
$end
--------------------------------------------------------------
 ----------------------------------------------------------------
             Standard Nuclear Orientation (Angstroms)
    I     Atom           X                Y                Z
 ----------------------------------------------------------------
    1      C      -5.4393121908     0.2911820197     0.1782073949
    2      C      -4.1598147331     1.0786952589    -0.0358815544
    3      H      -5.6664976667    -0.3141541453    -0.6991476095
    4      H      -6.2779919420     0.9639552593     0.3637277911
    5      H      -5.3494432119    -0.3745889130     1.0394559673
    6      O      -3.0494301858     0.2526725120    -0.3313141405
    7      H      -3.9505181909     1.7069847337     0.8375435938
    8      H      -4.2644965425     1.7432762563    -0.8931470790
    9      H      -2.4453053361     0.2691970184     0.4108656365
 ----------------------------------------------------------------
 Nuclear Repulsion Energy =          81.71586537 hartrees
 There are       13 alpha and       13 beta electrons
 Requested basis set is 6-311+G(2df,2pd)
 There are 60 shells and 186 basis functions

 Total QAlloc Memory Limit   2000 MB
 Mega-Array Size       188 MB
 MEM_STATIC part       192 MB

                       Distance Matrix (Angstroms)
             C (  1)   C (  2)   H (  3)   H (  4)   H (  5)   O (  6)
   C (  2)  1.517605
   H (  3)  1.089861  2.156396
   H (  4)  1.091066  2.158594  1.771212
   H (  5)  1.092280  2.164163  1.768309  1.763664
   O (  6)  2.443897  1.415114  2.702894  3.378257  2.750005
   H (  7)  2.157714  1.096095  3.064475  2.488720  2.516090  2.072007
   H (  8)  2.153270  1.089739  2.497251  2.498247  3.065521  2.003482
   H (  9)  3.003113  1.947925  3.456661  3.895433  3.040329  0.957116
             H (  7)   H (  8)
   H (  8)  1.759315
   H (  9)  2.124842  2.680078
 
 A cutoff of  1.0D-09 yielded   1772 shell pairs
 There are     17225 function pairs (     21401 Cartesian)
 Smallest overlap matrix eigenvalue = 1.21E-04

 Scale SEOQF with 1.000000e-02/1.000000e-01/1.000000e-01

 Standard Electronic Orientation quadrupole field applied
 Nucleus-field energy     =     0.0000000024 hartrees
 Requested basis set is 6-31G(d)
 There are 24 shells and 54 basis functions
 A cutoff of  1.0D-09 yielded    298 shell pairs
 There are      1549 function pairs (      1732 Cartesian)
 Smallest overlap matrix eigenvalue = 7.19E-03
 Guess from superposition of atomic densities
 Warning:  Energy on first SCF cycle will be non-variational
 SAD guess density has 26.000000 electrons
 Long-range K will be added via erf
 Coulomb attenuation parameter = 0.2 bohr**(-1)
 A restricted hybrid HF-DFT SCF calculation will be
 performed using Relaxed Constraint Minimization + Pulay DIIS
 Exchange:     0.2220 Hartree-Fock + 1.0000 wB97X-D + LR-HF
 Correlation:  1.0000 wB97X-D
 Using Euler-Maclaurin-Lebedev (75,302) quadrature formula
 Dispersion:   Grimme D
 SCF converges when DIIS error is below 1.0E-04
 using 6 threads for integral computing
 -------------------------------------------------------
 OpenMP Integral computing Module                
 Release: version 1.0, May 2013, Q-Chem Inc. Pittsburgh 
 -------------------------------------------------------
 using 6 threads for integral computing
 -------------------------------------------------------
 OpenMP Integral computing Module                
 Release: version 1.0, May 2013, Q-Chem Inc. Pittsburgh 
 -------------------------------------------------------
 ---------------------------------------
  Cycle       Energy         DIIS Error
 ---------------------------------------
    1    -155.4313679710      1.06E-01
    2    -154.9229629241      1.37E-02
    3    -154.9518135980      2.97E-03
    4    -154.9787902296      2.30E-03
    5    -154.9794522865      2.18E-04 Done RCA. Switching to DIIS
    6    -154.9801931631      9.03E-05 Convergence criterion met
 ---------------------------------------
 SCF time:  CPU 12.79 s  wall 2.14 s
 SCF   energy in the small basis set = -154.98019316
 Total energy in the small basis set = -154.98019316
 ----------------------------------------------------
  Cycle       Energy    
 ----------------------------------------------------
    1     -18.7519762022     -1.88E+01
 Long-range K will be added via erf
 Coulomb attenuation parameter = 0.2 bohr**(-1)
 A restricted hybrid HF-DFT SCF calculation will be
 performed using Relaxed Constraint Minimization + Pulay DIIS
 Exchange:     0.2220 Hartree-Fock + 1.0000 wB97X-D + LR-HF
 Correlation:  1.0000 wB97X-D
 Using Euler-Maclaurin-Lebedev (75,302) quadrature formula
 Dispersion:   Grimme D
 SCF converges when DIIS error is below 1.0E-05
 Basis2 calculation detected. Using small basis as guess for larger.
 SCFMinFind is unable to tell whether the solution found is close.
 Resetting ReadMinima to 0 and attempting to follow guess.
 SCFMinFind following SCF Guess.
 using 6 threads for integral computing
 -------------------------------------------------------
 OpenMP Integral computing Module                
 Release: version 1.0, May 2013, Q-Chem Inc. Pittsburgh 
 -------------------------------------------------------
 using 6 threads for integral computing
 -------------------------------------------------------
 OpenMP Integral computing Module                
 Release: version 1.0, May 2013, Q-Chem Inc. Pittsburgh 
 -------------------------------------------------------
 ---------------------------------------
  Cycle       Energy         DIIS Error
 ---------------------------------------
    1    -155.0115156648      5.73E-03
    2    -155.0266641075      2.92E-03
    3    -155.0367426213      3.55E-04 Done RCA. Switching to DIIS
    4    -155.0488597583      2.61E-04
    5    -155.0490628911      3.99E-05
    6    -155.0490710087      6.16E-06 Convergence criterion met
 ---------------------------------------
 SCF time:  CPU 38.58 s  wall 6.45 s
 SCF   energy in the final basis set = -155.04907101
 Total energy in the final basis set = -155.04907101
 
 --------------------------------------------------------------
 
                    Orbital Energies (a.u.)
 --------------------------------------------------------------
 
 Alpha MOs
 -- Occupied --
-19.2457 -10.3272 -10.2695  -1.1258  -0.8485  -0.7141  -0.6091  -0.5471
 -0.4988  -0.4791  -0.4541  -0.4097  -0.3617
 -- Virtual --
  0.0636   0.0845   0.0923   0.1029   0.1275   0.1339   0.1376   0.1805
  0.2106   0.2241   0.2374   0.2441   0.2496   0.2874   0.2914   0.3067
  0.3130   0.3339   0.3631   0.3852   0.4662   0.4983   0.5191   0.5276
  0.5707   0.5747   0.5860   0.5947   0.6163   0.6350   0.6459   0.6699
  0.6971   0.7177   0.7559   0.8328   0.8669   0.8722   0.9370   0.9625
  0.9813   1.0401   1.0786   1.1072   1.1204   1.1772   1.1930   1.2071
  1.2263   1.2349   1.2518   1.3047   1.3321   1.3553   1.3725   1.4156
  1.4385   1.4531   1.4815   1.4886   1.5340   1.5596   1.5931   1.6176
  1.6595   1.7210   1.9321   2.0413   2.1409   2.2393   2.2935   2.4720
  2.4835   2.5301   2.5527   2.5978   2.7067   2.8052   2.8337   2.8676
  2.9216   2.9792   3.0177   3.0218   3.0380   3.0550   3.0671   3.0951
  3.1489   3.1961   3.2069   3.2525   3.2723   3.3137   3.3169   3.3430
  3.3525   3.3785   3.4094   3.4330   3.4825   3.5661   3.5783   3.5967
  3.5994   3.6344   3.6565   3.7060   3.7346   3.7556   3.8066   3.8240
  3.8632   3.9368   3.9648   3.9745   4.0136   4.0196   4.0323   4.0437
  4.0902   4.1256   4.1413   4.2010   4.2109   4.2203   4.2759   4.3314
  4.3410   4.3961   4.4684   4.4817   4.5795   4.6460   4.7347   4.7740
  4.8425   4.9191   4.9469   4.9869   5.0050   5.0468   5.0974   5.2130
  5.2528   5.2822   5.2856   5.3103   5.3375   5.3728   5.3795   5.4614
  5.5203   5.6463   5.7117   5.8221   5.9349   5.9936   6.3693   6.3857
  6.4289   6.6570   6.7024   6.7890   7.1140   7.3821   7.4341   7.5716
  7.6897   8.1519  25.1778  25.4350  50.4644
 --------------------------------------------------------------
 
 -----------------------------------------------------------------
                    Cartesian Multipole Moments
 -----------------------------------------------------------------
    Charge (ESU x 10^10)
                 0.0000
    Dipole Moment (Debye)
         X      -0.2761      Y       0.8573      Z       1.4909
       Tot       1.7418
    Quadrupole Moments (Debye-Ang)
        XX     -16.5858     XY      -3.4664     YY     -19.5405
        XZ      -3.3784     YZ       0.2620     ZZ     -19.7922
    Octopole Moments (Debye-Ang^2)
       XXX     235.0619    XXY       3.3201    XYY      83.8832
       YYY     -32.9207    XXZ       7.0583    XYZ      -0.4960
       YYZ       0.4990    XZZ      85.2483    YZZ     -10.9493
       ZZZ       1.4685
    Hexadecapole Moments (Debye-Ang^3)
      XXXX   -2260.0574   XXXY      77.1893   XXYY    -401.7536
      XYYY     138.9406   YYYY     -93.7779   XXXZ      -2.4064
      XXYZ       2.1202   XYYZ       1.8176   YYYZ       0.7010
      XXZZ    -400.4994   XYZZ      47.2220   YYZZ     -20.5411
      XZZZ       6.2309   YZZZ       0.3313   ZZZZ     -39.3657
 -----------------------------------------------------------------
Archival summary:
1\1\centos77-c7\SP\ProcedureUnspecified\BasisUnspecified\126\shihchen\MonJul2714:23:402020MonJul2714:23:402020\0\\#,ProcedureUnspecified,BasisUnspecified,\\0,1\C\H,1,1.08974\H,1,1.09609,2,107.195\O,1,1.41511,2,105.493,3,-117.852,0\H,4,0.957116,1,108.863,2,128.989,0\C,1,1.5176,2,110.27,3,120.028,0\H,6,1.08986,1,110.512,2,60.2497,0\H,6,1.09107,1,110.615,2,-60.0673,0\H,6,1.09228,1,110.987,2,-179.628,0\\\@

 Total job time:  10.75s(wall), 55.19s(cpu) 
 Mon Jul 27 14:23:40 2020

        *************************************************************
        *                                                           *
        *  Thank you very much for using Q-Chem.  Have a nice day.  *
        *                                                           *
        *************************************************************


