                  Welcome to Q-Chem
     A Quantum Leap Into The Future Of Chemistry


 Q-Chem 5.3 (devel), Q-Chem, Inc., Pleasanton, CA (2020)

 Yihan Shao,  Zhengting Gan,  E. Epifanovsky,  A. T. B. Gilbert,  M. Wormit,  
 J. Kussmann,  A. W. Lange,  A. Behn,  Jia Deng,  Xintian Feng,  D. Ghosh,  
 M. Goldey,  P. R. Horn,  L. D. Jacobson,  I. Kaliman,  T. Kus,  A. Landau,  
 Jie Liu,  E. I. Proynov,  R. M. Richard,  R. P. Steele,  E. J. Sundstrom,  
 H. L. Woodcock III,  P. M. Zimmerman,  D. Zuev,  B. Alam,  B. Albrecht,  
 E. Alguire,  S. A. Baeppler,  D. Barton,  Z. Benda,  Y. A. Bernard,  
 E. J. Berquist,  K. B. Bravaya,  H. Burton,  K. Carter-Fenk,  D. Casanova,  
 Chun-Min Chang,  Yunqing Chen,  A. Chien,  K. D. Closser,  M. P. Coons,  
 S. Coriani,  S. Dasgupta,  A. L. Dempwolff,  M. Diedenhofen,  Hainam Do,  
 R. G. Edgar,  Po-Tung Fang,  S. Faraji,  S. Fatehi,  Qingguo Feng,  
 J. Fosso-Tande,  J. Gayvert,  Qinghui Ge,  A. Ghysels,  G. Gidofalvi,  
 J. Gomes,  J. Gonthier,  A. Gunina,  D. Hait,  M. W. D. Hanson-Heine,  
 P. H. P. Harbach,  A. W. Hauser,  M. F. Herbst,  J. E. Herr,  
 E. G. Hohenstein,  Z. C. Holden,  Kerwin Hui,  B. C. Huynh,  T.-C. Jagau,  
 Hyunjun Ji,  B. Kaduk,  K. Khistyaev,  Jaehoon Kim,  P. Klunzinger,  K. Koh,  
 D. Kosenkov,  L. Koulias,  T. Kowalczyk,  C. M. Krauter,  A. Kunitsa,  
 Ka Un Lao,  A. Laurent,  K. V. Lawler,  Joonho Lee,  D. Lefrancois,  
 S. Lehtola,  D. S. Levine,  Yi-Pei Li,  You-Sheng Lin,  Fenglai Liu,  
 Kuan-Yu Liu,  E. Livshits,  M. Loipersberger,  A. Luenser,  P. Manohar,  
 E. Mansoor,  S. F. Manzer,  Shan-Ping Mao,  Yuezhi Mao,  N. Mardirossian,  
 A. V. Marenich,  T. Markovich,  L. A. Martinez-Martinez,  S. A. Maurer,  
 N. J. Mayhall,  S. C. McKenzie,  J.-M. Mewes,  P. Morgante,  A. F. Morrison,  
 J. W. Mullinax,  K. Nanda,  T. S. Nguyen-Beck,  R. Olivares-Amaya,  
 K. J. Oosterbaan,  J. A. Parkhill,  S. K. Paul,  F. Pavosevic,  Zheng Pei,  
 T. M. Perrine,  F. Plasser,  P. Pokhilko,  S. Prager,  A. Prociuk,  
 E. Ramos,  B. Rana,  D. R. Rehn,  F. Rob,  M. Scheurer,  M. Schneider,  
 N. Sergueev,  S. M. Sharada,  S. Sharma,  D. W. Small,  T. Stauch,  
 C. J. Stein,  T. Stein,  Yu-Chuan Su,  S. P. Veccham,  Zhen Tao,  
 A. J. W. Thom,  A. Tkatchenko,  T. Tsuchimochi,  N. M. Tubman,  L. Vogt,  
 M. L. Vidal,  O. Vydrov,  M. A. Watson,  J. Wenzel,  M. de Wergifosse,  
 T. A. Wesolowski,  A. White,  J. Witte,  A. Yamada,  Jun Yang,  K. Yao,  
 S. Yeganeh,  S. R. Yost,  Zhi-Qiang You,  A. Zech,  Igor Ying Zhang,  
 Xing Zhang,  Yan Zhao,  Ying Zhu,  B. R. Brooks,  G. K. L. Chan,  
 C. J. Cramer,  M. S. Gordon,  W. J. Hehre,  A. Klamt,  M. W. Schmidt,  
 C. D. Sherrill,  D. G. Truhlar,  A. Aspuru-Guzik,  R. Baer,  A. T. Bell,  
 N. A. Besley,  Jeng-Da Chai,  A. E. DePrince, III,  R. A. DiStasio Jr.,  
 A. Dreuw,  B. D. Dunietz,  T. R. Furlani,  Chao-Ping Hsu,  Yousung Jung,  
 Jing Kong,  D. S. Lambrecht,  WanZhen Liang,  C. Ochsenfeld,  
 V. A. Rassolov,  L. V. Slipchenko,  J. E. Subotnik,  T. Van Voorhis,  
 J. M. Herbert,  A. I. Krylov,  P. M. W. Gill,  M. Head-Gordon

 Contributors to earlier versions of Q-Chem not listed above: 
 R. D. Adamson,  B. Austin,  J. Baker,  G. J. O. Beran,  K. Brandhorst,  
 S. T. Brown,  E. F. C. Byrd,  A. K. Chakraborty,  C.-L. Cheng,  
 Siu Hung Chien,  D. M. Chipman,  D. L. Crittenden,  H. Dachsel,  
 R. J. Doerksen,  A. D. Dutoi,  L. Fusti-Molnar,  W. A. Goddard III,  
 A. Golubeva-Zadorozhnaya,  S. R. Gwaltney,  G. Hawkins,  A. Heyden,  
 S. Hirata,  G. Kedziora,  F. J. Keil,  C. Kelley,  Jihan Kim,  R. A. King,  
 R. Z. Khaliullin,  P. P. Korambath,  W. Kurlancheek,  A. M. Lee,  M. S. Lee,  
 S. V. Levchenko,  Ching Yeh Lin,  D. Liotard,  R. C. Lochan,  I. Lotan,  
 P. E. Maslen,  N. Nair,  D. P. O'Neill,  D. Neuhauser,  E. Neuscamman,  
 C. M. Oana,  R. Olson,  B. Peters,  R. Peverati,  P. A. Pieniazek,  
 Y. M. Rhee,  J. Ritchie,  M. A. Rohrdanz,  E. Rosta,  N. J. Russ,  
 H. F. Schaefer III,  N. E. Schultz,  N. Shenvi,  A. C. Simmonett,  A. Sodt,  
 D. Stuck,  K. S. Thanthiriwatte,  V. Vanovschi,  Tao Wang,  A. Warshel,  
 C. F. Williams,  Q. Wu,  X. Xu,  W. Zhang

 Please cite Q-Chem as follows:
 Y. Shao et al., Mol. Phys. 113, 184-215 (2015)
 DOI: 10.1080/00268976.2014.952696

 Q-Chem 5.3.0 for Intel X86 EM64T Linux

 Parts of Q-Chem use Armadillo 9.800.1 (Horizon Scraper).
 http://arma.sourceforge.net/

 Q-Chem begins on Mon Jul 27 14:11:10 2020  

Host: centos77-c7
0

     Scratch files written to /tmp/29924.centos77-h1/qchem101118//
Processing $rem in /opt/qchem-5.3.0-intel2020u1//config/preferences:
Processing $rem in /home/shihchengli/.qchemrc:

Checking the input file for inconsistencies... 	...done.

--------------------------------------------------------------
User input:
--------------------------------------------------------------
$rem
   JOBTYPE  sp
   EXCHANGE   omegaB97X-D
   BASIS   6-311+G(2df,2pd)
   UNRESTRICTED   False
   max_scf_cycles   250
   geom_opt_max_cycles   1500
   basis2 6-31G*
   scf_algorithm rca_diis
   SYM_IGNORE  TRUE
   print_input   true
   geom_opt_dmax   80
   pop_mulliken false
   XC_GRID 000075000302
$end

$molecule
0 1
C       -5.3744050078     0.3100401427     0.0468205383
C       -4.1343466835     1.1775372415     0.1600859802
H       -5.3531550667     -0.2678011833     -0.8770002012
H       -6.2754285835     0.9253081868     0.0520286505
H       -5.4421069173     -0.3870081763     0.8850428024
O       -2.9708351304     0.5392735174     -0.3312470214
H       -3.9886327009     1.4971872539     1.1983612334
H       -4.2479657198     2.0789823213     -0.4415932080
H       -2.8159341901     -0.2562993041     0.1778112259
$end
--------------------------------------------------------------
 ----------------------------------------------------------------
             Standard Nuclear Orientation (Angstroms)
    I     Atom           X                Y                Z
 ----------------------------------------------------------------
    1      C      -5.3744050078     0.3100401427     0.0468205383
    2      C      -4.1343466835     1.1775372415     0.1600859802
    3      H      -5.3531550667    -0.2678011833    -0.8770002012
    4      H      -6.2754285835     0.9253081868     0.0520286505
    5      H      -5.4421069173    -0.3870081763     0.8850428024
    6      O      -2.9708351304     0.5392735174    -0.3312470214
    7      H      -3.9886327009     1.4971872539     1.1983612334
    8      H      -4.2479657198     2.0789823213    -0.4415932080
    9      H      -2.8159341901    -0.2562993041     0.1778112259
 ----------------------------------------------------------------
 Nuclear Repulsion Energy =          81.91287715 hartrees
 There are       13 alpha and       13 beta electrons
 Requested basis set is 6-311+G(2df,2pd)
 There are 60 shells and 186 basis functions

 Total QAlloc Memory Limit   2000 MB
 Mega-Array Size       188 MB
 MEM_STATIC part       192 MB

                       Distance Matrix (Angstroms)
             C (  1)   C (  2)   H (  3)   H (  4)   H (  5)   O (  6)
   C (  2)  1.517605
   H (  3)  1.089861  2.156396
   H (  4)  1.091066  2.158594  1.771212
   H (  5)  1.092280  2.164163  1.768309  1.763664
   O (  6)  2.443897  1.415114  2.573842  3.349069  2.905950
   H (  7)  2.157714  1.096095  3.047004  2.621175  2.400198  2.072007
   H (  8)  2.153270  1.089739  2.630288  2.384372  3.044182  2.003482
   H (  9)  2.623675  1.947925  2.747772  3.657884  2.722874  0.957116
             H (  7)   H (  8)
   H (  8)  1.759315
   H (  9)  2.343386  2.808543
 
 A cutoff of  1.0D-09 yielded   1787 shell pairs
 There are     17328 function pairs (     21515 Cartesian)
 Smallest overlap matrix eigenvalue = 1.31E-04

 Scale SEOQF with 1.000000e-02/1.000000e-01/1.000000e-01

 Standard Electronic Orientation quadrupole field applied
 Nucleus-field energy     =     0.0000000026 hartrees
 Requested basis set is 6-31G(d)
 There are 24 shells and 54 basis functions
 A cutoff of  1.0D-09 yielded    298 shell pairs
 There are      1549 function pairs (      1732 Cartesian)
 Smallest overlap matrix eigenvalue = 7.09E-03
 Guess from superposition of atomic densities
 Warning:  Energy on first SCF cycle will be non-variational
 SAD guess density has 26.000000 electrons
 Long-range K will be added via erf
 Coulomb attenuation parameter = 0.2 bohr**(-1)
 A restricted hybrid HF-DFT SCF calculation will be
 performed using Relaxed Constraint Minimization + Pulay DIIS
 Exchange:     0.2220 Hartree-Fock + 1.0000 wB97X-D + LR-HF
 Correlation:  1.0000 wB97X-D
 Using Euler-Maclaurin-Lebedev (75,302) quadrature formula
 Dispersion:   Grimme D
 SCF converges when DIIS error is below 1.0E-04
 using 6 threads for integral computing
 -------------------------------------------------------
 OpenMP Integral computing Module                
 Release: version 1.0, May 2013, Q-Chem Inc. Pittsburgh 
 -------------------------------------------------------
 using 6 threads for integral computing
 -------------------------------------------------------
 OpenMP Integral computing Module                
 Release: version 1.0, May 2013, Q-Chem Inc. Pittsburgh 
 -------------------------------------------------------
 ---------------------------------------
  Cycle       Energy         DIIS Error
 ---------------------------------------
    1    -155.4337276931      1.06E-01
    2    -154.9254080003      1.35E-02
    3    -154.9536469837      3.03E-03
    4    -154.9796804109      2.42E-03
    5    -154.9804091467      2.26E-04 Done RCA. Switching to DIIS
    6    -154.9812262725      1.03E-04
    7    -154.9812295515      7.57E-06 Convergence criterion met
 ---------------------------------------
 SCF time:  CPU 14.40 s  wall 2.42 s
 SCF   energy in the small basis set = -154.98122955
 Total energy in the small basis set = -154.98122955
 ----------------------------------------------------
  Cycle       Energy    
 ----------------------------------------------------
    1     -18.7524219447     -1.88E+01
 Long-range K will be added via erf
 Coulomb attenuation parameter = 0.2 bohr**(-1)
 A restricted hybrid HF-DFT SCF calculation will be
 performed using Relaxed Constraint Minimization + Pulay DIIS
 Exchange:     0.2220 Hartree-Fock + 1.0000 wB97X-D + LR-HF
 Correlation:  1.0000 wB97X-D
 Using Euler-Maclaurin-Lebedev (75,302) quadrature formula
 Dispersion:   Grimme D
 SCF converges when DIIS error is below 1.0E-05
 Basis2 calculation detected. Using small basis as guess for larger.
 SCFMinFind is unable to tell whether the solution found is close.
 Resetting ReadMinima to 0 and attempting to follow guess.
 SCFMinFind following SCF Guess.
 using 6 threads for integral computing
 -------------------------------------------------------
 OpenMP Integral computing Module                
 Release: version 1.0, May 2013, Q-Chem Inc. Pittsburgh 
 -------------------------------------------------------
 using 6 threads for integral computing
 -------------------------------------------------------
 OpenMP Integral computing Module                
 Release: version 1.0, May 2013, Q-Chem Inc. Pittsburgh 
 -------------------------------------------------------
 ---------------------------------------
  Cycle       Energy         DIIS Error
 ---------------------------------------
    1    -155.0125978477      5.72E-03
    2    -155.0280782974      2.86E-03
    3    -155.0377331501      3.48E-04 Done RCA. Switching to DIIS
    4    -155.0493206021      2.51E-04
    5    -155.0495093045      3.93E-05
    6    -155.0495172164      5.67E-06 Convergence criterion met
 ---------------------------------------
 SCF time:  CPU 39.01 s  wall 6.53 s
 SCF   energy in the final basis set = -155.04951722
 Total energy in the final basis set = -155.04951722
 
 --------------------------------------------------------------
 
                    Orbital Energies (a.u.)
 --------------------------------------------------------------
 
 Alpha MOs
 -- Occupied --
-19.2461 -10.3268 -10.2733  -1.1261  -0.8495  -0.7226  -0.5962  -0.5451
 -0.5239  -0.4683  -0.4581  -0.4109  -0.3626
 -- Virtual --
  0.0654   0.0874   0.0890   0.1023   0.1262   0.1343   0.1379   0.1799
  0.1910   0.2121   0.2433   0.2585   0.2621   0.2829   0.2908   0.3050
  0.3144   0.3326   0.3443   0.3914   0.4588   0.4853   0.5002   0.5291
  0.5650   0.5726   0.5827   0.6095   0.6150   0.6346   0.6646   0.6717
  0.6964   0.7138   0.7272   0.7939   0.8757   0.8921   0.9285   0.9519
  1.0163   1.0549   1.0680   1.0952   1.1426   1.1832   1.1919   1.2054
  1.2244   1.2500   1.2691   1.3032   1.3246   1.3598   1.3878   1.4012
  1.4475   1.4658   1.4750   1.4877   1.5063   1.5315   1.5916   1.6179
  1.6556   1.6936   1.9438   2.0365   2.0939   2.2512   2.2825   2.4268
  2.4561   2.5509   2.5692   2.5933   2.6825   2.8316   2.8465   2.8895
  2.9183   2.9687   2.9997   3.0158   3.0556   3.0712   3.0731   3.0936
  3.1086   3.1796   3.2025   3.2404   3.2645   3.2946   3.3223   3.3516
  3.3580   3.3953   3.4206   3.4577   3.5022   3.5654   3.5707   3.5816
  3.6005   3.6236   3.6527   3.7042   3.7265   3.7478   3.7853   3.8537
  3.8994   3.9011   3.9279   3.9587   3.9948   4.0367   4.0503   4.0704
  4.1056   4.1209   4.1370   4.1816   4.2229   4.2522   4.2729   4.3191
  4.3379   4.3933   4.4898   4.5225   4.5365   4.6066   4.7139   4.7963
  4.8753   4.9424   4.9544   4.9764   4.9867   5.0762   5.0993   5.1873
  5.2027   5.2609   5.2833   5.3022   5.3433   5.3539   5.4179   5.4752
  5.5221   5.5784   5.6840   5.8299   5.9407   6.0375   6.3461   6.3720
  6.4260   6.6562   6.7093   6.8242   7.1249   7.3497   7.4123   7.5512
  7.7223   8.1117  25.1449  25.4298  50.4654
 --------------------------------------------------------------
 
 -----------------------------------------------------------------
                    Cartesian Multipole Moments
 -----------------------------------------------------------------
    Charge (ESU x 10^10)
                 0.0000
    Dipole Moment (Debye)
         X      -1.1008      Y      -0.5604      Z       1.2384
       Tot       1.7491
    Quadrupole Moments (Debye-Ang)
        XX     -12.5263     XY      -0.2899     YY     -18.9604
        XZ      -3.2767     YZ       0.0437     ZZ     -20.3380
    Octopole Moments (Debye-Ang^2)
       XXX     217.4598    XXY      -4.4092    XYY      80.1325
       YYY     -37.4937    XXZ       8.0212    XYZ       0.3038
       YYZ      -0.4138    XZZ      86.1408    YZZ     -13.4325
       ZZZ       1.1023
    Hexadecapole Moments (Debye-Ang^3)
      XXXX   -2160.0775   XXXY      98.4193   XXYY    -383.3828
      XYYY     151.8518   YYYY    -105.2354   XXXZ      -9.0765
      XXYZ      -3.4236   XYYZ       4.5898   YYYZ      -4.4256
      XXZZ    -398.8293   XYZZ      55.5162   YYZZ     -23.7107
      XZZZ       3.9743   YZZZ      -1.4965   ZZZZ     -39.1623
 -----------------------------------------------------------------
Archival summary:
1\1\centos77-c7\SP\ProcedureUnspecified\BasisUnspecified\126\shihchen\MonJul2714:11:212020MonJul2714:11:212020\0\\#,ProcedureUnspecified,BasisUnspecified,\\0,1\C\H,1,1.08974\H,1,1.09609,2,107.195\O,1,1.41511,2,105.493,3,-117.852,0\H,4,0.957116,1,108.863,2,178.989,0\C,1,1.5176,2,110.27,3,120.028,0\H,6,1.08986,1,110.512,2,80.2497,0\H,6,1.09107,1,110.615,2,-40.0673,0\H,6,1.09228,1,110.987,2,-159.628,0\\\@

 Total job time:  11.12s(wall), 57.26s(cpu) 
 Mon Jul 27 14:11:21 2020

        *************************************************************
        *                                                           *
        *  Thank you very much for using Q-Chem.  Have a nice day.  *
        *                                                           *
        *************************************************************


