                  Welcome to Q-Chem
     A Quantum Leap Into The Future Of Chemistry


 Q-Chem 5.3 (devel), Q-Chem, Inc., Pleasanton, CA (2020)

 Yihan Shao,  Zhengting Gan,  E. Epifanovsky,  A. T. B. Gilbert,  M. Wormit,  
 J. Kussmann,  A. W. Lange,  A. Behn,  Jia Deng,  Xintian Feng,  D. Ghosh,  
 M. Goldey,  P. R. Horn,  L. D. Jacobson,  I. Kaliman,  T. Kus,  A. Landau,  
 Jie Liu,  E. I. Proynov,  R. M. Richard,  R. P. Steele,  E. J. Sundstrom,  
 H. L. Woodcock III,  P. M. Zimmerman,  D. Zuev,  B. Alam,  B. Albrecht,  
 E. Alguire,  S. A. Baeppler,  D. Barton,  Z. Benda,  Y. A. Bernard,  
 E. J. Berquist,  K. B. Bravaya,  H. Burton,  K. Carter-Fenk,  D. Casanova,  
 Chun-Min Chang,  Yunqing Chen,  A. Chien,  K. D. Closser,  M. P. Coons,  
 S. Coriani,  S. Dasgupta,  A. L. Dempwolff,  M. Diedenhofen,  Hainam Do,  
 R. G. Edgar,  Po-Tung Fang,  S. Faraji,  S. Fatehi,  Qingguo Feng,  
 J. Fosso-Tande,  J. Gayvert,  Qinghui Ge,  A. Ghysels,  G. Gidofalvi,  
 J. Gomes,  J. Gonthier,  A. Gunina,  D. Hait,  M. W. D. Hanson-Heine,  
 P. H. P. Harbach,  A. W. Hauser,  M. F. Herbst,  J. E. Herr,  
 E. G. Hohenstein,  Z. C. Holden,  Kerwin Hui,  B. C. Huynh,  T.-C. Jagau,  
 Hyunjun Ji,  B. Kaduk,  K. Khistyaev,  Jaehoon Kim,  P. Klunzinger,  K. Koh,  
 D. Kosenkov,  L. Koulias,  T. Kowalczyk,  C. M. Krauter,  A. Kunitsa,  
 Ka Un Lao,  A. Laurent,  K. V. Lawler,  Joonho Lee,  D. Lefrancois,  
 S. Lehtola,  D. S. Levine,  Yi-Pei Li,  You-Sheng Lin,  Fenglai Liu,  
 Kuan-Yu Liu,  E. Livshits,  M. Loipersberger,  A. Luenser,  P. Manohar,  
 E. Mansoor,  S. F. Manzer,  Shan-Ping Mao,  Yuezhi Mao,  N. Mardirossian,  
 A. V. Marenich,  T. Markovich,  L. A. Martinez-Martinez,  S. A. Maurer,  
 N. J. Mayhall,  S. C. McKenzie,  J.-M. Mewes,  P. Morgante,  A. F. Morrison,  
 J. W. Mullinax,  K. Nanda,  T. S. Nguyen-Beck,  R. Olivares-Amaya,  
 K. J. Oosterbaan,  J. A. Parkhill,  S. K. Paul,  F. Pavosevic,  Zheng Pei,  
 T. M. Perrine,  F. Plasser,  P. Pokhilko,  S. Prager,  A. Prociuk,  
 E. Ramos,  B. Rana,  D. R. Rehn,  F. Rob,  M. Scheurer,  M. Schneider,  
 N. Sergueev,  S. M. Sharada,  S. Sharma,  D. W. Small,  T. Stauch,  
 C. J. Stein,  T. Stein,  Yu-Chuan Su,  S. P. Veccham,  Zhen Tao,  
 A. J. W. Thom,  A. Tkatchenko,  T. Tsuchimochi,  N. M. Tubman,  L. Vogt,  
 M. L. Vidal,  O. Vydrov,  M. A. Watson,  J. Wenzel,  M. de Wergifosse,  
 T. A. Wesolowski,  A. White,  J. Witte,  A. Yamada,  Jun Yang,  K. Yao,  
 S. Yeganeh,  S. R. Yost,  Zhi-Qiang You,  A. Zech,  Igor Ying Zhang,  
 Xing Zhang,  Yan Zhao,  Ying Zhu,  B. R. Brooks,  G. K. L. Chan,  
 C. J. Cramer,  M. S. Gordon,  W. J. Hehre,  A. Klamt,  M. W. Schmidt,  
 C. D. Sherrill,  D. G. Truhlar,  A. Aspuru-Guzik,  R. Baer,  A. T. Bell,  
 N. A. Besley,  Jeng-Da Chai,  A. E. DePrince, III,  R. A. DiStasio Jr.,  
 A. Dreuw,  B. D. Dunietz,  T. R. Furlani,  Chao-Ping Hsu,  Yousung Jung,  
 Jing Kong,  D. S. Lambrecht,  WanZhen Liang,  C. Ochsenfeld,  
 V. A. Rassolov,  L. V. Slipchenko,  J. E. Subotnik,  T. Van Voorhis,  
 J. M. Herbert,  A. I. Krylov,  P. M. W. Gill,  M. Head-Gordon

 Contributors to earlier versions of Q-Chem not listed above: 
 R. D. Adamson,  B. Austin,  J. Baker,  G. J. O. Beran,  K. Brandhorst,  
 S. T. Brown,  E. F. C. Byrd,  A. K. Chakraborty,  C.-L. Cheng,  
 Siu Hung Chien,  D. M. Chipman,  D. L. Crittenden,  H. Dachsel,  
 R. J. Doerksen,  A. D. Dutoi,  L. Fusti-Molnar,  W. A. Goddard III,  
 A. Golubeva-Zadorozhnaya,  S. R. Gwaltney,  G. Hawkins,  A. Heyden,  
 S. Hirata,  G. Kedziora,  F. J. Keil,  C. Kelley,  Jihan Kim,  R. A. King,  
 R. Z. Khaliullin,  P. P. Korambath,  W. Kurlancheek,  A. M. Lee,  M. S. Lee,  
 S. V. Levchenko,  Ching Yeh Lin,  D. Liotard,  R. C. Lochan,  I. Lotan,  
 P. E. Maslen,  N. Nair,  D. P. O'Neill,  D. Neuhauser,  E. Neuscamman,  
 C. M. Oana,  R. Olson,  B. Peters,  R. Peverati,  P. A. Pieniazek,  
 Y. M. Rhee,  J. Ritchie,  M. A. Rohrdanz,  E. Rosta,  N. J. Russ,  
 H. F. Schaefer III,  N. E. Schultz,  N. Shenvi,  A. C. Simmonett,  A. Sodt,  
 D. Stuck,  K. S. Thanthiriwatte,  V. Vanovschi,  Tao Wang,  A. Warshel,  
 C. F. Williams,  Q. Wu,  X. Xu,  W. Zhang

 Please cite Q-Chem as follows:
 Y. Shao et al., Mol. Phys. 113, 184-215 (2015)
 DOI: 10.1080/00268976.2014.952696

 Q-Chem 5.3.0 for Intel X86 EM64T Linux

 Parts of Q-Chem use Armadillo 9.800.1 (Horizon Scraper).
 http://arma.sourceforge.net/

 Q-Chem begins on Mon Jul 27 14:12:07 2020  

Host: centos77-c7
0

     Scratch files written to /tmp/29924.centos77-h1/qchem101325//
Processing $rem in /opt/qchem-5.3.0-intel2020u1//config/preferences:
Processing $rem in /home/shihchengli/.qchemrc:

Checking the input file for inconsistencies... 	...done.

--------------------------------------------------------------
User input:
--------------------------------------------------------------
$rem
   JOBTYPE  sp
   EXCHANGE   omegaB97X-D
   BASIS   6-311+G(2df,2pd)
   UNRESTRICTED   False
   max_scf_cycles   250
   geom_opt_max_cycles   1500
   basis2 6-31G*
   scf_algorithm rca_diis
   SYM_IGNORE  TRUE
   print_input   true
   geom_opt_dmax   80
   pop_mulliken false
   XC_GRID 000075000302
$end

$molecule
0 1
C       -5.3734073588     0.3045029904     0.0738415579
C       -4.1296271423     1.1558032842     0.2511083261
H       -5.1297574661     -0.6253058512     -0.4398579308
H       -6.1244110450     0.8385579632     -0.5102852467
H       -5.8179584894     0.0554259879     1.0399737490
O       -3.0353034962     0.6965176612     -0.5196447526
H       -3.8568236922     1.2126164704     1.3111907455
H       -4.3176249244     2.1741655521     -0.0881931450
H       -2.8178963855     -0.1950640583     -0.2478233033
$end
--------------------------------------------------------------
 ----------------------------------------------------------------
             Standard Nuclear Orientation (Angstroms)
    I     Atom           X                Y                Z
 ----------------------------------------------------------------
    1      C      -5.3734073588     0.3045029904     0.0738415579
    2      C      -4.1296271423     1.1558032842     0.2511083261
    3      H      -5.1297574661    -0.6253058512    -0.4398579308
    4      H      -6.1244110450     0.8385579632    -0.5102852467
    5      H      -5.8179584894     0.0554259879     1.0399737490
    6      O      -3.0353034962     0.6965176612    -0.5196447526
    7      H      -3.8568236922     1.2126164704     1.3111907455
    8      H      -4.3176249244     2.1741655521    -0.0881931450
    9      H      -2.8178963855    -0.1950640583    -0.2478233033
 ----------------------------------------------------------------
 Nuclear Repulsion Energy =          81.93564609 hartrees
 There are       13 alpha and       13 beta electrons
 Requested basis set is 6-311+G(2df,2pd)
 There are 60 shells and 186 basis functions

 Total QAlloc Memory Limit   2000 MB
 Mega-Array Size       188 MB
 MEM_STATIC part       192 MB

                       Distance Matrix (Angstroms)
             C (  1)   C (  2)   H (  3)   H (  4)   H (  5)   O (  6)
   C (  2)  1.517605
   H (  3)  1.089861  2.156396
   H (  4)  1.091066  2.158594  1.771212
   H (  5)  1.092280  2.164163  1.768309  1.763664
   O (  6)  2.443897  1.415114  2.477967  3.092386  3.253702
   H (  7)  2.157714  1.096095  2.839805  2.932515  2.293185  2.072007
   H (  8)  2.153270  1.089739  2.936029  2.286151  2.830692  2.003482
   H (  9)  2.623675  1.947925  2.359383  3.474234  3.274376  0.957116
             H (  7)   H (  8)
   H (  8)  1.759315
   H (  9)  2.343386  2.808543
 
 A cutoff of  1.0D-09 yielded   1786 shell pairs
 There are     17306 function pairs (     21496 Cartesian)
 Smallest overlap matrix eigenvalue = 1.11E-04

 Scale SEOQF with 1.000000e-02/1.000000e-01/1.000000e-01

 Standard Electronic Orientation quadrupole field applied
 Nucleus-field energy     =     0.0000000025 hartrees
 Requested basis set is 6-31G(d)
 There are 24 shells and 54 basis functions
 A cutoff of  1.0D-09 yielded    298 shell pairs
 There are      1549 function pairs (      1732 Cartesian)
 Smallest overlap matrix eigenvalue = 6.81E-03
 Guess from superposition of atomic densities
 Warning:  Energy on first SCF cycle will be non-variational
 SAD guess density has 26.000000 electrons
 Long-range K will be added via erf
 Coulomb attenuation parameter = 0.2 bohr**(-1)
 A restricted hybrid HF-DFT SCF calculation will be
 performed using Relaxed Constraint Minimization + Pulay DIIS
 Exchange:     0.2220 Hartree-Fock + 1.0000 wB97X-D + LR-HF
 Correlation:  1.0000 wB97X-D
 Using Euler-Maclaurin-Lebedev (75,302) quadrature formula
 Dispersion:   Grimme D
 SCF converges when DIIS error is below 1.0E-04
 using 6 threads for integral computing
 -------------------------------------------------------
 OpenMP Integral computing Module                
 Release: version 1.0, May 2013, Q-Chem Inc. Pittsburgh 
 -------------------------------------------------------
 using 6 threads for integral computing
 -------------------------------------------------------
 OpenMP Integral computing Module                
 Release: version 1.0, May 2013, Q-Chem Inc. Pittsburgh 
 -------------------------------------------------------
 ---------------------------------------
  Cycle       Energy         DIIS Error
 ---------------------------------------
    1    -155.4373911419      1.06E-01
    2    -154.9203916958      1.36E-02
    3    -154.9489294023      3.04E-03
    4    -154.9751705580      2.41E-03
    5    -154.9758990152      2.24E-04 Done RCA. Switching to DIIS
    6    -154.9767138096      9.98E-05 Convergence criterion met
 ---------------------------------------
 SCF time:  CPU 12.97 s  wall 2.18 s
 SCF   energy in the small basis set = -154.97671381
 Total energy in the small basis set = -154.97671381
 ----------------------------------------------------
  Cycle       Energy    
 ----------------------------------------------------
    1     -18.7557401811     -1.88E+01
 Long-range K will be added via erf
 Coulomb attenuation parameter = 0.2 bohr**(-1)
 A restricted hybrid HF-DFT SCF calculation will be
 performed using Relaxed Constraint Minimization + Pulay DIIS
 Exchange:     0.2220 Hartree-Fock + 1.0000 wB97X-D + LR-HF
 Correlation:  1.0000 wB97X-D
 Using Euler-Maclaurin-Lebedev (75,302) quadrature formula
 Dispersion:   Grimme D
 SCF converges when DIIS error is below 1.0E-05
 Basis2 calculation detected. Using small basis as guess for larger.
 SCFMinFind is unable to tell whether the solution found is close.
 Resetting ReadMinima to 0 and attempting to follow guess.
 SCFMinFind following SCF Guess.
 using 6 threads for integral computing
 -------------------------------------------------------
 OpenMP Integral computing Module                
 Release: version 1.0, May 2013, Q-Chem Inc. Pittsburgh 
 -------------------------------------------------------
 using 6 threads for integral computing
 -------------------------------------------------------
 OpenMP Integral computing Module                
 Release: version 1.0, May 2013, Q-Chem Inc. Pittsburgh 
 -------------------------------------------------------
 ---------------------------------------
  Cycle       Energy         DIIS Error
 ---------------------------------------
    1    -155.0084914683      5.72E-03
    2    -155.0238930432      2.87E-03
    3    -155.0336379754      3.48E-04 Done RCA. Switching to DIIS
    4    -155.0453252731      2.52E-04
    5    -155.0455147254      3.95E-05
    6    -155.0455227277      5.65E-06 Convergence criterion met
 ---------------------------------------
 SCF time:  CPU 39.31 s  wall 6.58 s
 SCF   energy in the final basis set = -155.04552273
 Total energy in the final basis set = -155.04552273
 
 --------------------------------------------------------------
 
                    Orbital Energies (a.u.)
 --------------------------------------------------------------
 
 Alpha MOs
 -- Occupied --
-19.2455 -10.3261 -10.2728  -1.1257  -0.8494  -0.7227  -0.5951  -0.5453
 -0.5245  -0.4704  -0.4576  -0.4082  -0.3612
 -- Virtual --
  0.0666   0.0876   0.0898   0.1032   0.1276   0.1323   0.1379   0.1744
  0.1885   0.1992   0.2385   0.2534   0.2813   0.2923   0.3003   0.3089
  0.3183   0.3357   0.3455   0.3980   0.4604   0.4864   0.5064   0.5092
  0.5454   0.5729   0.5881   0.6049   0.6224   0.6306   0.6491   0.6550
  0.6864   0.7156   0.7791   0.7928   0.8661   0.9182   0.9507   1.0052
  1.0163   1.0440   1.0657   1.0822   1.1483   1.1794   1.1977   1.2040
  1.2152   1.2470   1.2845   1.3126   1.3294   1.3601   1.3809   1.3870
  1.4350   1.4394   1.4708   1.4818   1.5097   1.5283   1.5986   1.6102
  1.6553   1.6784   1.9568   2.0354   2.0774   2.2269   2.2843   2.3945
  2.4115   2.5662   2.6297   2.6748   2.7173   2.7767   2.8190   2.8827
  2.9168   2.9732   2.9984   3.0106   3.0386   3.0696   3.0937   3.1108
  3.1566   3.1652   3.1959   3.2187   3.2535   3.2699   3.2814   3.3182
  3.3601   3.4451   3.4693   3.5009   3.5151   3.5502   3.5605   3.5796
  3.6350   3.6474   3.6712   3.6745   3.7000   3.7345   3.7638   3.7892
  3.8720   3.8764   3.9327   3.9497   3.9727   3.9998   4.0619   4.0730
  4.0869   4.1295   4.1619   4.1915   4.1970   4.2160   4.2772   4.3281
  4.3702   4.4057   4.4739   4.5450   4.5892   4.6020   4.7067   4.7615
  4.8583   4.8809   4.9539   4.9843   5.0324   5.0498   5.1189   5.1673
  5.2330   5.2437   5.2669   5.3137   5.3309   5.3623   5.4199   5.4688
  5.5236   5.5745   5.6790   5.8768   5.9542   6.0484   6.3134   6.3644
  6.4477   6.6547   6.7049   6.8225   7.1256   7.3401   7.4183   7.5504
  7.7301   8.1077  25.0938  25.4460  50.4672
 --------------------------------------------------------------
 
 -----------------------------------------------------------------
                    Cartesian Multipole Moments
 -----------------------------------------------------------------
    Charge (ESU x 10^10)
                 0.0000
    Dipole Moment (Debye)
         X      -0.9439      Y      -0.9052      Z       1.1888
       Tot       1.7674
    Quadrupole Moments (Debye-Ang)
        XX     -13.4499     XY       0.6838     YY     -19.2715
        XZ      -3.5292     YZ       0.9749     ZZ     -21.0131
    Octopole Moments (Debye-Ang^2)
       XXX     222.9592    XXY      -7.6785    XYY      80.8940
       YYY     -39.3347    XXZ      10.4297    XYZ      -2.1699
       YYZ       0.0118    XZZ      88.3911    YZZ     -14.5734
       ZZZ       3.4911
    Hexadecapole Moments (Debye-Ang^3)
      XXXX   -2196.6394   XXXY     111.9132   XXYY    -385.7042
      XYYY     155.8225   YYYY    -105.6813   XXXZ     -18.8899
      XXYZ       1.5850   XYYZ       5.6242   YYYZ      -3.3624
      XXZZ    -405.1334   XYZZ      57.7834   YYZZ     -26.9937
      XZZZ      -2.1936   YZZZ      -0.6522   ZZZZ     -47.5134
 -----------------------------------------------------------------
Archival summary:
1\1\centos77-c7\SP\ProcedureUnspecified\BasisUnspecified\126\shihchen\MonJul2714:12:182020MonJul2714:12:182020\0\\#,ProcedureUnspecified,BasisUnspecified,\\0,1\C\H,1,1.08974\H,1,1.09609,2,107.195\O,1,1.41511,2,105.493,3,-117.852,0\H,4,0.957116,1,108.863,2,178.989,0\C,1,1.5176,2,110.27,3,120.028,0\H,6,1.08986,1,110.512,2,130.25,0\H,6,1.09107,1,110.615,2,9.93268,0\H,6,1.09228,1,110.987,2,-109.628,0\\\@

 Total job time:  10.94s(wall), 56.24s(cpu) 
 Mon Jul 27 14:12:18 2020

        *************************************************************
        *                                                           *
        *  Thank you very much for using Q-Chem.  Have a nice day.  *
        *                                                           *
        *************************************************************


