                  Welcome to Q-Chem
     A Quantum Leap Into The Future Of Chemistry


 Q-Chem 5.3 (devel), Q-Chem, Inc., Pleasanton, CA (2020)

 Yihan Shao,  Zhengting Gan,  E. Epifanovsky,  A. T. B. Gilbert,  M. Wormit,  
 J. Kussmann,  A. W. Lange,  A. Behn,  Jia Deng,  Xintian Feng,  D. Ghosh,  
 M. Goldey,  P. R. Horn,  L. D. Jacobson,  I. Kaliman,  T. Kus,  A. Landau,  
 Jie Liu,  E. I. Proynov,  R. M. Richard,  R. P. Steele,  E. J. Sundstrom,  
 H. L. Woodcock III,  P. M. Zimmerman,  D. Zuev,  B. Alam,  B. Albrecht,  
 E. Alguire,  S. A. Baeppler,  D. Barton,  Z. Benda,  Y. A. Bernard,  
 E. J. Berquist,  K. B. Bravaya,  H. Burton,  K. Carter-Fenk,  D. Casanova,  
 Chun-Min Chang,  Yunqing Chen,  A. Chien,  K. D. Closser,  M. P. Coons,  
 S. Coriani,  S. Dasgupta,  A. L. Dempwolff,  M. Diedenhofen,  Hainam Do,  
 R. G. Edgar,  Po-Tung Fang,  S. Faraji,  S. Fatehi,  Qingguo Feng,  
 J. Fosso-Tande,  J. Gayvert,  Qinghui Ge,  A. Ghysels,  G. Gidofalvi,  
 J. Gomes,  J. Gonthier,  A. Gunina,  D. Hait,  M. W. D. Hanson-Heine,  
 P. H. P. Harbach,  A. W. Hauser,  M. F. Herbst,  J. E. Herr,  
 E. G. Hohenstein,  Z. C. Holden,  Kerwin Hui,  B. C. Huynh,  T.-C. Jagau,  
 Hyunjun Ji,  B. Kaduk,  K. Khistyaev,  Jaehoon Kim,  P. Klunzinger,  K. Koh,  
 D. Kosenkov,  L. Koulias,  T. Kowalczyk,  C. M. Krauter,  A. Kunitsa,  
 Ka Un Lao,  A. Laurent,  K. V. Lawler,  Joonho Lee,  D. Lefrancois,  
 S. Lehtola,  D. S. Levine,  Yi-Pei Li,  You-Sheng Lin,  Fenglai Liu,  
 Kuan-Yu Liu,  E. Livshits,  M. Loipersberger,  A. Luenser,  P. Manohar,  
 E. Mansoor,  S. F. Manzer,  Shan-Ping Mao,  Yuezhi Mao,  N. Mardirossian,  
 A. V. Marenich,  T. Markovich,  L. A. Martinez-Martinez,  S. A. Maurer,  
 N. J. Mayhall,  S. C. McKenzie,  J.-M. Mewes,  P. Morgante,  A. F. Morrison,  
 J. W. Mullinax,  K. Nanda,  T. S. Nguyen-Beck,  R. Olivares-Amaya,  
 K. J. Oosterbaan,  J. A. Parkhill,  S. K. Paul,  F. Pavosevic,  Zheng Pei,  
 T. M. Perrine,  F. Plasser,  P. Pokhilko,  S. Prager,  A. Prociuk,  
 E. Ramos,  B. Rana,  D. R. Rehn,  F. Rob,  M. Scheurer,  M. Schneider,  
 N. Sergueev,  S. M. Sharada,  S. Sharma,  D. W. Small,  T. Stauch,  
 C. J. Stein,  T. Stein,  Yu-Chuan Su,  S. P. Veccham,  Zhen Tao,  
 A. J. W. Thom,  A. Tkatchenko,  T. Tsuchimochi,  N. M. Tubman,  L. Vogt,  
 M. L. Vidal,  O. Vydrov,  M. A. Watson,  J. Wenzel,  M. de Wergifosse,  
 T. A. Wesolowski,  A. White,  J. Witte,  A. Yamada,  Jun Yang,  K. Yao,  
 S. Yeganeh,  S. R. Yost,  Zhi-Qiang You,  A. Zech,  Igor Ying Zhang,  
 Xing Zhang,  Yan Zhao,  Ying Zhu,  B. R. Brooks,  G. K. L. Chan,  
 C. J. Cramer,  M. S. Gordon,  W. J. Hehre,  A. Klamt,  M. W. Schmidt,  
 C. D. Sherrill,  D. G. Truhlar,  A. Aspuru-Guzik,  R. Baer,  A. T. Bell,  
 N. A. Besley,  Jeng-Da Chai,  A. E. DePrince, III,  R. A. DiStasio Jr.,  
 A. Dreuw,  B. D. Dunietz,  T. R. Furlani,  Chao-Ping Hsu,  Yousung Jung,  
 Jing Kong,  D. S. Lambrecht,  WanZhen Liang,  C. Ochsenfeld,  
 V. A. Rassolov,  L. V. Slipchenko,  J. E. Subotnik,  T. Van Voorhis,  
 J. M. Herbert,  A. I. Krylov,  P. M. W. Gill,  M. Head-Gordon

 Contributors to earlier versions of Q-Chem not listed above: 
 R. D. Adamson,  B. Austin,  J. Baker,  G. J. O. Beran,  K. Brandhorst,  
 S. T. Brown,  E. F. C. Byrd,  A. K. Chakraborty,  C.-L. Cheng,  
 Siu Hung Chien,  D. M. Chipman,  D. L. Crittenden,  H. Dachsel,  
 R. J. Doerksen,  A. D. Dutoi,  L. Fusti-Molnar,  W. A. Goddard III,  
 A. Golubeva-Zadorozhnaya,  S. R. Gwaltney,  G. Hawkins,  A. Heyden,  
 S. Hirata,  G. Kedziora,  F. J. Keil,  C. Kelley,  Jihan Kim,  R. A. King,  
 R. Z. Khaliullin,  P. P. Korambath,  W. Kurlancheek,  A. M. Lee,  M. S. Lee,  
 S. V. Levchenko,  Ching Yeh Lin,  D. Liotard,  R. C. Lochan,  I. Lotan,  
 P. E. Maslen,  N. Nair,  D. P. O'Neill,  D. Neuhauser,  E. Neuscamman,  
 C. M. Oana,  R. Olson,  B. Peters,  R. Peverati,  P. A. Pieniazek,  
 Y. M. Rhee,  J. Ritchie,  M. A. Rohrdanz,  E. Rosta,  N. J. Russ,  
 H. F. Schaefer III,  N. E. Schultz,  N. Shenvi,  A. C. Simmonett,  A. Sodt,  
 D. Stuck,  K. S. Thanthiriwatte,  V. Vanovschi,  Tao Wang,  A. Warshel,  
 C. F. Williams,  Q. Wu,  X. Xu,  W. Zhang

 Please cite Q-Chem as follows:
 Y. Shao et al., Mol. Phys. 113, 184-215 (2015)
 DOI: 10.1080/00268976.2014.952696

 Q-Chem 5.3.0 for Intel X86 EM64T Linux

 Parts of Q-Chem use Armadillo 9.800.1 (Horizon Scraper).
 http://arma.sourceforge.net/

 Q-Chem begins on Mon Jul 27 14:16:50 2020  

Host: centos77-c7
0

     Scratch files written to /tmp/29924.centos77-h1/qchem102503//
Processing $rem in /opt/qchem-5.3.0-intel2020u1//config/preferences:
Processing $rem in /home/shihchengli/.qchemrc:

Checking the input file for inconsistencies... 	...done.

--------------------------------------------------------------
User input:
--------------------------------------------------------------
$rem
   JOBTYPE  sp
   EXCHANGE   omegaB97X-D
   BASIS   6-311+G(2df,2pd)
   UNRESTRICTED   False
   max_scf_cycles   250
   geom_opt_max_cycles   1500
   basis2 6-31G*
   scf_algorithm rca_diis
   SYM_IGNORE  TRUE
   print_input   true
   geom_opt_dmax   80
   pop_mulliken false
   XC_GRID 000075000302
$end

$molecule
0 1
C       -5.3313855027     0.2095817899     0.1418090293
C       -3.9732924797     0.8098393871     0.4554953092
H       -6.1150046090     0.7288131786     0.6932950020
H       -5.3563222742     -0.8469497750     0.4130000769
H       -5.5556818499     0.2852263445     -0.9245143371
O       -3.5492053760     1.7468197628     -0.5164952968
H       -3.2267948336     0.0164439516     0.5766940868
H       -4.0121879312     1.3617321420     1.3943413530
H       -3.4829351436     1.3057132186     -1.3633152231
$end
--------------------------------------------------------------
 ----------------------------------------------------------------
             Standard Nuclear Orientation (Angstroms)
    I     Atom           X                Y                Z
 ----------------------------------------------------------------
    1      C      -5.3313855027     0.2095817899     0.1418090293
    2      C      -3.9732924797     0.8098393871     0.4554953092
    3      H      -6.1150046090     0.7288131786     0.6932950020
    4      H      -5.3563222742    -0.8469497750     0.4130000769
    5      H      -5.5556818499     0.2852263445    -0.9245143371
    6      O      -3.5492053760     1.7468197628    -0.5164952968
    7      H      -3.2267948336     0.0164439516     0.5766940868
    8      H      -4.0121879312     1.3617321420     1.3943413530
    9      H      -3.4829351436     1.3057132186    -1.3633152231
 ----------------------------------------------------------------
 Nuclear Repulsion Energy =          81.92916908 hartrees
 There are       13 alpha and       13 beta electrons
 Requested basis set is 6-311+G(2df,2pd)
 There are 60 shells and 186 basis functions

 Total QAlloc Memory Limit   2000 MB
 Mega-Array Size       188 MB
 MEM_STATIC part       192 MB

                       Distance Matrix (Angstroms)
             C (  1)   C (  2)   H (  3)   H (  4)   H (  5)   O (  6)
   C (  2)  1.517605
   H (  3)  1.089861  2.156396
   H (  4)  1.091066  2.158594  1.771212
   H (  5)  1.092280  2.164163  1.768309  1.763664
   O (  6)  2.443897  1.415114  3.013844  3.295038  2.515687
   H (  7)  2.157714  1.096095  2.977049  2.303721  2.783808  2.072007
   H (  8)  2.153270  1.089739  2.305188  2.765502  2.986357  2.003482
   H (  9)  2.623675  1.947925  3.389727  3.361374  2.351642  0.957116
             H (  7)   H (  8)
   H (  8)  1.759315
   H (  9)  2.343386  2.808543
 
 A cutoff of  1.0D-09 yielded   1782 shell pairs
 There are     17255 function pairs (     21421 Cartesian)
 Smallest overlap matrix eigenvalue = 1.15E-04

 Scale SEOQF with 1.000000e-02/1.000000e-01/1.000000e-01

 Standard Electronic Orientation quadrupole field applied
 Nucleus-field energy     =     0.0000000032 hartrees
 Requested basis set is 6-31G(d)
 There are 24 shells and 54 basis functions
 A cutoff of  1.0D-09 yielded    298 shell pairs
 There are      1549 function pairs (      1732 Cartesian)
 Smallest overlap matrix eigenvalue = 6.89E-03
 Guess from superposition of atomic densities
 Warning:  Energy on first SCF cycle will be non-variational
 SAD guess density has 26.000000 electrons
 Long-range K will be added via erf
 Coulomb attenuation parameter = 0.2 bohr**(-1)
 A restricted hybrid HF-DFT SCF calculation will be
 performed using Relaxed Constraint Minimization + Pulay DIIS
 Exchange:     0.2220 Hartree-Fock + 1.0000 wB97X-D + LR-HF
 Correlation:  1.0000 wB97X-D
 Using Euler-Maclaurin-Lebedev (75,302) quadrature formula
 Dispersion:   Grimme D
 SCF converges when DIIS error is below 1.0E-04
 using 6 threads for integral computing
 -------------------------------------------------------
 OpenMP Integral computing Module                
 Release: version 1.0, May 2013, Q-Chem Inc. Pittsburgh 
 -------------------------------------------------------
 using 6 threads for integral computing
 -------------------------------------------------------
 OpenMP Integral computing Module                
 Release: version 1.0, May 2013, Q-Chem Inc. Pittsburgh 
 -------------------------------------------------------
 ---------------------------------------
  Cycle       Energy         DIIS Error
 ---------------------------------------
    1    -155.4368503675      1.06E-01
    2    -154.9214625533      1.36E-02
    3    -154.9499978882      3.04E-03
    4    -154.9762831132      2.41E-03
    5    -154.9770082753      2.24E-04 Done RCA. Switching to DIIS
    6    -154.9778196821      9.94E-05 Convergence criterion met
 ---------------------------------------
 SCF time:  CPU 13.08 s  wall 2.19 s
 SCF   energy in the small basis set = -154.97781968
 Total energy in the small basis set = -154.97781968
 ----------------------------------------------------
  Cycle       Energy    
 ----------------------------------------------------
    1     -18.7548468400     -1.88E+01
 Long-range K will be added via erf
 Coulomb attenuation parameter = 0.2 bohr**(-1)
 A restricted hybrid HF-DFT SCF calculation will be
 performed using Relaxed Constraint Minimization + Pulay DIIS
 Exchange:     0.2220 Hartree-Fock + 1.0000 wB97X-D + LR-HF
 Correlation:  1.0000 wB97X-D
 Using Euler-Maclaurin-Lebedev (75,302) quadrature formula
 Dispersion:   Grimme D
 SCF converges when DIIS error is below 1.0E-05
 Basis2 calculation detected. Using small basis as guess for larger.
 SCFMinFind is unable to tell whether the solution found is close.
 Resetting ReadMinima to 0 and attempting to follow guess.
 SCFMinFind following SCF Guess.
 using 6 threads for integral computing
 -------------------------------------------------------
 OpenMP Integral computing Module                
 Release: version 1.0, May 2013, Q-Chem Inc. Pittsburgh 
 -------------------------------------------------------
 using 6 threads for integral computing
 -------------------------------------------------------
 OpenMP Integral computing Module                
 Release: version 1.0, May 2013, Q-Chem Inc. Pittsburgh 
 -------------------------------------------------------
 ---------------------------------------
  Cycle       Energy         DIIS Error
 ---------------------------------------
    1    -155.0095612019      5.72E-03
    2    -155.0249678777      2.87E-03
    3    -155.0346997602      3.48E-04 Done RCA. Switching to DIIS
    4    -155.0463736452      2.52E-04
    5    -155.0465632553      3.95E-05
    6    -155.0465712220      5.64E-06 Convergence criterion met
 ---------------------------------------
 SCF time:  CPU 39.18 s  wall 6.55 s
 SCF   energy in the final basis set = -155.04657122
 Total energy in the final basis set = -155.04657122
 
 --------------------------------------------------------------
 
                    Orbital Energies (a.u.)
 --------------------------------------------------------------
 
 Alpha MOs
 -- Occupied --
-19.2454 -10.3264 -10.2733  -1.1256  -0.8496  -0.7229  -0.5953  -0.5450
 -0.5241  -0.4717  -0.4573  -0.4090  -0.3612
 -- Virtual --
  0.0664   0.0876   0.0898   0.1028   0.1280   0.1319   0.1373   0.1758
  0.1918   0.2008   0.2366   0.2505   0.2840   0.2891   0.3007   0.3065
  0.3193   0.3342   0.3440   0.3917   0.4599   0.4896   0.5042   0.5175
  0.5453   0.5714   0.5865   0.6034   0.6239   0.6307   0.6491   0.6616
  0.6855   0.7157   0.7849   0.7916   0.8575   0.9132   0.9396   0.9992
  1.0087   1.0416   1.0662   1.0857   1.1421   1.1845   1.1991   1.2103
  1.2214   1.2485   1.2777   1.3073   1.3280   1.3440   1.3804   1.4012
  1.4341   1.4423   1.4729   1.4828   1.5102   1.5277   1.6027   1.6111
  1.6553   1.6725   1.9540   2.0293   2.0936   2.2399   2.2848   2.4034
  2.4149   2.5513   2.6170   2.6762   2.6786   2.7864   2.8236   2.8839
  2.9196   2.9734   2.9980   3.0155   3.0358   3.0680   3.0933   3.1033
  3.1429   3.1676   3.1930   3.2330   3.2661   3.2706   3.2891   3.3252
  3.3621   3.4334   3.4464   3.4901   3.5122   3.5509   3.5630   3.5762
  3.6320   3.6457   3.6620   3.6798   3.7193   3.7368   3.7800   3.8003
  3.8634   3.8756   3.9446   3.9547   3.9733   4.0008   4.0573   4.0769
  4.0931   4.1392   4.1644   4.1909   4.2003   4.2268   4.2599   4.3178
  4.3526   4.4041   4.4705   4.5348   4.5764   4.5981   4.7120   4.7640
  4.8556   4.9050   4.9504   4.9744   5.0301   5.0560   5.1213   5.1699
  5.2183   5.2461   5.2662   5.3103   5.3290   5.3598   5.4119   5.4648
  5.5216   5.5746   5.6783   5.8704   5.9502   6.0409   6.3215   6.3670
  6.4428   6.6556   6.7069   6.8236   7.1292   7.3384   7.4173   7.5491
  7.7281   8.1118  25.1037  25.4311  50.4651
 --------------------------------------------------------------
 
 -----------------------------------------------------------------
                    Cartesian Multipole Moments
 -----------------------------------------------------------------
    Charge (ESU x 10^10)
                 0.0000
    Dipole Moment (Debye)
         X      -0.4734      Y      -1.6916      Z      -0.2465
       Tot       1.7738
    Quadrupole Moments (Debye-Ang)
        XX     -16.9159     XY       5.2679     YY     -25.2638
        XZ       0.3206     YZ       0.6535     ZZ     -17.0544
    Octopole Moments (Debye-Ang^2)
       XXX     246.7850    XXY     -32.8362    XYY     105.2151
       YYY     -63.6806    XXZ       0.5880    XYZ      -3.3784
       YYZ       2.2520    XZZ      76.4939    YZZ     -12.8349
       ZZZ      -7.3847
    Hexadecapole Moments (Debye-Ang^3)
      XXXX   -2333.2219   XXXY     236.8179   XXYY    -489.0054
      XYYY     240.3219   YYYY    -194.1790   XXXZ       0.2959
      XXYZ      20.2459   XYYZ      -7.3429   YYYZ      15.8081
      XXZZ    -368.6325   XYZZ      49.7115   YYZZ     -32.6664
      XZZZ      35.2117   YZZZ       4.1552   ZZZZ     -49.9031
 -----------------------------------------------------------------
Archival summary:
1\1\centos77-c7\SP\ProcedureUnspecified\BasisUnspecified\126\shihchen\MonJul2714:17:012020MonJul2714:17:012020\0\\#,ProcedureUnspecified,BasisUnspecified,\\0,1\C\H,1,1.08974\H,1,1.09609,2,107.195\O,1,1.41511,2,105.493,3,-117.852,0\H,4,0.957116,1,108.863,2,178.989,0\C,1,1.5176,2,110.27,3,120.028,0\H,6,1.08986,1,110.512,2,20.2497,0\H,6,1.09107,1,110.615,2,-100.067,0\H,6,1.09228,1,110.987,2,140.372,0\\\@

 Total job time:  10.91s(wall), 56.18s(cpu) 
 Mon Jul 27 14:17:01 2020

        *************************************************************
        *                                                           *
        *  Thank you very much for using Q-Chem.  Have a nice day.  *
        *                                                           *
        *************************************************************


