                  Welcome to Q-Chem
     A Quantum Leap Into The Future Of Chemistry


 Q-Chem 5.3 (devel), Q-Chem, Inc., Pleasanton, CA (2020)

 Yihan Shao,  Zhengting Gan,  E. Epifanovsky,  A. T. B. Gilbert,  M. Wormit,  
 J. Kussmann,  A. W. Lange,  A. Behn,  Jia Deng,  Xintian Feng,  D. Ghosh,  
 M. Goldey,  P. R. Horn,  L. D. Jacobson,  I. Kaliman,  T. Kus,  A. Landau,  
 Jie Liu,  E. I. Proynov,  R. M. Richard,  R. P. Steele,  E. J. Sundstrom,  
 H. L. Woodcock III,  P. M. Zimmerman,  D. Zuev,  B. Alam,  B. Albrecht,  
 E. Alguire,  S. A. Baeppler,  D. Barton,  Z. Benda,  Y. A. Bernard,  
 E. J. Berquist,  K. B. Bravaya,  H. Burton,  K. Carter-Fenk,  D. Casanova,  
 Chun-Min Chang,  Yunqing Chen,  A. Chien,  K. D. Closser,  M. P. Coons,  
 S. Coriani,  S. Dasgupta,  A. L. Dempwolff,  M. Diedenhofen,  Hainam Do,  
 R. G. Edgar,  Po-Tung Fang,  S. Faraji,  S. Fatehi,  Qingguo Feng,  
 J. Fosso-Tande,  J. Gayvert,  Qinghui Ge,  A. Ghysels,  G. Gidofalvi,  
 J. Gomes,  J. Gonthier,  A. Gunina,  D. Hait,  M. W. D. Hanson-Heine,  
 P. H. P. Harbach,  A. W. Hauser,  M. F. Herbst,  J. E. Herr,  
 E. G. Hohenstein,  Z. C. Holden,  Kerwin Hui,  B. C. Huynh,  T.-C. Jagau,  
 Hyunjun Ji,  B. Kaduk,  K. Khistyaev,  Jaehoon Kim,  P. Klunzinger,  K. Koh,  
 D. Kosenkov,  L. Koulias,  T. Kowalczyk,  C. M. Krauter,  A. Kunitsa,  
 Ka Un Lao,  A. Laurent,  K. V. Lawler,  Joonho Lee,  D. Lefrancois,  
 S. Lehtola,  D. S. Levine,  Yi-Pei Li,  You-Sheng Lin,  Fenglai Liu,  
 Kuan-Yu Liu,  E. Livshits,  M. Loipersberger,  A. Luenser,  P. Manohar,  
 E. Mansoor,  S. F. Manzer,  Shan-Ping Mao,  Yuezhi Mao,  N. Mardirossian,  
 A. V. Marenich,  T. Markovich,  L. A. Martinez-Martinez,  S. A. Maurer,  
 N. J. Mayhall,  S. C. McKenzie,  J.-M. Mewes,  P. Morgante,  A. F. Morrison,  
 J. W. Mullinax,  K. Nanda,  T. S. Nguyen-Beck,  R. Olivares-Amaya,  
 K. J. Oosterbaan,  J. A. Parkhill,  S. K. Paul,  F. Pavosevic,  Zheng Pei,  
 T. M. Perrine,  F. Plasser,  P. Pokhilko,  S. Prager,  A. Prociuk,  
 E. Ramos,  B. Rana,  D. R. Rehn,  F. Rob,  M. Scheurer,  M. Schneider,  
 N. Sergueev,  S. M. Sharada,  S. Sharma,  D. W. Small,  T. Stauch,  
 C. J. Stein,  T. Stein,  Yu-Chuan Su,  S. P. Veccham,  Zhen Tao,  
 A. J. W. Thom,  A. Tkatchenko,  T. Tsuchimochi,  N. M. Tubman,  L. Vogt,  
 M. L. Vidal,  O. Vydrov,  M. A. Watson,  J. Wenzel,  M. de Wergifosse,  
 T. A. Wesolowski,  A. White,  J. Witte,  A. Yamada,  Jun Yang,  K. Yao,  
 S. Yeganeh,  S. R. Yost,  Zhi-Qiang You,  A. Zech,  Igor Ying Zhang,  
 Xing Zhang,  Yan Zhao,  Ying Zhu,  B. R. Brooks,  G. K. L. Chan,  
 C. J. Cramer,  M. S. Gordon,  W. J. Hehre,  A. Klamt,  M. W. Schmidt,  
 C. D. Sherrill,  D. G. Truhlar,  A. Aspuru-Guzik,  R. Baer,  A. T. Bell,  
 N. A. Besley,  Jeng-Da Chai,  A. E. DePrince, III,  R. A. DiStasio Jr.,  
 A. Dreuw,  B. D. Dunietz,  T. R. Furlani,  Chao-Ping Hsu,  Yousung Jung,  
 Jing Kong,  D. S. Lambrecht,  WanZhen Liang,  C. Ochsenfeld,  
 V. A. Rassolov,  L. V. Slipchenko,  J. E. Subotnik,  T. Van Voorhis,  
 J. M. Herbert,  A. I. Krylov,  P. M. W. Gill,  M. Head-Gordon

 Contributors to earlier versions of Q-Chem not listed above: 
 R. D. Adamson,  B. Austin,  J. Baker,  G. J. O. Beran,  K. Brandhorst,  
 S. T. Brown,  E. F. C. Byrd,  A. K. Chakraborty,  C.-L. Cheng,  
 Siu Hung Chien,  D. M. Chipman,  D. L. Crittenden,  H. Dachsel,  
 R. J. Doerksen,  A. D. Dutoi,  L. Fusti-Molnar,  W. A. Goddard III,  
 A. Golubeva-Zadorozhnaya,  S. R. Gwaltney,  G. Hawkins,  A. Heyden,  
 S. Hirata,  G. Kedziora,  F. J. Keil,  C. Kelley,  Jihan Kim,  R. A. King,  
 R. Z. Khaliullin,  P. P. Korambath,  W. Kurlancheek,  A. M. Lee,  M. S. Lee,  
 S. V. Levchenko,  Ching Yeh Lin,  D. Liotard,  R. C. Lochan,  I. Lotan,  
 P. E. Maslen,  N. Nair,  D. P. O'Neill,  D. Neuhauser,  E. Neuscamman,  
 C. M. Oana,  R. Olson,  B. Peters,  R. Peverati,  P. A. Pieniazek,  
 Y. M. Rhee,  J. Ritchie,  M. A. Rohrdanz,  E. Rosta,  N. J. Russ,  
 H. F. Schaefer III,  N. E. Schultz,  N. Shenvi,  A. C. Simmonett,  A. Sodt,  
 D. Stuck,  K. S. Thanthiriwatte,  V. Vanovschi,  Tao Wang,  A. Warshel,  
 C. F. Williams,  Q. Wu,  X. Xu,  W. Zhang

 Please cite Q-Chem as follows:
 Y. Shao et al., Mol. Phys. 113, 184-215 (2015)
 DOI: 10.1080/00268976.2014.952696

 Q-Chem 5.3.0 for Intel X86 EM64T Linux

 Parts of Q-Chem use Armadillo 9.800.1 (Horizon Scraper).
 http://arma.sourceforge.net/

 Q-Chem begins on Mon Jul 27 14:21:06 2020  

Host: centos77-c7
0

     Scratch files written to /tmp/29924.centos77-h1/qchem103625//
Processing $rem in /opt/qchem-5.3.0-intel2020u1//config/preferences:
Processing $rem in /home/shihchengli/.qchemrc:

Checking the input file for inconsistencies... 	...done.

--------------------------------------------------------------
User input:
--------------------------------------------------------------
$rem
   JOBTYPE  sp
   EXCHANGE   omegaB97X-D
   BASIS   6-311+G(2df,2pd)
   UNRESTRICTED   False
   max_scf_cycles   250
   geom_opt_max_cycles   1500
   basis2 6-31G*
   scf_algorithm rca_diis
   SYM_IGNORE  TRUE
   print_input   true
   geom_opt_dmax   80
   pop_mulliken false
   XC_GRID 000075000302
$end

$molecule
0 1
C       -5.4544802659     0.2931807263     0.1569519662
C       -4.1397236757     1.0490547712     0.2134715271
H       -5.4921628666     -0.3418479706     -0.7279861631
H       -6.2955571545     0.9873655716     0.1234490921
H       -5.5799377249     -0.3399387414     1.0381424321
O       -3.0131670980     0.1926797002     0.2071588891
H       -4.1179657566     1.7071776651     1.0897277944
H       -4.0296224055     1.6814020553     -0.6671787926
H       -2.4801930520     0.3881462223     -0.5634267452
$end
--------------------------------------------------------------
 ----------------------------------------------------------------
             Standard Nuclear Orientation (Angstroms)
    I     Atom           X                Y                Z
 ----------------------------------------------------------------
    1      C      -5.4544802659     0.2931807263     0.1569519662
    2      C      -4.1397236757     1.0490547712     0.2134715271
    3      H      -5.4921628666    -0.3418479706    -0.7279861631
    4      H      -6.2955571545     0.9873655716     0.1234490921
    5      H      -5.5799377249    -0.3399387414     1.0381424321
    6      O      -3.0131670980     0.1926797002     0.2071588891
    7      H      -4.1179657566     1.7071776651     1.0897277944
    8      H      -4.0296224055     1.6814020553    -0.6671787926
    9      H      -2.4801930520     0.3881462223    -0.5634267452
 ----------------------------------------------------------------
 Nuclear Repulsion Energy =          81.69974160 hartrees
 There are       13 alpha and       13 beta electrons
 Requested basis set is 6-311+G(2df,2pd)
 There are 60 shells and 186 basis functions

 Total QAlloc Memory Limit   2000 MB
 Mega-Array Size       188 MB
 MEM_STATIC part       192 MB

                       Distance Matrix (Angstroms)
             C (  1)   C (  2)   H (  3)   H (  4)   H (  5)   O (  6)
   C (  2)  1.517605
   H (  3)  1.089861  2.156396
   H (  4)  1.091066  2.158594  1.771212
   H (  5)  1.092280  2.164163  1.768309  1.763664
   O (  6)  2.443897  1.415114  2.702894  3.378257  2.750005
   H (  7)  2.157714  1.096095  3.064475  2.488720  2.516090  2.072007
   H (  8)  2.153270  1.089739  2.497251  2.498247  3.065521  2.003482
   H (  9)  3.061756  1.947925  3.103536  3.922737  3.564204  0.957116
             H (  7)   H (  8)
   H (  8)  1.759315
   H (  9)  2.674895  2.020892
 
 A cutoff of  1.0D-09 yielded   1769 shell pairs
 There are     17181 function pairs (     21343 Cartesian)
 Smallest overlap matrix eigenvalue = 1.33E-04

 Scale SEOQF with 1.000000e-02/1.000000e-01/1.000000e-01

 Standard Electronic Orientation quadrupole field applied
 Nucleus-field energy     =     0.0000000023 hartrees
 Requested basis set is 6-31G(d)
 There are 24 shells and 54 basis functions
 A cutoff of  1.0D-09 yielded    298 shell pairs
 There are      1549 function pairs (      1732 Cartesian)
 Smallest overlap matrix eigenvalue = 7.22E-03
 Guess from superposition of atomic densities
 Warning:  Energy on first SCF cycle will be non-variational
 SAD guess density has 26.000000 electrons
 Long-range K will be added via erf
 Coulomb attenuation parameter = 0.2 bohr**(-1)
 A restricted hybrid HF-DFT SCF calculation will be
 performed using Relaxed Constraint Minimization + Pulay DIIS
 Exchange:     0.2220 Hartree-Fock + 1.0000 wB97X-D + LR-HF
 Correlation:  1.0000 wB97X-D
 Using Euler-Maclaurin-Lebedev (75,302) quadrature formula
 Dispersion:   Grimme D
 SCF converges when DIIS error is below 1.0E-04
 using 6 threads for integral computing
 -------------------------------------------------------
 OpenMP Integral computing Module                
 Release: version 1.0, May 2013, Q-Chem Inc. Pittsburgh 
 -------------------------------------------------------
 using 6 threads for integral computing
 -------------------------------------------------------
 OpenMP Integral computing Module                
 Release: version 1.0, May 2013, Q-Chem Inc. Pittsburgh 
 -------------------------------------------------------
 ---------------------------------------
  Cycle       Energy         DIIS Error
 ---------------------------------------
    1    -155.4333464449      1.06E-01
    2    -154.9212385683      1.37E-02
    3    -154.9501899211      2.97E-03
    4    -154.9773425748      2.27E-03
    5    -154.9779901663      2.15E-04 Done RCA. Switching to DIIS
    6    -154.9787136056      8.51E-05 Convergence criterion met
 ---------------------------------------
 SCF time:  CPU 12.99 s  wall 2.18 s
 SCF   energy in the small basis set = -154.97871361
 Total energy in the small basis set = -154.97871361
 ----------------------------------------------------
  Cycle       Energy    
 ----------------------------------------------------
    1     -18.7521271770     -1.88E+01
 Long-range K will be added via erf
 Coulomb attenuation parameter = 0.2 bohr**(-1)
 A restricted hybrid HF-DFT SCF calculation will be
 performed using Relaxed Constraint Minimization + Pulay DIIS
 Exchange:     0.2220 Hartree-Fock + 1.0000 wB97X-D + LR-HF
 Correlation:  1.0000 wB97X-D
 Using Euler-Maclaurin-Lebedev (75,302) quadrature formula
 Dispersion:   Grimme D
 SCF converges when DIIS error is below 1.0E-05
 Basis2 calculation detected. Using small basis as guess for larger.
 SCFMinFind is unable to tell whether the solution found is close.
 Resetting ReadMinima to 0 and attempting to follow guess.
 SCFMinFind following SCF Guess.
 using 6 threads for integral computing
 -------------------------------------------------------
 OpenMP Integral computing Module                
 Release: version 1.0, May 2013, Q-Chem Inc. Pittsburgh 
 -------------------------------------------------------
 using 6 threads for integral computing
 -------------------------------------------------------
 OpenMP Integral computing Module                
 Release: version 1.0, May 2013, Q-Chem Inc. Pittsburgh 
 -------------------------------------------------------
 ---------------------------------------
  Cycle       Energy         DIIS Error
 ---------------------------------------
    1    -155.0101987989      5.74E-03
    2    -155.0252689687      2.93E-03
    3    -155.0354421224      3.55E-04 Done RCA. Switching to DIIS
    4    -155.0476680100      2.62E-04
    5    -155.0478720496      3.99E-05
    6    -155.0478800704      6.25E-06 Convergence criterion met
 ---------------------------------------
 SCF time:  CPU 38.53 s  wall 6.45 s
 SCF   energy in the final basis set = -155.04788007
 Total energy in the final basis set = -155.04788007
 
 --------------------------------------------------------------
 
                    Orbital Energies (a.u.)
 --------------------------------------------------------------
 
 Alpha MOs
 -- Occupied --
-19.2452 -10.3279 -10.2699  -1.1259  -0.8487  -0.7124  -0.6096  -0.5523
 -0.4963  -0.4791  -0.4554  -0.4061  -0.3625
 -- Virtual --
  0.0630   0.0838   0.0925   0.1037   0.1276   0.1341   0.1374   0.1813
  0.2123   0.2242   0.2283   0.2467   0.2509   0.2877   0.2928   0.3056
  0.3188   0.3307   0.3518   0.3849   0.4677   0.4992   0.5171   0.5255
  0.5675   0.5786   0.5884   0.5978   0.6145   0.6320   0.6508   0.6640
  0.6925   0.7146   0.7497   0.8318   0.8620   0.8926   0.9382   0.9604
  0.9828   1.0437   1.0781   1.1099   1.1273   1.1726   1.1822   1.1987
  1.2243   1.2393   1.2512   1.2942   1.3241   1.3587   1.3676   1.4093
  1.4312   1.4576   1.4724   1.4794   1.5358   1.5484   1.5944   1.6268
  1.6583   1.7356   1.9494   2.0548   2.1469   2.2321   2.2890   2.4662
  2.4851   2.5197   2.5426   2.5968   2.7157   2.7953   2.8143   2.8663
  2.9223   2.9837   3.0093   3.0215   3.0394   3.0596   3.0674   3.0912
  3.1419   3.1873   3.2247   3.2626   3.2742   3.3135   3.3182   3.3354
  3.3564   3.3941   3.4060   3.4236   3.4833   3.5658   3.5697   3.5908
  3.6040   3.6221   3.6519   3.7063   3.7422   3.7753   3.8009   3.8199
  3.8550   3.9386   3.9467   3.9750   3.9961   4.0167   4.0374   4.0428
  4.0827   4.1233   4.1366   4.2038   4.2126   4.2179   4.2596   4.3349
  4.3591   4.3962   4.4659   4.4843   4.5983   4.6421   4.7244   4.7633
  4.8494   4.9179   4.9576   4.9712   5.0006   5.0477   5.0917   5.2164
  5.2356   5.2759   5.3026   5.3080   5.3357   5.3640   5.3993   5.4748
  5.5341   5.6267   5.6826   5.8262   5.9684   6.0103   6.3729   6.3865
  6.4245   6.6547   6.6908   6.7863   7.1184   7.4016   7.4309   7.5770
  7.6927   8.1532  25.1834  25.4326  50.4643
 --------------------------------------------------------------
 
 -----------------------------------------------------------------
                    Cartesian Multipole Moments
 -----------------------------------------------------------------
    Charge (ESU x 10^10)
                 0.0000
    Dipole Moment (Debye)
         X      -0.4275      Y       1.1623      Z      -1.2382
       Tot       1.7512
    Quadrupole Moments (Debye-Ang)
        XX     -15.8241     XY      -4.0973     YY     -19.4715
        XZ       2.3245     YZ      -0.2479     ZZ     -19.1891
    Octopole Moments (Debye-Ang^2)
       XXX     231.4842    XXY       4.7165    XYY      83.7141
       YYY     -31.7443    XXZ      -5.9885    XYZ       0.1309
       YYZ      -3.2764    XZZ      83.3428    YZZ     -10.3266
       ZZZ     -10.3616
    Hexadecapole Moments (Debye-Ang^3)
      XXXX   -2243.0750   XXXY      72.2088   XXYY    -400.9674
      XYYY     134.6607   YYYY     -90.9646   XXXZ      36.9628
      XXYZ      -0.5977   XYYZ      13.7726   YYYZ      -5.6764
      XXZZ    -394.6409   XYZZ      45.5269   YYZZ     -19.8567
      XZZZ      43.8154   YZZZ      -6.0527   ZZZZ     -37.9007
 -----------------------------------------------------------------
Archival summary:
1\1\centos77-c7\SP\ProcedureUnspecified\BasisUnspecified\126\shihchen\MonJul2714:21:172020MonJul2714:21:172020\0\\#,ProcedureUnspecified,BasisUnspecified,\\0,1\C\H,1,1.08974\H,1,1.09609,2,107.195\O,1,1.41511,2,105.493,3,-117.852,0\H,4,0.957116,1,108.863,2,-1.01051,0\C,1,1.5176,2,110.27,3,120.028,0\H,6,1.08986,1,110.512,2,60.2497,0\H,6,1.09107,1,110.615,2,-60.0673,0\H,6,1.09228,1,110.987,2,-179.628,0\\\@

 Total job time:  10.75s(wall), 55.31s(cpu) 
 Mon Jul 27 14:21:17 2020

        *************************************************************
        *                                                           *
        *  Thank you very much for using Q-Chem.  Have a nice day.  *
        *                                                           *
        *************************************************************


