                  Welcome to Q-Chem
     A Quantum Leap Into The Future Of Chemistry


 Q-Chem 5.3 (devel), Q-Chem, Inc., Pleasanton, CA (2020)

 Yihan Shao,  Zhengting Gan,  E. Epifanovsky,  A. T. B. Gilbert,  M. Wormit,  
 J. Kussmann,  A. W. Lange,  A. Behn,  Jia Deng,  Xintian Feng,  D. Ghosh,  
 M. Goldey,  P. R. Horn,  L. D. Jacobson,  I. Kaliman,  T. Kus,  A. Landau,  
 Jie Liu,  E. I. Proynov,  R. M. Richard,  R. P. Steele,  E. J. Sundstrom,  
 H. L. Woodcock III,  P. M. Zimmerman,  D. Zuev,  B. Alam,  B. Albrecht,  
 E. Alguire,  S. A. Baeppler,  D. Barton,  Z. Benda,  Y. A. Bernard,  
 E. J. Berquist,  K. B. Bravaya,  H. Burton,  K. Carter-Fenk,  D. Casanova,  
 Chun-Min Chang,  Yunqing Chen,  A. Chien,  K. D. Closser,  M. P. Coons,  
 S. Coriani,  S. Dasgupta,  A. L. Dempwolff,  M. Diedenhofen,  Hainam Do,  
 R. G. Edgar,  Po-Tung Fang,  S. Faraji,  S. Fatehi,  Qingguo Feng,  
 J. Fosso-Tande,  J. Gayvert,  Qinghui Ge,  A. Ghysels,  G. Gidofalvi,  
 J. Gomes,  J. Gonthier,  A. Gunina,  D. Hait,  M. W. D. Hanson-Heine,  
 P. H. P. Harbach,  A. W. Hauser,  M. F. Herbst,  J. E. Herr,  
 E. G. Hohenstein,  Z. C. Holden,  Kerwin Hui,  B. C. Huynh,  T.-C. Jagau,  
 Hyunjun Ji,  B. Kaduk,  K. Khistyaev,  Jaehoon Kim,  P. Klunzinger,  K. Koh,  
 D. Kosenkov,  L. Koulias,  T. Kowalczyk,  C. M. Krauter,  A. Kunitsa,  
 Ka Un Lao,  A. Laurent,  K. V. Lawler,  Joonho Lee,  D. Lefrancois,  
 S. Lehtola,  D. S. Levine,  Yi-Pei Li,  You-Sheng Lin,  Fenglai Liu,  
 Kuan-Yu Liu,  E. Livshits,  M. Loipersberger,  A. Luenser,  P. Manohar,  
 E. Mansoor,  S. F. Manzer,  Shan-Ping Mao,  Yuezhi Mao,  N. Mardirossian,  
 A. V. Marenich,  T. Markovich,  L. A. Martinez-Martinez,  S. A. Maurer,  
 N. J. Mayhall,  S. C. McKenzie,  J.-M. Mewes,  P. Morgante,  A. F. Morrison,  
 J. W. Mullinax,  K. Nanda,  T. S. Nguyen-Beck,  R. Olivares-Amaya,  
 K. J. Oosterbaan,  J. A. Parkhill,  S. K. Paul,  F. Pavosevic,  Zheng Pei,  
 T. M. Perrine,  F. Plasser,  P. Pokhilko,  S. Prager,  A. Prociuk,  
 E. Ramos,  B. Rana,  D. R. Rehn,  F. Rob,  M. Scheurer,  M. Schneider,  
 N. Sergueev,  S. M. Sharada,  S. Sharma,  D. W. Small,  T. Stauch,  
 C. J. Stein,  T. Stein,  Yu-Chuan Su,  S. P. Veccham,  Zhen Tao,  
 A. J. W. Thom,  A. Tkatchenko,  T. Tsuchimochi,  N. M. Tubman,  L. Vogt,  
 M. L. Vidal,  O. Vydrov,  M. A. Watson,  J. Wenzel,  M. de Wergifosse,  
 T. A. Wesolowski,  A. White,  J. Witte,  A. Yamada,  Jun Yang,  K. Yao,  
 S. Yeganeh,  S. R. Yost,  Zhi-Qiang You,  A. Zech,  Igor Ying Zhang,  
 Xing Zhang,  Yan Zhao,  Ying Zhu,  B. R. Brooks,  G. K. L. Chan,  
 C. J. Cramer,  M. S. Gordon,  W. J. Hehre,  A. Klamt,  M. W. Schmidt,  
 C. D. Sherrill,  D. G. Truhlar,  A. Aspuru-Guzik,  R. Baer,  A. T. Bell,  
 N. A. Besley,  Jeng-Da Chai,  A. E. DePrince, III,  R. A. DiStasio Jr.,  
 A. Dreuw,  B. D. Dunietz,  T. R. Furlani,  Chao-Ping Hsu,  Yousung Jung,  
 Jing Kong,  D. S. Lambrecht,  WanZhen Liang,  C. Ochsenfeld,  
 V. A. Rassolov,  L. V. Slipchenko,  J. E. Subotnik,  T. Van Voorhis,  
 J. M. Herbert,  A. I. Krylov,  P. M. W. Gill,  M. Head-Gordon

 Contributors to earlier versions of Q-Chem not listed above: 
 R. D. Adamson,  B. Austin,  J. Baker,  G. J. O. Beran,  K. Brandhorst,  
 S. T. Brown,  E. F. C. Byrd,  A. K. Chakraborty,  C.-L. Cheng,  
 Siu Hung Chien,  D. M. Chipman,  D. L. Crittenden,  H. Dachsel,  
 R. J. Doerksen,  A. D. Dutoi,  L. Fusti-Molnar,  W. A. Goddard III,  
 A. Golubeva-Zadorozhnaya,  S. R. Gwaltney,  G. Hawkins,  A. Heyden,  
 S. Hirata,  G. Kedziora,  F. J. Keil,  C. Kelley,  Jihan Kim,  R. A. King,  
 R. Z. Khaliullin,  P. P. Korambath,  W. Kurlancheek,  A. M. Lee,  M. S. Lee,  
 S. V. Levchenko,  Ching Yeh Lin,  D. Liotard,  R. C. Lochan,  I. Lotan,  
 P. E. Maslen,  N. Nair,  D. P. O'Neill,  D. Neuhauser,  E. Neuscamman,  
 C. M. Oana,  R. Olson,  B. Peters,  R. Peverati,  P. A. Pieniazek,  
 Y. M. Rhee,  J. Ritchie,  M. A. Rohrdanz,  E. Rosta,  N. J. Russ,  
 H. F. Schaefer III,  N. E. Schultz,  N. Shenvi,  A. C. Simmonett,  A. Sodt,  
 D. Stuck,  K. S. Thanthiriwatte,  V. Vanovschi,  Tao Wang,  A. Warshel,  
 C. F. Williams,  Q. Wu,  X. Xu,  W. Zhang

 Please cite Q-Chem as follows:
 Y. Shao et al., Mol. Phys. 113, 184-215 (2015)
 DOI: 10.1080/00268976.2014.952696

 Q-Chem 5.3.0 for Intel X86 EM64T Linux

 Parts of Q-Chem use Armadillo 9.800.1 (Horizon Scraper).
 http://arma.sourceforge.net/

 Q-Chem begins on Mon Jul 27 14:34:57 2020  

Host: centos77-c7
0

     Scratch files written to /tmp/29924.centos77-h1/qchem107025//
Processing $rem in /opt/qchem-5.3.0-intel2020u1//config/preferences:
Processing $rem in /home/shihchengli/.qchemrc:

Checking the input file for inconsistencies... 	...done.

--------------------------------------------------------------
User input:
--------------------------------------------------------------
$rem
   JOBTYPE  sp
   EXCHANGE   omegaB97X-D
   BASIS   6-311+G(2df,2pd)
   UNRESTRICTED   False
   max_scf_cycles   250
   geom_opt_max_cycles   1500
   basis2 6-31G*
   scf_algorithm rca_diis
   SYM_IGNORE  TRUE
   print_input   true
   geom_opt_dmax   80
   pop_mulliken false
   XC_GRID 000075000302
$end

$molecule
0 1
C       -5.4231460352     0.2954462481     -0.0013930769
C       -4.0725054396     1.1826334733     0.1660560866
H       -5.5934596321     -0.1463697046     -0.9838514154
H       -6.3143551151     0.8461141750     0.3049681968
H       -5.3342140629     -0.5294729401     0.7144808137
O       -3.0268146177     0.5426491066     -0.1922361249
H       -4.0415276375     1.6728294138     1.1520838506
H       -4.0528044557     1.9848921054     -0.5760754998
H       -2.7439830040     -0.2315018774     0.2862771693
$end
--------------------------------------------------------------
 ----------------------------------------------------------------
             Standard Nuclear Orientation (Angstroms)
    I     Atom           X                Y                Z
 ----------------------------------------------------------------
    1      C      -5.4231460352     0.2954462481    -0.0013930769
    2      C      -4.0725054396     1.1826334733     0.1660560866
    3      H      -5.5934596321    -0.1463697046    -0.9838514154
    4      H      -6.3143551151     0.8461141750     0.3049681968
    5      H      -5.3342140629    -0.5294729401     0.7144808137
    6      O      -3.0268146177     0.5426491066    -0.1922361249
    7      H      -4.0415276375     1.6728294138     1.1520838506
    8      H      -4.0528044557     1.9848921054    -0.5760754998
    9      H      -2.7439830040    -0.2315018774     0.2862771693
 ----------------------------------------------------------------
 Nuclear Repulsion Energy =          82.93367728 hartrees
 There are       13 alpha and       13 beta electrons
 Requested basis set is 6-311+G(2df,2pd)
 There are 60 shells and 186 basis functions

 Total QAlloc Memory Limit   2000 MB
 Mega-Array Size       188 MB
 MEM_STATIC part       192 MB

                       Distance Matrix (Angstroms)
             C (  1)   C (  2)   H (  3)   H (  4)   H (  5)   O (  6)
   C (  2)  1.624614
   H (  3)  1.090611  2.324186
   H (  4)  1.091488  2.271218  1.779261
   H (  5)  1.095845  2.196358  1.760201  1.737992
   O (  6)  2.416596  1.277272  2.772917  3.338746  2.701050
   H (  7)  2.266399  1.101591  3.206275  2.562578  2.590882  2.028336
   H (  8)  2.249961  1.093054  2.661236  2.680982  3.103156  1.811092
   H (  9)  2.745604  1.944017  3.120896  3.729499  2.642242  0.953036
             H (  7)   H (  8)
   H (  8)  1.756145
   H (  9)  2.461650  2.714603
 
 A cutoff of  1.0D-09 yielded   1781 shell pairs
 There are     17300 function pairs (     21485 Cartesian)
 Smallest overlap matrix eigenvalue = 1.94E-04

 Scale SEOQF with 1.000000e-02/1.000000e-01/1.000000e-01

 Standard Electronic Orientation quadrupole field applied
 Nucleus-field energy     =     0.0000000027 hartrees
 Requested basis set is 6-31G(d)
 There are 24 shells and 54 basis functions
 A cutoff of  1.0D-09 yielded    298 shell pairs
 There are      1549 function pairs (      1732 Cartesian)
 Smallest overlap matrix eigenvalue = 7.59E-03
 Guess from superposition of atomic densities
 Warning:  Energy on first SCF cycle will be non-variational
 SAD guess density has 26.000000 electrons
 Long-range K will be added via erf
 Coulomb attenuation parameter = 0.2 bohr**(-1)
 A restricted hybrid HF-DFT SCF calculation will be
 performed using Relaxed Constraint Minimization + Pulay DIIS
 Exchange:     0.2220 Hartree-Fock + 1.0000 wB97X-D + LR-HF
 Correlation:  1.0000 wB97X-D
 Using Euler-Maclaurin-Lebedev (75,302) quadrature formula
 Dispersion:   Grimme D
 SCF converges when DIIS error is below 1.0E-04
 using 6 threads for integral computing
 -------------------------------------------------------
 OpenMP Integral computing Module                
 Release: version 1.0, May 2013, Q-Chem Inc. Pittsburgh 
 -------------------------------------------------------
 using 6 threads for integral computing
 -------------------------------------------------------
 OpenMP Integral computing Module                
 Release: version 1.0, May 2013, Q-Chem Inc. Pittsburgh 
 -------------------------------------------------------
 ---------------------------------------
  Cycle       Energy         DIIS Error
 ---------------------------------------
    1    -155.5342367376      1.12E-01
    2    -154.9029139172      1.34E-02
    3    -154.9311099990      3.05E-03
    4    -154.9553876212      2.45E-03
    5    -154.9561297574      1.82E-04 Done RCA. Switching to DIIS
    6    -154.9569098201      5.76E-05 Convergence criterion met
 ---------------------------------------
 SCF time:  CPU 12.87 s  wall 2.16 s
 SCF   energy in the small basis set = -154.95690982
 Total energy in the small basis set = -154.95690982
 ----------------------------------------------------
  Cycle       Energy    
 ----------------------------------------------------
    1     -18.7831427066     -1.88E+01
 Long-range K will be added via erf
 Coulomb attenuation parameter = 0.2 bohr**(-1)
 A restricted hybrid HF-DFT SCF calculation will be
 performed using Relaxed Constraint Minimization + Pulay DIIS
 Exchange:     0.2220 Hartree-Fock + 1.0000 wB97X-D + LR-HF
 Correlation:  1.0000 wB97X-D
 Using Euler-Maclaurin-Lebedev (75,302) quadrature formula
 Dispersion:   Grimme D
 SCF converges when DIIS error is below 1.0E-05
 Basis2 calculation detected. Using small basis as guess for larger.
 SCFMinFind is unable to tell whether the solution found is close.
 Resetting ReadMinima to 0 and attempting to follow guess.
 SCFMinFind following SCF Guess.
 using 6 threads for integral computing
 -------------------------------------------------------
 OpenMP Integral computing Module                
 Release: version 1.0, May 2013, Q-Chem Inc. Pittsburgh 
 -------------------------------------------------------
 using 6 threads for integral computing
 -------------------------------------------------------
 OpenMP Integral computing Module                
 Release: version 1.0, May 2013, Q-Chem Inc. Pittsburgh 
 -------------------------------------------------------
 ---------------------------------------
  Cycle       Energy         DIIS Error
 ---------------------------------------
    1    -154.9903635060      5.68E-03
    2    -155.0083542418      2.61E-03
    3    -155.0165178810      2.62E-04 Done RCA. Switching to DIIS
    4    -155.0258824001      1.41E-04
    5    -155.0259495584      3.73E-05
    6    -155.0259564689      5.47E-06 Convergence criterion met
 ---------------------------------------
 SCF time:  CPU 38.58 s  wall 6.46 s
 SCF   energy in the final basis set = -155.02595647
 Total energy in the final basis set = -155.02595647
 
 --------------------------------------------------------------
 
                    Orbital Energies (a.u.)
 --------------------------------------------------------------
 
 Alpha MOs
 -- Occupied --
-19.2482 -10.3260 -10.2705  -1.1737  -0.8253  -0.7461  -0.6129  -0.5510
 -0.5253  -0.4723  -0.4597  -0.3862  -0.3526
 -- Virtual --
  0.0663   0.0875   0.0904   0.1038   0.1286   0.1331   0.1395   0.1822
  0.1984   0.2196   0.2390   0.2431   0.2676   0.2775   0.2979   0.3034
  0.3200   0.3444   0.3520   0.3924   0.4537   0.4982   0.5161   0.5296
  0.5574   0.5826   0.5905   0.6047   0.6276   0.6442   0.6728   0.6971
  0.7073   0.7323   0.7625   0.8089   0.8300   0.8821   0.9223   0.9563
  0.9913   1.0270   1.0834   1.1109   1.1394   1.1523   1.1818   1.2034
  1.2113   1.2301   1.2851   1.2942   1.3188   1.3574   1.3643   1.3992
  1.4436   1.4608   1.4832   1.4907   1.5243   1.5377   1.5824   1.6505
  1.6717   1.7294   1.9479   2.0582   2.1444   2.2622   2.3669   2.4449
  2.4586   2.4724   2.5549   2.5810   2.6998   2.8027   2.8260   2.9013
  2.9284   2.9720   3.0348   3.0546   3.0702   3.0816   3.0875   3.1118
  3.1838   3.1910   3.2038   3.2546   3.2816   3.2877   3.3205   3.3440
  3.3562   3.3837   3.4079   3.4396   3.5206   3.5556   3.5669   3.5758
  3.5963   3.6103   3.6254   3.6884   3.7114   3.7418   3.7861   3.8315
  3.8768   3.9015   3.9130   3.9362   4.0040   4.0124   4.0512   4.0715
  4.1014   4.1327   4.1687   4.1744   4.2002   4.2444   4.2974   4.3109
  4.3466   4.3673   4.3865   4.4901   4.5321   4.5996   4.7690   4.7934
  4.8665   4.8942   4.9340   4.9607   5.0230   5.0538   5.0675   5.1673
  5.1936   5.2177   5.2717   5.2940   5.3226   5.3642   5.3942   5.4472
  5.5129   5.5751   5.6959   5.7886   5.9501   6.3330   6.3621   6.3977
  6.4447   6.7252   6.9739   7.0660   7.1353   7.2867   7.4891   7.5632
  7.8103   8.2912  25.3143  25.3846  50.5341
 --------------------------------------------------------------
 
 -----------------------------------------------------------------
                    Cartesian Multipole Moments
 -----------------------------------------------------------------
    Charge (ESU x 10^10)
                -0.0000
    Dipole Moment (Debye)
         X      -0.2965      Y      -0.7007      Z       1.0380
       Tot       1.2870
    Quadrupole Moments (Debye-Ang)
        XX     -18.3780     XY       0.9431     YY     -19.5554
        XZ      -2.6375     YZ      -0.0047     ZZ     -20.0716
    Octopole Moments (Debye-Ang^2)
       XXX     252.5457    XXY     -12.2552    XYY      84.2606
       YYY     -38.8941    XXZ       5.6224    XYZ      -0.3224
       YYZ      -0.4666    XZZ      85.9842    YZZ     -13.2306
       ZZZ      -1.3671
    Hexadecapole Moments (Debye-Ang^3)
      XXXX   -2367.8869   XXXY     142.0947   XXYY    -408.5966
      XYYY     158.0976   YYYY    -110.8309   XXXZ      -2.5019
      XXYZ       2.7438   XYYZ       2.5060   YYYZ      -4.4867
      XXZZ    -401.1967   XYZZ      54.2270   YYZZ     -23.4438
      XZZZ      10.3313   YZZZ      -2.9950   ZZZZ     -37.3911
 -----------------------------------------------------------------
Archival summary:
1\1\centos77-c7\SP\ProcedureUnspecified\BasisUnspecified\126\shihchen\MonJul2714:35:072020MonJul2714:35:072020\0\\#,ProcedureUnspecified,BasisUnspecified,\\0,1\O\H,1,0.953036\C,1,1.27727,2,120.606\H,3,1.09305,1,99.3546,2,178.591,0\H,3,1.10159,1,116.81,2,64.8941,0\C,3,1.62461,1,112.216,2,-64.9309,0\H,6,1.09061,3,116.353,1,-53.3085,0\H,6,1.09149,3,111.986,1,-179.951,0\H,6,1.09584,3,106.038,1,65.7924,0\\\@

 Total job time:  10.74s(wall), 55.24s(cpu) 
 Mon Jul 27 14:35:07 2020

        *************************************************************
        *                                                           *
        *  Thank you very much for using Q-Chem.  Have a nice day.  *
        *                                                           *
        *************************************************************


