                  Welcome to Q-Chem
     A Quantum Leap Into The Future Of Chemistry


 Q-Chem 5.3 (devel), Q-Chem, Inc., Pleasanton, CA (2020)

 Yihan Shao,  Zhengting Gan,  E. Epifanovsky,  A. T. B. Gilbert,  M. Wormit,  
 J. Kussmann,  A. W. Lange,  A. Behn,  Jia Deng,  Xintian Feng,  D. Ghosh,  
 M. Goldey,  P. R. Horn,  L. D. Jacobson,  I. Kaliman,  T. Kus,  A. Landau,  
 Jie Liu,  E. I. Proynov,  R. M. Richard,  R. P. Steele,  E. J. Sundstrom,  
 H. L. Woodcock III,  P. M. Zimmerman,  D. Zuev,  B. Alam,  B. Albrecht,  
 E. Alguire,  S. A. Baeppler,  D. Barton,  Z. Benda,  Y. A. Bernard,  
 E. J. Berquist,  K. B. Bravaya,  H. Burton,  K. Carter-Fenk,  D. Casanova,  
 Chun-Min Chang,  Yunqing Chen,  A. Chien,  K. D. Closser,  M. P. Coons,  
 S. Coriani,  S. Dasgupta,  A. L. Dempwolff,  M. Diedenhofen,  Hainam Do,  
 R. G. Edgar,  Po-Tung Fang,  S. Faraji,  S. Fatehi,  Qingguo Feng,  
 J. Fosso-Tande,  J. Gayvert,  Qinghui Ge,  A. Ghysels,  G. Gidofalvi,  
 J. Gomes,  J. Gonthier,  A. Gunina,  D. Hait,  M. W. D. Hanson-Heine,  
 P. H. P. Harbach,  A. W. Hauser,  M. F. Herbst,  J. E. Herr,  
 E. G. Hohenstein,  Z. C. Holden,  Kerwin Hui,  B. C. Huynh,  T.-C. Jagau,  
 Hyunjun Ji,  B. Kaduk,  K. Khistyaev,  Jaehoon Kim,  P. Klunzinger,  K. Koh,  
 D. Kosenkov,  L. Koulias,  T. Kowalczyk,  C. M. Krauter,  A. Kunitsa,  
 Ka Un Lao,  A. Laurent,  K. V. Lawler,  Joonho Lee,  D. Lefrancois,  
 S. Lehtola,  D. S. Levine,  Yi-Pei Li,  You-Sheng Lin,  Fenglai Liu,  
 Kuan-Yu Liu,  E. Livshits,  M. Loipersberger,  A. Luenser,  P. Manohar,  
 E. Mansoor,  S. F. Manzer,  Shan-Ping Mao,  Yuezhi Mao,  N. Mardirossian,  
 A. V. Marenich,  T. Markovich,  L. A. Martinez-Martinez,  S. A. Maurer,  
 N. J. Mayhall,  S. C. McKenzie,  J.-M. Mewes,  P. Morgante,  A. F. Morrison,  
 J. W. Mullinax,  K. Nanda,  T. S. Nguyen-Beck,  R. Olivares-Amaya,  
 K. J. Oosterbaan,  J. A. Parkhill,  S. K. Paul,  F. Pavosevic,  Zheng Pei,  
 T. M. Perrine,  F. Plasser,  P. Pokhilko,  S. Prager,  A. Prociuk,  
 E. Ramos,  B. Rana,  D. R. Rehn,  F. Rob,  M. Scheurer,  M. Schneider,  
 N. Sergueev,  S. M. Sharada,  S. Sharma,  D. W. Small,  T. Stauch,  
 C. J. Stein,  T. Stein,  Yu-Chuan Su,  S. P. Veccham,  Zhen Tao,  
 A. J. W. Thom,  A. Tkatchenko,  T. Tsuchimochi,  N. M. Tubman,  L. Vogt,  
 M. L. Vidal,  O. Vydrov,  M. A. Watson,  J. Wenzel,  M. de Wergifosse,  
 T. A. Wesolowski,  A. White,  J. Witte,  A. Yamada,  Jun Yang,  K. Yao,  
 S. Yeganeh,  S. R. Yost,  Zhi-Qiang You,  A. Zech,  Igor Ying Zhang,  
 Xing Zhang,  Yan Zhao,  Ying Zhu,  B. R. Brooks,  G. K. L. Chan,  
 C. J. Cramer,  M. S. Gordon,  W. J. Hehre,  A. Klamt,  M. W. Schmidt,  
 C. D. Sherrill,  D. G. Truhlar,  A. Aspuru-Guzik,  R. Baer,  A. T. Bell,  
 N. A. Besley,  Jeng-Da Chai,  A. E. DePrince, III,  R. A. DiStasio Jr.,  
 A. Dreuw,  B. D. Dunietz,  T. R. Furlani,  Chao-Ping Hsu,  Yousung Jung,  
 Jing Kong,  D. S. Lambrecht,  WanZhen Liang,  C. Ochsenfeld,  
 V. A. Rassolov,  L. V. Slipchenko,  J. E. Subotnik,  T. Van Voorhis,  
 J. M. Herbert,  A. I. Krylov,  P. M. W. Gill,  M. Head-Gordon

 Contributors to earlier versions of Q-Chem not listed above: 
 R. D. Adamson,  B. Austin,  J. Baker,  G. J. O. Beran,  K. Brandhorst,  
 S. T. Brown,  E. F. C. Byrd,  A. K. Chakraborty,  C.-L. Cheng,  
 Siu Hung Chien,  D. M. Chipman,  D. L. Crittenden,  H. Dachsel,  
 R. J. Doerksen,  A. D. Dutoi,  L. Fusti-Molnar,  W. A. Goddard III,  
 A. Golubeva-Zadorozhnaya,  S. R. Gwaltney,  G. Hawkins,  A. Heyden,  
 S. Hirata,  G. Kedziora,  F. J. Keil,  C. Kelley,  Jihan Kim,  R. A. King,  
 R. Z. Khaliullin,  P. P. Korambath,  W. Kurlancheek,  A. M. Lee,  M. S. Lee,  
 S. V. Levchenko,  Ching Yeh Lin,  D. Liotard,  R. C. Lochan,  I. Lotan,  
 P. E. Maslen,  N. Nair,  D. P. O'Neill,  D. Neuhauser,  E. Neuscamman,  
 C. M. Oana,  R. Olson,  B. Peters,  R. Peverati,  P. A. Pieniazek,  
 Y. M. Rhee,  J. Ritchie,  M. A. Rohrdanz,  E. Rosta,  N. J. Russ,  
 H. F. Schaefer III,  N. E. Schultz,  N. Shenvi,  A. C. Simmonett,  A. Sodt,  
 D. Stuck,  K. S. Thanthiriwatte,  V. Vanovschi,  Tao Wang,  A. Warshel,  
 C. F. Williams,  Q. Wu,  X. Xu,  W. Zhang

 Please cite Q-Chem as follows:
 Y. Shao et al., Mol. Phys. 113, 184-215 (2015)
 DOI: 10.1080/00268976.2014.952696

 Q-Chem 5.3.0 for Intel X86 EM64T Linux

 Parts of Q-Chem use Armadillo 9.800.1 (Horizon Scraper).
 http://arma.sourceforge.net/

 Q-Chem begins on Mon Jul 27 14:31:01 2020  

Host: centos77-c7
0

     Scratch files written to /tmp/29924.centos77-h1/qchem106047//
Processing $rem in /opt/qchem-5.3.0-intel2020u1//config/preferences:
Processing $rem in /home/shihchengli/.qchemrc:

Checking the input file for inconsistencies... 	...done.

--------------------------------------------------------------
User input:
--------------------------------------------------------------
$rem
   JOBTYPE  sp
   EXCHANGE   omegaB97X-D
   BASIS   6-311+G(2df,2pd)
   UNRESTRICTED   False
   max_scf_cycles   250
   geom_opt_max_cycles   1500
   basis2 6-31G*
   scf_algorithm rca_diis
   SYM_IGNORE  TRUE
   print_input   true
   geom_opt_dmax   80
   pop_mulliken false
   XC_GRID 000075000302
$end

$molecule
0 1
C       -5.2205320224     0.2618845030     -0.0030540460
C       -4.1717644018     1.0637085895     0.1006352085
H       -5.5472381716     -0.0765489760     -0.9824692882
H       -5.8392185048     1.1101353644     0.3049144418
H       -5.3484310959     -0.5135789249     0.7516091865
O       -3.0449149395     0.5600643590     -0.2066329951
H       -4.2336438554     1.4860362850     1.1180169455
H       -4.3722983317     1.9080187031     -0.5634431981
H       -2.8247686767     -0.1824999030     0.3507337453
$end
--------------------------------------------------------------
 ----------------------------------------------------------------
             Standard Nuclear Orientation (Angstroms)
    I     Atom           X                Y                Z
 ----------------------------------------------------------------
    1      C      -5.2205320224     0.2618845030    -0.0030540460
    2      C      -4.1717644018     1.0637085895     0.1006352085
    3      H      -5.5472381716    -0.0765489760    -0.9824692882
    4      H      -5.8392185048     1.1101353644     0.3049144418
    5      H      -5.3484310959    -0.5135789249     0.7516091865
    6      O      -3.0449149395     0.5600643590    -0.2066329951
    7      H      -4.2336438554     1.4860362850     1.1180169455
    8      H      -4.3722983317     1.9080187031    -0.5634431981
    9      H      -2.8247686767    -0.1824999030     0.3507337453
 ----------------------------------------------------------------
 Nuclear Repulsion Energy =          88.50443212 hartrees
 There are       13 alpha and       13 beta electrons
 Requested basis set is 6-311+G(2df,2pd)
 There are 60 shells and 186 basis functions

 Total QAlloc Memory Limit   2000 MB
 Mega-Array Size       188 MB
 MEM_STATIC part       192 MB

                       Distance Matrix (Angstroms)
             C (  1)   C (  2)   H (  3)   H (  4)   H (  5)   O (  6)
   C (  2)  1.324231
   H (  3)  1.086521  2.089313
   H (  4)  1.094142  1.680562  1.775057
   H (  5)  1.089595  2.072715  1.799319  1.754097
   O (  6)  2.205372  1.271952  2.696075  2.893508  2.716086
   H (  7)  1.931139  1.103293  2.929035  1.838561  2.318505  2.006290
   H (  8)  1.934759  1.092737  2.344051  1.882158  2.923411  1.925160
   H (  9)  2.462179  1.852021  3.033232  3.280231  2.576662  0.954214
             H (  7)   H (  8)
   H (  8)  1.739138
   H (  9)  2.314663  2.756961
 
 A cutoff of  1.0D-09 yielded   1802 shell pairs
 There are     17490 function pairs (     21741 Cartesian)
 Smallest overlap matrix eigenvalue = 7.27E-05

 Scale SEOQF with 1.000000e-02/1.000000e-01/1.000000e-01

 Standard Electronic Orientation quadrupole field applied
 Nucleus-field energy     =     0.0000000025 hartrees
 Requested basis set is 6-31G(d)
 There are 24 shells and 54 basis functions
 A cutoff of  1.0D-09 yielded    299 shell pairs
 There are      1550 function pairs (      1733 Cartesian)
 Smallest overlap matrix eigenvalue = 3.83E-03
 Guess from superposition of atomic densities
 Warning:  Energy on first SCF cycle will be non-variational
 SAD guess density has 26.000000 electrons
 Long-range K will be added via erf
 Coulomb attenuation parameter = 0.2 bohr**(-1)
 A restricted hybrid HF-DFT SCF calculation will be
 performed using Relaxed Constraint Minimization + Pulay DIIS
 Exchange:     0.2220 Hartree-Fock + 1.0000 wB97X-D + LR-HF
 Correlation:  1.0000 wB97X-D
 Using Euler-Maclaurin-Lebedev (75,302) quadrature formula
 Dispersion:   Grimme D
 SCF converges when DIIS error is below 1.0E-04
 using 6 threads for integral computing
 -------------------------------------------------------
 OpenMP Integral computing Module                
 Release: version 1.0, May 2013, Q-Chem Inc. Pittsburgh 
 -------------------------------------------------------
 using 6 threads for integral computing
 -------------------------------------------------------
 OpenMP Integral computing Module                
 Release: version 1.0, May 2013, Q-Chem Inc. Pittsburgh 
 -------------------------------------------------------
 ---------------------------------------
  Cycle       Energy         DIIS Error
 ---------------------------------------
    1    -156.0698621445      1.31E-01
    2    -154.8403258990      1.47E-02
    3    -154.8763337798      3.32E-03
    4    -154.9071683467      2.62E-03
    5    -154.9080440173      2.01E-04 Done RCA. Switching to DIIS
    6    -154.9089528309      7.59E-05 Convergence criterion met
 ---------------------------------------
 SCF time:  CPU 13.41 s  wall 2.25 s
 SCF   energy in the small basis set = -154.90895283
 Total energy in the small basis set = -154.90895283
 ----------------------------------------------------
  Cycle       Energy    
 ----------------------------------------------------
    1     -18.9334187385     -1.89E+01
 Long-range K will be added via erf
 Coulomb attenuation parameter = 0.2 bohr**(-1)
 A restricted hybrid HF-DFT SCF calculation will be
 performed using Relaxed Constraint Minimization + Pulay DIIS
 Exchange:     0.2220 Hartree-Fock + 1.0000 wB97X-D + LR-HF
 Correlation:  1.0000 wB97X-D
 Using Euler-Maclaurin-Lebedev (75,302) quadrature formula
 Dispersion:   Grimme D
 SCF converges when DIIS error is below 1.0E-05
 Basis2 calculation detected. Using small basis as guess for larger.
 SCFMinFind is unable to tell whether the solution found is close.
 Resetting ReadMinima to 0 and attempting to follow guess.
 SCFMinFind following SCF Guess.
 using 6 threads for integral computing
 -------------------------------------------------------
 OpenMP Integral computing Module                
 Release: version 1.0, May 2013, Q-Chem Inc. Pittsburgh 
 -------------------------------------------------------
 using 6 threads for integral computing
 -------------------------------------------------------
 OpenMP Integral computing Module                
 Release: version 1.0, May 2013, Q-Chem Inc. Pittsburgh 
 -------------------------------------------------------
 ---------------------------------------
  Cycle       Energy         DIIS Error
 ---------------------------------------
    1    -154.9450411059      5.71E-03
    2    -154.9630644439      2.69E-03
    3    -154.9717592723      2.70E-04 Done RCA. Switching to DIIS
    4    -154.9817663938      1.44E-04
    5    -154.9818383277      3.89E-05
    6    -154.9818460152      7.53E-06 Convergence criterion met
 ---------------------------------------
 SCF time:  CPU 41.19 s  wall 6.89 s
 SCF   energy in the final basis set = -154.98184602
 Total energy in the final basis set = -154.98184602
 
 --------------------------------------------------------------
 
                    Orbital Energies (a.u.)
 --------------------------------------------------------------
 
 Alpha MOs
 -- Occupied --
-19.2410 -10.3034 -10.2526  -1.1788  -0.9001  -0.7225  -0.6295  -0.5837
 -0.5495  -0.4793  -0.4382  -0.3900  -0.3555
 -- Virtual --
  0.0648   0.0843   0.0898   0.0990   0.1293   0.1341   0.1344   0.1853
  0.1923   0.2252   0.2387   0.2445   0.2608   0.2749   0.3031   0.3215
  0.3400   0.3493   0.3882   0.4157   0.4671   0.4713   0.5076   0.5158
  0.5672   0.5799   0.5883   0.6261   0.6447   0.6777   0.6935   0.7097
  0.7466   0.7619   0.7683   0.8327   0.8549   0.9105   0.9406   0.9688
  1.0110   1.0619   1.0826   1.1321   1.1503   1.1654   1.2024   1.2597
  1.2676   1.2938   1.3116   1.3294   1.3355   1.3967   1.4171   1.4346
  1.4371   1.4597   1.4907   1.5177   1.5252   1.5873   1.6072   1.6250
  1.6519   1.8021   1.9877   2.1322   2.1921   2.2818   2.4185   2.4701
  2.5579   2.5833   2.6587   2.6904   2.7828   2.8739   2.8954   2.8996
  2.9708   2.9761   3.0073   3.0162   3.0514   3.0632   3.0938   3.1229
  3.1609   3.2002   3.2080   3.2594   3.2693   3.3186   3.3559   3.3829
  3.3992   3.4373   3.4687   3.5168   3.5585   3.5811   3.5991   3.6141
  3.6222   3.6302   3.6651   3.7030   3.7913   3.8286   3.8566   3.9413
  3.9576   3.9682   4.0019   4.0439   4.0905   4.1037   4.1272   4.1487
  4.1733   4.1845   4.2344   4.3029   4.3407   4.3800   4.4024   4.4571
  4.5109   4.5449   4.6256   4.6786   4.7026   4.7499   4.8166   4.8617
  4.8724   4.9575   4.9911   5.0526   5.1276   5.1879   5.2020   5.2536
  5.3104   5.3178   5.3619   5.3998   5.4181   5.4473   5.5415   5.6061
  5.7499   5.8217   5.9310   6.2230   6.3121   6.3887   6.4473   6.4701
  6.5938   6.6859   7.0059   7.1307   7.1579   7.3886   7.5317   7.6623
  7.8146   8.2550  25.3670  25.8263  50.5750
 --------------------------------------------------------------
 
 -----------------------------------------------------------------
                    Cartesian Multipole Moments
 -----------------------------------------------------------------
    Charge (ESU x 10^10)
                -0.0000
    Dipole Moment (Debye)
         X      -0.7442      Y      -0.6856      Z       1.0737
       Tot       1.4754
    Quadrupole Moments (Debye-Ang)
        XX     -15.5535     XY       0.4274     YY     -19.5542
        XZ      -2.5835     YZ      -0.3682     ZZ     -19.7778
    Octopole Moments (Debye-Ang^2)
       XXX     240.2210    XXY      -8.0541    XYY      81.9204
       YYY     -37.2303    XXZ       4.7285    XYZ       1.5169
       YYZ      -0.5155    XZZ      83.8153    YZZ     -12.8347
       ZZZ      -0.2292
    Hexadecapole Moments (Debye-Ang^3)
      XXXX   -2309.2920   XXXY     121.0169   XXYY    -382.9944
      XYYY     150.8777   YYYY    -100.8745   XXXZ       4.9412
      XXYZ      -6.3766   XYYZ       3.0496   YYYZ      -3.4530
      XXZZ    -383.3467   XYZZ      52.8471   YYZZ     -22.5509
      XZZZ       5.8608   YZZZ      -1.8068   ZZZZ     -36.8530
 -----------------------------------------------------------------
Archival summary:
1\1\centos77-c7\SP\ProcedureUnspecified\BasisUnspecified\126\shihchen\MonJul2714:31:122020MonJul2714:31:122020\0\\#,ProcedureUnspecified,BasisUnspecified,\\0,1\C\H,1,1.09274\H,1,1.10329,2,104.735\O,1,1.27195,2,108.767,3,-123.533,0\H,4,0.954214,1,111.803,2,179.838,0\C,1,1.32423,2,105.957,3,110.753,0\H,6,1.08652,1,119.823,2,53.2528,0\H,6,1.0896,1,118.013,2,-165.064,0\H,6,1.09414,1,87.4991,2,-57.243,0\\\@

 Total job time:  11.40s(wall), 58.57s(cpu) 
 Mon Jul 27 14:31:12 2020

        *************************************************************
        *                                                           *
        *  Thank you very much for using Q-Chem.  Have a nice day.  *
        *                                                           *
        *************************************************************


