                  Welcome to Q-Chem
     A Quantum Leap Into The Future Of Chemistry


 Q-Chem 5.3 (devel), Q-Chem, Inc., Pleasanton, CA (2020)

 Yihan Shao,  Zhengting Gan,  E. Epifanovsky,  A. T. B. Gilbert,  M. Wormit,  
 J. Kussmann,  A. W. Lange,  A. Behn,  Jia Deng,  Xintian Feng,  D. Ghosh,  
 M. Goldey,  P. R. Horn,  L. D. Jacobson,  I. Kaliman,  T. Kus,  A. Landau,  
 Jie Liu,  E. I. Proynov,  R. M. Richard,  R. P. Steele,  E. J. Sundstrom,  
 H. L. Woodcock III,  P. M. Zimmerman,  D. Zuev,  B. Alam,  B. Albrecht,  
 E. Alguire,  S. A. Baeppler,  D. Barton,  Z. Benda,  Y. A. Bernard,  
 E. J. Berquist,  K. B. Bravaya,  H. Burton,  K. Carter-Fenk,  D. Casanova,  
 Chun-Min Chang,  Yunqing Chen,  A. Chien,  K. D. Closser,  M. P. Coons,  
 S. Coriani,  S. Dasgupta,  A. L. Dempwolff,  M. Diedenhofen,  Hainam Do,  
 R. G. Edgar,  Po-Tung Fang,  S. Faraji,  S. Fatehi,  Qingguo Feng,  
 J. Fosso-Tande,  J. Gayvert,  Qinghui Ge,  A. Ghysels,  G. Gidofalvi,  
 J. Gomes,  J. Gonthier,  A. Gunina,  D. Hait,  M. W. D. Hanson-Heine,  
 P. H. P. Harbach,  A. W. Hauser,  M. F. Herbst,  J. E. Herr,  
 E. G. Hohenstein,  Z. C. Holden,  Kerwin Hui,  B. C. Huynh,  T.-C. Jagau,  
 Hyunjun Ji,  B. Kaduk,  K. Khistyaev,  Jaehoon Kim,  P. Klunzinger,  K. Koh,  
 D. Kosenkov,  L. Koulias,  T. Kowalczyk,  C. M. Krauter,  A. Kunitsa,  
 Ka Un Lao,  A. Laurent,  K. V. Lawler,  Joonho Lee,  D. Lefrancois,  
 S. Lehtola,  D. S. Levine,  Yi-Pei Li,  You-Sheng Lin,  Fenglai Liu,  
 Kuan-Yu Liu,  E. Livshits,  M. Loipersberger,  A. Luenser,  P. Manohar,  
 E. Mansoor,  S. F. Manzer,  Shan-Ping Mao,  Yuezhi Mao,  N. Mardirossian,  
 A. V. Marenich,  T. Markovich,  L. A. Martinez-Martinez,  S. A. Maurer,  
 N. J. Mayhall,  S. C. McKenzie,  J.-M. Mewes,  P. Morgante,  A. F. Morrison,  
 J. W. Mullinax,  K. Nanda,  T. S. Nguyen-Beck,  R. Olivares-Amaya,  
 K. J. Oosterbaan,  J. A. Parkhill,  S. K. Paul,  F. Pavosevic,  Zheng Pei,  
 T. M. Perrine,  F. Plasser,  P. Pokhilko,  S. Prager,  A. Prociuk,  
 E. Ramos,  B. Rana,  D. R. Rehn,  F. Rob,  M. Scheurer,  M. Schneider,  
 N. Sergueev,  S. M. Sharada,  S. Sharma,  D. W. Small,  T. Stauch,  
 C. J. Stein,  T. Stein,  Yu-Chuan Su,  S. P. Veccham,  Zhen Tao,  
 A. J. W. Thom,  A. Tkatchenko,  T. Tsuchimochi,  N. M. Tubman,  L. Vogt,  
 M. L. Vidal,  O. Vydrov,  M. A. Watson,  J. Wenzel,  M. de Wergifosse,  
 T. A. Wesolowski,  A. White,  J. Witte,  A. Yamada,  Jun Yang,  K. Yao,  
 S. Yeganeh,  S. R. Yost,  Zhi-Qiang You,  A. Zech,  Igor Ying Zhang,  
 Xing Zhang,  Yan Zhao,  Ying Zhu,  B. R. Brooks,  G. K. L. Chan,  
 C. J. Cramer,  M. S. Gordon,  W. J. Hehre,  A. Klamt,  M. W. Schmidt,  
 C. D. Sherrill,  D. G. Truhlar,  A. Aspuru-Guzik,  R. Baer,  A. T. Bell,  
 N. A. Besley,  Jeng-Da Chai,  A. E. DePrince, III,  R. A. DiStasio Jr.,  
 A. Dreuw,  B. D. Dunietz,  T. R. Furlani,  Chao-Ping Hsu,  Yousung Jung,  
 Jing Kong,  D. S. Lambrecht,  WanZhen Liang,  C. Ochsenfeld,  
 V. A. Rassolov,  L. V. Slipchenko,  J. E. Subotnik,  T. Van Voorhis,  
 J. M. Herbert,  A. I. Krylov,  P. M. W. Gill,  M. Head-Gordon

 Contributors to earlier versions of Q-Chem not listed above: 
 R. D. Adamson,  B. Austin,  J. Baker,  G. J. O. Beran,  K. Brandhorst,  
 S. T. Brown,  E. F. C. Byrd,  A. K. Chakraborty,  C.-L. Cheng,  
 Siu Hung Chien,  D. M. Chipman,  D. L. Crittenden,  H. Dachsel,  
 R. J. Doerksen,  A. D. Dutoi,  L. Fusti-Molnar,  W. A. Goddard III,  
 A. Golubeva-Zadorozhnaya,  S. R. Gwaltney,  G. Hawkins,  A. Heyden,  
 S. Hirata,  G. Kedziora,  F. J. Keil,  C. Kelley,  Jihan Kim,  R. A. King,  
 R. Z. Khaliullin,  P. P. Korambath,  W. Kurlancheek,  A. M. Lee,  M. S. Lee,  
 S. V. Levchenko,  Ching Yeh Lin,  D. Liotard,  R. C. Lochan,  I. Lotan,  
 P. E. Maslen,  N. Nair,  D. P. O'Neill,  D. Neuhauser,  E. Neuscamman,  
 C. M. Oana,  R. Olson,  B. Peters,  R. Peverati,  P. A. Pieniazek,  
 Y. M. Rhee,  J. Ritchie,  M. A. Rohrdanz,  E. Rosta,  N. J. Russ,  
 H. F. Schaefer III,  N. E. Schultz,  N. Shenvi,  A. C. Simmonett,  A. Sodt,  
 D. Stuck,  K. S. Thanthiriwatte,  V. Vanovschi,  Tao Wang,  A. Warshel,  
 C. F. Williams,  Q. Wu,  X. Xu,  W. Zhang

 Please cite Q-Chem as follows:
 Y. Shao et al., Mol. Phys. 113, 184-215 (2015)
 DOI: 10.1080/00268976.2014.952696

 Q-Chem 5.3.0 for Intel X86 EM64T Linux

 Parts of Q-Chem use Armadillo 9.800.1 (Horizon Scraper).
 http://arma.sourceforge.net/

 Q-Chem begins on Mon Jul 27 14:42:07 2020  

Host: centos77-c7
0

     Scratch files written to /tmp/29924.centos77-h1/qchem108800//
Processing $rem in /opt/qchem-5.3.0-intel2020u1//config/preferences:
Processing $rem in /home/shihchengli/.qchemrc:

Checking the input file for inconsistencies... 	...done.

--------------------------------------------------------------
User input:
--------------------------------------------------------------
$rem
   JOBTYPE  sp
   EXCHANGE   omegaB97X-D
   BASIS   6-311+G(2df,2pd)
   UNRESTRICTED   False
   max_scf_cycles   250
   geom_opt_max_cycles   1500
   basis2 6-31G*
   scf_algorithm rca_diis
   SYM_IGNORE  TRUE
   print_input   true
   geom_opt_dmax   80
   pop_mulliken false
   XC_GRID 000075000302
$end

$molecule
0 1
C       -5.4339968998     0.2511983864     -0.0047160488
C       -4.2488227479     1.1863946390     0.1291808712
H       -5.5105689438     -0.0821827710     -1.0373154718
H       -6.2521381490     0.9422190838     0.2065261733
H       -5.3310448003     -0.4926164632     0.7779513988
O       -3.0100953067     0.4730685414     -0.0990452530
H       -3.7944378173     1.5516692876     1.0488081147
H       -4.3731294199     2.0596616840     -0.5195698363
H       -2.6485759151     -0.2721923880     0.3684900521
$end
--------------------------------------------------------------
 ----------------------------------------------------------------
             Standard Nuclear Orientation (Angstroms)
    I     Atom           X                Y                Z
 ----------------------------------------------------------------
    1      C      -5.4339968998     0.2511983864    -0.0047160488
    2      C      -4.2488227479     1.1863946390     0.1291808712
    3      H      -5.5105689438    -0.0821827710    -1.0373154718
    4      H      -6.2521381490     0.9422190838     0.2065261733
    5      H      -5.3310448003    -0.4926164632     0.7779513988
    6      O      -3.0100953067     0.4730685414    -0.0990452530
    7      H      -3.7944378173     1.5516692876     1.0488081147
    8      H      -4.3731294199     2.0596616840    -0.5195698363
    9      H      -2.6485759151    -0.2721923880     0.3684900521
 ----------------------------------------------------------------
 Nuclear Repulsion Energy =          81.62288173 hartrees
 There are       13 alpha and       13 beta electrons
 Requested basis set is 6-311+G(2df,2pd)
 There are 60 shells and 186 basis functions

 Total QAlloc Memory Limit   2000 MB
 Mega-Array Size       188 MB
 MEM_STATIC part       192 MB

                       Distance Matrix (Angstroms)
             C (  1)   C (  2)   H (  3)   H (  4)   H (  5)   O (  6)
   C (  2)  1.515638
   H (  3)  1.087781  2.135885
   H (  4)  1.091553  2.019623  1.773828
   H (  5)  1.084633  2.100282  1.869727  1.798247
   O (  6)  2.435862  1.447538  2.727824  3.290033  2.662419
   H (  7)  2.342924  1.088855  3.156975  2.668550  2.571698  1.759585
   H (  8)  2.158947  1.094954  2.479784  2.303599  3.019153  2.133537
   H (  9)  2.858634  2.178425  3.194276  3.806138  2.722478  0.951157
             H (  7)   H (  8)
   H (  8)  1.747212
   H (  9)  2.258828  3.033196
 
 A cutoff of  1.0D-09 yielded   1778 shell pairs
 There are     17285 function pairs (     21470 Cartesian)
 Smallest overlap matrix eigenvalue = 1.44E-04

 Scale SEOQF with 1.000000e-02/1.000000e-01/1.000000e-01

 Standard Electronic Orientation quadrupole field applied
 Nucleus-field energy     =     0.0000000027 hartrees
 Requested basis set is 6-31G(d)
 There are 24 shells and 54 basis functions
 A cutoff of  1.0D-09 yielded    298 shell pairs
 There are      1549 function pairs (      1732 Cartesian)
 Smallest overlap matrix eigenvalue = 7.38E-03
 Guess from superposition of atomic densities
 Warning:  Energy on first SCF cycle will be non-variational
 SAD guess density has 26.000000 electrons
 Long-range K will be added via erf
 Coulomb attenuation parameter = 0.2 bohr**(-1)
 A restricted hybrid HF-DFT SCF calculation will be
 performed using Relaxed Constraint Minimization + Pulay DIIS
 Exchange:     0.2220 Hartree-Fock + 1.0000 wB97X-D + LR-HF
 Correlation:  1.0000 wB97X-D
 Using Euler-Maclaurin-Lebedev (75,302) quadrature formula
 Dispersion:   Grimme D
 SCF converges when DIIS error is below 1.0E-04
 using 6 threads for integral computing
 -------------------------------------------------------
 OpenMP Integral computing Module                
 Release: version 1.0, May 2013, Q-Chem Inc. Pittsburgh 
 -------------------------------------------------------
 using 6 threads for integral computing
 -------------------------------------------------------
 OpenMP Integral computing Module                
 Release: version 1.0, May 2013, Q-Chem Inc. Pittsburgh 
 -------------------------------------------------------
 ---------------------------------------
  Cycle       Energy         DIIS Error
 ---------------------------------------
    1    -155.4052242236      1.05E-01
    2    -154.8711051164      1.47E-02
    3    -154.9024358637      2.91E-03
    4    -154.9334617639      2.00E-03
    5    -154.9339893342      2.22E-04 Done RCA. Switching to DIIS
    6    -154.9345809028      6.70E-05 Convergence criterion met
 ---------------------------------------
 SCF time:  CPU 12.92 s  wall 2.17 s
 SCF   energy in the small basis set = -154.93458090
 Total energy in the small basis set = -154.93458090
 ----------------------------------------------------
  Cycle       Energy    
 ----------------------------------------------------
    1     -18.7508575482     -1.88E+01
 Long-range K will be added via erf
 Coulomb attenuation parameter = 0.2 bohr**(-1)
 A restricted hybrid HF-DFT SCF calculation will be
 performed using Relaxed Constraint Minimization + Pulay DIIS
 Exchange:     0.2220 Hartree-Fock + 1.0000 wB97X-D + LR-HF
 Correlation:  1.0000 wB97X-D
 Using Euler-Maclaurin-Lebedev (75,302) quadrature formula
 Dispersion:   Grimme D
 SCF converges when DIIS error is below 1.0E-05
 Basis2 calculation detected. Using small basis as guess for larger.
 SCFMinFind is unable to tell whether the solution found is close.
 Resetting ReadMinima to 0 and attempting to follow guess.
 SCFMinFind following SCF Guess.
 using 6 threads for integral computing
 -------------------------------------------------------
 OpenMP Integral computing Module                
 Release: version 1.0, May 2013, Q-Chem Inc. Pittsburgh 
 -------------------------------------------------------
 using 6 threads for integral computing
 -------------------------------------------------------
 OpenMP Integral computing Module                
 Release: version 1.0, May 2013, Q-Chem Inc. Pittsburgh 
 -------------------------------------------------------
 ---------------------------------------
  Cycle       Energy         DIIS Error
 ---------------------------------------
    1    -154.9630928790      5.89E-03
    2    -154.9751948551      3.50E-03
    3    -154.9894638455      4.56E-04 Done RCA. Switching to DIIS
    4    -155.0070112550      3.74E-04
    5    -155.0074149399      4.45E-05
    6    -155.0074254317      7.98E-06 Convergence criterion met
 ---------------------------------------
 SCF time:  CPU 38.57 s  wall 6.45 s
 SCF   energy in the final basis set = -155.00742543
 Total energy in the final basis set = -155.00742543
 
 --------------------------------------------------------------
 
                    Orbital Energies (a.u.)
 --------------------------------------------------------------
 
 Alpha MOs
 -- Occupied --
-19.2228 -10.3311 -10.2778  -1.1024  -0.8553  -0.7302  -0.5787  -0.5630
 -0.5107  -0.4808  -0.4633  -0.3722  -0.3429
 -- Virtual --
  0.0691   0.0841   0.0895   0.1034   0.1257   0.1336   0.1344   0.1831
  0.1888   0.2135   0.2289   0.2362   0.2566   0.2813   0.2891   0.3081
  0.3178   0.3333   0.3589   0.3764   0.4531   0.4841   0.5057   0.5404
  0.5610   0.5686   0.5843   0.5870   0.6228   0.6352   0.6789   0.6952
  0.7023   0.7580   0.7613   0.8387   0.8477   0.8774   0.9162   0.9324
  0.9941   1.0429   1.0549   1.1057   1.1115   1.1440   1.1903   1.2142
  1.2287   1.2400   1.2796   1.3185   1.3352   1.3625   1.4116   1.4172
  1.4306   1.4635   1.4759   1.4810   1.5364   1.5595   1.5853   1.6071
  1.6726   1.7002   1.8662   1.9870   2.0129   2.2513   2.2826   2.4559
  2.5286   2.5418   2.5899   2.6624   2.7243   2.7854   2.8281   2.8963
  2.9317   2.9640   2.9717   3.0015   3.0325   3.0485   3.0624   3.1108
  3.1471   3.1663   3.2320   3.2493   3.2813   3.2850   3.3086   3.3446
  3.3496   3.3708   3.4571   3.5005   3.5128   3.5295   3.5469   3.5767
  3.5862   3.6188   3.6311   3.6885   3.7285   3.7677   3.7799   3.7949
  3.8536   3.8756   3.9251   3.9813   4.0243   4.0398   4.0587   4.0796
  4.0898   4.1316   4.1405   4.1600   4.1756   4.2428   4.2641   4.3159
  4.3641   4.3950   4.4841   4.4986   4.5924   4.6689   4.7624   4.8117
  4.8514   4.9102   4.9261   4.9469   5.0275   5.0773   5.1122   5.1696
  5.2209   5.2787   5.3154   5.3328   5.3483   5.4070   5.4402   5.4939
  5.5443   5.5826   5.7052   5.7719   5.9456   6.0552   6.3010   6.3700
  6.4165   6.5599   6.7165   6.9567   7.1266   7.1961   7.4240   7.4648
  7.8402   8.2153  25.1476  25.4365  50.4848
 --------------------------------------------------------------
 
 -----------------------------------------------------------------
                    Cartesian Multipole Moments
 -----------------------------------------------------------------
    Charge (ESU x 10^10)
                -0.0000
    Dipole Moment (Debye)
         X      -1.0023      Y      -0.3725      Z       1.0209
       Tot       1.4784
    Quadrupole Moments (Debye-Ang)
        XX     -12.7878     XY      -1.1956     YY     -18.7412
        XZ      -1.8357     YZ      -0.5571     ZZ     -19.8642
    Octopole Moments (Debye-Ang^2)
       XXX     221.4782    XXY       0.3225    XYY      80.2776
       YYY     -35.5721    XXZ      -0.4571    XYZ       2.7572
       YYZ      -1.1808    XZZ      85.3404    YZZ     -13.2128
       ZZZ      -2.0409
    Hexadecapole Moments (Debye-Ang^3)
      XXXX   -2232.7719   XXXY      75.1095   XXYY    -388.1568
      XYYY     146.7203   YYYY    -102.8009   XXXZ      32.1199
      XXYZ     -13.7934   XYYZ       6.1468   YYYZ      -5.6139
      XXZZ    -398.9858   XYZZ      55.9779   YYZZ     -23.5135
      XZZZ      11.3179   YZZZ      -3.1031   ZZZZ     -34.9910
 -----------------------------------------------------------------
Archival summary:
1\1\centos77-c7\SP\ProcedureUnspecified\BasisUnspecified\126\shihchen\MonJul2714:42:172020MonJul2714:42:172020\0\\#,ProcedureUnspecified,BasisUnspecified,\\0,1\C\H,1,1.08886\H,1,1.09495,2,106.274\O,1,1.44754,2,86.6386,3,113.383,0\H,4,0.951157,1,129.336,2,69.2346,0\C,1,1.51564,2,127.44,3,-133.159,0\H,6,1.08463,1,106.569,2,-38.8875,0\H,6,1.08778,1,109.148,2,-168.314,0\H,6,1.09155,1,100.276,2,77.3206,0\\\@

 Total job time:  10.78s(wall), 55.33s(cpu) 
 Mon Jul 27 14:42:17 2020

        *************************************************************
        *                                                           *
        *  Thank you very much for using Q-Chem.  Have a nice day.  *
        *                                                           *
        *************************************************************


