                  Welcome to Q-Chem
     A Quantum Leap Into The Future Of Chemistry


 Q-Chem 5.3 (devel), Q-Chem, Inc., Pleasanton, CA (2020)

 Yihan Shao,  Zhengting Gan,  E. Epifanovsky,  A. T. B. Gilbert,  M. Wormit,  
 J. Kussmann,  A. W. Lange,  A. Behn,  Jia Deng,  Xintian Feng,  D. Ghosh,  
 M. Goldey,  P. R. Horn,  L. D. Jacobson,  I. Kaliman,  T. Kus,  A. Landau,  
 Jie Liu,  E. I. Proynov,  R. M. Richard,  R. P. Steele,  E. J. Sundstrom,  
 H. L. Woodcock III,  P. M. Zimmerman,  D. Zuev,  B. Alam,  B. Albrecht,  
 E. Alguire,  S. A. Baeppler,  D. Barton,  Z. Benda,  Y. A. Bernard,  
 E. J. Berquist,  K. B. Bravaya,  H. Burton,  K. Carter-Fenk,  D. Casanova,  
 Chun-Min Chang,  Yunqing Chen,  A. Chien,  K. D. Closser,  M. P. Coons,  
 S. Coriani,  S. Dasgupta,  A. L. Dempwolff,  M. Diedenhofen,  Hainam Do,  
 R. G. Edgar,  Po-Tung Fang,  S. Faraji,  S. Fatehi,  Qingguo Feng,  
 J. Fosso-Tande,  J. Gayvert,  Qinghui Ge,  A. Ghysels,  G. Gidofalvi,  
 J. Gomes,  J. Gonthier,  A. Gunina,  D. Hait,  M. W. D. Hanson-Heine,  
 P. H. P. Harbach,  A. W. Hauser,  M. F. Herbst,  J. E. Herr,  
 E. G. Hohenstein,  Z. C. Holden,  Kerwin Hui,  B. C. Huynh,  T.-C. Jagau,  
 Hyunjun Ji,  B. Kaduk,  K. Khistyaev,  Jaehoon Kim,  P. Klunzinger,  K. Koh,  
 D. Kosenkov,  L. Koulias,  T. Kowalczyk,  C. M. Krauter,  A. Kunitsa,  
 Ka Un Lao,  A. Laurent,  K. V. Lawler,  Joonho Lee,  D. Lefrancois,  
 S. Lehtola,  D. S. Levine,  Yi-Pei Li,  You-Sheng Lin,  Fenglai Liu,  
 Kuan-Yu Liu,  E. Livshits,  M. Loipersberger,  A. Luenser,  P. Manohar,  
 E. Mansoor,  S. F. Manzer,  Shan-Ping Mao,  Yuezhi Mao,  N. Mardirossian,  
 A. V. Marenich,  T. Markovich,  L. A. Martinez-Martinez,  S. A. Maurer,  
 N. J. Mayhall,  S. C. McKenzie,  J.-M. Mewes,  P. Morgante,  A. F. Morrison,  
 J. W. Mullinax,  K. Nanda,  T. S. Nguyen-Beck,  R. Olivares-Amaya,  
 K. J. Oosterbaan,  J. A. Parkhill,  S. K. Paul,  F. Pavosevic,  Zheng Pei,  
 T. M. Perrine,  F. Plasser,  P. Pokhilko,  S. Prager,  A. Prociuk,  
 E. Ramos,  B. Rana,  D. R. Rehn,  F. Rob,  M. Scheurer,  M. Schneider,  
 N. Sergueev,  S. M. Sharada,  S. Sharma,  D. W. Small,  T. Stauch,  
 C. J. Stein,  T. Stein,  Yu-Chuan Su,  S. P. Veccham,  Zhen Tao,  
 A. J. W. Thom,  A. Tkatchenko,  T. Tsuchimochi,  N. M. Tubman,  L. Vogt,  
 M. L. Vidal,  O. Vydrov,  M. A. Watson,  J. Wenzel,  M. de Wergifosse,  
 T. A. Wesolowski,  A. White,  J. Witte,  A. Yamada,  Jun Yang,  K. Yao,  
 S. Yeganeh,  S. R. Yost,  Zhi-Qiang You,  A. Zech,  Igor Ying Zhang,  
 Xing Zhang,  Yan Zhao,  Ying Zhu,  B. R. Brooks,  G. K. L. Chan,  
 C. J. Cramer,  M. S. Gordon,  W. J. Hehre,  A. Klamt,  M. W. Schmidt,  
 C. D. Sherrill,  D. G. Truhlar,  A. Aspuru-Guzik,  R. Baer,  A. T. Bell,  
 N. A. Besley,  Jeng-Da Chai,  A. E. DePrince, III,  R. A. DiStasio Jr.,  
 A. Dreuw,  B. D. Dunietz,  T. R. Furlani,  Chao-Ping Hsu,  Yousung Jung,  
 Jing Kong,  D. S. Lambrecht,  WanZhen Liang,  C. Ochsenfeld,  
 V. A. Rassolov,  L. V. Slipchenko,  J. E. Subotnik,  T. Van Voorhis,  
 J. M. Herbert,  A. I. Krylov,  P. M. W. Gill,  M. Head-Gordon

 Contributors to earlier versions of Q-Chem not listed above: 
 R. D. Adamson,  B. Austin,  J. Baker,  G. J. O. Beran,  K. Brandhorst,  
 S. T. Brown,  E. F. C. Byrd,  A. K. Chakraborty,  C.-L. Cheng,  
 Siu Hung Chien,  D. M. Chipman,  D. L. Crittenden,  H. Dachsel,  
 R. J. Doerksen,  A. D. Dutoi,  L. Fusti-Molnar,  W. A. Goddard III,  
 A. Golubeva-Zadorozhnaya,  S. R. Gwaltney,  G. Hawkins,  A. Heyden,  
 S. Hirata,  G. Kedziora,  F. J. Keil,  C. Kelley,  Jihan Kim,  R. A. King,  
 R. Z. Khaliullin,  P. P. Korambath,  W. Kurlancheek,  A. M. Lee,  M. S. Lee,  
 S. V. Levchenko,  Ching Yeh Lin,  D. Liotard,  R. C. Lochan,  I. Lotan,  
 P. E. Maslen,  N. Nair,  D. P. O'Neill,  D. Neuhauser,  E. Neuscamman,  
 C. M. Oana,  R. Olson,  B. Peters,  R. Peverati,  P. A. Pieniazek,  
 Y. M. Rhee,  J. Ritchie,  M. A. Rohrdanz,  E. Rosta,  N. J. Russ,  
 H. F. Schaefer III,  N. E. Schultz,  N. Shenvi,  A. C. Simmonett,  A. Sodt,  
 D. Stuck,  K. S. Thanthiriwatte,  V. Vanovschi,  Tao Wang,  A. Warshel,  
 C. F. Williams,  Q. Wu,  X. Xu,  W. Zhang

 Please cite Q-Chem as follows:
 Y. Shao et al., Mol. Phys. 113, 184-215 (2015)
 DOI: 10.1080/00268976.2014.952696

 Q-Chem 5.3.0 for Intel X86 EM64T Linux

 Parts of Q-Chem use Armadillo 9.800.1 (Horizon Scraper).
 http://arma.sourceforge.net/

 Q-Chem begins on Mon Jul 27 14:27:48 2020  

Host: centos77-c7
0

     Scratch files written to /tmp/29924.centos77-h1/qchem105250//
Processing $rem in /opt/qchem-5.3.0-intel2020u1//config/preferences:
Processing $rem in /home/shihchengli/.qchemrc:

Checking the input file for inconsistencies... 	...done.

--------------------------------------------------------------
User input:
--------------------------------------------------------------
$rem
   JOBTYPE  sp
   EXCHANGE   omegaB97X-D
   BASIS   6-311+G(2df,2pd)
   UNRESTRICTED   False
   max_scf_cycles   250
   geom_opt_max_cycles   1500
   basis2 6-31G*
   scf_algorithm rca_diis
   SYM_IGNORE  TRUE
   print_input   true
   geom_opt_dmax   80
   pop_mulliken false
   XC_GRID 000075000302
$end

$molecule
0 1
C       -5.3712967144     0.3163359658     0.0037988197
C       -4.1335243809     1.1907662993     0.0970294806
H       -5.5309450173     -0.1555183504     -0.9645710098
H       -6.2618465902     0.8810314960     0.2840732680
H       -5.2498901953     -0.4690777115     0.7547291313
O       -2.9447502987     0.4977032907     -0.2354682124
H       -4.0689365382     1.5475947856     1.1324058993
H       -4.1710729332     2.0698976557     -0.5444194626
H       -2.8705473317     -0.2615134312     0.3427320859
$end
--------------------------------------------------------------
 ----------------------------------------------------------------
             Standard Nuclear Orientation (Angstroms)
    I     Atom           X                Y                Z
 ----------------------------------------------------------------
    1      C      -5.3712967144     0.3163359658     0.0037988197
    2      C      -4.1335243809     1.1907662993     0.0970294806
    3      H      -5.5309450173    -0.1555183504    -0.9645710098
    4      H      -6.2618465902     0.8810314960     0.2840732680
    5      H      -5.2498901953    -0.4690777115     0.7547291313
    6      O      -2.9447502987     0.4977032907    -0.2354682124
    7      H      -4.0689365382     1.5475947856     1.1324058993
    8      H      -4.1710729332     2.0698976557    -0.5444194626
    9      H      -2.8705473317    -0.2615134312     0.3427320859
 ----------------------------------------------------------------
 Nuclear Repulsion Energy =          81.92842362 hartrees
 There are       13 alpha and       13 beta electrons
 Requested basis set is 6-311+G(2df,2pd)
 There are 60 shells and 186 basis functions

 Total QAlloc Memory Limit   2000 MB
 Mega-Array Size       188 MB
 MEM_STATIC part       192 MB

                       Distance Matrix (Angstroms)
             C (  1)   C (  2)   H (  3)   H (  4)   H (  5)   O (  6)
   C (  2)  1.518355
   H (  3)  1.088979  2.211846
   H (  4)  1.091107  2.158860  1.779822
   H (  5)  1.093394  2.105688  1.770114  1.751676
   O (  6)  2.445050  1.415654  2.765265  3.379348  2.688648
   H (  7)  2.117993  1.097043  3.071706  2.443937  2.367332  2.058433
   H (  8)  2.194552  1.088916  2.641639  2.543843  3.049267  2.017700
   H (  9)  2.588925  1.940257  2.966141  3.579073  2.423654  0.957200
             H (  7)   H (  8)
   H (  8)  1.759254
   H (  9)  2.309241  2.813162
 
 A cutoff of  1.0D-09 yielded   1786 shell pairs
 There are     17308 function pairs (     21493 Cartesian)
 Smallest overlap matrix eigenvalue = 1.38E-04

 Scale SEOQF with 1.000000e-02/1.000000e-01/1.000000e-01

 Standard Electronic Orientation quadrupole field applied
 Nucleus-field energy     =     0.0000000027 hartrees
 Requested basis set is 6-31G(d)
 There are 24 shells and 54 basis functions
 A cutoff of  1.0D-09 yielded    298 shell pairs
 There are      1549 function pairs (      1732 Cartesian)
 Smallest overlap matrix eigenvalue = 7.22E-03
 Guess from superposition of atomic densities
 Warning:  Energy on first SCF cycle will be non-variational
 SAD guess density has 26.000000 electrons
 Long-range K will be added via erf
 Coulomb attenuation parameter = 0.2 bohr**(-1)
 A restricted hybrid HF-DFT SCF calculation will be
 performed using Relaxed Constraint Minimization + Pulay DIIS
 Exchange:     0.2220 Hartree-Fock + 1.0000 wB97X-D + LR-HF
 Correlation:  1.0000 wB97X-D
 Using Euler-Maclaurin-Lebedev (75,302) quadrature formula
 Dispersion:   Grimme D
 SCF converges when DIIS error is below 1.0E-04
 using 6 threads for integral computing
 -------------------------------------------------------
 OpenMP Integral computing Module                
 Release: version 1.0, May 2013, Q-Chem Inc. Pittsburgh 
 -------------------------------------------------------
 using 6 threads for integral computing
 -------------------------------------------------------
 OpenMP Integral computing Module                
 Release: version 1.0, May 2013, Q-Chem Inc. Pittsburgh 
 -------------------------------------------------------
 ---------------------------------------
  Cycle       Energy         DIIS Error
 ---------------------------------------
    1    -155.4353330284      1.06E-01
    2    -154.9251598425      1.35E-02
    3    -154.9534508994      3.04E-03
    4    -154.9796229834      2.41E-03
    5    -154.9803485028      2.28E-04 Done RCA. Switching to DIIS
    6    -154.9811626523      1.02E-04
    7    -154.9811659147      7.50E-06 Convergence criterion met
 ---------------------------------------
 SCF time:  CPU 14.48 s  wall 2.43 s
 SCF   energy in the small basis set = -154.98116591
 Total energy in the small basis set = -154.98116591
 ----------------------------------------------------
  Cycle       Energy    
 ----------------------------------------------------
    1     -18.7508877613     -1.88E+01
 Long-range K will be added via erf
 Coulomb attenuation parameter = 0.2 bohr**(-1)
 A restricted hybrid HF-DFT SCF calculation will be
 performed using Relaxed Constraint Minimization + Pulay DIIS
 Exchange:     0.2220 Hartree-Fock + 1.0000 wB97X-D + LR-HF
 Correlation:  1.0000 wB97X-D
 Using Euler-Maclaurin-Lebedev (75,302) quadrature formula
 Dispersion:   Grimme D
 SCF converges when DIIS error is below 1.0E-05
 Basis2 calculation detected. Using small basis as guess for larger.
 SCFMinFind is unable to tell whether the solution found is close.
 Resetting ReadMinima to 0 and attempting to follow guess.
 SCFMinFind following SCF Guess.
 using 6 threads for integral computing
 -------------------------------------------------------
 OpenMP Integral computing Module                
 Release: version 1.0, May 2013, Q-Chem Inc. Pittsburgh 
 -------------------------------------------------------
 using 6 threads for integral computing
 -------------------------------------------------------
 OpenMP Integral computing Module                
 Release: version 1.0, May 2013, Q-Chem Inc. Pittsburgh 
 -------------------------------------------------------
 ---------------------------------------
  Cycle       Energy         DIIS Error
 ---------------------------------------
    1    -155.0126187274      5.72E-03
    2    -155.0281191347      2.85E-03
    3    -155.0377359570      3.48E-04 Done RCA. Switching to DIIS
    4    -155.0492828678      2.51E-04
    5    -155.0494717366      3.94E-05
    6    -155.0494796277      5.72E-06 Convergence criterion met
 ---------------------------------------
 SCF time:  CPU 38.98 s  wall 6.52 s
 SCF   energy in the final basis set = -155.04947963
 Total energy in the final basis set = -155.04947963
 
 --------------------------------------------------------------
 
                    Orbital Energies (a.u.)
 --------------------------------------------------------------
 
 Alpha MOs
 -- Occupied --
-19.2462 -10.3279 -10.2756  -1.1264  -0.8503  -0.7234  -0.5966  -0.5458
 -0.5217  -0.4743  -0.4571  -0.4130  -0.3615
 -- Virtual --
  0.0643   0.0877   0.0886   0.1019   0.1268   0.1334   0.1371   0.1815
  0.1977   0.2126   0.2413   0.2439   0.2663   0.2841   0.2893   0.3057
  0.3177   0.3249   0.3426   0.3816   0.4580   0.4939   0.5002   0.5233
  0.5705   0.5752   0.5807   0.6054   0.6123   0.6339   0.6658   0.6834
  0.6893   0.7113   0.7372   0.8018   0.8371   0.9074   0.9375   0.9574
  0.9843   1.0473   1.0649   1.1079   1.1434   1.1576   1.1829   1.2114
  1.2291   1.2497   1.2849   1.2957   1.3241   1.3569   1.3851   1.4139
  1.4553   1.4692   1.4736   1.4915   1.5004   1.5321   1.5941   1.6271
  1.6470   1.7012   1.9405   2.0472   2.1165   2.2796   2.2915   2.4580
  2.4764   2.4973   2.5654   2.5959   2.6930   2.8403   2.8598   2.8708
  2.9136   2.9814   2.9992   3.0271   3.0409   3.0498   3.0780   3.0820
  3.1010   3.1633   3.2144   3.2590   3.2732   3.2924   3.3138   3.3473
  3.3720   3.3826   3.4206   3.4600   3.5154   3.5567   3.5671   3.5955
  3.6008   3.6100   3.6552   3.7126   3.7202   3.7480   3.7963   3.8340
  3.8871   3.9033   3.9404   3.9763   3.9946   4.0155   4.0662   4.0783
  4.0912   4.1172   4.1391   4.1865   4.2078   4.2361   4.2944   4.3178
  4.3473   4.4058   4.4727   4.5009   4.5527   4.6467   4.7203   4.7891
  4.8546   4.9206   4.9681   4.9792   4.9984   5.0767   5.1084   5.1978
  5.2235   5.2545   5.2847   5.3068   5.3281   5.3697   5.4348   5.4950
  5.5287   5.5923   5.6817   5.8265   5.9583   6.0045   6.3573   6.3846
  6.4079   6.6549   6.7041   6.8207   7.1283   7.3652   7.4141   7.5604
  7.7284   8.1024  25.1712  25.4295  50.4660
 --------------------------------------------------------------
 
 -----------------------------------------------------------------
                    Cartesian Multipole Moments
 -----------------------------------------------------------------
    Charge (ESU x 10^10)
                 0.0000
    Dipole Moment (Debye)
         X      -1.2660      Y      -0.4376      Z       1.2146
       Tot       1.8082
    Quadrupole Moments (Debye-Ang)
        XX     -11.5465     XY      -0.5405     YY     -18.9019
        XZ      -3.2327     YZ      -0.2814     ZZ     -19.9508
    Octopole Moments (Debye-Ang^2)
       XXX     212.2769    XXY      -4.1711    XYY      80.1885
       YYY     -37.0966    XXZ       8.2073    XYZ       0.7808
       YYZ      -0.4712    XZZ      84.6033    YZZ     -13.1009
       ZZZ       0.6456
    Hexadecapole Moments (Debye-Ang^3)
      XXXX   -2130.3695   XXXY     100.8611   XXYY    -385.1866
      XYYY     151.5774   YYYY    -105.1089   XXXZ     -15.3743
      XXYZ      -1.3178   XYYZ       3.1603   YYYZ      -4.2087
      XXZZ    -391.6671   XYZZ      54.1922   YYZZ     -23.1114
      XZZZ       3.3380   YZZZ      -1.1509   ZZZZ     -36.5610
 -----------------------------------------------------------------
Archival summary:
1\1\centos77-c7\SP\ProcedureUnspecified\BasisUnspecified\126\shihchen\MonJul2714:27:592020MonJul2714:27:592020\0\\#,ProcedureUnspecified,BasisUnspecified,\\0,1\C\H,1,1.08892\H,1,1.09704,2,107.181\O,1,1.41565,2,106.61,3,-117.019,0\H,4,0.9572,1,108.152,2,177.633,0\C,1,1.51835,2,113.62,3,118.05,0\H,6,1.08898,1,115.066,2,65.1474,0\H,6,1.09111,1,110.581,2,-59.4862,0\H,6,1.09339,1,106.32,2,-174.842,0\\\@

 Total job time:  11.13s(wall), 57.44s(cpu) 
 Mon Jul 27 14:27:59 2020

        *************************************************************
        *                                                           *
        *  Thank you very much for using Q-Chem.  Have a nice day.  *
        *                                                           *
        *************************************************************


