                  Welcome to Q-Chem
     A Quantum Leap Into The Future Of Chemistry


 Q-Chem 5.3 (devel), Q-Chem, Inc., Pleasanton, CA (2020)

 Yihan Shao,  Zhengting Gan,  E. Epifanovsky,  A. T. B. Gilbert,  M. Wormit,  
 J. Kussmann,  A. W. Lange,  A. Behn,  Jia Deng,  Xintian Feng,  D. Ghosh,  
 M. Goldey,  P. R. Horn,  L. D. Jacobson,  I. Kaliman,  T. Kus,  A. Landau,  
 Jie Liu,  E. I. Proynov,  R. M. Richard,  R. P. Steele,  E. J. Sundstrom,  
 H. L. Woodcock III,  P. M. Zimmerman,  D. Zuev,  B. Alam,  B. Albrecht,  
 E. Alguire,  S. A. Baeppler,  D. Barton,  Z. Benda,  Y. A. Bernard,  
 E. J. Berquist,  K. B. Bravaya,  H. Burton,  K. Carter-Fenk,  D. Casanova,  
 Chun-Min Chang,  Yunqing Chen,  A. Chien,  K. D. Closser,  M. P. Coons,  
 S. Coriani,  S. Dasgupta,  A. L. Dempwolff,  M. Diedenhofen,  Hainam Do,  
 R. G. Edgar,  Po-Tung Fang,  S. Faraji,  S. Fatehi,  Qingguo Feng,  
 J. Fosso-Tande,  J. Gayvert,  Qinghui Ge,  A. Ghysels,  G. Gidofalvi,  
 J. Gomes,  J. Gonthier,  A. Gunina,  D. Hait,  M. W. D. Hanson-Heine,  
 P. H. P. Harbach,  A. W. Hauser,  M. F. Herbst,  J. E. Herr,  
 E. G. Hohenstein,  Z. C. Holden,  Kerwin Hui,  B. C. Huynh,  T.-C. Jagau,  
 Hyunjun Ji,  B. Kaduk,  K. Khistyaev,  Jaehoon Kim,  P. Klunzinger,  K. Koh,  
 D. Kosenkov,  L. Koulias,  T. Kowalczyk,  C. M. Krauter,  A. Kunitsa,  
 Ka Un Lao,  A. Laurent,  K. V. Lawler,  Joonho Lee,  D. Lefrancois,  
 S. Lehtola,  D. S. Levine,  Yi-Pei Li,  You-Sheng Lin,  Fenglai Liu,  
 Kuan-Yu Liu,  E. Livshits,  M. Loipersberger,  A. Luenser,  P. Manohar,  
 E. Mansoor,  S. F. Manzer,  Shan-Ping Mao,  Yuezhi Mao,  N. Mardirossian,  
 A. V. Marenich,  T. Markovich,  L. A. Martinez-Martinez,  S. A. Maurer,  
 N. J. Mayhall,  S. C. McKenzie,  J.-M. Mewes,  P. Morgante,  A. F. Morrison,  
 J. W. Mullinax,  K. Nanda,  T. S. Nguyen-Beck,  R. Olivares-Amaya,  
 K. J. Oosterbaan,  J. A. Parkhill,  S. K. Paul,  F. Pavosevic,  Zheng Pei,  
 T. M. Perrine,  F. Plasser,  P. Pokhilko,  S. Prager,  A. Prociuk,  
 E. Ramos,  B. Rana,  D. R. Rehn,  F. Rob,  M. Scheurer,  M. Schneider,  
 N. Sergueev,  S. M. Sharada,  S. Sharma,  D. W. Small,  T. Stauch,  
 C. J. Stein,  T. Stein,  Yu-Chuan Su,  S. P. Veccham,  Zhen Tao,  
 A. J. W. Thom,  A. Tkatchenko,  T. Tsuchimochi,  N. M. Tubman,  L. Vogt,  
 M. L. Vidal,  O. Vydrov,  M. A. Watson,  J. Wenzel,  M. de Wergifosse,  
 T. A. Wesolowski,  A. White,  J. Witte,  A. Yamada,  Jun Yang,  K. Yao,  
 S. Yeganeh,  S. R. Yost,  Zhi-Qiang You,  A. Zech,  Igor Ying Zhang,  
 Xing Zhang,  Yan Zhao,  Ying Zhu,  B. R. Brooks,  G. K. L. Chan,  
 C. J. Cramer,  M. S. Gordon,  W. J. Hehre,  A. Klamt,  M. W. Schmidt,  
 C. D. Sherrill,  D. G. Truhlar,  A. Aspuru-Guzik,  R. Baer,  A. T. Bell,  
 N. A. Besley,  Jeng-Da Chai,  A. E. DePrince, III,  R. A. DiStasio Jr.,  
 A. Dreuw,  B. D. Dunietz,  T. R. Furlani,  Chao-Ping Hsu,  Yousung Jung,  
 Jing Kong,  D. S. Lambrecht,  WanZhen Liang,  C. Ochsenfeld,  
 V. A. Rassolov,  L. V. Slipchenko,  J. E. Subotnik,  T. Van Voorhis,  
 J. M. Herbert,  A. I. Krylov,  P. M. W. Gill,  M. Head-Gordon

 Contributors to earlier versions of Q-Chem not listed above: 
 R. D. Adamson,  B. Austin,  J. Baker,  G. J. O. Beran,  K. Brandhorst,  
 S. T. Brown,  E. F. C. Byrd,  A. K. Chakraborty,  C.-L. Cheng,  
 Siu Hung Chien,  D. M. Chipman,  D. L. Crittenden,  H. Dachsel,  
 R. J. Doerksen,  A. D. Dutoi,  L. Fusti-Molnar,  W. A. Goddard III,  
 A. Golubeva-Zadorozhnaya,  S. R. Gwaltney,  G. Hawkins,  A. Heyden,  
 S. Hirata,  G. Kedziora,  F. J. Keil,  C. Kelley,  Jihan Kim,  R. A. King,  
 R. Z. Khaliullin,  P. P. Korambath,  W. Kurlancheek,  A. M. Lee,  M. S. Lee,  
 S. V. Levchenko,  Ching Yeh Lin,  D. Liotard,  R. C. Lochan,  I. Lotan,  
 P. E. Maslen,  N. Nair,  D. P. O'Neill,  D. Neuhauser,  E. Neuscamman,  
 C. M. Oana,  R. Olson,  B. Peters,  R. Peverati,  P. A. Pieniazek,  
 Y. M. Rhee,  J. Ritchie,  M. A. Rohrdanz,  E. Rosta,  N. J. Russ,  
 H. F. Schaefer III,  N. E. Schultz,  N. Shenvi,  A. C. Simmonett,  A. Sodt,  
 D. Stuck,  K. S. Thanthiriwatte,  V. Vanovschi,  Tao Wang,  A. Warshel,  
 C. F. Williams,  Q. Wu,  X. Xu,  W. Zhang

 Please cite Q-Chem as follows:
 Y. Shao et al., Mol. Phys. 113, 184-215 (2015)
 DOI: 10.1080/00268976.2014.952696

 Q-Chem 5.3.0 for Intel X86 EM64T Linux

 Parts of Q-Chem use Armadillo 9.800.1 (Horizon Scraper).
 http://arma.sourceforge.net/

 Q-Chem begins on Mon Jul 27 14:47:00 2020  

Host: centos77-c7
0

     Scratch files written to /tmp/29924.centos77-h1/qchem110027//
Processing $rem in /opt/qchem-5.3.0-intel2020u1//config/preferences:
Processing $rem in /home/shihchengli/.qchemrc:

Checking the input file for inconsistencies... 	...done.

--------------------------------------------------------------
User input:
--------------------------------------------------------------
$rem
   JOBTYPE  sp
   EXCHANGE   omegaB97X-D
   BASIS   6-311+G(2df,2pd)
   UNRESTRICTED   False
   max_scf_cycles   250
   geom_opt_max_cycles   1500
   basis2 6-31G*
   scf_algorithm rca_diis
   SYM_IGNORE  TRUE
   print_input   true
   geom_opt_dmax   80
   pop_mulliken false
   XC_GRID 000075000302
$end

$molecule
0 1
C       -5.3725725710     0.2928920489     0.1013983989
C       -4.1331669678     1.1680945247     0.1623523411
H       -5.7084861740     -0.0271784604     -0.8903396857
H       -6.2682608508     0.9127776586     0.0470473407
H       -5.0891539751     -0.5612518334     0.7069700002
O       -2.9565538607     0.4896836120     -0.2422598678
H       -4.0138103875     1.5956848226     1.1650694633
H       -4.2057634410     1.9811907303     -0.5567851431
H       -2.8550417720     -0.2346731033     0.3768571527
$end
--------------------------------------------------------------
 ----------------------------------------------------------------
             Standard Nuclear Orientation (Angstroms)
    I     Atom           X                Y                Z
 ----------------------------------------------------------------
    1      C      -5.3725725710     0.2928920489     0.1013983989
    2      C      -4.1331669678     1.1680945247     0.1623523411
    3      H      -5.7084861740    -0.0271784604    -0.8903396857
    4      H      -6.2682608508     0.9127776586     0.0470473407
    5      H      -5.0891539751    -0.5612518334     0.7069700002
    6      O      -2.9565538607     0.4896836120    -0.2422598678
    7      H      -4.0138103875     1.5956848226     1.1650694633
    8      H      -4.2057634410     1.9811907303    -0.5567851431
    9      H      -2.8550417720    -0.2346731033     0.3768571527
 ----------------------------------------------------------------
 Nuclear Repulsion Energy =          82.04752586 hartrees
 There are       13 alpha and       13 beta electrons
 Requested basis set is 6-311+G(2df,2pd)
 There are 60 shells and 186 basis functions

 Total QAlloc Memory Limit   2000 MB
 Mega-Array Size       188 MB
 MEM_STATIC part       192 MB

                       Distance Matrix (Angstroms)
             C (  1)   C (  2)   H (  3)   H (  4)   H (  5)   O (  6)
   C (  2)  1.518493
   H (  3)  1.094910  2.240194
   H (  4)  1.090628  2.153394  1.440680
   H (  5)  1.084714  2.049673  1.794493  1.999638
   O (  6)  2.448259  1.417170  2.874071  3.351136  2.559978
   H (  7)  2.162152  1.096595  3.119346  2.607467  2.453282  2.078847
   H (  8)  2.155227  1.087913  2.530411  2.400003  2.973461  1.970798
   H (  9)  2.586922  1.909810  3.129055  3.616004  2.281860  0.958281
             H (  7)   H (  8)
   H (  8)  1.774893
   H (  9)  2.305262  2.757932
 
 A cutoff of  1.0D-09 yielded   1786 shell pairs
 There are     17332 function pairs (     21519 Cartesian)
 Smallest overlap matrix eigenvalue = 1.35E-04

 Scale SEOQF with 1.000000e-02/1.000000e-01/1.000000e-01

 Standard Electronic Orientation quadrupole field applied
 Nucleus-field energy     =     0.0000000026 hartrees
 Requested basis set is 6-31G(d)
 There are 24 shells and 54 basis functions
 A cutoff of  1.0D-09 yielded    298 shell pairs
 There are      1549 function pairs (      1732 Cartesian)
 Smallest overlap matrix eigenvalue = 7.10E-03
 Guess from superposition of atomic densities
 Warning:  Energy on first SCF cycle will be non-variational
 SAD guess density has 26.000000 electrons
 Long-range K will be added via erf
 Coulomb attenuation parameter = 0.2 bohr**(-1)
 A restricted hybrid HF-DFT SCF calculation will be
 performed using Relaxed Constraint Minimization + Pulay DIIS
 Exchange:     0.2220 Hartree-Fock + 1.0000 wB97X-D + LR-HF
 Correlation:  1.0000 wB97X-D
 Using Euler-Maclaurin-Lebedev (75,302) quadrature formula
 Dispersion:   Grimme D
 SCF converges when DIIS error is below 1.0E-04
 using 6 threads for integral computing
 -------------------------------------------------------
 OpenMP Integral computing Module                
 Release: version 1.0, May 2013, Q-Chem Inc. Pittsburgh 
 -------------------------------------------------------
 using 6 threads for integral computing
 -------------------------------------------------------
 OpenMP Integral computing Module                
 Release: version 1.0, May 2013, Q-Chem Inc. Pittsburgh 
 -------------------------------------------------------
 ---------------------------------------
  Cycle       Energy         DIIS Error
 ---------------------------------------
    1    -155.4562653722      1.07E-01
    2    -154.8909098850      1.38E-02
    3    -154.9209141167      3.15E-03
    4    -154.9484285381      2.57E-03
    5    -154.9492500031      2.44E-04 Done RCA. Switching to DIIS
    6    -154.9501790599      1.17E-04
    7    -154.9501835761      9.58E-06 Convergence criterion met
 ---------------------------------------
 SCF time:  CPU 14.29 s  wall 2.41 s
 SCF   energy in the small basis set = -154.95018358
 Total energy in the small basis set = -154.95018358
 ----------------------------------------------------
  Cycle       Energy    
 ----------------------------------------------------
    1     -18.7487562666     -1.87E+01
 Long-range K will be added via erf
 Coulomb attenuation parameter = 0.2 bohr**(-1)
 A restricted hybrid HF-DFT SCF calculation will be
 performed using Relaxed Constraint Minimization + Pulay DIIS
 Exchange:     0.2220 Hartree-Fock + 1.0000 wB97X-D + LR-HF
 Correlation:  1.0000 wB97X-D
 Using Euler-Maclaurin-Lebedev (75,302) quadrature formula
 Dispersion:   Grimme D
 SCF converges when DIIS error is below 1.0E-05
 Basis2 calculation detected. Using small basis as guess for larger.
 SCFMinFind is unable to tell whether the solution found is close.
 Resetting ReadMinima to 0 and attempting to follow guess.
 SCFMinFind following SCF Guess.
 using 6 threads for integral computing
 -------------------------------------------------------
 OpenMP Integral computing Module                
 Release: version 1.0, May 2013, Q-Chem Inc. Pittsburgh 
 -------------------------------------------------------
 using 6 threads for integral computing
 -------------------------------------------------------
 OpenMP Integral computing Module                
 Release: version 1.0, May 2013, Q-Chem Inc. Pittsburgh 
 -------------------------------------------------------
 ---------------------------------------
  Cycle       Energy         DIIS Error
 ---------------------------------------
    1    -154.9833015186      5.72E-03
    2    -154.9985035415      2.87E-03
    3    -155.0082705956      3.56E-04 Done RCA. Switching to DIIS
    4    -155.0200278292      2.59E-04
    5    -155.0202289951      4.03E-05
    6    -155.0202373731      5.71E-06 Convergence criterion met
 ---------------------------------------
 SCF time:  CPU 39.28 s  wall 6.57 s
 SCF   energy in the final basis set = -155.02023737
 Total energy in the final basis set = -155.02023737
 
 --------------------------------------------------------------
 
                    Orbital Energies (a.u.)
 --------------------------------------------------------------
 
 Alpha MOs
 -- Occupied --
-19.2471 -10.3267 -10.2765  -1.1279  -0.8534  -0.7250  -0.6033  -0.5658
 -0.5125  -0.4793  -0.4467  -0.3947  -0.3635
 -- Virtual --
  0.0653   0.0825   0.0887   0.1036   0.1239   0.1330   0.1364   0.1773
  0.1840   0.2167   0.2317   0.2530   0.2636   0.2859   0.2919   0.3011
  0.3175   0.3344   0.3426   0.3706   0.4581   0.4904   0.5018   0.5334
  0.5634   0.5715   0.5994   0.6094   0.6174   0.6356   0.6601   0.6796
  0.6862   0.7143   0.7470   0.8113   0.8190   0.8905   0.9239   0.9365
  1.0028   1.0466   1.0595   1.1202   1.1255   1.1671   1.1797   1.1935
  1.2407   1.2475   1.2907   1.3179   1.3442   1.3650   1.3753   1.4086
  1.4367   1.4590   1.4662   1.4868   1.5123   1.5542   1.5843   1.6121
  1.6509   1.7187   1.9463   2.0397   2.1361   2.2712   2.2906   2.4748
  2.4892   2.5405   2.5649   2.6131   2.7106   2.7696   2.8234   2.8580
  2.8921   2.9396   2.9747   3.0035   3.0192   3.0591   3.0838   3.0983
  3.1358   3.1779   3.2293   3.2384   3.2509   3.2856   3.3074   3.3295
  3.4012   3.4505   3.4552   3.4750   3.5138   3.5485   3.5688   3.5897
  3.6215   3.6332   3.6463   3.6608   3.7217   3.7405   3.7556   3.7907
  3.8460   3.8553   3.9191   3.9420   3.9831   4.0017   4.0220   4.0703
  4.0867   4.1184   4.1558   4.1966   4.2269   4.2765   4.3004   4.3298
  4.3585   4.3856   4.4533   4.5552   4.5918   4.6140   4.6916   4.7432
  4.8222   4.8644   4.8694   4.9694   5.0227   5.0892   5.1461   5.1655
  5.2320   5.2475   5.3039   5.3696   5.4112   5.4515   5.5227   5.5595
  5.6360   5.6695   5.8104   5.8881   5.9447   6.0320   6.3491   6.4181
  6.4549   6.6502   6.6738   6.8215   7.1368   7.3832   7.4184   7.5751
  7.6820   8.1098  25.1680  25.4281  50.4650
 --------------------------------------------------------------
 
 -----------------------------------------------------------------
                    Cartesian Multipole Moments
 -----------------------------------------------------------------
    Charge (ESU x 10^10)
                 0.0000
    Dipole Moment (Debye)
         X      -1.2458      Y      -0.3499      Z       1.0694
       Tot       1.6787
    Quadrupole Moments (Debye-Ang)
        XX     -11.2399     XY      -1.0628     YY     -19.0574
        XZ      -1.4183     YZ      -0.6795     ZZ     -20.2319
    Octopole Moments (Debye-Ang^2)
       XXX     206.9807    XXY      -0.3255    XYY      80.7804
       YYY     -37.1430    XXZ      -7.7610    XYZ       3.5073
       YYZ      -0.9900    XZZ      86.6713    YZZ     -12.5304
       ZZZ      -1.4309
    Hexadecapole Moments (Debye-Ang^3)
      XXXX   -2077.3049   XXXY      73.0528   XXYY    -386.9317
      XYYY     151.8908   YYYY    -104.8512   XXXZ     106.8346
      XXYZ     -19.4441   XYYZ       6.3528   YYYZ      -4.7214
      XXZZ    -404.7839   XYZZ      51.8778   YYZZ     -22.4281
      XZZZ      12.9237   YZZZ      -2.4485   ZZZZ     -37.5910
 -----------------------------------------------------------------
Archival summary:
1\1\centos77-c7\SP\ProcedureUnspecified\BasisUnspecified\126\shihchen\MonJul2714:47:112020MonJul2714:47:112020\0\\#,ProcedureUnspecified,BasisUnspecified,\\0,1\C\H,1,1.08791\H,1,1.0966,2,108.679\O,1,1.41717,2,102.971,3,-117.709,0\H,4,0.958281,1,105.387,2,179.565,0\C,1,1.51849,2,110.473,3,121.393,0\H,6,1.08471,1,102.602,2,169.406,0\H,6,1.09063,1,110.165,2,-43.9509,0\H,6,1.09491,1,117.081,2,47.8312,0\\\@

 Total job time:  11.13s(wall), 57.40s(cpu) 
 Mon Jul 27 14:47:11 2020

        *************************************************************
        *                                                           *
        *  Thank you very much for using Q-Chem.  Have a nice day.  *
        *                                                           *
        *************************************************************


