                  Welcome to Q-Chem
     A Quantum Leap Into The Future Of Chemistry


 Q-Chem 5.3 (devel), Q-Chem, Inc., Pleasanton, CA (2020)

 Yihan Shao,  Zhengting Gan,  E. Epifanovsky,  A. T. B. Gilbert,  M. Wormit,  
 J. Kussmann,  A. W. Lange,  A. Behn,  Jia Deng,  Xintian Feng,  D. Ghosh,  
 M. Goldey,  P. R. Horn,  L. D. Jacobson,  I. Kaliman,  T. Kus,  A. Landau,  
 Jie Liu,  E. I. Proynov,  R. M. Richard,  R. P. Steele,  E. J. Sundstrom,  
 H. L. Woodcock III,  P. M. Zimmerman,  D. Zuev,  B. Alam,  B. Albrecht,  
 E. Alguire,  S. A. Baeppler,  D. Barton,  Z. Benda,  Y. A. Bernard,  
 E. J. Berquist,  K. B. Bravaya,  H. Burton,  K. Carter-Fenk,  D. Casanova,  
 Chun-Min Chang,  Yunqing Chen,  A. Chien,  K. D. Closser,  M. P. Coons,  
 S. Coriani,  S. Dasgupta,  A. L. Dempwolff,  M. Diedenhofen,  Hainam Do,  
 R. G. Edgar,  Po-Tung Fang,  S. Faraji,  S. Fatehi,  Qingguo Feng,  
 J. Fosso-Tande,  J. Gayvert,  Qinghui Ge,  A. Ghysels,  G. Gidofalvi,  
 J. Gomes,  J. Gonthier,  A. Gunina,  D. Hait,  M. W. D. Hanson-Heine,  
 P. H. P. Harbach,  A. W. Hauser,  M. F. Herbst,  J. E. Herr,  
 E. G. Hohenstein,  Z. C. Holden,  Kerwin Hui,  B. C. Huynh,  T.-C. Jagau,  
 Hyunjun Ji,  B. Kaduk,  K. Khistyaev,  Jaehoon Kim,  P. Klunzinger,  K. Koh,  
 D. Kosenkov,  L. Koulias,  T. Kowalczyk,  C. M. Krauter,  A. Kunitsa,  
 Ka Un Lao,  A. Laurent,  K. V. Lawler,  Joonho Lee,  D. Lefrancois,  
 S. Lehtola,  D. S. Levine,  Yi-Pei Li,  You-Sheng Lin,  Fenglai Liu,  
 Kuan-Yu Liu,  E. Livshits,  M. Loipersberger,  A. Luenser,  P. Manohar,  
 E. Mansoor,  S. F. Manzer,  Shan-Ping Mao,  Yuezhi Mao,  N. Mardirossian,  
 A. V. Marenich,  T. Markovich,  L. A. Martinez-Martinez,  S. A. Maurer,  
 N. J. Mayhall,  S. C. McKenzie,  J.-M. Mewes,  P. Morgante,  A. F. Morrison,  
 J. W. Mullinax,  K. Nanda,  T. S. Nguyen-Beck,  R. Olivares-Amaya,  
 K. J. Oosterbaan,  J. A. Parkhill,  S. K. Paul,  F. Pavosevic,  Zheng Pei,  
 T. M. Perrine,  F. Plasser,  P. Pokhilko,  S. Prager,  A. Prociuk,  
 E. Ramos,  B. Rana,  D. R. Rehn,  F. Rob,  M. Scheurer,  M. Schneider,  
 N. Sergueev,  S. M. Sharada,  S. Sharma,  D. W. Small,  T. Stauch,  
 C. J. Stein,  T. Stein,  Yu-Chuan Su,  S. P. Veccham,  Zhen Tao,  
 A. J. W. Thom,  A. Tkatchenko,  T. Tsuchimochi,  N. M. Tubman,  L. Vogt,  
 M. L. Vidal,  O. Vydrov,  M. A. Watson,  J. Wenzel,  M. de Wergifosse,  
 T. A. Wesolowski,  A. White,  J. Witte,  A. Yamada,  Jun Yang,  K. Yao,  
 S. Yeganeh,  S. R. Yost,  Zhi-Qiang You,  A. Zech,  Igor Ying Zhang,  
 Xing Zhang,  Yan Zhao,  Ying Zhu,  B. R. Brooks,  G. K. L. Chan,  
 C. J. Cramer,  M. S. Gordon,  W. J. Hehre,  A. Klamt,  M. W. Schmidt,  
 C. D. Sherrill,  D. G. Truhlar,  A. Aspuru-Guzik,  R. Baer,  A. T. Bell,  
 N. A. Besley,  Jeng-Da Chai,  A. E. DePrince, III,  R. A. DiStasio Jr.,  
 A. Dreuw,  B. D. Dunietz,  T. R. Furlani,  Chao-Ping Hsu,  Yousung Jung,  
 Jing Kong,  D. S. Lambrecht,  WanZhen Liang,  C. Ochsenfeld,  
 V. A. Rassolov,  L. V. Slipchenko,  J. E. Subotnik,  T. Van Voorhis,  
 J. M. Herbert,  A. I. Krylov,  P. M. W. Gill,  M. Head-Gordon

 Contributors to earlier versions of Q-Chem not listed above: 
 R. D. Adamson,  B. Austin,  J. Baker,  G. J. O. Beran,  K. Brandhorst,  
 S. T. Brown,  E. F. C. Byrd,  A. K. Chakraborty,  C.-L. Cheng,  
 Siu Hung Chien,  D. M. Chipman,  D. L. Crittenden,  H. Dachsel,  
 R. J. Doerksen,  A. D. Dutoi,  L. Fusti-Molnar,  W. A. Goddard III,  
 A. Golubeva-Zadorozhnaya,  S. R. Gwaltney,  G. Hawkins,  A. Heyden,  
 S. Hirata,  G. Kedziora,  F. J. Keil,  C. Kelley,  Jihan Kim,  R. A. King,  
 R. Z. Khaliullin,  P. P. Korambath,  W. Kurlancheek,  A. M. Lee,  M. S. Lee,  
 S. V. Levchenko,  Ching Yeh Lin,  D. Liotard,  R. C. Lochan,  I. Lotan,  
 P. E. Maslen,  N. Nair,  D. P. O'Neill,  D. Neuhauser,  E. Neuscamman,  
 C. M. Oana,  R. Olson,  B. Peters,  R. Peverati,  P. A. Pieniazek,  
 Y. M. Rhee,  J. Ritchie,  M. A. Rohrdanz,  E. Rosta,  N. J. Russ,  
 H. F. Schaefer III,  N. E. Schultz,  N. Shenvi,  A. C. Simmonett,  A. Sodt,  
 D. Stuck,  K. S. Thanthiriwatte,  V. Vanovschi,  Tao Wang,  A. Warshel,  
 C. F. Williams,  Q. Wu,  X. Xu,  W. Zhang

 Please cite Q-Chem as follows:
 Y. Shao et al., Mol. Phys. 113, 184-215 (2015)
 DOI: 10.1080/00268976.2014.952696

 Q-Chem 5.3.0 for Intel X86 EM64T Linux

 Parts of Q-Chem use Armadillo 9.800.1 (Horizon Scraper).
 http://arma.sourceforge.net/

 Q-Chem begins on Mon Jul 27 14:32:53 2020  

Host: centos77-c7
0

     Scratch files written to /tmp/29924.centos77-h1/qchem106496//
Processing $rem in /opt/qchem-5.3.0-intel2020u1//config/preferences:
Processing $rem in /home/shihchengli/.qchemrc:

Checking the input file for inconsistencies... 	...done.

--------------------------------------------------------------
User input:
--------------------------------------------------------------
$rem
   JOBTYPE  sp
   EXCHANGE   omegaB97X-D
   BASIS   6-311+G(2df,2pd)
   UNRESTRICTED   False
   max_scf_cycles   250
   geom_opt_max_cycles   1500
   basis2 6-31G*
   scf_algorithm rca_diis
   SYM_IGNORE  TRUE
   print_input   true
   geom_opt_dmax   80
   pop_mulliken false
   XC_GRID 000075000302
$end

$molecule
0 1
C       -5.4147934712     0.4154826431     0.0340551298
C       -4.2046125378     1.1356378669     0.1612829557
H       -5.4338042285     -0.0454329982     -0.9520316704
H       -6.3715253302     0.8527970788     0.3048235340
H       -5.1788984661     -0.4016974144     0.7211727627
O       -3.0045075579     0.4535103947     -0.2081775287
H       -4.1655530690     1.6103846770     1.1460222557
H       -4.1380256593     1.9176967959     -0.5932994866
H       -2.6910896798     -0.3211590438     0.2564620479
$end
--------------------------------------------------------------
 ----------------------------------------------------------------
             Standard Nuclear Orientation (Angstroms)
    I     Atom           X                Y                Z
 ----------------------------------------------------------------
    1      C      -5.4147934712     0.4154826431     0.0340551298
    2      C      -4.2046125378     1.1356378669     0.1612829557
    3      H      -5.4338042285    -0.0454329982    -0.9520316704
    4      H      -6.3715253302     0.8527970788     0.3048235340
    5      H      -5.1788984661    -0.4016974144     0.7211727627
    6      O      -3.0045075579     0.4535103947    -0.2081775287
    7      H      -4.1655530690     1.6103846770     1.1460222557
    8      H      -4.1380256593     1.9176967959    -0.5932994866
    9      H      -2.6910896798    -0.3211590438     0.2564620479
 ----------------------------------------------------------------
 Nuclear Repulsion Energy =          83.23189133 hartrees
 There are       13 alpha and       13 beta electrons
 Requested basis set is 6-311+G(2df,2pd)
 There are 60 shells and 186 basis functions

 Total QAlloc Memory Limit   2000 MB
 Mega-Array Size       188 MB
 MEM_STATIC part       192 MB

                       Distance Matrix (Angstroms)
             C (  1)   C (  2)   H (  3)   H (  4)   H (  5)   O (  6)
   C (  2)  1.413983
   H (  3)  1.088656  2.036003
   H (  4)  1.086230  2.190003  1.807159
   H (  5)  1.093417  1.904235  1.729599  1.780298
   O (  6)  2.422726  1.429003  2.589159  3.429199  2.514567
   H (  7)  2.055447  1.093902  2.958382  2.479489  2.292562  2.126086
   H (  8)  2.068902  1.088781  2.379414  2.632329  2.861965  1.891302
   H (  9)  2.830312  2.102871  3.009811  3.863433  2.532121  0.956156
             H (  7)   H (  8)
   H (  8)  1.766476
   H (  9)  2.587706  2.797891
 
 A cutoff of  1.0D-09 yielded   1794 shell pairs
 There are     17376 function pairs (     21568 Cartesian)
 Smallest overlap matrix eigenvalue = 9.82E-05

 Scale SEOQF with 1.000000e-02/1.000000e-01/1.000000e-01

 Standard Electronic Orientation quadrupole field applied
 Nucleus-field energy     =     0.0000000026 hartrees
 Requested basis set is 6-31G(d)
 There are 24 shells and 54 basis functions
 A cutoff of  1.0D-09 yielded    298 shell pairs
 There are      1549 function pairs (      1732 Cartesian)
 Smallest overlap matrix eigenvalue = 5.62E-03
 Guess from superposition of atomic densities
 Warning:  Energy on first SCF cycle will be non-variational
 SAD guess density has 26.000000 electrons
 Long-range K will be added via erf
 Coulomb attenuation parameter = 0.2 bohr**(-1)
 A restricted hybrid HF-DFT SCF calculation will be
 performed using Relaxed Constraint Minimization + Pulay DIIS
 Exchange:     0.2220 Hartree-Fock + 1.0000 wB97X-D + LR-HF
 Correlation:  1.0000 wB97X-D
 Using Euler-Maclaurin-Lebedev (75,302) quadrature formula
 Dispersion:   Grimme D
 SCF converges when DIIS error is below 1.0E-04
 using 6 threads for integral computing
 -------------------------------------------------------
 OpenMP Integral computing Module                
 Release: version 1.0, May 2013, Q-Chem Inc. Pittsburgh 
 -------------------------------------------------------
 using 6 threads for integral computing
 -------------------------------------------------------
 OpenMP Integral computing Module                
 Release: version 1.0, May 2013, Q-Chem Inc. Pittsburgh 
 -------------------------------------------------------
 ---------------------------------------
  Cycle       Energy         DIIS Error
 ---------------------------------------
    1    -155.5736337052      1.11E-01
    2    -154.8989750520      1.38E-02
    3    -154.9288256700      3.14E-03
    4    -154.9556485774      2.58E-03
    5    -154.9564746533      2.29E-04 Done RCA. Switching to DIIS
    6    -154.9574049139      1.25E-04
    7    -154.9574095216      1.31E-05 Convergence criterion met
 ---------------------------------------
 SCF time:  CPU 14.31 s  wall 2.40 s
 SCF   energy in the small basis set = -154.95740952
 Total energy in the small basis set = -154.95740952
 ----------------------------------------------------
  Cycle       Energy    
 ----------------------------------------------------
    1     -18.7918795595     -1.88E+01
 Long-range K will be added via erf
 Coulomb attenuation parameter = 0.2 bohr**(-1)
 A restricted hybrid HF-DFT SCF calculation will be
 performed using Relaxed Constraint Minimization + Pulay DIIS
 Exchange:     0.2220 Hartree-Fock + 1.0000 wB97X-D + LR-HF
 Correlation:  1.0000 wB97X-D
 Using Euler-Maclaurin-Lebedev (75,302) quadrature formula
 Dispersion:   Grimme D
 SCF converges when DIIS error is below 1.0E-05
 Basis2 calculation detected. Using small basis as guess for larger.
 SCFMinFind is unable to tell whether the solution found is close.
 Resetting ReadMinima to 0 and attempting to follow guess.
 SCFMinFind following SCF Guess.
 using 6 threads for integral computing
 -------------------------------------------------------
 OpenMP Integral computing Module                
 Release: version 1.0, May 2013, Q-Chem Inc. Pittsburgh 
 -------------------------------------------------------
 using 6 threads for integral computing
 -------------------------------------------------------
 OpenMP Integral computing Module                
 Release: version 1.0, May 2013, Q-Chem Inc. Pittsburgh 
 -------------------------------------------------------
 ---------------------------------------
  Cycle       Energy         DIIS Error
 ---------------------------------------
    1    -154.9891644736      5.75E-03
    2    -155.0038618794      3.01E-03
    3    -155.0145462099      3.77E-04 Done RCA. Switching to DIIS
    4    -155.0274900523      2.85E-04
    5    -155.0277308521      4.23E-05
    6    -155.0277399145      6.04E-06 Convergence criterion met
 ---------------------------------------
 SCF time:  CPU 39.81 s  wall 6.66 s
 SCF   energy in the final basis set = -155.02773991
 Total energy in the final basis set = -155.02773991
 
 --------------------------------------------------------------
 
                    Orbital Energies (a.u.)
 --------------------------------------------------------------
 
 Alpha MOs
 -- Occupied --
-19.2435 -10.3214 -10.2667  -1.1171  -0.8765  -0.7228  -0.6036  -0.5561
 -0.5353  -0.4631  -0.4419  -0.3944  -0.3690
 -- Virtual --
  0.0667   0.0882   0.0912   0.1003   0.1225   0.1358   0.1376   0.1842
  0.1971   0.2095   0.2352   0.2485   0.2680   0.2787   0.2936   0.3066
  0.3271   0.3367   0.3605   0.3904   0.4635   0.4916   0.5040   0.5175
  0.5711   0.5772   0.5858   0.5933   0.6235   0.6655   0.6773   0.7016
  0.7161   0.7196   0.7697   0.8205   0.8439   0.8936   0.9281   0.9590
  0.9705   1.0511   1.0777   1.1041   1.1459   1.1795   1.1989   1.2074
  1.2434   1.2967   1.3067   1.3114   1.3361   1.3727   1.3867   1.4106
  1.4292   1.4459   1.4754   1.4978   1.5094   1.5469   1.5798   1.6417
  1.6902   1.7506   1.9223   2.0371   2.1098   2.2757   2.2813   2.4389
  2.4891   2.5393   2.6037   2.6207   2.7222   2.7645   2.8763   2.9443
  2.9690   2.9952   3.0121   3.0329   3.0422   3.0606   3.0935   3.1170
  3.1616   3.1906   3.2093   3.2489   3.2562   3.3086   3.3308   3.3541
  3.3743   3.3894   3.4213   3.4531   3.5375   3.5616   3.5692   3.5886
  3.6075   3.6331   3.6687   3.7003   3.7143   3.7845   3.8077   3.8290
  3.9009   3.9283   3.9682   3.9773   4.0019   4.0475   4.0843   4.1248
  4.1691   4.1905   4.2075   4.2192   4.2252   4.2439   4.2783   4.3982
  4.4137   4.4254   4.5526   4.6164   4.6555   4.6811   4.7565   4.8024
  4.8392   4.9349   4.9567   5.0066   5.0231   5.1328   5.1661   5.1872
  5.2411   5.2547   5.2973   5.3449   5.3775   5.4142   5.4212   5.4558
  5.5705   5.6636   5.7658   5.7810   6.0419   6.1220   6.3670   6.3936
  6.4478   6.6701   6.6881   6.9037   7.1211   7.2424   7.4360   7.4768
  7.8195   8.1888  25.2061  25.5613  50.4702
 --------------------------------------------------------------
 
 -----------------------------------------------------------------
                    Cartesian Multipole Moments
 -----------------------------------------------------------------
    Charge (ESU x 10^10)
                 0.0000
    Dipole Moment (Debye)
         X      -1.0092      Y      -0.5518      Z       1.1512
       Tot       1.6273
    Quadrupole Moments (Debye-Ang)
        XX     -12.1233     XY      -0.6638     YY     -19.4491
        XZ      -3.2871     YZ      -0.0063     ZZ     -20.0445
    Octopole Moments (Debye-Ang^2)
       XXX     209.7793    XXY      -0.8852    XYY      83.2724
       YYY     -38.6772    XXZ       9.4772    XYZ      -0.4929
       YYZ      -0.4373    XZZ      85.7128    YZZ     -12.7308
       ZZZ      -1.0489
    Hexadecapole Moments (Debye-Ang^3)
      XXXX   -2091.7573   XXXY      77.4830   XXYY    -400.2049
      XYYY     163.3783   YYYY    -104.3885   XXXZ     -24.2740
      XXYZ       4.2085   XYYZ       3.1239   YYYZ      -4.1193
      XXZZ    -399.8498   XYZZ      54.0550   YYZZ     -22.0806
      XZZZ      10.6308   YZZZ      -2.5896   ZZZZ     -36.9349
 -----------------------------------------------------------------
Archival summary:
1\1\centos77-c7\SP\ProcedureUnspecified\BasisUnspecified\126\shihchen\MonJul2714:33:042020MonJul2714:33:042020\0\\#,ProcedureUnspecified,BasisUnspecified,\\0,1\C\H,1,1.08878\H,1,1.0939,2,108.058\C,1,1.41398,2,110.843,3,119.898,0\H,4,1.08623,1,121.76,2,-71.6745,0\H,4,1.08866,1,108.185,2,60.7661,0\H,4,1.09342,1,98.016,2,169.366,0\O,1,1.429,2,96.4494,3,-118.084,0\H,8,0.956156,1,122.438,2,178.778,0\\\@

 Total job time:  11.21s(wall), 57.96s(cpu) 
 Mon Jul 27 14:33:04 2020

        *************************************************************
        *                                                           *
        *  Thank you very much for using Q-Chem.  Have a nice day.  *
        *                                                           *
        *************************************************************


