                  Welcome to Q-Chem
     A Quantum Leap Into The Future Of Chemistry


 Q-Chem 5.3 (devel), Q-Chem, Inc., Pleasanton, CA (2020)

 Yihan Shao,  Zhengting Gan,  E. Epifanovsky,  A. T. B. Gilbert,  M. Wormit,  
 J. Kussmann,  A. W. Lange,  A. Behn,  Jia Deng,  Xintian Feng,  D. Ghosh,  
 M. Goldey,  P. R. Horn,  L. D. Jacobson,  I. Kaliman,  T. Kus,  A. Landau,  
 Jie Liu,  E. I. Proynov,  R. M. Richard,  R. P. Steele,  E. J. Sundstrom,  
 H. L. Woodcock III,  P. M. Zimmerman,  D. Zuev,  B. Alam,  B. Albrecht,  
 E. Alguire,  S. A. Baeppler,  D. Barton,  Z. Benda,  Y. A. Bernard,  
 E. J. Berquist,  K. B. Bravaya,  H. Burton,  K. Carter-Fenk,  D. Casanova,  
 Chun-Min Chang,  Yunqing Chen,  A. Chien,  K. D. Closser,  M. P. Coons,  
 S. Coriani,  S. Dasgupta,  A. L. Dempwolff,  M. Diedenhofen,  Hainam Do,  
 R. G. Edgar,  Po-Tung Fang,  S. Faraji,  S. Fatehi,  Qingguo Feng,  
 J. Fosso-Tande,  J. Gayvert,  Qinghui Ge,  A. Ghysels,  G. Gidofalvi,  
 J. Gomes,  J. Gonthier,  A. Gunina,  D. Hait,  M. W. D. Hanson-Heine,  
 P. H. P. Harbach,  A. W. Hauser,  M. F. Herbst,  J. E. Herr,  
 E. G. Hohenstein,  Z. C. Holden,  Kerwin Hui,  B. C. Huynh,  T.-C. Jagau,  
 Hyunjun Ji,  B. Kaduk,  K. Khistyaev,  Jaehoon Kim,  P. Klunzinger,  K. Koh,  
 D. Kosenkov,  L. Koulias,  T. Kowalczyk,  C. M. Krauter,  A. Kunitsa,  
 Ka Un Lao,  A. Laurent,  K. V. Lawler,  Joonho Lee,  D. Lefrancois,  
 S. Lehtola,  D. S. Levine,  Yi-Pei Li,  You-Sheng Lin,  Fenglai Liu,  
 Kuan-Yu Liu,  E. Livshits,  M. Loipersberger,  A. Luenser,  P. Manohar,  
 E. Mansoor,  S. F. Manzer,  Shan-Ping Mao,  Yuezhi Mao,  N. Mardirossian,  
 A. V. Marenich,  T. Markovich,  L. A. Martinez-Martinez,  S. A. Maurer,  
 N. J. Mayhall,  S. C. McKenzie,  J.-M. Mewes,  P. Morgante,  A. F. Morrison,  
 J. W. Mullinax,  K. Nanda,  T. S. Nguyen-Beck,  R. Olivares-Amaya,  
 K. J. Oosterbaan,  J. A. Parkhill,  S. K. Paul,  F. Pavosevic,  Zheng Pei,  
 T. M. Perrine,  F. Plasser,  P. Pokhilko,  S. Prager,  A. Prociuk,  
 E. Ramos,  B. Rana,  D. R. Rehn,  F. Rob,  M. Scheurer,  M. Schneider,  
 N. Sergueev,  S. M. Sharada,  S. Sharma,  D. W. Small,  T. Stauch,  
 C. J. Stein,  T. Stein,  Yu-Chuan Su,  S. P. Veccham,  Zhen Tao,  
 A. J. W. Thom,  A. Tkatchenko,  T. Tsuchimochi,  N. M. Tubman,  L. Vogt,  
 M. L. Vidal,  O. Vydrov,  M. A. Watson,  J. Wenzel,  M. de Wergifosse,  
 T. A. Wesolowski,  A. White,  J. Witte,  A. Yamada,  Jun Yang,  K. Yao,  
 S. Yeganeh,  S. R. Yost,  Zhi-Qiang You,  A. Zech,  Igor Ying Zhang,  
 Xing Zhang,  Yan Zhao,  Ying Zhu,  B. R. Brooks,  G. K. L. Chan,  
 C. J. Cramer,  M. S. Gordon,  W. J. Hehre,  A. Klamt,  M. W. Schmidt,  
 C. D. Sherrill,  D. G. Truhlar,  A. Aspuru-Guzik,  R. Baer,  A. T. Bell,  
 N. A. Besley,  Jeng-Da Chai,  A. E. DePrince, III,  R. A. DiStasio Jr.,  
 A. Dreuw,  B. D. Dunietz,  T. R. Furlani,  Chao-Ping Hsu,  Yousung Jung,  
 Jing Kong,  D. S. Lambrecht,  WanZhen Liang,  C. Ochsenfeld,  
 V. A. Rassolov,  L. V. Slipchenko,  J. E. Subotnik,  T. Van Voorhis,  
 J. M. Herbert,  A. I. Krylov,  P. M. W. Gill,  M. Head-Gordon

 Contributors to earlier versions of Q-Chem not listed above: 
 R. D. Adamson,  B. Austin,  J. Baker,  G. J. O. Beran,  K. Brandhorst,  
 S. T. Brown,  E. F. C. Byrd,  A. K. Chakraborty,  C.-L. Cheng,  
 Siu Hung Chien,  D. M. Chipman,  D. L. Crittenden,  H. Dachsel,  
 R. J. Doerksen,  A. D. Dutoi,  L. Fusti-Molnar,  W. A. Goddard III,  
 A. Golubeva-Zadorozhnaya,  S. R. Gwaltney,  G. Hawkins,  A. Heyden,  
 S. Hirata,  G. Kedziora,  F. J. Keil,  C. Kelley,  Jihan Kim,  R. A. King,  
 R. Z. Khaliullin,  P. P. Korambath,  W. Kurlancheek,  A. M. Lee,  M. S. Lee,  
 S. V. Levchenko,  Ching Yeh Lin,  D. Liotard,  R. C. Lochan,  I. Lotan,  
 P. E. Maslen,  N. Nair,  D. P. O'Neill,  D. Neuhauser,  E. Neuscamman,  
 C. M. Oana,  R. Olson,  B. Peters,  R. Peverati,  P. A. Pieniazek,  
 Y. M. Rhee,  J. Ritchie,  M. A. Rohrdanz,  E. Rosta,  N. J. Russ,  
 H. F. Schaefer III,  N. E. Schultz,  N. Shenvi,  A. C. Simmonett,  A. Sodt,  
 D. Stuck,  K. S. Thanthiriwatte,  V. Vanovschi,  Tao Wang,  A. Warshel,  
 C. F. Williams,  Q. Wu,  X. Xu,  W. Zhang

 Please cite Q-Chem as follows:
 Y. Shao et al., Mol. Phys. 113, 184-215 (2015)
 DOI: 10.1080/00268976.2014.952696

 Q-Chem 5.3.0 for Intel X86 EM64T Linux

 Parts of Q-Chem use Armadillo 9.800.1 (Horizon Scraper).
 http://arma.sourceforge.net/

 Q-Chem begins on Mon Jul 27 14:31:12 2020  

Host: centos77-c7
0

     Scratch files written to /tmp/29924.centos77-h1/qchem106086//
Processing $rem in /opt/qchem-5.3.0-intel2020u1//config/preferences:
Processing $rem in /home/shihchengli/.qchemrc:

Checking the input file for inconsistencies... 	...done.

--------------------------------------------------------------
User input:
--------------------------------------------------------------
$rem
   JOBTYPE  sp
   EXCHANGE   omegaB97X-D
   BASIS   6-311+G(2df,2pd)
   UNRESTRICTED   False
   max_scf_cycles   250
   geom_opt_max_cycles   1500
   basis2 6-31G*
   scf_algorithm rca_diis
   SYM_IGNORE  TRUE
   print_input   true
   geom_opt_dmax   80
   pop_mulliken false
   XC_GRID 000075000302
$end

$molecule
0 1
C       -5.4066083944     0.3225688525     0.0446984906
C       -4.1262101446     1.2033719052     0.1269986465
H       -5.4766769885     -0.0863742081     -0.9638198650
H       -6.3406990034     0.8332223091     0.2808998590
H       -5.3037119560     -0.5252719201     0.7264815823
O       -2.9386405252     0.4747248620     -0.2513609817
H       -3.9973039354     1.6226330006     1.1299312084
H       -4.1778259630     2.0360417733     -0.5731588927
H       -2.8351330894     -0.2636965746     0.3496399526
$end
--------------------------------------------------------------
 ----------------------------------------------------------------
             Standard Nuclear Orientation (Angstroms)
    I     Atom           X                Y                Z
 ----------------------------------------------------------------
    1      C      -5.4066083944     0.3225688525     0.0446984906
    2      C      -4.1262101446     1.2033719052     0.1269986465
    3      H      -5.4766769885    -0.0863742081    -0.9638198650
    4      H      -6.3406990034     0.8332223091     0.2808998590
    5      H      -5.3037119560    -0.5252719201     0.7264815823
    6      O      -2.9386405252     0.4747248620    -0.2513609817
    7      H      -3.9973039354     1.6226330006     1.1299312084
    8      H      -4.1778259630     2.0360417733    -0.5731588927
    9      H      -2.8351330894    -0.2636965746     0.3496399526
 ----------------------------------------------------------------
 Nuclear Repulsion Energy =          80.80506540 hartrees
 There are       13 alpha and       13 beta electrons
 Requested basis set is 6-311+G(2df,2pd)
 There are 60 shells and 186 basis functions

 Total QAlloc Memory Limit   2000 MB
 Mega-Array Size       188 MB
 MEM_STATIC part       192 MB

                       Distance Matrix (Angstroms)
             C (  1)   C (  2)   H (  3)   H (  4)   H (  5)   O (  6)
   C (  2)  1.556280
   H (  3)  1.090529  2.162658
   H (  4)  1.090451  2.250479  1.772433
   H (  5)  1.092817  2.175799  1.754898  1.766180
   O (  6)  2.490315  1.443747  2.695192  3.462055  2.747678
   H (  7)  2.203188  1.094655  3.081078  2.614483  2.546168  2.084809
   H (  8)  2.197190  1.089139  2.518785  2.618055  3.084966  2.019120
   H (  9)  2.655030  1.966911  2.955397  3.673819  2.510839  0.957696
             H (  7)   H (  8)
   H (  8)  1.761820
   H (  9)  2.348986  2.818364
 
 A cutoff of  1.0D-09 yielded   1785 shell pairs
 There are     17305 function pairs (     21490 Cartesian)
 Smallest overlap matrix eigenvalue = 1.55E-04

 Scale SEOQF with 1.000000e-02/1.000000e-01/1.000000e-01

 Standard Electronic Orientation quadrupole field applied
 Nucleus-field energy     =     0.0000000027 hartrees
 Requested basis set is 6-31G(d)
 There are 24 shells and 54 basis functions
 A cutoff of  1.0D-09 yielded    298 shell pairs
 There are      1549 function pairs (      1732 Cartesian)
 Smallest overlap matrix eigenvalue = 8.03E-03
 Guess from superposition of atomic densities
 Warning:  Energy on first SCF cycle will be non-variational
 SAD guess density has 26.000000 electrons
 Long-range K will be added via erf
 Coulomb attenuation parameter = 0.2 bohr**(-1)
 A restricted hybrid HF-DFT SCF calculation will be
 performed using Relaxed Constraint Minimization + Pulay DIIS
 Exchange:     0.2220 Hartree-Fock + 1.0000 wB97X-D + LR-HF
 Correlation:  1.0000 wB97X-D
 Using Euler-Maclaurin-Lebedev (75,302) quadrature formula
 Dispersion:   Grimme D
 SCF converges when DIIS error is below 1.0E-04
 using 6 threads for integral computing
 -------------------------------------------------------
 OpenMP Integral computing Module                
 Release: version 1.0, May 2013, Q-Chem Inc. Pittsburgh 
 -------------------------------------------------------
 using 6 threads for integral computing
 -------------------------------------------------------
 OpenMP Integral computing Module                
 Release: version 1.0, May 2013, Q-Chem Inc. Pittsburgh 
 -------------------------------------------------------
 ---------------------------------------
  Cycle       Energy         DIIS Error
 ---------------------------------------
    1    -155.3385913997      1.02E-01
    2    -154.9256543169      1.35E-02
    3    -154.9532001363      2.96E-03
    4    -154.9795947463      2.27E-03
    5    -154.9802479724      2.39E-04 Done RCA. Switching to DIIS
    6    -154.9809921741      1.06E-04
    7    -154.9809958959      7.22E-06 Convergence criterion met
 ---------------------------------------
 SCF time:  CPU 14.17 s  wall 2.38 s
 SCF   energy in the small basis set = -154.98099590
 Total energy in the small basis set = -154.98099590
 ----------------------------------------------------
  Cycle       Energy    
 ----------------------------------------------------
    1     -18.7222537183     -1.87E+01
 Long-range K will be added via erf
 Coulomb attenuation parameter = 0.2 bohr**(-1)
 A restricted hybrid HF-DFT SCF calculation will be
 performed using Relaxed Constraint Minimization + Pulay DIIS
 Exchange:     0.2220 Hartree-Fock + 1.0000 wB97X-D + LR-HF
 Correlation:  1.0000 wB97X-D
 Using Euler-Maclaurin-Lebedev (75,302) quadrature formula
 Dispersion:   Grimme D
 SCF converges when DIIS error is below 1.0E-05
 Basis2 calculation detected. Using small basis as guess for larger.
 SCFMinFind is unable to tell whether the solution found is close.
 Resetting ReadMinima to 0 and attempting to follow guess.
 SCFMinFind following SCF Guess.
 using 6 threads for integral computing
 -------------------------------------------------------
 OpenMP Integral computing Module                
 Release: version 1.0, May 2013, Q-Chem Inc. Pittsburgh 
 -------------------------------------------------------
 using 6 threads for integral computing
 -------------------------------------------------------
 OpenMP Integral computing Module                
 Release: version 1.0, May 2013, Q-Chem Inc. Pittsburgh 
 -------------------------------------------------------
 ---------------------------------------
  Cycle       Energy         DIIS Error
 ---------------------------------------
    1    -155.0118097786      5.72E-03
    2    -155.0265270141      2.92E-03
    3    -155.0365662734      3.75E-04 Done RCA. Switching to DIIS
    4    -155.0487538368      2.87E-04
    5    -155.0489952728      3.94E-05
    6    -155.0490032285      5.61E-06 Convergence criterion met
 ---------------------------------------
 SCF time:  CPU 38.77 s  wall 6.49 s
 SCF   energy in the final basis set = -155.04900323
 Total energy in the final basis set = -155.04900323
 
 --------------------------------------------------------------
 
                    Orbital Energies (a.u.)
 --------------------------------------------------------------
 
 Alpha MOs
 -- Occupied --
-19.2473 -10.3328 -10.2784  -1.1180  -0.8435  -0.7247  -0.5908  -0.5393
 -0.5216  -0.4658  -0.4586  -0.4157  -0.3640
 -- Virtual --
  0.0654   0.0874   0.0886   0.1023   0.1252   0.1336   0.1371   0.1810
  0.1976   0.2150   0.2386   0.2448   0.2660   0.2792   0.2850   0.3038
  0.3068   0.3256   0.3409   0.3789   0.4562   0.4936   0.5021   0.5263
  0.5631   0.5754   0.5771   0.6054   0.6089   0.6253   0.6642   0.6792
  0.6843   0.7104   0.7345   0.8053   0.8483   0.8968   0.9105   0.9557
  0.9865   1.0506   1.0567   1.1004   1.1477   1.1744   1.1844   1.2048
  1.2143   1.2329   1.2672   1.3030   1.3126   1.3441   1.3656   1.3968
  1.4485   1.4686   1.4749   1.4795   1.5051   1.5390   1.5943   1.6316
  1.6490   1.7126   1.9315   2.0429   2.0967   2.2580   2.2823   2.4386
  2.4637   2.4893   2.5315   2.5766   2.7017   2.8110   2.8413   2.8738
  2.9149   2.9663   3.0044   3.0270   3.0391   3.0518   3.0645   3.0769
  3.0932   3.1738   3.2160   3.2570   3.2763   3.2848   3.3138   3.3325
  3.3483   3.3705   3.3999   3.4240   3.5095   3.5583   3.5682   3.5792
  3.5883   3.6132   3.6465   3.6895   3.7104   3.7334   3.7924   3.8275
  3.8875   3.9102   3.9293   3.9505   3.9890   3.9932   4.0229   4.0673
  4.0772   4.1077   4.1350   4.1770   4.1772   4.2327   4.2835   4.3063
  4.3372   4.3739   4.4438   4.4778   4.5295   4.6284   4.7139   4.7699
  4.8571   4.9238   4.9348   4.9862   5.0255   5.0362   5.1045   5.1943
  5.2060   5.2309   5.2708   5.2972   5.3189   5.3545   5.4020   5.4753
  5.5196   5.5547   5.6597   5.7477   5.8638   5.9487   6.3559   6.3733
  6.4000   6.6232   6.6524   6.7971   7.1226   7.3445   7.3997   7.5374
  7.6983   8.0957  25.1153  25.3979  50.4556
 --------------------------------------------------------------
 
 -----------------------------------------------------------------
                    Cartesian Multipole Moments
 -----------------------------------------------------------------
    Charge (ESU x 10^10)
                 0.0000
    Dipole Moment (Debye)
         X      -1.2397      Y      -0.3608      Z       1.2691
       Tot       1.8105
    Quadrupole Moments (Debye-Ang)
        XX     -11.5273     XY      -0.7932     YY     -18.8413
        XZ      -3.3633     YZ      -0.2965     ZZ     -19.9930
    Octopole Moments (Debye-Ang^2)
       XXX     210.6010    XXY      -3.2995    XYY      80.1763
       YYY     -37.0931    XXZ       8.5048    XYZ       1.0959
       YYZ      -0.4123    XZZ      85.0668    YZZ     -12.8427
       ZZZ      -0.0744
    Hexadecapole Moments (Debye-Ang^3)
      XXXX   -2114.7166   XXXY      97.2496   XXYY    -387.1568
      XYYY     152.0766   YYYY    -105.9592   XXXZ     -15.4164
      XXYZ      -4.0477   XYYZ       3.4337   YYYZ      -4.2669
      XXZZ    -395.9332   XYZZ      53.2491   YYZZ     -22.8057
      XZZZ       7.5139   YZZZ      -1.6781   ZZZZ     -36.9844
 -----------------------------------------------------------------
Archival summary:
1\1\centos77-c7\SP\ProcedureUnspecified\BasisUnspecified\126\shihchen\MonJul2714:31:232020MonJul2714:31:232020\0\\#,ProcedureUnspecified,BasisUnspecified,\\0,1\C\H,1,1.08914\H,1,1.09466,2,107.563\O,1,1.44375,2,104.854,3,-116.689,0\H,4,0.957696,1,108.275,2,178.81,0\C,1,1.55628,2,111.082,3,121.943,0\H,6,1.09045,1,115.357,2,-60.6386,0\H,6,1.09053,1,108.301,2,61.4183,0\H,6,1.09282,1,109.186,2,177.574,0\\\@

 Total job time:  11.00s(wall), 56.71s(cpu) 
 Mon Jul 27 14:31:23 2020

        *************************************************************
        *                                                           *
        *  Thank you very much for using Q-Chem.  Have a nice day.  *
        *                                                           *
        *************************************************************


