                  Welcome to Q-Chem
     A Quantum Leap Into The Future Of Chemistry


 Q-Chem 5.3 (devel), Q-Chem, Inc., Pleasanton, CA (2020)

 Yihan Shao,  Zhengting Gan,  E. Epifanovsky,  A. T. B. Gilbert,  M. Wormit,  
 J. Kussmann,  A. W. Lange,  A. Behn,  Jia Deng,  Xintian Feng,  D. Ghosh,  
 M. Goldey,  P. R. Horn,  L. D. Jacobson,  I. Kaliman,  T. Kus,  A. Landau,  
 Jie Liu,  E. I. Proynov,  R. M. Richard,  R. P. Steele,  E. J. Sundstrom,  
 H. L. Woodcock III,  P. M. Zimmerman,  D. Zuev,  B. Alam,  B. Albrecht,  
 E. Alguire,  S. A. Baeppler,  D. Barton,  Z. Benda,  Y. A. Bernard,  
 E. J. Berquist,  K. B. Bravaya,  H. Burton,  K. Carter-Fenk,  D. Casanova,  
 Chun-Min Chang,  Yunqing Chen,  A. Chien,  K. D. Closser,  M. P. Coons,  
 S. Coriani,  S. Dasgupta,  A. L. Dempwolff,  M. Diedenhofen,  Hainam Do,  
 R. G. Edgar,  Po-Tung Fang,  S. Faraji,  S. Fatehi,  Qingguo Feng,  
 J. Fosso-Tande,  J. Gayvert,  Qinghui Ge,  A. Ghysels,  G. Gidofalvi,  
 J. Gomes,  J. Gonthier,  A. Gunina,  D. Hait,  M. W. D. Hanson-Heine,  
 P. H. P. Harbach,  A. W. Hauser,  M. F. Herbst,  J. E. Herr,  
 E. G. Hohenstein,  Z. C. Holden,  Kerwin Hui,  B. C. Huynh,  T.-C. Jagau,  
 Hyunjun Ji,  B. Kaduk,  K. Khistyaev,  Jaehoon Kim,  P. Klunzinger,  K. Koh,  
 D. Kosenkov,  L. Koulias,  T. Kowalczyk,  C. M. Krauter,  A. Kunitsa,  
 Ka Un Lao,  A. Laurent,  K. V. Lawler,  Joonho Lee,  D. Lefrancois,  
 S. Lehtola,  D. S. Levine,  Yi-Pei Li,  You-Sheng Lin,  Fenglai Liu,  
 Kuan-Yu Liu,  E. Livshits,  M. Loipersberger,  A. Luenser,  P. Manohar,  
 E. Mansoor,  S. F. Manzer,  Shan-Ping Mao,  Yuezhi Mao,  N. Mardirossian,  
 A. V. Marenich,  T. Markovich,  L. A. Martinez-Martinez,  S. A. Maurer,  
 N. J. Mayhall,  S. C. McKenzie,  J.-M. Mewes,  P. Morgante,  A. F. Morrison,  
 J. W. Mullinax,  K. Nanda,  T. S. Nguyen-Beck,  R. Olivares-Amaya,  
 K. J. Oosterbaan,  J. A. Parkhill,  S. K. Paul,  F. Pavosevic,  Zheng Pei,  
 T. M. Perrine,  F. Plasser,  P. Pokhilko,  S. Prager,  A. Prociuk,  
 E. Ramos,  B. Rana,  D. R. Rehn,  F. Rob,  M. Scheurer,  M. Schneider,  
 N. Sergueev,  S. M. Sharada,  S. Sharma,  D. W. Small,  T. Stauch,  
 C. J. Stein,  T. Stein,  Yu-Chuan Su,  S. P. Veccham,  Zhen Tao,  
 A. J. W. Thom,  A. Tkatchenko,  T. Tsuchimochi,  N. M. Tubman,  L. Vogt,  
 M. L. Vidal,  O. Vydrov,  M. A. Watson,  J. Wenzel,  M. de Wergifosse,  
 T. A. Wesolowski,  A. White,  J. Witte,  A. Yamada,  Jun Yang,  K. Yao,  
 S. Yeganeh,  S. R. Yost,  Zhi-Qiang You,  A. Zech,  Igor Ying Zhang,  
 Xing Zhang,  Yan Zhao,  Ying Zhu,  B. R. Brooks,  G. K. L. Chan,  
 C. J. Cramer,  M. S. Gordon,  W. J. Hehre,  A. Klamt,  M. W. Schmidt,  
 C. D. Sherrill,  D. G. Truhlar,  A. Aspuru-Guzik,  R. Baer,  A. T. Bell,  
 N. A. Besley,  Jeng-Da Chai,  A. E. DePrince, III,  R. A. DiStasio Jr.,  
 A. Dreuw,  B. D. Dunietz,  T. R. Furlani,  Chao-Ping Hsu,  Yousung Jung,  
 Jing Kong,  D. S. Lambrecht,  WanZhen Liang,  C. Ochsenfeld,  
 V. A. Rassolov,  L. V. Slipchenko,  J. E. Subotnik,  T. Van Voorhis,  
 J. M. Herbert,  A. I. Krylov,  P. M. W. Gill,  M. Head-Gordon

 Contributors to earlier versions of Q-Chem not listed above: 
 R. D. Adamson,  B. Austin,  J. Baker,  G. J. O. Beran,  K. Brandhorst,  
 S. T. Brown,  E. F. C. Byrd,  A. K. Chakraborty,  C.-L. Cheng,  
 Siu Hung Chien,  D. M. Chipman,  D. L. Crittenden,  H. Dachsel,  
 R. J. Doerksen,  A. D. Dutoi,  L. Fusti-Molnar,  W. A. Goddard III,  
 A. Golubeva-Zadorozhnaya,  S. R. Gwaltney,  G. Hawkins,  A. Heyden,  
 S. Hirata,  G. Kedziora,  F. J. Keil,  C. Kelley,  Jihan Kim,  R. A. King,  
 R. Z. Khaliullin,  P. P. Korambath,  W. Kurlancheek,  A. M. Lee,  M. S. Lee,  
 S. V. Levchenko,  Ching Yeh Lin,  D. Liotard,  R. C. Lochan,  I. Lotan,  
 P. E. Maslen,  N. Nair,  D. P. O'Neill,  D. Neuhauser,  E. Neuscamman,  
 C. M. Oana,  R. Olson,  B. Peters,  R. Peverati,  P. A. Pieniazek,  
 Y. M. Rhee,  J. Ritchie,  M. A. Rohrdanz,  E. Rosta,  N. J. Russ,  
 H. F. Schaefer III,  N. E. Schultz,  N. Shenvi,  A. C. Simmonett,  A. Sodt,  
 D. Stuck,  K. S. Thanthiriwatte,  V. Vanovschi,  Tao Wang,  A. Warshel,  
 C. F. Williams,  Q. Wu,  X. Xu,  W. Zhang

 Please cite Q-Chem as follows:
 Y. Shao et al., Mol. Phys. 113, 184-215 (2015)
 DOI: 10.1080/00268976.2014.952696

 Q-Chem 5.3.0 for Intel X86 EM64T Linux

 Parts of Q-Chem use Armadillo 9.800.1 (Horizon Scraper).
 http://arma.sourceforge.net/

 Q-Chem begins on Mon Jul 27 14:48:41 2020  

Host: centos77-c7
0

     Scratch files written to /tmp/29924.centos77-h1/qchem110388//
Processing $rem in /opt/qchem-5.3.0-intel2020u1//config/preferences:
Processing $rem in /home/shihchengli/.qchemrc:

Checking the input file for inconsistencies... 	...done.

--------------------------------------------------------------
User input:
--------------------------------------------------------------
$rem
   JOBTYPE  sp
   EXCHANGE   omegaB97X-D
   BASIS   6-311+G(2df,2pd)
   UNRESTRICTED   False
   max_scf_cycles   250
   geom_opt_max_cycles   1500
   basis2 6-31G*
   scf_algorithm rca_diis
   SYM_IGNORE  TRUE
   print_input   true
   geom_opt_dmax   80
   pop_mulliken false
   XC_GRID 000075000302
$end

$molecule
0 1
C       -5.3467451599     0.2581724011     0.0167017486
C       -4.1162148971     1.1686918097     0.1171187104
H       -5.5164480108     0.1314051636     -1.0471548495
H       -6.3188514618     0.7065081544     0.2620206020
H       -5.3493186024     -0.3708794600     0.9041145568
O       -2.9248919177     0.5136851968     -0.2422335010
H       -4.0354695768     1.4985086403     1.1545283645
H       -4.2023932430     1.9381973928     -0.6440616815
H       -2.7924771303     -0.2270692986     0.3492760500
$end
--------------------------------------------------------------
 ----------------------------------------------------------------
             Standard Nuclear Orientation (Angstroms)
    I     Atom           X                Y                Z
 ----------------------------------------------------------------
    1      C      -5.3467451599     0.2581724011     0.0167017486
    2      C      -4.1162148971     1.1686918097     0.1171187104
    3      H      -5.5164480108     0.1314051636    -1.0471548495
    4      H      -6.3188514618     0.7065081544     0.2620206020
    5      H      -5.3493186024    -0.3708794600     0.9041145568
    6      O      -2.9248919177     0.5136851968    -0.2422335010
    7      H      -4.0354695768     1.4985086403     1.1545283645
    8      H      -4.2023932430     1.9381973928    -0.6440616815
    9      H      -2.7924771303    -0.2270692986     0.3492760500
 ----------------------------------------------------------------
 Nuclear Repulsion Energy =          81.97290121 hartrees
 There are       13 alpha and       13 beta electrons
 Requested basis set is 6-311+G(2df,2pd)
 There are 60 shells and 186 basis functions

 Total QAlloc Memory Limit   2000 MB
 Mega-Array Size       188 MB
 MEM_STATIC part       192 MB

                       Distance Matrix (Angstroms)
             C (  1)   C (  2)   H (  3)   H (  4)   H (  5)   O (  6)
   C (  2)  1.534058
   H (  3)  1.084740  2.095746
   H (  4)  1.098261  2.255265  1.639675
   H (  5)  1.087757  2.123720  2.021800  1.585258
   O (  6)  2.449022  1.406207  2.740474  3.436628  2.823900
   H (  7)  2.133665  1.091567  2.984908  2.576367  2.298590  2.038186
   H (  8)  2.137436  1.085800  2.270181  2.611023  3.007345  1.955175
   H (  9)  2.621135  1.937609  3.081970  3.648903  2.620299  0.957149
             H (  7)   H (  8)
   H (  8)  1.859063
   H (  9)  2.274001  2.768206
 
 A cutoff of  1.0D-09 yielded   1784 shell pairs
 There are     17297 function pairs (     21480 Cartesian)
 Smallest overlap matrix eigenvalue = 1.47E-04

 Scale SEOQF with 1.000000e-02/1.000000e-01/1.000000e-01

 Standard Electronic Orientation quadrupole field applied
 Nucleus-field energy     =     0.0000000025 hartrees
 Requested basis set is 6-31G(d)
 There are 24 shells and 54 basis functions
 A cutoff of  1.0D-09 yielded    298 shell pairs
 There are      1549 function pairs (      1732 Cartesian)
 Smallest overlap matrix eigenvalue = 7.20E-03
 Guess from superposition of atomic densities
 Warning:  Energy on first SCF cycle will be non-variational
 SAD guess density has 26.000000 electrons
 Long-range K will be added via erf
 Coulomb attenuation parameter = 0.2 bohr**(-1)
 A restricted hybrid HF-DFT SCF calculation will be
 performed using Relaxed Constraint Minimization + Pulay DIIS
 Exchange:     0.2220 Hartree-Fock + 1.0000 wB97X-D + LR-HF
 Correlation:  1.0000 wB97X-D
 Using Euler-Maclaurin-Lebedev (75,302) quadrature formula
 Dispersion:   Grimme D
 SCF converges when DIIS error is below 1.0E-04
 using 6 threads for integral computing
 -------------------------------------------------------
 OpenMP Integral computing Module                
 Release: version 1.0, May 2013, Q-Chem Inc. Pittsburgh 
 -------------------------------------------------------
 using 6 threads for integral computing
 -------------------------------------------------------
 OpenMP Integral computing Module                
 Release: version 1.0, May 2013, Q-Chem Inc. Pittsburgh 
 -------------------------------------------------------
 ---------------------------------------
  Cycle       Energy         DIIS Error
 ---------------------------------------
    1    -155.4507599003      1.07E-01
    2    -154.8945088945      1.37E-02
    3    -154.9240580069      3.10E-03
    4    -154.9511980529      2.49E-03
    5    -154.9519732173      2.36E-04 Done RCA. Switching to DIIS
    6    -154.9528443752      1.02E-04
    7    -154.9528480502      9.14E-06 Convergence criterion met
 ---------------------------------------
 SCF time:  CPU 14.38 s  wall 2.41 s
 SCF   energy in the small basis set = -154.95284805
 Total energy in the small basis set = -154.95284805
 ----------------------------------------------------
  Cycle       Energy    
 ----------------------------------------------------
    1     -18.7511785893     -1.88E+01
 Long-range K will be added via erf
 Coulomb attenuation parameter = 0.2 bohr**(-1)
 A restricted hybrid HF-DFT SCF calculation will be
 performed using Relaxed Constraint Minimization + Pulay DIIS
 Exchange:     0.2220 Hartree-Fock + 1.0000 wB97X-D + LR-HF
 Correlation:  1.0000 wB97X-D
 Using Euler-Maclaurin-Lebedev (75,302) quadrature formula
 Dispersion:   Grimme D
 SCF converges when DIIS error is below 1.0E-05
 Basis2 calculation detected. Using small basis as guess for larger.
 SCFMinFind is unable to tell whether the solution found is close.
 Resetting ReadMinima to 0 and attempting to follow guess.
 SCFMinFind following SCF Guess.
 using 6 threads for integral computing
 -------------------------------------------------------
 OpenMP Integral computing Module                
 Release: version 1.0, May 2013, Q-Chem Inc. Pittsburgh 
 -------------------------------------------------------
 using 6 threads for integral computing
 -------------------------------------------------------
 OpenMP Integral computing Module                
 Release: version 1.0, May 2013, Q-Chem Inc. Pittsburgh 
 -------------------------------------------------------
 ---------------------------------------
  Cycle       Energy         DIIS Error
 ---------------------------------------
    1    -154.9855912896      5.72E-03
    2    -155.0012325744      2.85E-03
    3    -155.0108696377      3.48E-04 Done RCA. Switching to DIIS
    4    -155.0224388047      2.46E-04
    5    -155.0226234734      4.03E-05
    6    -155.0226321505      6.52E-06 Convergence criterion met
 ---------------------------------------
 SCF time:  CPU 38.91 s  wall 6.51 s
 SCF   energy in the final basis set = -155.02263215
 Total energy in the final basis set = -155.02263215
 
 --------------------------------------------------------------
 
                    Orbital Energies (a.u.)
 --------------------------------------------------------------
 
 Alpha MOs
 -- Occupied --
-19.2454 -10.3266 -10.2750  -1.1290  -0.8510  -0.7234  -0.6040  -0.5523
 -0.5271  -0.4867  -0.4207  -0.4126  -0.3590
 -- Virtual --
  0.0643   0.0855   0.0922   0.0980   0.1280   0.1295   0.1328   0.1758
  0.1832   0.2238   0.2317   0.2601   0.2641   0.2791   0.2971   0.3064
  0.3134   0.3331   0.3429   0.3763   0.4671   0.4779   0.4943   0.5286
  0.5585   0.5691   0.6095   0.6114   0.6317   0.6390   0.6616   0.6689
  0.6965   0.7138   0.7396   0.7954   0.8494   0.8876   0.9039   0.9340
  0.9874   1.0386   1.0713   1.1184   1.1452   1.1614   1.1827   1.1962
  1.2163   1.2612   1.2686   1.3033   1.3387   1.3612   1.3870   1.4226
  1.4488   1.4620   1.4752   1.4973   1.5035   1.5289   1.5997   1.6267
  1.6604   1.7117   1.9457   2.0321   2.1279   2.2777   2.2870   2.4500
  2.4737   2.5329   2.6066   2.6179   2.7293   2.7398   2.8278   2.8528
  2.9016   2.9553   2.9652   3.0263   3.0424   3.0583   3.0867   3.1372
  3.1437   3.1749   3.2041   3.2177   3.2390   3.2637   3.3244   3.3665
  3.4088   3.4286   3.4683   3.4987   3.5067   3.5510   3.5594   3.5880
  3.6047   3.6182   3.6764   3.6785   3.6908   3.7159   3.7511   3.7981
  3.8114   3.8362   3.9073   3.9544   3.9622   3.9822   4.0209   4.0646
  4.0795   4.1065   4.1295   4.1989   4.2163   4.2303   4.3077   4.3327
  4.3717   4.4537   4.4860   4.5290   4.5847   4.6043   4.6355   4.7400
  4.7630   4.8785   4.8874   4.8994   5.0129   5.0786   5.1093   5.1322
  5.2331   5.2660   5.3631   5.3849   5.4321   5.4623   5.5511   5.5989
  5.6430   5.6730   5.7420   5.8625   5.9414   6.0303   6.3310   6.4905
  6.5142   6.6588   6.7349   6.8360   7.1315   7.3481   7.4195   7.5666
  7.7238   8.1232  25.1901  25.3929  50.4742
 --------------------------------------------------------------
 
 -----------------------------------------------------------------
                    Cartesian Multipole Moments
 -----------------------------------------------------------------
    Charge (ESU x 10^10)
                 0.0000
    Dipole Moment (Debye)
         X      -1.2937      Y      -0.3561      Z       1.2832
       Tot       1.8567
    Quadrupole Moments (Debye-Ang)
        XX     -10.7605     XY      -0.9958     YY     -20.2039
        XZ      -3.4348     YZ      -0.7980     ZZ     -19.1213
    Octopole Moments (Debye-Ang^2)
       XXX     202.9399    XXY      -2.0193    XYY      86.1309
       YYY     -38.1443    XXZ       8.9655    XYZ       3.8170
       YYZ      -0.9339    XZZ      80.0265    YZZ     -12.1102
       ZZZ       0.5437
    Hexadecapole Moments (Debye-Ang^3)
      XXXX   -2048.2882   XXXY      90.8292   XXYY    -413.8097
      XYYY     154.6577   YYYY    -104.5578   XXXZ     -18.3253
      XXYZ     -18.6099   XYYZ       5.7239   YYYZ      -3.8297
      XXZZ    -367.4423   XYZZ      48.9982   YYZZ     -22.2774
      XZZZ       4.1807   YZZZ      -1.3451   ZZZZ     -37.1432
 -----------------------------------------------------------------
Archival summary:
1\1\centos77-c7\SP\ProcedureUnspecified\BasisUnspecified\126\shihchen\MonJul2714:48:532020MonJul2714:48:532020\0\\#,ProcedureUnspecified,BasisUnspecified,\\0,1\C\H,1,1.0858\H,1,1.09157,2,117.257\O,1,1.40621,2,102.604,3,-119.022,0\H,4,0.957149,1,108.649,2,-176.472,0\C,1,1.53406,2,108.125,3,121.653,0\H,6,1.08474,1,105.014,2,40.5276,0\H,6,1.08776,1,106.962,2,-168.508,0\H,6,1.09826,1,116.942,2,-66.0506,0\\\@

 Total job time:  11.08s(wall), 57.12s(cpu) 
 Mon Jul 27 14:48:53 2020

        *************************************************************
        *                                                           *
        *  Thank you very much for using Q-Chem.  Have a nice day.  *
        *                                                           *
        *************************************************************


