                  Welcome to Q-Chem
     A Quantum Leap Into The Future Of Chemistry


 Q-Chem 5.3 (devel), Q-Chem, Inc., Pleasanton, CA (2020)

 Yihan Shao,  Zhengting Gan,  E. Epifanovsky,  A. T. B. Gilbert,  M. Wormit,  
 J. Kussmann,  A. W. Lange,  A. Behn,  Jia Deng,  Xintian Feng,  D. Ghosh,  
 M. Goldey,  P. R. Horn,  L. D. Jacobson,  I. Kaliman,  T. Kus,  A. Landau,  
 Jie Liu,  E. I. Proynov,  R. M. Richard,  R. P. Steele,  E. J. Sundstrom,  
 H. L. Woodcock III,  P. M. Zimmerman,  D. Zuev,  B. Alam,  B. Albrecht,  
 E. Alguire,  S. A. Baeppler,  D. Barton,  Z. Benda,  Y. A. Bernard,  
 E. J. Berquist,  K. B. Bravaya,  H. Burton,  K. Carter-Fenk,  D. Casanova,  
 Chun-Min Chang,  Yunqing Chen,  A. Chien,  K. D. Closser,  M. P. Coons,  
 S. Coriani,  S. Dasgupta,  A. L. Dempwolff,  M. Diedenhofen,  Hainam Do,  
 R. G. Edgar,  Po-Tung Fang,  S. Faraji,  S. Fatehi,  Qingguo Feng,  
 J. Fosso-Tande,  J. Gayvert,  Qinghui Ge,  A. Ghysels,  G. Gidofalvi,  
 J. Gomes,  J. Gonthier,  A. Gunina,  D. Hait,  M. W. D. Hanson-Heine,  
 P. H. P. Harbach,  A. W. Hauser,  M. F. Herbst,  J. E. Herr,  
 E. G. Hohenstein,  Z. C. Holden,  Kerwin Hui,  B. C. Huynh,  T.-C. Jagau,  
 Hyunjun Ji,  B. Kaduk,  K. Khistyaev,  Jaehoon Kim,  P. Klunzinger,  K. Koh,  
 D. Kosenkov,  L. Koulias,  T. Kowalczyk,  C. M. Krauter,  A. Kunitsa,  
 Ka Un Lao,  A. Laurent,  K. V. Lawler,  Joonho Lee,  D. Lefrancois,  
 S. Lehtola,  D. S. Levine,  Yi-Pei Li,  You-Sheng Lin,  Fenglai Liu,  
 Kuan-Yu Liu,  E. Livshits,  M. Loipersberger,  A. Luenser,  P. Manohar,  
 E. Mansoor,  S. F. Manzer,  Shan-Ping Mao,  Yuezhi Mao,  N. Mardirossian,  
 A. V. Marenich,  T. Markovich,  L. A. Martinez-Martinez,  S. A. Maurer,  
 N. J. Mayhall,  S. C. McKenzie,  J.-M. Mewes,  P. Morgante,  A. F. Morrison,  
 J. W. Mullinax,  K. Nanda,  T. S. Nguyen-Beck,  R. Olivares-Amaya,  
 K. J. Oosterbaan,  J. A. Parkhill,  S. K. Paul,  F. Pavosevic,  Zheng Pei,  
 T. M. Perrine,  F. Plasser,  P. Pokhilko,  S. Prager,  A. Prociuk,  
 E. Ramos,  B. Rana,  D. R. Rehn,  F. Rob,  M. Scheurer,  M. Schneider,  
 N. Sergueev,  S. M. Sharada,  S. Sharma,  D. W. Small,  T. Stauch,  
 C. J. Stein,  T. Stein,  Yu-Chuan Su,  S. P. Veccham,  Zhen Tao,  
 A. J. W. Thom,  A. Tkatchenko,  T. Tsuchimochi,  N. M. Tubman,  L. Vogt,  
 M. L. Vidal,  O. Vydrov,  M. A. Watson,  J. Wenzel,  M. de Wergifosse,  
 T. A. Wesolowski,  A. White,  J. Witte,  A. Yamada,  Jun Yang,  K. Yao,  
 S. Yeganeh,  S. R. Yost,  Zhi-Qiang You,  A. Zech,  Igor Ying Zhang,  
 Xing Zhang,  Yan Zhao,  Ying Zhu,  B. R. Brooks,  G. K. L. Chan,  
 C. J. Cramer,  M. S. Gordon,  W. J. Hehre,  A. Klamt,  M. W. Schmidt,  
 C. D. Sherrill,  D. G. Truhlar,  A. Aspuru-Guzik,  R. Baer,  A. T. Bell,  
 N. A. Besley,  Jeng-Da Chai,  A. E. DePrince, III,  R. A. DiStasio Jr.,  
 A. Dreuw,  B. D. Dunietz,  T. R. Furlani,  Chao-Ping Hsu,  Yousung Jung,  
 Jing Kong,  D. S. Lambrecht,  WanZhen Liang,  C. Ochsenfeld,  
 V. A. Rassolov,  L. V. Slipchenko,  J. E. Subotnik,  T. Van Voorhis,  
 J. M. Herbert,  A. I. Krylov,  P. M. W. Gill,  M. Head-Gordon

 Contributors to earlier versions of Q-Chem not listed above: 
 R. D. Adamson,  B. Austin,  J. Baker,  G. J. O. Beran,  K. Brandhorst,  
 S. T. Brown,  E. F. C. Byrd,  A. K. Chakraborty,  C.-L. Cheng,  
 Siu Hung Chien,  D. M. Chipman,  D. L. Crittenden,  H. Dachsel,  
 R. J. Doerksen,  A. D. Dutoi,  L. Fusti-Molnar,  W. A. Goddard III,  
 A. Golubeva-Zadorozhnaya,  S. R. Gwaltney,  G. Hawkins,  A. Heyden,  
 S. Hirata,  G. Kedziora,  F. J. Keil,  C. Kelley,  Jihan Kim,  R. A. King,  
 R. Z. Khaliullin,  P. P. Korambath,  W. Kurlancheek,  A. M. Lee,  M. S. Lee,  
 S. V. Levchenko,  Ching Yeh Lin,  D. Liotard,  R. C. Lochan,  I. Lotan,  
 P. E. Maslen,  N. Nair,  D. P. O'Neill,  D. Neuhauser,  E. Neuscamman,  
 C. M. Oana,  R. Olson,  B. Peters,  R. Peverati,  P. A. Pieniazek,  
 Y. M. Rhee,  J. Ritchie,  M. A. Rohrdanz,  E. Rosta,  N. J. Russ,  
 H. F. Schaefer III,  N. E. Schultz,  N. Shenvi,  A. C. Simmonett,  A. Sodt,  
 D. Stuck,  K. S. Thanthiriwatte,  V. Vanovschi,  Tao Wang,  A. Warshel,  
 C. F. Williams,  Q. Wu,  X. Xu,  W. Zhang

 Please cite Q-Chem as follows:
 Y. Shao et al., Mol. Phys. 113, 184-215 (2015)
 DOI: 10.1080/00268976.2014.952696

 Q-Chem 5.3.0 for Intel X86 EM64T Linux

 Parts of Q-Chem use Armadillo 9.800.1 (Horizon Scraper).
 http://arma.sourceforge.net/

 Q-Chem begins on Mon Jul 27 14:49:16 2020  

Host: centos77-c7
0

     Scratch files written to /tmp/29924.centos77-h1/qchem110555//
Processing $rem in /opt/qchem-5.3.0-intel2020u1//config/preferences:
Processing $rem in /home/shihchengli/.qchemrc:

Checking the input file for inconsistencies... 	...done.

--------------------------------------------------------------
User input:
--------------------------------------------------------------
$rem
   JOBTYPE  sp
   EXCHANGE   omegaB97X-D
   BASIS   6-311+G(2df,2pd)
   UNRESTRICTED   False
   max_scf_cycles   250
   geom_opt_max_cycles   1500
   basis2 6-31G*
   scf_algorithm rca_diis
   SYM_IGNORE  TRUE
   print_input   true
   geom_opt_dmax   80
   pop_mulliken false
   XC_GRID 000075000302
$end

$molecule
0 1
C       -5.3867092820     0.3374410474     0.0472559692
C       -4.1441178114     1.1857864576     0.1261835493
H       -5.4807741952     -0.2291000737     -0.8830309332
H       -6.2192734879     0.9887428190     0.2975052151
H       -5.3032892877     -0.6108118407     0.5890414592
O       -2.9693686248     0.4772724291     -0.2444393735
H       -4.0351843682     1.6676512302     1.1080140498
H       -4.2129351189     2.0633240856     -0.5206953477
H       -2.8511578239     -0.2630861545     0.3504754119
$end
--------------------------------------------------------------
 ----------------------------------------------------------------
             Standard Nuclear Orientation (Angstroms)
    I     Atom           X                Y                Z
 ----------------------------------------------------------------
    1      C      -5.3867092820     0.3374410474     0.0472559692
    2      C      -4.1441178114     1.1857864576     0.1261835493
    3      H      -5.4807741952    -0.2291000737    -0.8830309332
    4      H      -6.2192734879     0.9887428190     0.2975052151
    5      H      -5.3032892877    -0.6108118407     0.5890414592
    6      O      -2.9693686248     0.4772724291    -0.2444393735
    7      H      -4.0351843682     1.6676512302     1.1080140498
    8      H      -4.2129351189     2.0633240856    -0.5206953477
    9      H      -2.8511578239    -0.2630861545     0.3504754119
 ----------------------------------------------------------------
 Nuclear Repulsion Energy =          81.92705602 hartrees
 There are       13 alpha and       13 beta electrons
 Requested basis set is 6-311+G(2df,2pd)
 There are 60 shells and 186 basis functions

 Total QAlloc Memory Limit   2000 MB
 Mega-Array Size       188 MB
 MEM_STATIC part       192 MB

                       Distance Matrix (Angstroms)
             C (  1)   C (  2)   H (  3)   H (  4)   H (  5)   O (  6)
   C (  2)  1.506636
   H (  3)  1.093275  2.192503
   H (  4)  1.086270  2.091518  1.849916
   H (  5)  1.095296  2.187620  1.531079  1.866171
   O (  6)  2.438888  1.421052  2.685874  3.334245  2.706622
   H (  7)  2.172852  1.099114  3.106711  2.426538  2.658725  2.093345
   H (  8)  2.163097  1.092365  2.644600  2.418589  3.093766  2.034290
   H (  9)  2.623280  1.954811  2.904750  3.593617  2.488127  0.957094
             H (  7)   H (  8)
   H (  8)  1.685481
   H (  9)  2.388207  2.832942
 
 A cutoff of  1.0D-09 yielded   1786 shell pairs
 There are     17312 function pairs (     21497 Cartesian)
 Smallest overlap matrix eigenvalue = 1.34E-04

 Scale SEOQF with 1.000000e-02/1.000000e-01/1.000000e-01

 Standard Electronic Orientation quadrupole field applied
 Nucleus-field energy     =     0.0000000028 hartrees
 Requested basis set is 6-31G(d)
 There are 24 shells and 54 basis functions
 A cutoff of  1.0D-09 yielded    298 shell pairs
 There are      1549 function pairs (      1732 Cartesian)
 Smallest overlap matrix eigenvalue = 7.27E-03
 Guess from superposition of atomic densities
 Warning:  Energy on first SCF cycle will be non-variational
 SAD guess density has 26.000000 electrons
 Long-range K will be added via erf
 Coulomb attenuation parameter = 0.2 bohr**(-1)
 A restricted hybrid HF-DFT SCF calculation will be
 performed using Relaxed Constraint Minimization + Pulay DIIS
 Exchange:     0.2220 Hartree-Fock + 1.0000 wB97X-D + LR-HF
 Correlation:  1.0000 wB97X-D
 Using Euler-Maclaurin-Lebedev (75,302) quadrature formula
 Dispersion:   Grimme D
 SCF converges when DIIS error is below 1.0E-04
 using 6 threads for integral computing
 -------------------------------------------------------
 OpenMP Integral computing Module                
 Release: version 1.0, May 2013, Q-Chem Inc. Pittsburgh 
 -------------------------------------------------------
 using 6 threads for integral computing
 -------------------------------------------------------
 OpenMP Integral computing Module                
 Release: version 1.0, May 2013, Q-Chem Inc. Pittsburgh 
 -------------------------------------------------------
 ---------------------------------------
  Cycle       Energy         DIIS Error
 ---------------------------------------
    1    -155.4400719818      1.06E-01
    2    -154.9120094133      1.36E-02
    3    -154.9406301229      3.07E-03
    4    -154.9669681257      2.45E-03
    5    -154.9677198980      2.30E-04 Done RCA. Switching to DIIS
    6    -154.9685653679      1.08E-04
    7    -154.9685689738      8.49E-06 Convergence criterion met
 ---------------------------------------
 SCF time:  CPU 14.28 s  wall 2.40 s
 SCF   energy in the small basis set = -154.96856897
 Total energy in the small basis set = -154.96856897
 ----------------------------------------------------
  Cycle       Energy    
 ----------------------------------------------------
    1     -18.7470745692     -1.87E+01
 Long-range K will be added via erf
 Coulomb attenuation parameter = 0.2 bohr**(-1)
 A restricted hybrid HF-DFT SCF calculation will be
 performed using Relaxed Constraint Minimization + Pulay DIIS
 Exchange:     0.2220 Hartree-Fock + 1.0000 wB97X-D + LR-HF
 Correlation:  1.0000 wB97X-D
 Using Euler-Maclaurin-Lebedev (75,302) quadrature formula
 Dispersion:   Grimme D
 SCF converges when DIIS error is below 1.0E-05
 Basis2 calculation detected. Using small basis as guess for larger.
 SCFMinFind is unable to tell whether the solution found is close.
 Resetting ReadMinima to 0 and attempting to follow guess.
 SCFMinFind following SCF Guess.
 using 6 threads for integral computing
 -------------------------------------------------------
 OpenMP Integral computing Module                
 Release: version 1.0, May 2013, Q-Chem Inc. Pittsburgh 
 -------------------------------------------------------
 using 6 threads for integral computing
 -------------------------------------------------------
 OpenMP Integral computing Module                
 Release: version 1.0, May 2013, Q-Chem Inc. Pittsburgh 
 -------------------------------------------------------
 ---------------------------------------
  Cycle       Energy         DIIS Error
 ---------------------------------------
    1    -155.0006781857      5.72E-03
    2    -155.0159780601      2.87E-03
    3    -155.0257375822      3.51E-04 Done RCA. Switching to DIIS
    4    -155.0374623121      2.55E-04
    5    -155.0376568432      4.02E-05
    6    -155.0376650017      5.61E-06 Convergence criterion met
 ---------------------------------------
 SCF time:  CPU 39.25 s  wall 6.57 s
 SCF   energy in the final basis set = -155.03766500
 Total energy in the final basis set = -155.03766500
 
 --------------------------------------------------------------
 
                    Orbital Energies (a.u.)
 --------------------------------------------------------------
 
 Alpha MOs
 -- Occupied --
-19.2469 -10.3285 -10.2753  -1.1244  -0.8528  -0.7274  -0.5984  -0.5465
 -0.5169  -0.4934  -0.4433  -0.4003  -0.3634
 -- Virtual --
  0.0654   0.0844   0.0882   0.1047   0.1222   0.1365   0.1384   0.1824
  0.1987   0.2124   0.2359   0.2450   0.2625   0.2681   0.2934   0.3062
  0.3193   0.3256   0.3447   0.3932   0.4571   0.5032   0.5118   0.5211
  0.5630   0.5782   0.5806   0.6041   0.6095   0.6396   0.6520   0.6777
  0.6952   0.7133   0.7432   0.8082   0.8422   0.9021   0.9278   0.9445
  0.9808   1.0489   1.0662   1.0861   1.1505   1.1778   1.1867   1.2121
  1.2341   1.2411   1.2858   1.3023   1.3365   1.3617   1.3762   1.4123
  1.4431   1.4532   1.4800   1.4901   1.5089   1.5272   1.5823   1.6258
  1.6437   1.7181   1.9398   2.1096   2.1165   2.2784   2.2901   2.4611
  2.4774   2.5090   2.5360   2.5745   2.6981   2.8015   2.8330   2.8598
  2.9306   2.9745   2.9879   3.0090   3.0369   3.0516   3.0677   3.0754
  3.1034   3.1893   3.2005   3.2434   3.2730   3.2938   3.3387   3.3532
  3.3795   3.4116   3.4631   3.4686   3.4968   3.5413   3.5620   3.5688
  3.5842   3.6185   3.6555   3.6739   3.7288   3.7410   3.7796   3.8338
  3.8716   3.8875   3.9075   3.9617   3.9854   4.0032   4.0109   4.0649
  4.0877   4.1184   4.1319   4.2109   4.2287   4.2554   4.2703   4.3384
  4.3635   4.4230   4.4616   4.4927   4.5536   4.6373   4.7166   4.7571
  4.8277   4.8761   4.9050   4.9861   5.0328   5.0757   5.1144   5.1391
  5.2185   5.3034   5.3308   5.3357   5.3708   5.4199   5.4736   5.5147
  5.5718   5.6282   5.6848   5.8590   5.9387   6.0537   6.3243   6.3715
  6.4086   6.6550   6.6983   6.8156   7.1259   7.3530   7.4309   7.5484
  7.7302   8.1084  25.1560  25.4385  50.4630
 --------------------------------------------------------------
 
 -----------------------------------------------------------------
                    Cartesian Multipole Moments
 -----------------------------------------------------------------
    Charge (ESU x 10^10)
                 0.0000
    Dipole Moment (Debye)
         X      -1.1313      Y      -0.4456      Z       1.2197
       Tot       1.7222
    Quadrupole Moments (Debye-Ang)
        XX     -12.6270     XY      -0.4175     YY     -18.0945
        XZ      -3.1857     YZ       0.0875     ZZ     -20.6748
    Octopole Moments (Debye-Ang^2)
       XXX     220.7186    XXY      -4.8462    XYY      76.2458
       YYY     -36.2597    XXZ       7.7051    XYZ      -0.9355
       YYZ      -0.1546    XZZ      88.7278    YZZ     -13.1309
       ZZZ      -0.3000
    Hexadecapole Moments (Debye-Ang^3)
      XXXX   -2197.1854   XXXY     104.4023   XXYY    -364.9353
      XYYY     148.6212   YYYY    -105.2950   XXXZ     -11.2845
      XXYZ       6.6089   XYYZ       2.1350   YYYZ      -3.9868
      XXZZ    -414.1698   XYZZ      54.6726   YYZZ     -23.2853
      XZZZ       7.9496   YZZZ      -2.0650   ZZZZ     -36.9661
 -----------------------------------------------------------------
Archival summary:
1\1\centos77-c7\SP\ProcedureUnspecified\BasisUnspecified\126\shihchen\MonJul2714:49:272020MonJul2714:49:272020\0\\#,ProcedureUnspecified,BasisUnspecified,\\0,1\C\H,1,1.09236\H,1,1.09911,2,100.547\O,1,1.42105,2,107.347,3,-116.876,0\H,4,0.957094,1,109.006,2,175.919,0\C,1,1.50664,2,111.676,3,119.006,0\H,6,1.08627,1,106.406,2,-56.05,0\H,6,1.09328,1,114.037,2,73.329,0\H,6,1.0953,1,113.5,2,173.038,0\\\@

 Total job time:  11.11s(wall), 57.36s(cpu) 
 Mon Jul 27 14:49:27 2020

        *************************************************************
        *                                                           *
        *  Thank you very much for using Q-Chem.  Have a nice day.  *
        *                                                           *
        *************************************************************


