                  Welcome to Q-Chem
     A Quantum Leap Into The Future Of Chemistry


 Q-Chem 5.3 (devel), Q-Chem, Inc., Pleasanton, CA (2020)

 Yihan Shao,  Zhengting Gan,  E. Epifanovsky,  A. T. B. Gilbert,  M. Wormit,  
 J. Kussmann,  A. W. Lange,  A. Behn,  Jia Deng,  Xintian Feng,  D. Ghosh,  
 M. Goldey,  P. R. Horn,  L. D. Jacobson,  I. Kaliman,  T. Kus,  A. Landau,  
 Jie Liu,  E. I. Proynov,  R. M. Richard,  R. P. Steele,  E. J. Sundstrom,  
 H. L. Woodcock III,  P. M. Zimmerman,  D. Zuev,  B. Alam,  B. Albrecht,  
 E. Alguire,  S. A. Baeppler,  D. Barton,  Z. Benda,  Y. A. Bernard,  
 E. J. Berquist,  K. B. Bravaya,  H. Burton,  K. Carter-Fenk,  D. Casanova,  
 Chun-Min Chang,  Yunqing Chen,  A. Chien,  K. D. Closser,  M. P. Coons,  
 S. Coriani,  S. Dasgupta,  A. L. Dempwolff,  M. Diedenhofen,  Hainam Do,  
 R. G. Edgar,  Po-Tung Fang,  S. Faraji,  S. Fatehi,  Qingguo Feng,  
 J. Fosso-Tande,  J. Gayvert,  Qinghui Ge,  A. Ghysels,  G. Gidofalvi,  
 J. Gomes,  J. Gonthier,  A. Gunina,  D. Hait,  M. W. D. Hanson-Heine,  
 P. H. P. Harbach,  A. W. Hauser,  M. F. Herbst,  J. E. Herr,  
 E. G. Hohenstein,  Z. C. Holden,  Kerwin Hui,  B. C. Huynh,  T.-C. Jagau,  
 Hyunjun Ji,  B. Kaduk,  K. Khistyaev,  Jaehoon Kim,  P. Klunzinger,  K. Koh,  
 D. Kosenkov,  L. Koulias,  T. Kowalczyk,  C. M. Krauter,  A. Kunitsa,  
 Ka Un Lao,  A. Laurent,  K. V. Lawler,  Joonho Lee,  D. Lefrancois,  
 S. Lehtola,  D. S. Levine,  Yi-Pei Li,  You-Sheng Lin,  Fenglai Liu,  
 Kuan-Yu Liu,  E. Livshits,  M. Loipersberger,  A. Luenser,  P. Manohar,  
 E. Mansoor,  S. F. Manzer,  Shan-Ping Mao,  Yuezhi Mao,  N. Mardirossian,  
 A. V. Marenich,  T. Markovich,  L. A. Martinez-Martinez,  S. A. Maurer,  
 N. J. Mayhall,  S. C. McKenzie,  J.-M. Mewes,  P. Morgante,  A. F. Morrison,  
 J. W. Mullinax,  K. Nanda,  T. S. Nguyen-Beck,  R. Olivares-Amaya,  
 K. J. Oosterbaan,  J. A. Parkhill,  S. K. Paul,  F. Pavosevic,  Zheng Pei,  
 T. M. Perrine,  F. Plasser,  P. Pokhilko,  S. Prager,  A. Prociuk,  
 E. Ramos,  B. Rana,  D. R. Rehn,  F. Rob,  M. Scheurer,  M. Schneider,  
 N. Sergueev,  S. M. Sharada,  S. Sharma,  D. W. Small,  T. Stauch,  
 C. J. Stein,  T. Stein,  Yu-Chuan Su,  S. P. Veccham,  Zhen Tao,  
 A. J. W. Thom,  A. Tkatchenko,  T. Tsuchimochi,  N. M. Tubman,  L. Vogt,  
 M. L. Vidal,  O. Vydrov,  M. A. Watson,  J. Wenzel,  M. de Wergifosse,  
 T. A. Wesolowski,  A. White,  J. Witte,  A. Yamada,  Jun Yang,  K. Yao,  
 S. Yeganeh,  S. R. Yost,  Zhi-Qiang You,  A. Zech,  Igor Ying Zhang,  
 Xing Zhang,  Yan Zhao,  Ying Zhu,  B. R. Brooks,  G. K. L. Chan,  
 C. J. Cramer,  M. S. Gordon,  W. J. Hehre,  A. Klamt,  M. W. Schmidt,  
 C. D. Sherrill,  D. G. Truhlar,  A. Aspuru-Guzik,  R. Baer,  A. T. Bell,  
 N. A. Besley,  Jeng-Da Chai,  A. E. DePrince, III,  R. A. DiStasio Jr.,  
 A. Dreuw,  B. D. Dunietz,  T. R. Furlani,  Chao-Ping Hsu,  Yousung Jung,  
 Jing Kong,  D. S. Lambrecht,  WanZhen Liang,  C. Ochsenfeld,  
 V. A. Rassolov,  L. V. Slipchenko,  J. E. Subotnik,  T. Van Voorhis,  
 J. M. Herbert,  A. I. Krylov,  P. M. W. Gill,  M. Head-Gordon

 Contributors to earlier versions of Q-Chem not listed above: 
 R. D. Adamson,  B. Austin,  J. Baker,  G. J. O. Beran,  K. Brandhorst,  
 S. T. Brown,  E. F. C. Byrd,  A. K. Chakraborty,  C.-L. Cheng,  
 Siu Hung Chien,  D. M. Chipman,  D. L. Crittenden,  H. Dachsel,  
 R. J. Doerksen,  A. D. Dutoi,  L. Fusti-Molnar,  W. A. Goddard III,  
 A. Golubeva-Zadorozhnaya,  S. R. Gwaltney,  G. Hawkins,  A. Heyden,  
 S. Hirata,  G. Kedziora,  F. J. Keil,  C. Kelley,  Jihan Kim,  R. A. King,  
 R. Z. Khaliullin,  P. P. Korambath,  W. Kurlancheek,  A. M. Lee,  M. S. Lee,  
 S. V. Levchenko,  Ching Yeh Lin,  D. Liotard,  R. C. Lochan,  I. Lotan,  
 P. E. Maslen,  N. Nair,  D. P. O'Neill,  D. Neuhauser,  E. Neuscamman,  
 C. M. Oana,  R. Olson,  B. Peters,  R. Peverati,  P. A. Pieniazek,  
 Y. M. Rhee,  J. Ritchie,  M. A. Rohrdanz,  E. Rosta,  N. J. Russ,  
 H. F. Schaefer III,  N. E. Schultz,  N. Shenvi,  A. C. Simmonett,  A. Sodt,  
 D. Stuck,  K. S. Thanthiriwatte,  V. Vanovschi,  Tao Wang,  A. Warshel,  
 C. F. Williams,  Q. Wu,  X. Xu,  W. Zhang

 Please cite Q-Chem as follows:
 Y. Shao et al., Mol. Phys. 113, 184-215 (2015)
 DOI: 10.1080/00268976.2014.952696

 Q-Chem 5.3.0 for Intel X86 EM64T Linux

 Parts of Q-Chem use Armadillo 9.800.1 (Horizon Scraper).
 http://arma.sourceforge.net/

 Q-Chem begins on Mon Jul 27 14:56:37 2020  

Host: centos77-c7
0

     Scratch files written to /tmp/29924.centos77-h1/qchem112322//
Processing $rem in /opt/qchem-5.3.0-intel2020u1//config/preferences:
Processing $rem in /home/shihchengli/.qchemrc:

Checking the input file for inconsistencies... 	...done.

--------------------------------------------------------------
User input:
--------------------------------------------------------------
$rem
   JOBTYPE  sp
   EXCHANGE   omegaB97X-D
   BASIS   6-311+G(2df,2pd)
   UNRESTRICTED   False
   max_scf_cycles   250
   geom_opt_max_cycles   1500
   basis2 6-31G*
   scf_algorithm rca_diis
   SYM_IGNORE  TRUE
   print_input   true
   geom_opt_dmax   80
   pop_mulliken false
   XC_GRID 000075000302
$end

$molecule
0 1
C       -5.3509380842     0.2709970284     0.0484589349
C       -4.1237726256     1.1533437393     0.1433089349
H       -5.4713985703     -0.1133874345     -0.9537017429
H       -6.3582447873     0.9181495734     0.3290677454
H       -5.2977587436     -0.4803668991     0.6722182726
O       -2.9403788342     0.4790155964     -0.2328191140
H       -4.0335767871     1.5693018737     1.1278400290
H       -4.2135331829     2.0826271564     -0.6255620766
H       -2.8132083847     -0.2624606342     0.3614990168
$end
--------------------------------------------------------------
 ----------------------------------------------------------------
             Standard Nuclear Orientation (Angstroms)
    I     Atom           X                Y                Z
 ----------------------------------------------------------------
    1      C      -5.3509380842     0.2709970284     0.0484589349
    2      C      -4.1237726256     1.1533437393     0.1433089349
    3      H      -5.4713985703    -0.1133874345    -0.9537017429
    4      H      -6.3582447873     0.9181495734     0.3290677454
    5      H      -5.2977587436    -0.4803668991     0.6722182726
    6      O      -2.9403788342     0.4790155964    -0.2328191140
    7      H      -4.0335767871     1.5693018737     1.1278400290
    8      H      -4.2135331829     2.0826271564    -0.6255620766
    9      H      -2.8132083847    -0.2624606342     0.3614990168
 ----------------------------------------------------------------
 Nuclear Repulsion Energy =          81.64939124 hartrees
 There are       13 alpha and       13 beta electrons
 Requested basis set is 6-311+G(2df,2pd)
 There are 60 shells and 186 basis functions

 Total QAlloc Memory Limit   2000 MB
 Mega-Array Size       188 MB
 MEM_STATIC part       192 MB

                       Distance Matrix (Angstroms)
             C (  1)   C (  2)   H (  3)   H (  4)   H (  5)   O (  6)
   C (  2)  1.514420
   H (  3)  1.080087  2.150380
   H (  4)  1.229721  2.254482  1.869776
   H (  5)  0.977983  2.080144  1.675840  1.788360
   O (  6)  2.435813  1.413015  2.697531  3.491470  2.701249
   H (  7)  2.141518  1.072594  3.038353  2.542856  2.450896  2.057960
   H (  8)  2.242766  1.209457  2.551937  2.620518  3.070622  2.084883
   H (  9)  2.612019  1.941568  2.969503  3.736599  2.513368  0.958735
             H (  7)   H (  8)
   H (  8)  1.835839
   H (  9)  2.330650  2.904244
 
 A cutoff of  1.0D-09 yielded   1787 shell pairs
 There are     17308 function pairs (     21494 Cartesian)
 Smallest overlap matrix eigenvalue = 1.33E-04

 Scale SEOQF with 1.000000e-02/1.000000e-01/1.000000e-01

 Standard Electronic Orientation quadrupole field applied
 Nucleus-field energy     =     0.0000000026 hartrees
 Requested basis set is 6-31G(d)
 There are 24 shells and 54 basis functions
 A cutoff of  1.0D-09 yielded    298 shell pairs
 There are      1549 function pairs (      1732 Cartesian)
 Smallest overlap matrix eigenvalue = 7.37E-03
 Guess from superposition of atomic densities
 Warning:  Energy on first SCF cycle will be non-variational
 SAD guess density has 26.000000 electrons
 Long-range K will be added via erf
 Coulomb attenuation parameter = 0.2 bohr**(-1)
 A restricted hybrid HF-DFT SCF calculation will be
 performed using Relaxed Constraint Minimization + Pulay DIIS
 Exchange:     0.2220 Hartree-Fock + 1.0000 wB97X-D + LR-HF
 Correlation:  1.0000 wB97X-D
 Using Euler-Maclaurin-Lebedev (75,302) quadrature formula
 Dispersion:   Grimme D
 SCF converges when DIIS error is below 1.0E-04
 using 6 threads for integral computing
 -------------------------------------------------------
 OpenMP Integral computing Module                
 Release: version 1.0, May 2013, Q-Chem Inc. Pittsburgh 
 -------------------------------------------------------
 using 6 threads for integral computing
 -------------------------------------------------------
 OpenMP Integral computing Module                
 Release: version 1.0, May 2013, Q-Chem Inc. Pittsburgh 
 -------------------------------------------------------
 ---------------------------------------
  Cycle       Energy         DIIS Error
 ---------------------------------------
    1    -155.3762405819      1.05E-01
    2    -154.8981172133      1.37E-02
    3    -154.9273231970      3.03E-03
    4    -154.9546784083      2.36E-03
    5    -154.9553738156      2.32E-04 Done RCA. Switching to DIIS
    6    -154.9561566868      9.84E-05 Convergence criterion met
 ---------------------------------------
 SCF time:  CPU 13.04 s  wall 2.19 s
 SCF   energy in the small basis set = -154.95615669
 Total energy in the small basis set = -154.95615669
 ----------------------------------------------------
  Cycle       Energy    
 ----------------------------------------------------
    1     -18.7259648758     -1.87E+01
 Long-range K will be added via erf
 Coulomb attenuation parameter = 0.2 bohr**(-1)
 A restricted hybrid HF-DFT SCF calculation will be
 performed using Relaxed Constraint Minimization + Pulay DIIS
 Exchange:     0.2220 Hartree-Fock + 1.0000 wB97X-D + LR-HF
 Correlation:  1.0000 wB97X-D
 Using Euler-Maclaurin-Lebedev (75,302) quadrature formula
 Dispersion:   Grimme D
 SCF converges when DIIS error is below 1.0E-05
 Basis2 calculation detected. Using small basis as guess for larger.
 SCFMinFind is unable to tell whether the solution found is close.
 Resetting ReadMinima to 0 and attempting to follow guess.
 SCFMinFind following SCF Guess.
 using 6 threads for integral computing
 -------------------------------------------------------
 OpenMP Integral computing Module                
 Release: version 1.0, May 2013, Q-Chem Inc. Pittsburgh 
 -------------------------------------------------------
 using 6 threads for integral computing
 -------------------------------------------------------
 OpenMP Integral computing Module                
 Release: version 1.0, May 2013, Q-Chem Inc. Pittsburgh 
 -------------------------------------------------------
 ---------------------------------------
  Cycle       Energy         DIIS Error
 ---------------------------------------
    1    -154.9879571771      5.72E-03
    2    -155.0031338632      2.87E-03
    3    -155.0128920753      3.51E-04 Done RCA. Switching to DIIS
    4    -155.0246406275      2.60E-04
    5    -155.0248414557      4.07E-05
    6    -155.0248498966      6.20E-06 Convergence criterion met
 ---------------------------------------
 SCF time:  CPU 38.95 s  wall 6.51 s
 SCF   energy in the final basis set = -155.02484990
 Total energy in the final basis set = -155.02484990
 
 --------------------------------------------------------------
 
                    Orbital Energies (a.u.)
 --------------------------------------------------------------
 
 Alpha MOs
 -- Occupied --
-19.2494 -10.3369 -10.2750  -1.1293  -0.8503  -0.7207  -0.6009  -0.5444
 -0.5207  -0.4735  -0.4489  -0.4069  -0.3652
 -- Virtual --
  0.0627   0.0876   0.0891   0.1017   0.1263   0.1325   0.1366   0.1735
  0.1898   0.2198   0.2219   0.2452   0.2594   0.2873   0.2896   0.3081
  0.3183   0.3262   0.3424   0.3799   0.4527   0.4970   0.5014   0.5179
  0.5567   0.5658   0.5839   0.6067   0.6129   0.6347   0.6568   0.6759
  0.6880   0.7199   0.7428   0.8050   0.8439   0.8983   0.9233   0.9491
  0.9817   1.0446   1.0488   1.0987   1.1421   1.1626   1.1785   1.2091
  1.2312   1.2365   1.2678   1.2970   1.3170   1.3447   1.3752   1.3925
  1.4367   1.4473   1.4555   1.4838   1.5051   1.5428   1.5643   1.6276
  1.6891   1.7185   1.9297   2.0434   2.1068   2.2786   2.2882   2.4073
  2.5029   2.5337   2.5567   2.6042   2.7219   2.8210   2.8431   2.8682
  2.9007   2.9630   2.9824   3.0033   3.0262   3.0456   3.0671   3.0697
  3.0981   3.1397   3.2172   3.2510   3.2625   3.2801   3.2928   3.3310
  3.3323   3.3606   3.3998   3.4195   3.4796   3.5100   3.5575   3.5665
  3.5924   3.6212   3.6484   3.7028   3.7231   3.7538   3.7795   3.8255
  3.8920   3.9037   3.9308   3.9445   3.9854   3.9994   4.0234   4.0542
  4.0667   4.1156   4.1373   4.1613   4.1872   4.2227   4.2770   4.3233
  4.3497   4.3613   4.4207   4.4730   4.4940   4.6205   4.6575   4.7175
  4.7651   4.8222   4.8591   4.9100   4.9225   4.9813   5.0599   5.1633
  5.2147   5.2461   5.2720   5.3041   5.4124   5.4657   5.4892   5.5375
  5.5541   5.6313   5.6952   5.7584   5.8979   6.0438   6.2206   6.2830
  6.5281   6.6442   6.6889   6.7972   7.1239   7.3494   7.4219   7.5557
  7.7097   8.1039  25.0346  25.3702  50.4620
 --------------------------------------------------------------
 
 -----------------------------------------------------------------
                    Cartesian Multipole Moments
 -----------------------------------------------------------------
    Charge (ESU x 10^10)
                 0.0000
    Dipole Moment (Debye)
         X      -1.0555      Y      -0.6163      Z       1.3247
       Tot       1.8024
    Quadrupole Moments (Debye-Ang)
        XX     -13.3004     XY       0.3760     YY     -19.2924
        XZ      -3.6160     YZ      -0.2122     ZZ     -19.9313
    Octopole Moments (Debye-Ang^2)
       XXX     224.2611    XXY      -8.7694    XYY      81.8223
       YYY     -37.6411    XXZ       9.5290    XYZ       0.6483
       YYZ      -0.4151    XZZ      84.7234    YZZ     -12.7306
       ZZZ      -0.3146
    Hexadecapole Moments (Debye-Ang^3)
      XXXX   -2211.3099   XXXY     124.0570   XXYY    -392.4644
      XYYY     154.6159   YYYY    -106.7743   XXXZ     -19.1602
      XXYZ      -1.6797   XYYZ       3.3233   YYYZ      -4.1232
      XXZZ    -393.6722   XYZZ      52.8841   YYZZ     -22.6158
      XZZZ       8.3536   YZZZ      -1.6231   ZZZZ     -36.5846
 -----------------------------------------------------------------
Archival summary:
1\1\centos77-c7\SP\ProcedureUnspecified\BasisUnspecified\126\shihchen\MonJul2714:56:482020MonJul2714:56:482020\0\\#,ProcedureUnspecified,BasisUnspecified,\\0,1\C\H,1,1.07259\H,1,1.20946,2,106.965\O,1,1.41302,2,111.037,3,114.088,0\H,4,0.958735,1,108.371,2,63.6348,0\C,1,1.51442,2,110.584,3,-120.191,0\H,6,0.977983,1,111.322,2,-61.2167,0\H,6,1.08009,1,110.845,2,177.365,0\H,6,1.22972,1,110.051,2,58.0631,0\\\@

 Total job time:  10.84s(wall), 55.75s(cpu) 
 Mon Jul 27 14:56:48 2020

        *************************************************************
        *                                                           *
        *  Thank you very much for using Q-Chem.  Have a nice day.  *
        *                                                           *
        *************************************************************


