                  Welcome to Q-Chem
     A Quantum Leap Into The Future Of Chemistry


 Q-Chem 5.3 (devel), Q-Chem, Inc., Pleasanton, CA (2020)

 Yihan Shao,  Zhengting Gan,  E. Epifanovsky,  A. T. B. Gilbert,  M. Wormit,  
 J. Kussmann,  A. W. Lange,  A. Behn,  Jia Deng,  Xintian Feng,  D. Ghosh,  
 M. Goldey,  P. R. Horn,  L. D. Jacobson,  I. Kaliman,  T. Kus,  A. Landau,  
 Jie Liu,  E. I. Proynov,  R. M. Richard,  R. P. Steele,  E. J. Sundstrom,  
 H. L. Woodcock III,  P. M. Zimmerman,  D. Zuev,  B. Alam,  B. Albrecht,  
 E. Alguire,  S. A. Baeppler,  D. Barton,  Z. Benda,  Y. A. Bernard,  
 E. J. Berquist,  K. B. Bravaya,  H. Burton,  K. Carter-Fenk,  D. Casanova,  
 Chun-Min Chang,  Yunqing Chen,  A. Chien,  K. D. Closser,  M. P. Coons,  
 S. Coriani,  S. Dasgupta,  A. L. Dempwolff,  M. Diedenhofen,  Hainam Do,  
 R. G. Edgar,  Po-Tung Fang,  S. Faraji,  S. Fatehi,  Qingguo Feng,  
 J. Fosso-Tande,  J. Gayvert,  Qinghui Ge,  A. Ghysels,  G. Gidofalvi,  
 J. Gomes,  J. Gonthier,  A. Gunina,  D. Hait,  M. W. D. Hanson-Heine,  
 P. H. P. Harbach,  A. W. Hauser,  M. F. Herbst,  J. E. Herr,  
 E. G. Hohenstein,  Z. C. Holden,  Kerwin Hui,  B. C. Huynh,  T.-C. Jagau,  
 Hyunjun Ji,  B. Kaduk,  K. Khistyaev,  Jaehoon Kim,  P. Klunzinger,  K. Koh,  
 D. Kosenkov,  L. Koulias,  T. Kowalczyk,  C. M. Krauter,  A. Kunitsa,  
 Ka Un Lao,  A. Laurent,  K. V. Lawler,  Joonho Lee,  D. Lefrancois,  
 S. Lehtola,  D. S. Levine,  Yi-Pei Li,  You-Sheng Lin,  Fenglai Liu,  
 Kuan-Yu Liu,  E. Livshits,  M. Loipersberger,  A. Luenser,  P. Manohar,  
 E. Mansoor,  S. F. Manzer,  Shan-Ping Mao,  Yuezhi Mao,  N. Mardirossian,  
 A. V. Marenich,  T. Markovich,  L. A. Martinez-Martinez,  S. A. Maurer,  
 N. J. Mayhall,  S. C. McKenzie,  J.-M. Mewes,  P. Morgante,  A. F. Morrison,  
 J. W. Mullinax,  K. Nanda,  T. S. Nguyen-Beck,  R. Olivares-Amaya,  
 K. J. Oosterbaan,  J. A. Parkhill,  S. K. Paul,  F. Pavosevic,  Zheng Pei,  
 T. M. Perrine,  F. Plasser,  P. Pokhilko,  S. Prager,  A. Prociuk,  
 E. Ramos,  B. Rana,  D. R. Rehn,  F. Rob,  M. Scheurer,  M. Schneider,  
 N. Sergueev,  S. M. Sharada,  S. Sharma,  D. W. Small,  T. Stauch,  
 C. J. Stein,  T. Stein,  Yu-Chuan Su,  S. P. Veccham,  Zhen Tao,  
 A. J. W. Thom,  A. Tkatchenko,  T. Tsuchimochi,  N. M. Tubman,  L. Vogt,  
 M. L. Vidal,  O. Vydrov,  M. A. Watson,  J. Wenzel,  M. de Wergifosse,  
 T. A. Wesolowski,  A. White,  J. Witte,  A. Yamada,  Jun Yang,  K. Yao,  
 S. Yeganeh,  S. R. Yost,  Zhi-Qiang You,  A. Zech,  Igor Ying Zhang,  
 Xing Zhang,  Yan Zhao,  Ying Zhu,  B. R. Brooks,  G. K. L. Chan,  
 C. J. Cramer,  M. S. Gordon,  W. J. Hehre,  A. Klamt,  M. W. Schmidt,  
 C. D. Sherrill,  D. G. Truhlar,  A. Aspuru-Guzik,  R. Baer,  A. T. Bell,  
 N. A. Besley,  Jeng-Da Chai,  A. E. DePrince, III,  R. A. DiStasio Jr.,  
 A. Dreuw,  B. D. Dunietz,  T. R. Furlani,  Chao-Ping Hsu,  Yousung Jung,  
 Jing Kong,  D. S. Lambrecht,  WanZhen Liang,  C. Ochsenfeld,  
 V. A. Rassolov,  L. V. Slipchenko,  J. E. Subotnik,  T. Van Voorhis,  
 J. M. Herbert,  A. I. Krylov,  P. M. W. Gill,  M. Head-Gordon

 Contributors to earlier versions of Q-Chem not listed above: 
 R. D. Adamson,  B. Austin,  J. Baker,  G. J. O. Beran,  K. Brandhorst,  
 S. T. Brown,  E. F. C. Byrd,  A. K. Chakraborty,  C.-L. Cheng,  
 Siu Hung Chien,  D. M. Chipman,  D. L. Crittenden,  H. Dachsel,  
 R. J. Doerksen,  A. D. Dutoi,  L. Fusti-Molnar,  W. A. Goddard III,  
 A. Golubeva-Zadorozhnaya,  S. R. Gwaltney,  G. Hawkins,  A. Heyden,  
 S. Hirata,  G. Kedziora,  F. J. Keil,  C. Kelley,  Jihan Kim,  R. A. King,  
 R. Z. Khaliullin,  P. P. Korambath,  W. Kurlancheek,  A. M. Lee,  M. S. Lee,  
 S. V. Levchenko,  Ching Yeh Lin,  D. Liotard,  R. C. Lochan,  I. Lotan,  
 P. E. Maslen,  N. Nair,  D. P. O'Neill,  D. Neuhauser,  E. Neuscamman,  
 C. M. Oana,  R. Olson,  B. Peters,  R. Peverati,  P. A. Pieniazek,  
 Y. M. Rhee,  J. Ritchie,  M. A. Rohrdanz,  E. Rosta,  N. J. Russ,  
 H. F. Schaefer III,  N. E. Schultz,  N. Shenvi,  A. C. Simmonett,  A. Sodt,  
 D. Stuck,  K. S. Thanthiriwatte,  V. Vanovschi,  Tao Wang,  A. Warshel,  
 C. F. Williams,  Q. Wu,  X. Xu,  W. Zhang

 Please cite Q-Chem as follows:
 Y. Shao et al., Mol. Phys. 113, 184-215 (2015)
 DOI: 10.1080/00268976.2014.952696

 Q-Chem 5.3.0 for Intel X86 EM64T Linux

 Parts of Q-Chem use Armadillo 9.800.1 (Horizon Scraper).
 http://arma.sourceforge.net/

 Q-Chem begins on Mon Jul 27 14:30:38 2020  

Host: centos77-c7
0

     Scratch files written to /tmp/29924.centos77-h1/qchem105960//
Processing $rem in /opt/qchem-5.3.0-intel2020u1//config/preferences:
Processing $rem in /home/shihchengli/.qchemrc:

Checking the input file for inconsistencies... 	...done.

--------------------------------------------------------------
User input:
--------------------------------------------------------------
$rem
   JOBTYPE  sp
   EXCHANGE   omegaB97X-D
   BASIS   6-311+G(2df,2pd)
   UNRESTRICTED   False
   max_scf_cycles   250
   geom_opt_max_cycles   1500
   basis2 6-31G*
   scf_algorithm rca_diis
   SYM_IGNORE  TRUE
   print_input   true
   geom_opt_dmax   80
   pop_mulliken false
   XC_GRID 000075000302
$end

$molecule
0 1
C       -5.2797003729     0.2783966570     0.0114466649
C       -4.1553445964     1.1094624089     0.1093313498
H       -5.5281065861     -0.0872872827     -0.9825365874
H       -6.0174605233     1.0310940829     0.3006052207
H       -5.3370534812     -0.5263454211     0.7453817060
O       -3.0037202160     0.5340151210     -0.2214835616
H       -4.1529492523     1.5346369335     1.1242852101
H       -4.3057309964     1.9530663106     -0.5668125023
H       -2.8227439753     -0.2098188100     0.3500924999
$end
--------------------------------------------------------------
 ----------------------------------------------------------------
             Standard Nuclear Orientation (Angstroms)
    I     Atom           X                Y                Z
 ----------------------------------------------------------------
    1      C      -5.2797003729     0.2783966570     0.0114466649
    2      C      -4.1553445964     1.1094624089     0.1093313498
    3      H      -5.5281065861    -0.0872872827    -0.9825365874
    4      H      -6.0174605233     1.0310940829     0.3006052207
    5      H      -5.3370534812    -0.5263454211     0.7453817060
    6      O      -3.0037202160     0.5340151210    -0.2214835616
    7      H      -4.1529492523     1.5346369335     1.1242852101
    8      H      -4.3057309964     1.9530663106    -0.5668125023
    9      H      -2.8227439753    -0.2098188100     0.3500924999
 ----------------------------------------------------------------
 Nuclear Repulsion Energy =          85.62558916 hartrees
 There are       13 alpha and       13 beta electrons
 Requested basis set is 6-311+G(2df,2pd)
 There are 60 shells and 186 basis functions

 Total QAlloc Memory Limit   2000 MB
 Mega-Array Size       188 MB
 MEM_STATIC part       192 MB

                       Distance Matrix (Angstroms)
             C (  1)   C (  2)   H (  3)   H (  4)   H (  5)   O (  6)
   C (  2)  1.401580
   H (  3)  1.087857  2.123408
   H (  4)  1.092912  1.873554  1.771072
   H (  5)  1.090669  2.115860  1.793035  1.756815
   O (  6)  2.302104  1.329217  2.708827  3.098757  2.739277
   H (  7)  2.021415  1.100414  2.993392  2.099621  2.406931  2.032994
   H (  8)  2.021761  1.091538  2.414554  2.128958  2.988806  1.956576
   H (  9)  2.527780  1.890580  3.018261  3.427613  2.564799  0.955375
             H (  7)   H (  8)
   H (  8)  1.748782
   H (  9)  2.326359  2.778136
 
 A cutoff of  1.0D-09 yielded   1793 shell pairs
 There are     17394 function pairs (     21615 Cartesian)
 Smallest overlap matrix eigenvalue = 9.33E-05

 Scale SEOQF with 1.000000e-02/1.000000e-01/1.000000e-01

 Standard Electronic Orientation quadrupole field applied
 Nucleus-field energy     =     0.0000000026 hartrees
 Requested basis set is 6-31G(d)
 There are 24 shells and 54 basis functions
 A cutoff of  1.0D-09 yielded    299 shell pairs
 There are      1550 function pairs (      1733 Cartesian)
 Smallest overlap matrix eigenvalue = 4.93E-03
 Guess from superposition of atomic densities
 Warning:  Energy on first SCF cycle will be non-variational
 SAD guess density has 26.000000 electrons
 Long-range K will be added via erf
 Coulomb attenuation parameter = 0.2 bohr**(-1)
 A restricted hybrid HF-DFT SCF calculation will be
 performed using Relaxed Constraint Minimization + Pulay DIIS
 Exchange:     0.2220 Hartree-Fock + 1.0000 wB97X-D + LR-HF
 Correlation:  1.0000 wB97X-D
 Using Euler-Maclaurin-Lebedev (75,302) quadrature formula
 Dispersion:   Grimme D
 SCF converges when DIIS error is below 1.0E-04
 using 6 threads for integral computing
 -------------------------------------------------------
 OpenMP Integral computing Module                
 Release: version 1.0, May 2013, Q-Chem Inc. Pittsburgh 
 -------------------------------------------------------
 using 6 threads for integral computing
 -------------------------------------------------------
 OpenMP Integral computing Module                
 Release: version 1.0, May 2013, Q-Chem Inc. Pittsburgh 
 -------------------------------------------------------
 ---------------------------------------
  Cycle       Energy         DIIS Error
 ---------------------------------------
    1    -155.7783428079      1.19E-01
    2    -154.8977770096      1.40E-02
    3    -154.9296481585      3.24E-03
    4    -154.9571136474      2.62E-03
    5    -154.9579733273      2.00E-04 Done RCA. Switching to DIIS
    6    -154.9588913644      7.19E-05 Convergence criterion met
 ---------------------------------------
 SCF time:  CPU 13.10 s  wall 2.20 s
 SCF   energy in the small basis set = -154.95889136
 Total energy in the small basis set = -154.95889136
 ----------------------------------------------------
  Cycle       Energy    
 ----------------------------------------------------
    1     -18.8517403233     -1.89E+01
 Long-range K will be added via erf
 Coulomb attenuation parameter = 0.2 bohr**(-1)
 A restricted hybrid HF-DFT SCF calculation will be
 performed using Relaxed Constraint Minimization + Pulay DIIS
 Exchange:     0.2220 Hartree-Fock + 1.0000 wB97X-D + LR-HF
 Correlation:  1.0000 wB97X-D
 Using Euler-Maclaurin-Lebedev (75,302) quadrature formula
 Dispersion:   Grimme D
 SCF converges when DIIS error is below 1.0E-05
 Basis2 calculation detected. Using small basis as guess for larger.
 SCFMinFind is unable to tell whether the solution found is close.
 Resetting ReadMinima to 0 and attempting to follow guess.
 SCFMinFind following SCF Guess.
 using 6 threads for integral computing
 -------------------------------------------------------
 OpenMP Integral computing Module                
 Release: version 1.0, May 2013, Q-Chem Inc. Pittsburgh 
 -------------------------------------------------------
 using 6 threads for integral computing
 -------------------------------------------------------
 OpenMP Integral computing Module                
 Release: version 1.0, May 2013, Q-Chem Inc. Pittsburgh 
 -------------------------------------------------------
 ---------------------------------------
  Cycle       Energy         DIIS Error
 ---------------------------------------
    1    -154.9925166978      5.71E-03
    2    -155.0097411559      2.72E-03
    3    -155.0186181823      2.90E-04 Done RCA. Switching to DIIS
    4    -155.0289688756      1.74E-04
    5    -155.0290671313      3.92E-05
    6    -155.0290748916      6.42E-06 Convergence criterion met
 ---------------------------------------
 SCF time:  CPU 40.10 s  wall 6.71 s
 SCF   energy in the final basis set = -155.02907489
 Total energy in the final basis set = -155.02907489
 
 --------------------------------------------------------------
 
                    Orbital Energies (a.u.)
 --------------------------------------------------------------
 
 Alpha MOs
 -- Occupied --
-19.2429 -10.3119 -10.2616  -1.1550  -0.8754  -0.7203  -0.6149  -0.5661
 -0.5359  -0.4774  -0.4508  -0.3992  -0.3583
 -- Virtual --
  0.0648   0.0862   0.0896   0.1002   0.1290   0.1342   0.1356   0.1835
  0.1947   0.2243   0.2388   0.2450   0.2613   0.2786   0.3012   0.3177
  0.3339   0.3446   0.3674   0.3973   0.4636   0.4784   0.5052   0.5182
  0.5685   0.5774   0.5857   0.6196   0.6337   0.6768   0.6863   0.6982
  0.7055   0.7348   0.7582   0.8077   0.8496   0.9010   0.9374   0.9624
  1.0083   1.0457   1.0820   1.1294   1.1459   1.1660   1.1855   1.2389
  1.2547   1.2735   1.3067   1.3100   1.3555   1.3982   1.4082   1.4169
  1.4407   1.4584   1.4826   1.5027   1.5107   1.5468   1.5982   1.6192
  1.6544   1.7360   1.9658   2.0813   2.1631   2.2816   2.3614   2.4648
  2.5482   2.5962   2.6196   2.6834   2.7007   2.8603   2.8977   2.9044
  2.9353   2.9784   2.9965   3.0181   3.0297   3.0591   3.0675   3.0919
  3.1712   3.1936   3.2366   3.2411   3.2596   3.3065   3.3304   3.3784
  3.4068   3.4156   3.4641   3.4998   3.5110   3.5757   3.5880   3.5901
  3.6108   3.6386   3.6619   3.7390   3.7598   3.8111   3.8474   3.8998
  3.9492   3.9625   3.9719   4.0156   4.0433   4.0605   4.0909   4.0954
  4.1182   4.1424   4.2101   4.2287   4.2629   4.3424   4.3546   4.3868
  4.4389   4.4728   4.5253   4.5672   4.5803   4.7262   4.7572   4.8353
  4.8526   4.9297   4.9658   5.0063   5.0472   5.1423   5.2074   5.2357
  5.2641   5.3058   5.3231   5.3424   5.3881   5.4053   5.4631   5.5492
  5.6363   5.6897   5.7830   6.0837   6.1575   6.3069   6.3789   6.4336
  6.4574   6.6673   6.9096   6.9632   7.1438   7.3750   7.4950   7.6143
  7.7886   8.1807  25.3088  25.6184  50.5196
 --------------------------------------------------------------
 
 -----------------------------------------------------------------
                    Cartesian Multipole Moments
 -----------------------------------------------------------------
    Charge (ESU x 10^10)
                -0.0000
    Dipole Moment (Debye)
         X      -0.9354      Y      -0.5830      Z       1.1476
       Tot       1.5912
    Quadrupole Moments (Debye-Ang)
        XX     -14.0706     XY      -0.0193     YY     -19.2859
        XZ      -2.8733     YZ      -0.3318     ZZ     -19.8121
    Octopole Moments (Debye-Ang^2)
       XXX     230.0179    XXY      -6.0154    XYY      81.0293
       YYY     -37.1453    XXZ       6.1109    XYZ       1.2978
       YYZ      -0.4502    XZZ      83.9574    YZZ     -12.8304
       ZZZ      -0.1442
    Hexadecapole Moments (Debye-Ang^3)
      XXXX   -2247.1370   XXXY     109.5121   XXYY    -382.0553
      XYYY     150.8236   YYYY    -102.4078   XXXZ      -2.4243
      XXYZ      -5.0781   XYYZ       2.9727   YYYZ      -3.7066
      XXZZ    -385.8326   XYZZ      52.8875   YYZZ     -22.5608
      XZZZ       6.2576   YZZZ      -1.6882   ZZZZ     -36.8116
 -----------------------------------------------------------------
Archival summary:
1\1\centos77-c7\SP\ProcedureUnspecified\BasisUnspecified\126\shihchen\MonJul2714:30:492020MonJul2714:30:492020\0\\#,ProcedureUnspecified,BasisUnspecified,\\0,1\C\H,1,1.09154\H,1,1.10041,2,105.844\O,1,1.32922,2,107.445,3,-121.299,0\H,4,0.955375,1,110.627,2,179.512,0\C,1,1.40158,2,107.727,3,114.39,0\H,6,1.08786,1,116.507,2,56.2513,0\H,6,1.09067,1,115.638,2,-170.97,0\H,6,1.09291,1,96.5849,2,-58.3651,0\\\@

 Total job time:  11.16s(wall), 57.27s(cpu) 
 Mon Jul 27 14:30:49 2020

        *************************************************************
        *                                                           *
        *  Thank you very much for using Q-Chem.  Have a nice day.  *
        *                                                           *
        *************************************************************


