                  Welcome to Q-Chem
     A Quantum Leap Into The Future Of Chemistry


 Q-Chem 5.3 (devel), Q-Chem, Inc., Pleasanton, CA (2020)

 Yihan Shao,  Zhengting Gan,  E. Epifanovsky,  A. T. B. Gilbert,  M. Wormit,  
 J. Kussmann,  A. W. Lange,  A. Behn,  Jia Deng,  Xintian Feng,  D. Ghosh,  
 M. Goldey,  P. R. Horn,  L. D. Jacobson,  I. Kaliman,  T. Kus,  A. Landau,  
 Jie Liu,  E. I. Proynov,  R. M. Richard,  R. P. Steele,  E. J. Sundstrom,  
 H. L. Woodcock III,  P. M. Zimmerman,  D. Zuev,  B. Alam,  B. Albrecht,  
 E. Alguire,  S. A. Baeppler,  D. Barton,  Z. Benda,  Y. A. Bernard,  
 E. J. Berquist,  K. B. Bravaya,  H. Burton,  K. Carter-Fenk,  D. Casanova,  
 Chun-Min Chang,  Yunqing Chen,  A. Chien,  K. D. Closser,  M. P. Coons,  
 S. Coriani,  S. Dasgupta,  A. L. Dempwolff,  M. Diedenhofen,  Hainam Do,  
 R. G. Edgar,  Po-Tung Fang,  S. Faraji,  S. Fatehi,  Qingguo Feng,  
 J. Fosso-Tande,  J. Gayvert,  Qinghui Ge,  A. Ghysels,  G. Gidofalvi,  
 J. Gomes,  J. Gonthier,  A. Gunina,  D. Hait,  M. W. D. Hanson-Heine,  
 P. H. P. Harbach,  A. W. Hauser,  M. F. Herbst,  J. E. Herr,  
 E. G. Hohenstein,  Z. C. Holden,  Kerwin Hui,  B. C. Huynh,  T.-C. Jagau,  
 Hyunjun Ji,  B. Kaduk,  K. Khistyaev,  Jaehoon Kim,  P. Klunzinger,  K. Koh,  
 D. Kosenkov,  L. Koulias,  T. Kowalczyk,  C. M. Krauter,  A. Kunitsa,  
 Ka Un Lao,  A. Laurent,  K. V. Lawler,  Joonho Lee,  D. Lefrancois,  
 S. Lehtola,  D. S. Levine,  Yi-Pei Li,  You-Sheng Lin,  Fenglai Liu,  
 Kuan-Yu Liu,  E. Livshits,  M. Loipersberger,  A. Luenser,  P. Manohar,  
 E. Mansoor,  S. F. Manzer,  Shan-Ping Mao,  Yuezhi Mao,  N. Mardirossian,  
 A. V. Marenich,  T. Markovich,  L. A. Martinez-Martinez,  S. A. Maurer,  
 N. J. Mayhall,  S. C. McKenzie,  J.-M. Mewes,  P. Morgante,  A. F. Morrison,  
 J. W. Mullinax,  K. Nanda,  T. S. Nguyen-Beck,  R. Olivares-Amaya,  
 K. J. Oosterbaan,  J. A. Parkhill,  S. K. Paul,  F. Pavosevic,  Zheng Pei,  
 T. M. Perrine,  F. Plasser,  P. Pokhilko,  S. Prager,  A. Prociuk,  
 E. Ramos,  B. Rana,  D. R. Rehn,  F. Rob,  M. Scheurer,  M. Schneider,  
 N. Sergueev,  S. M. Sharada,  S. Sharma,  D. W. Small,  T. Stauch,  
 C. J. Stein,  T. Stein,  Yu-Chuan Su,  S. P. Veccham,  Zhen Tao,  
 A. J. W. Thom,  A. Tkatchenko,  T. Tsuchimochi,  N. M. Tubman,  L. Vogt,  
 M. L. Vidal,  O. Vydrov,  M. A. Watson,  J. Wenzel,  M. de Wergifosse,  
 T. A. Wesolowski,  A. White,  J. Witte,  A. Yamada,  Jun Yang,  K. Yao,  
 S. Yeganeh,  S. R. Yost,  Zhi-Qiang You,  A. Zech,  Igor Ying Zhang,  
 Xing Zhang,  Yan Zhao,  Ying Zhu,  B. R. Brooks,  G. K. L. Chan,  
 C. J. Cramer,  M. S. Gordon,  W. J. Hehre,  A. Klamt,  M. W. Schmidt,  
 C. D. Sherrill,  D. G. Truhlar,  A. Aspuru-Guzik,  R. Baer,  A. T. Bell,  
 N. A. Besley,  Jeng-Da Chai,  A. E. DePrince, III,  R. A. DiStasio Jr.,  
 A. Dreuw,  B. D. Dunietz,  T. R. Furlani,  Chao-Ping Hsu,  Yousung Jung,  
 Jing Kong,  D. S. Lambrecht,  WanZhen Liang,  C. Ochsenfeld,  
 V. A. Rassolov,  L. V. Slipchenko,  J. E. Subotnik,  T. Van Voorhis,  
 J. M. Herbert,  A. I. Krylov,  P. M. W. Gill,  M. Head-Gordon

 Contributors to earlier versions of Q-Chem not listed above: 
 R. D. Adamson,  B. Austin,  J. Baker,  G. J. O. Beran,  K. Brandhorst,  
 S. T. Brown,  E. F. C. Byrd,  A. K. Chakraborty,  C.-L. Cheng,  
 Siu Hung Chien,  D. M. Chipman,  D. L. Crittenden,  H. Dachsel,  
 R. J. Doerksen,  A. D. Dutoi,  L. Fusti-Molnar,  W. A. Goddard III,  
 A. Golubeva-Zadorozhnaya,  S. R. Gwaltney,  G. Hawkins,  A. Heyden,  
 S. Hirata,  G. Kedziora,  F. J. Keil,  C. Kelley,  Jihan Kim,  R. A. King,  
 R. Z. Khaliullin,  P. P. Korambath,  W. Kurlancheek,  A. M. Lee,  M. S. Lee,  
 S. V. Levchenko,  Ching Yeh Lin,  D. Liotard,  R. C. Lochan,  I. Lotan,  
 P. E. Maslen,  N. Nair,  D. P. O'Neill,  D. Neuhauser,  E. Neuscamman,  
 C. M. Oana,  R. Olson,  B. Peters,  R. Peverati,  P. A. Pieniazek,  
 Y. M. Rhee,  J. Ritchie,  M. A. Rohrdanz,  E. Rosta,  N. J. Russ,  
 H. F. Schaefer III,  N. E. Schultz,  N. Shenvi,  A. C. Simmonett,  A. Sodt,  
 D. Stuck,  K. S. Thanthiriwatte,  V. Vanovschi,  Tao Wang,  A. Warshel,  
 C. F. Williams,  Q. Wu,  X. Xu,  W. Zhang

 Please cite Q-Chem as follows:
 Y. Shao et al., Mol. Phys. 113, 184-215 (2015)
 DOI: 10.1080/00268976.2014.952696

 Q-Chem 5.3.0 for Intel X86 EM64T Linux

 Parts of Q-Chem use Armadillo 9.800.1 (Horizon Scraper).
 http://arma.sourceforge.net/

 Q-Chem begins on Mon Jul 27 14:39:16 2020  

Host: centos77-c7
0

     Scratch files written to /tmp/29924.centos77-h1/qchem108087//
Processing $rem in /opt/qchem-5.3.0-intel2020u1//config/preferences:
Processing $rem in /home/shihchengli/.qchemrc:

Checking the input file for inconsistencies... 	...done.

--------------------------------------------------------------
User input:
--------------------------------------------------------------
$rem
   JOBTYPE  sp
   EXCHANGE   omegaB97X-D
   BASIS   6-311+G(2df,2pd)
   UNRESTRICTED   False
   max_scf_cycles   250
   geom_opt_max_cycles   1500
   basis2 6-31G*
   scf_algorithm rca_diis
   SYM_IGNORE  TRUE
   print_input   true
   geom_opt_dmax   80
   pop_mulliken false
   XC_GRID 000075000302
$end

$molecule
0 1
C       -5.3717545228     0.2584229678     0.1676242658
C       -4.1896901918     1.2171790250     0.0832172531
H       -5.4433865112     -0.0255908999     -0.8842169031
H       -6.2514397402     0.9047646541     0.2177542896
H       -5.4332799458     -0.6109903334     0.8162365567
O       -2.9889458696     0.4978024618     -0.2255513616
H       -4.2580645345     1.6151184350     1.1057610875
H       -4.0115372373     2.0575033653     -0.5896554988
H       -2.6547114467     -0.2969896757     0.1791403109
$end
--------------------------------------------------------------
 ----------------------------------------------------------------
             Standard Nuclear Orientation (Angstroms)
    I     Atom           X                Y                Z
 ----------------------------------------------------------------
    1      C      -5.3717545228     0.2584229678     0.1676242658
    2      C      -4.1896901918     1.2171790250     0.0832172531
    3      H      -5.4433865112    -0.0255908999    -0.8842169031
    4      H      -6.2514397402     0.9047646541     0.2177542896
    5      H      -5.4332799458    -0.6109903334     0.8162365567
    6      O      -2.9889458696     0.4978024618    -0.2255513616
    7      H      -4.2580645345     1.6151184350     1.1057610875
    8      H      -4.0115372373     2.0575033653    -0.5896554988
    9      H      -2.6547114467    -0.2969896757     0.1791403109
 ----------------------------------------------------------------
 Nuclear Repulsion Energy =          81.52195557 hartrees
 There are       13 alpha and       13 beta electrons
 Requested basis set is 6-311+G(2df,2pd)
 There are 60 shells and 186 basis functions

 Total QAlloc Memory Limit   2000 MB
 Mega-Array Size       188 MB
 MEM_STATIC part       192 MB

                       Distance Matrix (Angstroms)
             C (  1)   C (  2)   H (  3)   H (  4)   H (  5)   O (  6)
   C (  2)  1.524340
   H (  3)  1.091863  2.012998
   H (  4)  1.092756  2.089621  1.653134
   H (  5)  1.086445  2.329385  1.798426  1.823480
   O (  6)  2.426864  1.433397  2.594621  3.317530  2.879151
   H (  7)  1.990233  1.099376  2.838473  2.294930  2.533874  2.152080
   H (  8)  2.379150  1.091165  2.544846  2.645351  3.334478  1.900245
   H (  9)  2.773254  2.158256  2.996847  3.792382  2.867914  0.952461
             H (  7)   H (  8)
   H (  8)  1.769440
   H (  9)  2.661865  2.824121
 
 A cutoff of  1.0D-09 yielded   1783 shell pairs
 There are     17292 function pairs (     21471 Cartesian)
 Smallest overlap matrix eigenvalue = 1.67E-04

 Scale SEOQF with 1.000000e-02/1.000000e-01/1.000000e-01

 Standard Electronic Orientation quadrupole field applied
 Nucleus-field energy     =     0.0000000027 hartrees
 Requested basis set is 6-31G(d)
 There are 24 shells and 54 basis functions
 A cutoff of  1.0D-09 yielded    298 shell pairs
 There are      1549 function pairs (      1732 Cartesian)
 Smallest overlap matrix eigenvalue = 7.46E-03
 Guess from superposition of atomic densities
 Warning:  Energy on first SCF cycle will be non-variational
 SAD guess density has 26.000000 electrons
 Long-range K will be added via erf
 Coulomb attenuation parameter = 0.2 bohr**(-1)
 A restricted hybrid HF-DFT SCF calculation will be
 performed using Relaxed Constraint Minimization + Pulay DIIS
 Exchange:     0.2220 Hartree-Fock + 1.0000 wB97X-D + LR-HF
 Correlation:  1.0000 wB97X-D
 Using Euler-Maclaurin-Lebedev (75,302) quadrature formula
 Dispersion:   Grimme D
 SCF converges when DIIS error is below 1.0E-04
 using 6 threads for integral computing
 -------------------------------------------------------
 OpenMP Integral computing Module                
 Release: version 1.0, May 2013, Q-Chem Inc. Pittsburgh 
 -------------------------------------------------------
 using 6 threads for integral computing
 -------------------------------------------------------
 OpenMP Integral computing Module                
 Release: version 1.0, May 2013, Q-Chem Inc. Pittsburgh 
 -------------------------------------------------------
 ---------------------------------------
  Cycle       Energy         DIIS Error
 ---------------------------------------
    1    -155.4003443598      1.04E-01
    2    -154.8820978773      1.41E-02
    3    -154.9112711790      2.95E-03
    4    -154.9396139890      2.13E-03
    5    -154.9402001936      2.22E-04 Done RCA. Switching to DIIS
    6    -154.9408594518      7.59E-05 Convergence criterion met
 ---------------------------------------
 SCF time:  CPU 12.95 s  wall 2.17 s
 SCF   energy in the small basis set = -154.94085945
 Total energy in the small basis set = -154.94085945
 ----------------------------------------------------
  Cycle       Energy    
 ----------------------------------------------------
    1     -18.7403863171     -1.87E+01
 Long-range K will be added via erf
 Coulomb attenuation parameter = 0.2 bohr**(-1)
 A restricted hybrid HF-DFT SCF calculation will be
 performed using Relaxed Constraint Minimization + Pulay DIIS
 Exchange:     0.2220 Hartree-Fock + 1.0000 wB97X-D + LR-HF
 Correlation:  1.0000 wB97X-D
 Using Euler-Maclaurin-Lebedev (75,302) quadrature formula
 Dispersion:   Grimme D
 SCF converges when DIIS error is below 1.0E-05
 Basis2 calculation detected. Using small basis as guess for larger.
 SCFMinFind is unable to tell whether the solution found is close.
 Resetting ReadMinima to 0 and attempting to follow guess.
 SCFMinFind following SCF Guess.
 using 6 threads for integral computing
 -------------------------------------------------------
 OpenMP Integral computing Module                
 Release: version 1.0, May 2013, Q-Chem Inc. Pittsburgh 
 -------------------------------------------------------
 using 6 threads for integral computing
 -------------------------------------------------------
 OpenMP Integral computing Module                
 Release: version 1.0, May 2013, Q-Chem Inc. Pittsburgh 
 -------------------------------------------------------
 ---------------------------------------
  Cycle       Energy         DIIS Error
 ---------------------------------------
    1    -154.9713431827      5.80E-03
    2    -154.9851209360      3.20E-03
    3    -154.9970956751      4.05E-04 Done RCA. Switching to DIIS
    4    -155.0116829066      3.17E-04
    5    -155.0119757701      4.22E-05
    6    -155.0119848972      6.83E-06 Convergence criterion met
 ---------------------------------------
 SCF time:  CPU 38.87 s  wall 6.50 s
 SCF   energy in the final basis set = -155.01198490
 Total energy in the final basis set = -155.01198490
 
 --------------------------------------------------------------
 
                    Orbital Energies (a.u.)
 --------------------------------------------------------------
 
 Alpha MOs
 -- Occupied --
-19.2342 -10.3354 -10.2752  -1.1084  -0.8549  -0.7326  -0.5994  -0.5463
 -0.5224  -0.4732  -0.4350  -0.3969  -0.3470
 -- Virtual --
  0.0680   0.0872   0.0879   0.0999   0.1239   0.1315   0.1393   0.1828
  0.1894   0.2039   0.2338   0.2492   0.2644   0.2873   0.2900   0.2993
  0.3179   0.3270   0.3553   0.3744   0.4623   0.4837   0.5069   0.5409
  0.5684   0.5749   0.5887   0.5935   0.6167   0.6451   0.6529   0.6911
  0.7058   0.7290   0.7553   0.8255   0.8332   0.8670   0.9312   0.9386
  0.9901   1.0409   1.0817   1.1111   1.1215   1.1432   1.1750   1.2084
  1.2273   1.2739   1.2924   1.3103   1.3377   1.3514   1.3841   1.4268
  1.4358   1.4602   1.4771   1.4894   1.5224   1.5461   1.6013   1.6249
  1.6692   1.6873   1.9262   1.9887   2.0671   2.2689   2.2784   2.4168
  2.4497   2.4990   2.5604   2.5930   2.7150   2.7435   2.8419   2.8887
  2.9333   2.9617   3.0047   3.0356   3.0684   3.0831   3.1116   3.1169
  3.1531   3.1764   3.2364   3.2634   3.2905   3.3237   3.3442   3.3463
  3.4139   3.4222   3.4412   3.4459   3.4889   3.4984   3.5239   3.5442
  3.5881   3.6070   3.6511   3.6654   3.7051   3.7520   3.7637   3.7748
  3.8305   3.8398   3.9230   3.9341   3.9980   4.0345   4.0371   4.0710
  4.0939   4.1432   4.1524   4.2091   4.2287   4.2647   4.2845   4.3209
  4.3518   4.4024   4.4762   4.5759   4.6006   4.6610   4.7319   4.8086
  4.8612   4.9287   4.9687   4.9771   5.0161   5.0283   5.1199   5.1945
  5.2254   5.2590   5.3037   5.3181   5.3364   5.3591   5.4095   5.4428
  5.4767   5.6008   5.6361   5.7618   5.9110   6.0299   6.3485   6.4067
  6.4274   6.5876   6.7201   6.9450   7.1009   7.1946   7.4113   7.4610
  7.8346   8.2191  25.1296  25.4177  50.4744
 --------------------------------------------------------------
 
 -----------------------------------------------------------------
                    Cartesian Multipole Moments
 -----------------------------------------------------------------
    Charge (ESU x 10^10)
                 0.0000
    Dipole Moment (Debye)
         X      -0.9636      Y      -0.5216      Z       1.0005
       Tot       1.4838
    Quadrupole Moments (Debye-Ang)
        XX     -13.1604     XY      -0.4277     YY     -18.4311
        XZ      -2.9984     YZ      -0.8276     ZZ     -20.4733
    Octopole Moments (Debye-Ang^2)
       XXX     221.6091    XXY      -4.7160    XYY      78.7339
       YYY     -36.3770    XXZ       9.1869    XYZ       3.6548
       YYZ      -1.5443    XZZ      86.9107    YZZ     -13.1974
       ZZZ      -1.5601
    Hexadecapole Moments (Debye-Ang^3)
      XXXX   -2202.3274   XXXY     106.9932   XXYY    -380.9646
      XYYY     150.0752   YYYY    -105.6819   XXXZ     -19.8193
      XXYZ     -17.1320   XYYZ       7.9048   YYYZ      -5.7914
      XXZZ    -402.9418   XYZZ      54.5718   YYZZ     -23.8405
      XZZZ      16.0877   YZZZ      -1.8258   ZZZZ     -37.6041
 -----------------------------------------------------------------
Archival summary:
1\1\centos77-c7\SP\ProcedureUnspecified\BasisUnspecified\126\shihchen\MonJul2714:39:272020MonJul2714:39:272020\0\\#,ProcedureUnspecified,BasisUnspecified,\\0,1\C\H,1,1.09117\H,1,1.09938,2,107.755\O,1,1.4334,2,96.7129,3,-119.78,0\H,4,0.952461,1,128.406,2,174.542,0\C,1,1.52434,2,130.175,3,116.498,0\H,6,1.08645,1,125.471,2,174.406,0\H,6,1.09186,1,99.2729,2,49.776,0\H,6,1.09276,1,104.76,2,-51.4802,0\\\@

 Total job time:  10.84s(wall), 55.83s(cpu) 
 Mon Jul 27 14:39:27 2020

        *************************************************************
        *                                                           *
        *  Thank you very much for using Q-Chem.  Have a nice day.  *
        *                                                           *
        *************************************************************


