                  Welcome to Q-Chem
     A Quantum Leap Into The Future Of Chemistry


 Q-Chem 5.3 (devel), Q-Chem, Inc., Pleasanton, CA (2020)

 Yihan Shao,  Zhengting Gan,  E. Epifanovsky,  A. T. B. Gilbert,  M. Wormit,  
 J. Kussmann,  A. W. Lange,  A. Behn,  Jia Deng,  Xintian Feng,  D. Ghosh,  
 M. Goldey,  P. R. Horn,  L. D. Jacobson,  I. Kaliman,  T. Kus,  A. Landau,  
 Jie Liu,  E. I. Proynov,  R. M. Richard,  R. P. Steele,  E. J. Sundstrom,  
 H. L. Woodcock III,  P. M. Zimmerman,  D. Zuev,  B. Alam,  B. Albrecht,  
 E. Alguire,  S. A. Baeppler,  D. Barton,  Z. Benda,  Y. A. Bernard,  
 E. J. Berquist,  K. B. Bravaya,  H. Burton,  K. Carter-Fenk,  D. Casanova,  
 Chun-Min Chang,  Yunqing Chen,  A. Chien,  K. D. Closser,  M. P. Coons,  
 S. Coriani,  S. Dasgupta,  A. L. Dempwolff,  M. Diedenhofen,  Hainam Do,  
 R. G. Edgar,  Po-Tung Fang,  S. Faraji,  S. Fatehi,  Qingguo Feng,  
 J. Fosso-Tande,  J. Gayvert,  Qinghui Ge,  A. Ghysels,  G. Gidofalvi,  
 J. Gomes,  J. Gonthier,  A. Gunina,  D. Hait,  M. W. D. Hanson-Heine,  
 P. H. P. Harbach,  A. W. Hauser,  M. F. Herbst,  J. E. Herr,  
 E. G. Hohenstein,  Z. C. Holden,  Kerwin Hui,  B. C. Huynh,  T.-C. Jagau,  
 Hyunjun Ji,  B. Kaduk,  K. Khistyaev,  Jaehoon Kim,  P. Klunzinger,  K. Koh,  
 D. Kosenkov,  L. Koulias,  T. Kowalczyk,  C. M. Krauter,  A. Kunitsa,  
 Ka Un Lao,  A. Laurent,  K. V. Lawler,  Joonho Lee,  D. Lefrancois,  
 S. Lehtola,  D. S. Levine,  Yi-Pei Li,  You-Sheng Lin,  Fenglai Liu,  
 Kuan-Yu Liu,  E. Livshits,  M. Loipersberger,  A. Luenser,  P. Manohar,  
 E. Mansoor,  S. F. Manzer,  Shan-Ping Mao,  Yuezhi Mao,  N. Mardirossian,  
 A. V. Marenich,  T. Markovich,  L. A. Martinez-Martinez,  S. A. Maurer,  
 N. J. Mayhall,  S. C. McKenzie,  J.-M. Mewes,  P. Morgante,  A. F. Morrison,  
 J. W. Mullinax,  K. Nanda,  T. S. Nguyen-Beck,  R. Olivares-Amaya,  
 K. J. Oosterbaan,  J. A. Parkhill,  S. K. Paul,  F. Pavosevic,  Zheng Pei,  
 T. M. Perrine,  F. Plasser,  P. Pokhilko,  S. Prager,  A. Prociuk,  
 E. Ramos,  B. Rana,  D. R. Rehn,  F. Rob,  M. Scheurer,  M. Schneider,  
 N. Sergueev,  S. M. Sharada,  S. Sharma,  D. W. Small,  T. Stauch,  
 C. J. Stein,  T. Stein,  Yu-Chuan Su,  S. P. Veccham,  Zhen Tao,  
 A. J. W. Thom,  A. Tkatchenko,  T. Tsuchimochi,  N. M. Tubman,  L. Vogt,  
 M. L. Vidal,  O. Vydrov,  M. A. Watson,  J. Wenzel,  M. de Wergifosse,  
 T. A. Wesolowski,  A. White,  J. Witte,  A. Yamada,  Jun Yang,  K. Yao,  
 S. Yeganeh,  S. R. Yost,  Zhi-Qiang You,  A. Zech,  Igor Ying Zhang,  
 Xing Zhang,  Yan Zhao,  Ying Zhu,  B. R. Brooks,  G. K. L. Chan,  
 C. J. Cramer,  M. S. Gordon,  W. J. Hehre,  A. Klamt,  M. W. Schmidt,  
 C. D. Sherrill,  D. G. Truhlar,  A. Aspuru-Guzik,  R. Baer,  A. T. Bell,  
 N. A. Besley,  Jeng-Da Chai,  A. E. DePrince, III,  R. A. DiStasio Jr.,  
 A. Dreuw,  B. D. Dunietz,  T. R. Furlani,  Chao-Ping Hsu,  Yousung Jung,  
 Jing Kong,  D. S. Lambrecht,  WanZhen Liang,  C. Ochsenfeld,  
 V. A. Rassolov,  L. V. Slipchenko,  J. E. Subotnik,  T. Van Voorhis,  
 J. M. Herbert,  A. I. Krylov,  P. M. W. Gill,  M. Head-Gordon

 Contributors to earlier versions of Q-Chem not listed above: 
 R. D. Adamson,  B. Austin,  J. Baker,  G. J. O. Beran,  K. Brandhorst,  
 S. T. Brown,  E. F. C. Byrd,  A. K. Chakraborty,  C.-L. Cheng,  
 Siu Hung Chien,  D. M. Chipman,  D. L. Crittenden,  H. Dachsel,  
 R. J. Doerksen,  A. D. Dutoi,  L. Fusti-Molnar,  W. A. Goddard III,  
 A. Golubeva-Zadorozhnaya,  S. R. Gwaltney,  G. Hawkins,  A. Heyden,  
 S. Hirata,  G. Kedziora,  F. J. Keil,  C. Kelley,  Jihan Kim,  R. A. King,  
 R. Z. Khaliullin,  P. P. Korambath,  W. Kurlancheek,  A. M. Lee,  M. S. Lee,  
 S. V. Levchenko,  Ching Yeh Lin,  D. Liotard,  R. C. Lochan,  I. Lotan,  
 P. E. Maslen,  N. Nair,  D. P. O'Neill,  D. Neuhauser,  E. Neuscamman,  
 C. M. Oana,  R. Olson,  B. Peters,  R. Peverati,  P. A. Pieniazek,  
 Y. M. Rhee,  J. Ritchie,  M. A. Rohrdanz,  E. Rosta,  N. J. Russ,  
 H. F. Schaefer III,  N. E. Schultz,  N. Shenvi,  A. C. Simmonett,  A. Sodt,  
 D. Stuck,  K. S. Thanthiriwatte,  V. Vanovschi,  Tao Wang,  A. Warshel,  
 C. F. Williams,  Q. Wu,  X. Xu,  W. Zhang

 Please cite Q-Chem as follows:
 Y. Shao et al., Mol. Phys. 113, 184-215 (2015)
 DOI: 10.1080/00268976.2014.952696

 Q-Chem 5.3.0 for Intel X86 EM64T Linux

 Parts of Q-Chem use Armadillo 9.800.1 (Horizon Scraper).
 http://arma.sourceforge.net/

 Q-Chem begins on Mon Jul 27 14:51:55 2020  

Host: centos77-c7
0

     Scratch files written to /tmp/29924.centos77-h1/qchem111183//
Processing $rem in /opt/qchem-5.3.0-intel2020u1//config/preferences:
Processing $rem in /home/shihchengli/.qchemrc:

Checking the input file for inconsistencies... 	...done.

--------------------------------------------------------------
User input:
--------------------------------------------------------------
$rem
   JOBTYPE  sp
   EXCHANGE   omegaB97X-D
   BASIS   6-311+G(2df,2pd)
   UNRESTRICTED   False
   max_scf_cycles   250
   geom_opt_max_cycles   1500
   basis2 6-31G*
   scf_algorithm rca_diis
   SYM_IGNORE  TRUE
   print_input   true
   geom_opt_dmax   80
   pop_mulliken false
   XC_GRID 000075000302
$end

$molecule
0 1
C       -5.3757355234     0.3061320890     0.0329825959
C       -4.1343727247     1.1701650173     0.1066605146
H       -5.4946548544     -0.0989385343     -0.9762582495
H       -6.2597884396     0.8799710641     0.2810349951
H       -5.3144483743     -0.5252659548     0.7279194806
O       -2.9548259513     0.4817774580     -0.2531968124
H       -4.0236315555     1.6368013846     1.2091656743
H       -4.2131535773     2.0237249444     -0.6009175682
H       -2.8321989994     -0.2571474683     0.3429193697
$end
--------------------------------------------------------------
 ----------------------------------------------------------------
             Standard Nuclear Orientation (Angstroms)
    I     Atom           X                Y                Z
 ----------------------------------------------------------------
    1      C      -5.3757355234     0.3061320890     0.0329825959
    2      C      -4.1343727247     1.1701650173     0.1066605146
    3      H      -5.4946548544    -0.0989385343    -0.9762582495
    4      H      -6.2597884396     0.8799710641     0.2810349951
    5      H      -5.3144483743    -0.5252659548     0.7279194806
    6      O      -2.9548259513     0.4817774580    -0.2531968124
    7      H      -4.0236315555     1.6368013846     1.2091656743
    8      H      -4.2131535773     2.0237249444    -0.6009175682
    9      H      -2.8321989994    -0.2571474683     0.3429193697
 ----------------------------------------------------------------
 Nuclear Repulsion Energy =          81.51791793 hartrees
 There are       13 alpha and       13 beta electrons
 Requested basis set is 6-311+G(2df,2pd)
 There are 60 shells and 186 basis functions

 Total QAlloc Memory Limit   2000 MB
 Mega-Array Size       188 MB
 MEM_STATIC part       192 MB

                       Distance Matrix (Angstroms)
             C (  1)   C (  2)   H (  3)   H (  4)   H (  5)   O (  6)
   C (  2)  1.514253
   H (  3)  1.093979  2.152604
   H (  4)  1.082761  2.152211  1.767620
   H (  5)  1.085318  2.157088  1.765914  1.751589
   O (  6)  2.444085  1.412340  2.703845  3.371459  2.746733
   H (  7)  2.232100  1.202302  3.154803  2.536655  2.563658  2.148239
   H (  8)  2.168767  1.111502  2.507753  2.504941  3.078313  2.020371
   H (  9)  2.623532  1.946457  2.975556  3.611819  2.526198  0.957289
             H (  7)   H (  8)
   H (  8)  1.860653
   H (  9)  2.399362  2.828470
 
 A cutoff of  1.0D-09 yielded   1784 shell pairs
 There are     17304 function pairs (     21489 Cartesian)
 Smallest overlap matrix eigenvalue = 1.34E-04

 Scale SEOQF with 1.000000e-02/1.000000e-01/1.000000e-01

 Standard Electronic Orientation quadrupole field applied
 Nucleus-field energy     =     0.0000000026 hartrees
 Requested basis set is 6-31G(d)
 There are 24 shells and 54 basis functions
 A cutoff of  1.0D-09 yielded    298 shell pairs
 There are      1549 function pairs (      1732 Cartesian)
 Smallest overlap matrix eigenvalue = 7.34E-03
 Guess from superposition of atomic densities
 Warning:  Energy on first SCF cycle will be non-variational
 SAD guess density has 26.000000 electrons
 Long-range K will be added via erf
 Coulomb attenuation parameter = 0.2 bohr**(-1)
 A restricted hybrid HF-DFT SCF calculation will be
 performed using Relaxed Constraint Minimization + Pulay DIIS
 Exchange:     0.2220 Hartree-Fock + 1.0000 wB97X-D + LR-HF
 Correlation:  1.0000 wB97X-D
 Using Euler-Maclaurin-Lebedev (75,302) quadrature formula
 Dispersion:   Grimme D
 SCF converges when DIIS error is below 1.0E-04
 using 6 threads for integral computing
 -------------------------------------------------------
 OpenMP Integral computing Module                
 Release: version 1.0, May 2013, Q-Chem Inc. Pittsburgh 
 -------------------------------------------------------
 using 6 threads for integral computing
 -------------------------------------------------------
 OpenMP Integral computing Module                
 Release: version 1.0, May 2013, Q-Chem Inc. Pittsburgh 
 -------------------------------------------------------
 ---------------------------------------
  Cycle       Energy         DIIS Error
 ---------------------------------------
    1    -155.3753894584      1.04E-01
    2    -154.9207010381      1.37E-02
    3    -154.9492395069      2.97E-03
    4    -154.9761509324      2.31E-03
    5    -154.9768213797      2.30E-04 Done RCA. Switching to DIIS
    6    -154.9775761097      9.50E-05 Convergence criterion met
 ---------------------------------------
 SCF time:  CPU 12.97 s  wall 2.18 s
 SCF   energy in the small basis set = -154.97757611
 Total energy in the small basis set = -154.97757611
 ----------------------------------------------------
  Cycle       Energy    
 ----------------------------------------------------
    1     -18.7155711272     -1.87E+01
 Long-range K will be added via erf
 Coulomb attenuation parameter = 0.2 bohr**(-1)
 A restricted hybrid HF-DFT SCF calculation will be
 performed using Relaxed Constraint Minimization + Pulay DIIS
 Exchange:     0.2220 Hartree-Fock + 1.0000 wB97X-D + LR-HF
 Correlation:  1.0000 wB97X-D
 Using Euler-Maclaurin-Lebedev (75,302) quadrature formula
 Dispersion:   Grimme D
 SCF converges when DIIS error is below 1.0E-05
 Basis2 calculation detected. Using small basis as guess for larger.
 SCFMinFind is unable to tell whether the solution found is close.
 Resetting ReadMinima to 0 and attempting to follow guess.
 SCFMinFind following SCF Guess.
 using 6 threads for integral computing
 -------------------------------------------------------
 OpenMP Integral computing Module                
 Release: version 1.0, May 2013, Q-Chem Inc. Pittsburgh 
 -------------------------------------------------------
 using 6 threads for integral computing
 -------------------------------------------------------
 OpenMP Integral computing Module                
 Release: version 1.0, May 2013, Q-Chem Inc. Pittsburgh 
 -------------------------------------------------------
 ---------------------------------------
  Cycle       Energy         DIIS Error
 ---------------------------------------
    1    -155.0086393283      5.71E-03
    2    -155.0239898885      2.84E-03
    3    -155.0335658847      3.46E-04 Done RCA. Switching to DIIS
    4    -155.0450798575      2.54E-04
    5    -155.0452717268      4.01E-05
    6    -155.0452799295      6.07E-06 Convergence criterion met
 ---------------------------------------
 SCF time:  CPU 39.21 s  wall 6.56 s
 SCF   energy in the final basis set = -155.04527993
 Total energy in the final basis set = -155.04527993
 
 --------------------------------------------------------------
 
                    Orbital Energies (a.u.)
 --------------------------------------------------------------
 
 Alpha MOs
 -- Occupied --
-19.2491 -10.3406 -10.2744  -1.1287  -0.8491  -0.7186  -0.5886  -0.5458
 -0.5246  -0.4683  -0.4598  -0.4096  -0.3610
 -- Virtual --
  0.0651   0.0869   0.0883   0.1011   0.1264   0.1336   0.1363   0.1802
  0.1958   0.2172   0.2295   0.2385   0.2615   0.2846   0.2876   0.3045
  0.3167   0.3263   0.3428   0.3811   0.4576   0.4916   0.5012   0.5214
  0.5650   0.5765   0.5798   0.5953   0.6087   0.6289   0.6542   0.6786
  0.6887   0.7119   0.7352   0.8026   0.8408   0.8935   0.9283   0.9513
  0.9876   1.0435   1.0486   1.1114   1.1407   1.1614   1.1798   1.2091
  1.2197   1.2308   1.2696   1.2963   1.3214   1.3537   1.3661   1.4148
  1.4376   1.4566   1.4707   1.4782   1.4992   1.5217   1.5880   1.6085
  1.6514   1.7090   1.9367   2.0385   2.1060   2.2784   2.2804   2.4552
  2.4677   2.5080   2.5786   2.5996   2.7069   2.8277   2.8390   2.8615
  2.9134   2.9695   2.9774   3.0255   3.0364   3.0444   3.0502   3.0789
  3.0928   3.1752   3.2142   3.2362   3.2649   3.2819   3.3077   3.3511
  3.3558   3.3731   3.4026   3.4132   3.4802   3.5403   3.5499   3.5714
  3.5782   3.6102   3.6605   3.6826   3.7261   3.7453   3.7617   3.8350
  3.8722   3.9073   3.9397   3.9731   3.9942   3.9980   4.0275   4.0586
  4.0773   4.1006   4.1297   4.1662   4.2044   4.2211   4.2840   4.3059
  4.3251   4.3599   4.4042   4.4792   4.5336   4.6060   4.6625   4.7072
  4.7590   4.8457   4.9252   4.9501   4.9815   5.0011   5.0643   5.1293
  5.2166   5.2345   5.2640   5.2723   5.3189   5.3378   5.3866   5.4428
  5.5075   5.5592   5.6594   5.7772   5.9145   5.9959   6.2323   6.3726
  6.3978   6.6509   6.7037   6.8082   7.1222   7.3466   7.4137   7.5480
  7.7180   8.1045  24.9933  25.4444  50.4641
 --------------------------------------------------------------
 
 -----------------------------------------------------------------
                    Cartesian Multipole Moments
 -----------------------------------------------------------------
    Charge (ESU x 10^10)
                 0.0000
    Dipole Moment (Debye)
         X      -1.1719      Y      -0.5110      Z       1.1422
       Tot       1.7144
    Quadrupole Moments (Debye-Ang)
        XX     -12.0418     XY      -0.2341     YY     -19.2329
        XZ      -2.8476     YZ      -0.5006     ZZ     -20.1079
    Octopole Moments (Debye-Ang^2)
       XXX     214.3440    XXY      -5.3691    XYY      81.4870
       YYY     -37.8204    XXZ       6.3853    XYZ       1.9579
       YYZ      -0.7429    XZZ      85.3867    YZZ     -13.0105
       ZZZ      -0.0908
    Hexadecapole Moments (Debye-Ang^3)
      XXXX   -2138.8662   XXXY     105.3010   XXYY    -390.1988
      XYYY     154.5374   YYYY    -107.6443   XXXZ      -6.7705
      XXYZ      -7.8377   XYYZ       4.6438   YYYZ      -5.3182
      XXZZ    -395.8531   XYZZ      53.8727   YYZZ     -23.4083
      XZZZ       7.1194   YZZZ      -2.2058   ZZZZ     -39.0404
 -----------------------------------------------------------------
Archival summary:
1\1\centos77-c7\SP\ProcedureUnspecified\BasisUnspecified\126\shihchen\MonJul2714:52:052020MonJul2714:52:052020\0\\#,ProcedureUnspecified,BasisUnspecified,\\0,1\C\H,1,1.1115\H,1,1.2023,2,106.992\O,1,1.41234,2,105.741,3,-117.51,0\H,4,0.957289,1,108.938,2,178.845,0\C,1,1.51425,2,110.433,3,119.67,0\H,6,1.08276,1,110.842,2,-59.5957,0\H,6,1.08532,1,111.079,2,-179.395,0\H,6,1.09398,1,110.199,2,60.6406,0\\\@

 Total job time:  10.88s(wall), 55.96s(cpu) 
 Mon Jul 27 14:52:05 2020

        *************************************************************
        *                                                           *
        *  Thank you very much for using Q-Chem.  Have a nice day.  *
        *                                                           *
        *************************************************************


