                  Welcome to Q-Chem
     A Quantum Leap Into The Future Of Chemistry


 Q-Chem 5.3 (devel), Q-Chem, Inc., Pleasanton, CA (2020)

 Yihan Shao,  Zhengting Gan,  E. Epifanovsky,  A. T. B. Gilbert,  M. Wormit,  
 J. Kussmann,  A. W. Lange,  A. Behn,  Jia Deng,  Xintian Feng,  D. Ghosh,  
 M. Goldey,  P. R. Horn,  L. D. Jacobson,  I. Kaliman,  T. Kus,  A. Landau,  
 Jie Liu,  E. I. Proynov,  R. M. Richard,  R. P. Steele,  E. J. Sundstrom,  
 H. L. Woodcock III,  P. M. Zimmerman,  D. Zuev,  B. Alam,  B. Albrecht,  
 E. Alguire,  S. A. Baeppler,  D. Barton,  Z. Benda,  Y. A. Bernard,  
 E. J. Berquist,  K. B. Bravaya,  H. Burton,  K. Carter-Fenk,  D. Casanova,  
 Chun-Min Chang,  Yunqing Chen,  A. Chien,  K. D. Closser,  M. P. Coons,  
 S. Coriani,  S. Dasgupta,  A. L. Dempwolff,  M. Diedenhofen,  Hainam Do,  
 R. G. Edgar,  Po-Tung Fang,  S. Faraji,  S. Fatehi,  Qingguo Feng,  
 J. Fosso-Tande,  J. Gayvert,  Qinghui Ge,  A. Ghysels,  G. Gidofalvi,  
 J. Gomes,  J. Gonthier,  A. Gunina,  D. Hait,  M. W. D. Hanson-Heine,  
 P. H. P. Harbach,  A. W. Hauser,  M. F. Herbst,  J. E. Herr,  
 E. G. Hohenstein,  Z. C. Holden,  Kerwin Hui,  B. C. Huynh,  T.-C. Jagau,  
 Hyunjun Ji,  B. Kaduk,  K. Khistyaev,  Jaehoon Kim,  P. Klunzinger,  K. Koh,  
 D. Kosenkov,  L. Koulias,  T. Kowalczyk,  C. M. Krauter,  A. Kunitsa,  
 Ka Un Lao,  A. Laurent,  K. V. Lawler,  Joonho Lee,  D. Lefrancois,  
 S. Lehtola,  D. S. Levine,  Yi-Pei Li,  You-Sheng Lin,  Fenglai Liu,  
 Kuan-Yu Liu,  E. Livshits,  M. Loipersberger,  A. Luenser,  P. Manohar,  
 E. Mansoor,  S. F. Manzer,  Shan-Ping Mao,  Yuezhi Mao,  N. Mardirossian,  
 A. V. Marenich,  T. Markovich,  L. A. Martinez-Martinez,  S. A. Maurer,  
 N. J. Mayhall,  S. C. McKenzie,  J.-M. Mewes,  P. Morgante,  A. F. Morrison,  
 J. W. Mullinax,  K. Nanda,  T. S. Nguyen-Beck,  R. Olivares-Amaya,  
 K. J. Oosterbaan,  J. A. Parkhill,  S. K. Paul,  F. Pavosevic,  Zheng Pei,  
 T. M. Perrine,  F. Plasser,  P. Pokhilko,  S. Prager,  A. Prociuk,  
 E. Ramos,  B. Rana,  D. R. Rehn,  F. Rob,  M. Scheurer,  M. Schneider,  
 N. Sergueev,  S. M. Sharada,  S. Sharma,  D. W. Small,  T. Stauch,  
 C. J. Stein,  T. Stein,  Yu-Chuan Su,  S. P. Veccham,  Zhen Tao,  
 A. J. W. Thom,  A. Tkatchenko,  T. Tsuchimochi,  N. M. Tubman,  L. Vogt,  
 M. L. Vidal,  O. Vydrov,  M. A. Watson,  J. Wenzel,  M. de Wergifosse,  
 T. A. Wesolowski,  A. White,  J. Witte,  A. Yamada,  Jun Yang,  K. Yao,  
 S. Yeganeh,  S. R. Yost,  Zhi-Qiang You,  A. Zech,  Igor Ying Zhang,  
 Xing Zhang,  Yan Zhao,  Ying Zhu,  B. R. Brooks,  G. K. L. Chan,  
 C. J. Cramer,  M. S. Gordon,  W. J. Hehre,  A. Klamt,  M. W. Schmidt,  
 C. D. Sherrill,  D. G. Truhlar,  A. Aspuru-Guzik,  R. Baer,  A. T. Bell,  
 N. A. Besley,  Jeng-Da Chai,  A. E. DePrince, III,  R. A. DiStasio Jr.,  
 A. Dreuw,  B. D. Dunietz,  T. R. Furlani,  Chao-Ping Hsu,  Yousung Jung,  
 Jing Kong,  D. S. Lambrecht,  WanZhen Liang,  C. Ochsenfeld,  
 V. A. Rassolov,  L. V. Slipchenko,  J. E. Subotnik,  T. Van Voorhis,  
 J. M. Herbert,  A. I. Krylov,  P. M. W. Gill,  M. Head-Gordon

 Contributors to earlier versions of Q-Chem not listed above: 
 R. D. Adamson,  B. Austin,  J. Baker,  G. J. O. Beran,  K. Brandhorst,  
 S. T. Brown,  E. F. C. Byrd,  A. K. Chakraborty,  C.-L. Cheng,  
 Siu Hung Chien,  D. M. Chipman,  D. L. Crittenden,  H. Dachsel,  
 R. J. Doerksen,  A. D. Dutoi,  L. Fusti-Molnar,  W. A. Goddard III,  
 A. Golubeva-Zadorozhnaya,  S. R. Gwaltney,  G. Hawkins,  A. Heyden,  
 S. Hirata,  G. Kedziora,  F. J. Keil,  C. Kelley,  Jihan Kim,  R. A. King,  
 R. Z. Khaliullin,  P. P. Korambath,  W. Kurlancheek,  A. M. Lee,  M. S. Lee,  
 S. V. Levchenko,  Ching Yeh Lin,  D. Liotard,  R. C. Lochan,  I. Lotan,  
 P. E. Maslen,  N. Nair,  D. P. O'Neill,  D. Neuhauser,  E. Neuscamman,  
 C. M. Oana,  R. Olson,  B. Peters,  R. Peverati,  P. A. Pieniazek,  
 Y. M. Rhee,  J. Ritchie,  M. A. Rohrdanz,  E. Rosta,  N. J. Russ,  
 H. F. Schaefer III,  N. E. Schultz,  N. Shenvi,  A. C. Simmonett,  A. Sodt,  
 D. Stuck,  K. S. Thanthiriwatte,  V. Vanovschi,  Tao Wang,  A. Warshel,  
 C. F. Williams,  Q. Wu,  X. Xu,  W. Zhang

 Please cite Q-Chem as follows:
 Y. Shao et al., Mol. Phys. 113, 184-215 (2015)
 DOI: 10.1080/00268976.2014.952696

 Q-Chem 5.3.0 for Intel X86 EM64T Linux

 Parts of Q-Chem use Armadillo 9.800.1 (Horizon Scraper).
 http://arma.sourceforge.net/

 Q-Chem begins on Mon Jul 27 14:46:03 2020  

Host: centos77-c7
0

     Scratch files written to /tmp/29924.centos77-h1/qchem109741//
Processing $rem in /opt/qchem-5.3.0-intel2020u1//config/preferences:
Processing $rem in /home/shihchengli/.qchemrc:

Checking the input file for inconsistencies... 	...done.

--------------------------------------------------------------
User input:
--------------------------------------------------------------
$rem
   JOBTYPE  sp
   EXCHANGE   omegaB97X-D
   BASIS   6-311+G(2df,2pd)
   UNRESTRICTED   False
   max_scf_cycles   250
   geom_opt_max_cycles   1500
   basis2 6-31G*
   scf_algorithm rca_diis
   SYM_IGNORE  TRUE
   print_input   true
   geom_opt_dmax   80
   pop_mulliken false
   XC_GRID 000075000302
$end

$molecule
0 1
C       -5.3163525591     0.3156020556     0.0291230087
C       -4.2122437306     1.1794005128     0.1408890095
H       -5.5900081413     -0.0924578447     -0.9430278479
H       -6.3030332230     0.7046258364     0.2954889394
H       -5.4169742611     -0.5377502442     0.7077187337
O       -2.9457209454     0.5809116128     -0.2766806333
H       -3.9076922288     1.6121792036     1.0988541692
H       -3.9730863191     1.9802648355     -0.5558670477
H       -2.9376985915     -0.1255559678     0.3738116686
$end
--------------------------------------------------------------
 ----------------------------------------------------------------
             Standard Nuclear Orientation (Angstroms)
    I     Atom           X                Y                Z
 ----------------------------------------------------------------
    1      C      -5.3163525591     0.3156020556     0.0291230087
    2      C      -4.2122437306     1.1794005128     0.1408890095
    3      H      -5.5900081413    -0.0924578447    -0.9430278479
    4      H      -6.3030332230     0.7046258364     0.2954889394
    5      H      -5.4169742611    -0.5377502442     0.7077187337
    6      O      -2.9457209454     0.5809116128    -0.2766806333
    7      H      -3.9076922288     1.6121792036     1.0988541692
    8      H      -3.9730863191     1.9802648355    -0.5558670477
    9      H      -2.9376985915    -0.1255559678     0.3738116686
 ----------------------------------------------------------------
 Nuclear Repulsion Energy =          82.90912010 hartrees
 There are       13 alpha and       13 beta electrons
 Requested basis set is 6-311+G(2df,2pd)
 There are 60 shells and 186 basis functions

 Total QAlloc Memory Limit   2000 MB
 Mega-Array Size       188 MB
 MEM_STATIC part       192 MB

                       Distance Matrix (Angstroms)
             C (  1)   C (  2)   H (  3)   H (  4)   H (  5)   O (  6)
   C (  2)  1.406306
   H (  3)  1.089256  2.165810
   H (  4)  1.093540  2.149584  1.636359
   H (  5)  1.094910  2.172850  1.718485  1.580675
   O (  6)  2.404953  1.461723  2.808861  3.407966  2.885748
   H (  7)  2.193117  1.094416  3.147262  2.684531  2.655770  1.970025
   H (  8)  2.217584  1.088140  2.657162  2.789393  3.165732  1.758299
   H (  9)  2.443650  1.838921  2.961403  3.467104  2.535391  0.960365
             H (  7)   H (  8)
   H (  8)  1.696427
   H (  9)  2.118088  2.524047
 
 A cutoff of  1.0D-09 yielded   1781 shell pairs
 There are     17312 function pairs (     21505 Cartesian)
 Smallest overlap matrix eigenvalue = 1.01E-04

 Scale SEOQF with 1.000000e-02/1.000000e-01/1.000000e-01

 Standard Electronic Orientation quadrupole field applied
 Nucleus-field energy     =     0.0000000027 hartrees
 Requested basis set is 6-31G(d)
 There are 24 shells and 54 basis functions
 A cutoff of  1.0D-09 yielded    298 shell pairs
 There are      1549 function pairs (      1732 Cartesian)
 Smallest overlap matrix eigenvalue = 6.82E-03
 Guess from superposition of atomic densities
 Warning:  Energy on first SCF cycle will be non-variational
 SAD guess density has 26.000000 electrons
 Long-range K will be added via erf
 Coulomb attenuation parameter = 0.2 bohr**(-1)
 A restricted hybrid HF-DFT SCF calculation will be
 performed using Relaxed Constraint Minimization + Pulay DIIS
 Exchange:     0.2220 Hartree-Fock + 1.0000 wB97X-D + LR-HF
 Correlation:  1.0000 wB97X-D
 Using Euler-Maclaurin-Lebedev (75,302) quadrature formula
 Dispersion:   Grimme D
 SCF converges when DIIS error is below 1.0E-04
 using 6 threads for integral computing
 -------------------------------------------------------
 OpenMP Integral computing Module                
 Release: version 1.0, May 2013, Q-Chem Inc. Pittsburgh 
 -------------------------------------------------------
 using 6 threads for integral computing
 -------------------------------------------------------
 OpenMP Integral computing Module                
 Release: version 1.0, May 2013, Q-Chem Inc. Pittsburgh 
 -------------------------------------------------------
 ---------------------------------------
  Cycle       Energy         DIIS Error
 ---------------------------------------
    1    -155.5655980781      1.11E-01
    2    -154.8744453675      1.43E-02
    3    -154.9055526414      3.06E-03
    4    -154.9368460853      2.24E-03
    5    -154.9374933119      2.84E-04 Done RCA. Switching to DIIS
    6    -154.9382578145      1.32E-04
    7    -154.9382639416      1.46E-05 Convergence criterion met
 ---------------------------------------
 SCF time:  CPU 14.21 s  wall 2.38 s
 SCF   energy in the small basis set = -154.93826394
 Total energy in the small basis set = -154.93826394
 ----------------------------------------------------
  Cycle       Energy    
 ----------------------------------------------------
    1     -18.7820217814     -1.88E+01
 Long-range K will be added via erf
 Coulomb attenuation parameter = 0.2 bohr**(-1)
 A restricted hybrid HF-DFT SCF calculation will be
 performed using Relaxed Constraint Minimization + Pulay DIIS
 Exchange:     0.2220 Hartree-Fock + 1.0000 wB97X-D + LR-HF
 Correlation:  1.0000 wB97X-D
 Using Euler-Maclaurin-Lebedev (75,302) quadrature formula
 Dispersion:   Grimme D
 SCF converges when DIIS error is below 1.0E-05
 Basis2 calculation detected. Using small basis as guess for larger.
 SCFMinFind is unable to tell whether the solution found is close.
 Resetting ReadMinima to 0 and attempting to follow guess.
 SCFMinFind following SCF Guess.
 using 6 threads for integral computing
 -------------------------------------------------------
 OpenMP Integral computing Module                
 Release: version 1.0, May 2013, Q-Chem Inc. Pittsburgh 
 -------------------------------------------------------
 using 6 threads for integral computing
 -------------------------------------------------------
 OpenMP Integral computing Module                
 Release: version 1.0, May 2013, Q-Chem Inc. Pittsburgh 
 -------------------------------------------------------
 ---------------------------------------
  Cycle       Energy         DIIS Error
 ---------------------------------------
    1    -154.9702491665      5.76E-03
    2    -154.9827267082      3.13E-03
    3    -154.9941438841      4.50E-04 Done RCA. Switching to DIIS
    4    -155.0083606358      3.88E-04
    5    -155.0087900706      4.52E-05
    6    -155.0088003560      7.01E-06 Convergence criterion met
 ---------------------------------------
 SCF time:  CPU 39.35 s  wall 6.58 s
 SCF   energy in the final basis set = -155.00880036
 Total energy in the final basis set = -155.00880036
 
 --------------------------------------------------------------
 
                    Orbital Energies (a.u.)
 --------------------------------------------------------------
 
 Alpha MOs
 -- Occupied --
-19.2385 -10.3224 -10.2786  -1.1196  -0.8679  -0.7310  -0.5991  -0.5596
 -0.5180  -0.4841  -0.4292  -0.4148  -0.3621
 -- Virtual --
  0.0619   0.0826   0.0926   0.1022   0.1240   0.1302   0.1370   0.1824
  0.1908   0.2105   0.2264   0.2276   0.2733   0.2756   0.2935   0.3103
  0.3273   0.3338   0.3579   0.3942   0.4519   0.4909   0.5131   0.5269
  0.5630   0.5701   0.5754   0.6221   0.6334   0.6494   0.6545   0.6827
  0.6897   0.7130   0.7585   0.8060   0.8469   0.9088   0.9368   0.9731
  0.9987   1.0498   1.0908   1.1002   1.1542   1.1720   1.1998   1.2072
  1.2205   1.2485   1.2884   1.3242   1.3744   1.3804   1.4041   1.4140
  1.4537   1.4686   1.4727   1.4964   1.5369   1.5937   1.6163   1.6426
  1.6805   1.7710   1.9154   1.9713   2.0627   2.2262   2.2871   2.4231
  2.4529   2.5391   2.5723   2.6688   2.7068   2.7772   2.7904   2.8711
  2.8950   2.9674   3.0079   3.0262   3.0438   3.0585   3.0963   3.1210
  3.1359   3.1633   3.1931   3.2389   3.2627   3.3338   3.3585   3.4018
  3.4272   3.4478   3.4757   3.4851   3.5156   3.5250   3.5444   3.5816
  3.6155   3.6228   3.6562   3.6749   3.7458   3.7757   3.7922   3.8433
  3.8609   3.8842   3.9405   3.9581   3.9944   4.0136   4.0800   4.1108
  4.1244   4.1724   4.2191   4.2490   4.2600   4.2918   4.3175   4.3677
  4.4245   4.4587   4.4702   4.4877   4.5880   4.6490   4.7323   4.7883
  4.8896   4.9061   4.9313   4.9545   4.9941   5.0643   5.0734   5.2340
  5.2594   5.2844   5.2933   5.3735   5.4299   5.4724   5.5317   5.5962
  5.6440   5.6706   5.9462   5.9623   6.0229   6.1380   6.4008   6.4475
  6.5004   6.5690   6.6495   6.7804   7.1355   7.3901   7.4275   7.6036
  7.6132   8.0951  25.1760  25.4956  50.4810
 --------------------------------------------------------------
 
 -----------------------------------------------------------------
                    Cartesian Multipole Moments
 -----------------------------------------------------------------
    Charge (ESU x 10^10)
                 0.0000
    Dipole Moment (Debye)
         X      -1.6821      Y      -0.4969      Z       1.3580
       Tot       2.2182
    Quadrupole Moments (Debye-Ang)
        XX      -7.3713     XY       0.8842     YY     -19.5377
        XZ      -3.7977     YZ      -0.1008     ZZ     -19.9626
    Octopole Moments (Debye-Ang^2)
       XXX     178.7030    XXY     -15.9127    XYY      84.0152
       YYY     -39.0610    XXZ      10.4712    XYZ       0.4963
       YYZ      -0.0843    XZZ      84.7967    YZZ     -13.2602
       ZZZ       0.3396
    Hexadecapole Moments (Debye-Ang^3)
      XXXX   -1879.6665   XXXY     177.2932   XXYY    -407.1792
      XYYY     160.4089   YYYY    -108.2445   XXXZ     -23.6255
      XXYZ      -2.2422   XYYZ       1.9076   YYYZ      -2.8494
      XXZZ    -392.1061   XYZZ      54.6113   YYZZ     -23.0435
      XZZZ       6.2991   YZZZ      -1.2450   ZZZZ     -37.2786
 -----------------------------------------------------------------
Archival summary:
1\1\centos77-c7\SP\ProcedureUnspecified\BasisUnspecified\126\shihchen\MonJul2714:46:142020MonJul2714:46:142020\0\\#,ProcedureUnspecified,BasisUnspecified,\\0,1\C\H,1,1.08814\H,1,1.09442,2,102.022\C,1,1.40631,2,125.011,3,144.287,0\H,4,1.08926,1,119.886,2,42.1561,0\H,4,1.09354,1,118.068,2,-75.7819,0\H,4,1.09491,1,120.107,2,172.748,0\O,1,1.46172,2,85.8706,3,-99.1928,0\H,8,0.960365,1,96.6,2,172.175,0\\\@

 Total job time:  11.16s(wall), 57.65s(cpu) 
 Mon Jul 27 14:46:14 2020

        *************************************************************
        *                                                           *
        *  Thank you very much for using Q-Chem.  Have a nice day.  *
        *                                                           *
        *************************************************************


