                  Welcome to Q-Chem
     A Quantum Leap Into The Future Of Chemistry


 Q-Chem 5.3 (devel), Q-Chem, Inc., Pleasanton, CA (2020)

 Yihan Shao,  Zhengting Gan,  E. Epifanovsky,  A. T. B. Gilbert,  M. Wormit,  
 J. Kussmann,  A. W. Lange,  A. Behn,  Jia Deng,  Xintian Feng,  D. Ghosh,  
 M. Goldey,  P. R. Horn,  L. D. Jacobson,  I. Kaliman,  T. Kus,  A. Landau,  
 Jie Liu,  E. I. Proynov,  R. M. Richard,  R. P. Steele,  E. J. Sundstrom,  
 H. L. Woodcock III,  P. M. Zimmerman,  D. Zuev,  B. Alam,  B. Albrecht,  
 E. Alguire,  S. A. Baeppler,  D. Barton,  Z. Benda,  Y. A. Bernard,  
 E. J. Berquist,  K. B. Bravaya,  H. Burton,  K. Carter-Fenk,  D. Casanova,  
 Chun-Min Chang,  Yunqing Chen,  A. Chien,  K. D. Closser,  M. P. Coons,  
 S. Coriani,  S. Dasgupta,  A. L. Dempwolff,  M. Diedenhofen,  Hainam Do,  
 R. G. Edgar,  Po-Tung Fang,  S. Faraji,  S. Fatehi,  Qingguo Feng,  
 J. Fosso-Tande,  J. Gayvert,  Qinghui Ge,  A. Ghysels,  G. Gidofalvi,  
 J. Gomes,  J. Gonthier,  A. Gunina,  D. Hait,  M. W. D. Hanson-Heine,  
 P. H. P. Harbach,  A. W. Hauser,  M. F. Herbst,  J. E. Herr,  
 E. G. Hohenstein,  Z. C. Holden,  Kerwin Hui,  B. C. Huynh,  T.-C. Jagau,  
 Hyunjun Ji,  B. Kaduk,  K. Khistyaev,  Jaehoon Kim,  P. Klunzinger,  K. Koh,  
 D. Kosenkov,  L. Koulias,  T. Kowalczyk,  C. M. Krauter,  A. Kunitsa,  
 Ka Un Lao,  A. Laurent,  K. V. Lawler,  Joonho Lee,  D. Lefrancois,  
 S. Lehtola,  D. S. Levine,  Yi-Pei Li,  You-Sheng Lin,  Fenglai Liu,  
 Kuan-Yu Liu,  E. Livshits,  M. Loipersberger,  A. Luenser,  P. Manohar,  
 E. Mansoor,  S. F. Manzer,  Shan-Ping Mao,  Yuezhi Mao,  N. Mardirossian,  
 A. V. Marenich,  T. Markovich,  L. A. Martinez-Martinez,  S. A. Maurer,  
 N. J. Mayhall,  S. C. McKenzie,  J.-M. Mewes,  P. Morgante,  A. F. Morrison,  
 J. W. Mullinax,  K. Nanda,  T. S. Nguyen-Beck,  R. Olivares-Amaya,  
 K. J. Oosterbaan,  J. A. Parkhill,  S. K. Paul,  F. Pavosevic,  Zheng Pei,  
 T. M. Perrine,  F. Plasser,  P. Pokhilko,  S. Prager,  A. Prociuk,  
 E. Ramos,  B. Rana,  D. R. Rehn,  F. Rob,  M. Scheurer,  M. Schneider,  
 N. Sergueev,  S. M. Sharada,  S. Sharma,  D. W. Small,  T. Stauch,  
 C. J. Stein,  T. Stein,  Yu-Chuan Su,  S. P. Veccham,  Zhen Tao,  
 A. J. W. Thom,  A. Tkatchenko,  T. Tsuchimochi,  N. M. Tubman,  L. Vogt,  
 M. L. Vidal,  O. Vydrov,  M. A. Watson,  J. Wenzel,  M. de Wergifosse,  
 T. A. Wesolowski,  A. White,  J. Witte,  A. Yamada,  Jun Yang,  K. Yao,  
 S. Yeganeh,  S. R. Yost,  Zhi-Qiang You,  A. Zech,  Igor Ying Zhang,  
 Xing Zhang,  Yan Zhao,  Ying Zhu,  B. R. Brooks,  G. K. L. Chan,  
 C. J. Cramer,  M. S. Gordon,  W. J. Hehre,  A. Klamt,  M. W. Schmidt,  
 C. D. Sherrill,  D. G. Truhlar,  A. Aspuru-Guzik,  R. Baer,  A. T. Bell,  
 N. A. Besley,  Jeng-Da Chai,  A. E. DePrince, III,  R. A. DiStasio Jr.,  
 A. Dreuw,  B. D. Dunietz,  T. R. Furlani,  Chao-Ping Hsu,  Yousung Jung,  
 Jing Kong,  D. S. Lambrecht,  WanZhen Liang,  C. Ochsenfeld,  
 V. A. Rassolov,  L. V. Slipchenko,  J. E. Subotnik,  T. Van Voorhis,  
 J. M. Herbert,  A. I. Krylov,  P. M. W. Gill,  M. Head-Gordon

 Contributors to earlier versions of Q-Chem not listed above: 
 R. D. Adamson,  B. Austin,  J. Baker,  G. J. O. Beran,  K. Brandhorst,  
 S. T. Brown,  E. F. C. Byrd,  A. K. Chakraborty,  C.-L. Cheng,  
 Siu Hung Chien,  D. M. Chipman,  D. L. Crittenden,  H. Dachsel,  
 R. J. Doerksen,  A. D. Dutoi,  L. Fusti-Molnar,  W. A. Goddard III,  
 A. Golubeva-Zadorozhnaya,  S. R. Gwaltney,  G. Hawkins,  A. Heyden,  
 S. Hirata,  G. Kedziora,  F. J. Keil,  C. Kelley,  Jihan Kim,  R. A. King,  
 R. Z. Khaliullin,  P. P. Korambath,  W. Kurlancheek,  A. M. Lee,  M. S. Lee,  
 S. V. Levchenko,  Ching Yeh Lin,  D. Liotard,  R. C. Lochan,  I. Lotan,  
 P. E. Maslen,  N. Nair,  D. P. O'Neill,  D. Neuhauser,  E. Neuscamman,  
 C. M. Oana,  R. Olson,  B. Peters,  R. Peverati,  P. A. Pieniazek,  
 Y. M. Rhee,  J. Ritchie,  M. A. Rohrdanz,  E. Rosta,  N. J. Russ,  
 H. F. Schaefer III,  N. E. Schultz,  N. Shenvi,  A. C. Simmonett,  A. Sodt,  
 D. Stuck,  K. S. Thanthiriwatte,  V. Vanovschi,  Tao Wang,  A. Warshel,  
 C. F. Williams,  Q. Wu,  X. Xu,  W. Zhang

 Please cite Q-Chem as follows:
 Y. Shao et al., Mol. Phys. 113, 184-215 (2015)
 DOI: 10.1080/00268976.2014.952696

 Q-Chem 5.3.0 for Intel X86 EM64T Linux

 Parts of Q-Chem use Armadillo 9.800.1 (Horizon Scraper).
 http://arma.sourceforge.net/

 Q-Chem begins on Mon Jul 27 14:25:43 2020  

Host: centos77-c7
0

     Scratch files written to /tmp/29924.centos77-h1/qchem104720//
Processing $rem in /opt/qchem-5.3.0-intel2020u1//config/preferences:
Processing $rem in /home/shihchengli/.qchemrc:

Checking the input file for inconsistencies... 	...done.

--------------------------------------------------------------
User input:
--------------------------------------------------------------
$rem
   JOBTYPE  sp
   EXCHANGE   omegaB97X-D
   BASIS   6-311+G(2df,2pd)
   UNRESTRICTED   False
   max_scf_cycles   250
   geom_opt_max_cycles   1500
   basis2 6-31G*
   scf_algorithm rca_diis
   SYM_IGNORE  TRUE
   print_input   true
   geom_opt_dmax   80
   pop_mulliken false
   XC_GRID 000075000302
$end

$molecule
0 1
C       -5.4566814475     0.2489398465     0.0086069312
C       -4.0870565597     0.9947412270     0.0620024546
H       -5.8255279615     -0.0878962469     -0.9604736439
H       -6.0727607588     1.1029536477     0.3103544434
H       -5.6253355405     -0.5376185733     0.7440547715
O       -2.7026130994     0.7094051839     -0.1491439332
H       -4.1878928039     1.3791922114     1.0844965861
H       -4.2279721651     1.8607106006     -0.5845281585
H       -2.4169696635     -0.0532078968     0.3549405488
$end
--------------------------------------------------------------
 ----------------------------------------------------------------
             Standard Nuclear Orientation (Angstroms)
    I     Atom           X                Y                Z
 ----------------------------------------------------------------
    1      C      -5.4566814475     0.2489398465     0.0086069312
    2      C      -4.0870565597     0.9947412270     0.0620024546
    3      H      -5.8255279615    -0.0878962469    -0.9604736439
    4      H      -6.0727607588     1.1029536477     0.3103544434
    5      H      -5.6253355405    -0.5376185733     0.7440547715
    6      O      -2.7026130994     0.7094051839    -0.1491439332
    7      H      -4.1878928039     1.3791922114     1.0844965861
    8      H      -4.2279721651     1.8607106006    -0.5845281585
    9      H      -2.4169696635    -0.0532078968     0.3549405488
 ----------------------------------------------------------------
 Nuclear Repulsion Energy =          79.44477331 hartrees
 There are       13 alpha and       13 beta electrons
 Requested basis set is 6-311+G(2df,2pd)
 There are 60 shells and 186 basis functions

 Total QAlloc Memory Limit   2000 MB
 Mega-Array Size       188 MB
 MEM_STATIC part       192 MB

                       Distance Matrix (Angstroms)
             C (  1)   C (  2)   H (  3)   H (  4)   H (  5)   O (  6)
   C (  2)  1.560430
   H (  3)  1.090240  2.289071
   H (  4)  1.095420  2.004098  1.759048
   H (  5)  1.089955  2.275879  1.774188  1.754925
   O (  6)  2.796749  1.429225  3.323634  3.424020  3.300785
   H (  7)  2.011177  1.097025  3.002682  2.056291  2.419981  2.043658
   H (  8)  2.111715  1.089845  2.547663  2.185922  3.077294  1.960047
   H (  9)  3.074262  1.993289  3.653736  3.834515  3.267977  0.957743
             H (  7)   H (  8)
   H (  8)  1.737559
   H (  9)  2.391692  2.797394
 
 A cutoff of  1.0D-09 yielded   1747 shell pairs
 There are     16829 function pairs (     20866 Cartesian)
 Smallest overlap matrix eigenvalue = 1.36E-04

 Scale SEOQF with 1.000000e-02/1.000000e-01/1.000000e-01

 Standard Electronic Orientation quadrupole field applied
 Nucleus-field energy     =     0.0000000026 hartrees
 Requested basis set is 6-31G(d)
 There are 24 shells and 54 basis functions
 A cutoff of  1.0D-09 yielded    295 shell pairs
 There are      1543 function pairs (      1726 Cartesian)
 Smallest overlap matrix eigenvalue = 8.47E-03
 Guess from superposition of atomic densities
 Warning:  Energy on first SCF cycle will be non-variational
 SAD guess density has 26.000000 electrons
 Long-range K will be added via erf
 Coulomb attenuation parameter = 0.2 bohr**(-1)
 A restricted hybrid HF-DFT SCF calculation will be
 performed using Relaxed Constraint Minimization + Pulay DIIS
 Exchange:     0.2220 Hartree-Fock + 1.0000 wB97X-D + LR-HF
 Correlation:  1.0000 wB97X-D
 Using Euler-Maclaurin-Lebedev (75,302) quadrature formula
 Dispersion:   Grimme D
 SCF converges when DIIS error is below 1.0E-04
 using 6 threads for integral computing
 -------------------------------------------------------
 OpenMP Integral computing Module                
 Release: version 1.0, May 2013, Q-Chem Inc. Pittsburgh 
 -------------------------------------------------------
 using 6 threads for integral computing
 -------------------------------------------------------
 OpenMP Integral computing Module                
 Release: version 1.0, May 2013, Q-Chem Inc. Pittsburgh 
 -------------------------------------------------------
 ---------------------------------------
  Cycle       Energy         DIIS Error
 ---------------------------------------
    1    -155.3729733987      1.03E-01
    2    -154.9022991376      1.31E-02
    3    -154.9284081876      3.04E-03
    4    -154.9527691588      2.47E-03
    5    -154.9535316705      2.47E-04 Done RCA. Switching to DIIS
    6    -154.9544077576      1.33E-04
    7    -154.9544132921      8.26E-06 Convergence criterion met
 ---------------------------------------
 SCF time:  CPU 13.97 s  wall 2.34 s
 SCF   energy in the small basis set = -154.95441329
 Total energy in the small basis set = -154.95441329
 ----------------------------------------------------
  Cycle       Energy    
 ----------------------------------------------------
    1     -18.7228426657     -1.87E+01
 Long-range K will be added via erf
 Coulomb attenuation parameter = 0.2 bohr**(-1)
 A restricted hybrid HF-DFT SCF calculation will be
 performed using Relaxed Constraint Minimization + Pulay DIIS
 Exchange:     0.2220 Hartree-Fock + 1.0000 wB97X-D + LR-HF
 Correlation:  1.0000 wB97X-D
 Using Euler-Maclaurin-Lebedev (75,302) quadrature formula
 Dispersion:   Grimme D
 SCF converges when DIIS error is below 1.0E-05
 Basis2 calculation detected. Using small basis as guess for larger.
 SCFMinFind is unable to tell whether the solution found is close.
 Resetting ReadMinima to 0 and attempting to follow guess.
 SCFMinFind following SCF Guess.
 using 6 threads for integral computing
 -------------------------------------------------------
 OpenMP Integral computing Module                
 Release: version 1.0, May 2013, Q-Chem Inc. Pittsburgh 
 -------------------------------------------------------
 using 6 threads for integral computing
 -------------------------------------------------------
 OpenMP Integral computing Module                
 Release: version 1.0, May 2013, Q-Chem Inc. Pittsburgh 
 -------------------------------------------------------
 ---------------------------------------
  Cycle       Energy         DIIS Error
 ---------------------------------------
    1    -154.9860955786      5.71E-03
    2    -155.0010512710      2.87E-03
    3    -155.0107380856      3.74E-04 Done RCA. Switching to DIIS
    4    -155.0225187164      2.84E-04
    5    -155.0227551906      3.93E-05
    6    -155.0227633192      5.66E-06 Convergence criterion met
 ---------------------------------------
 SCF time:  CPU 37.97 s  wall 6.35 s
 SCF   energy in the final basis set = -155.02276332
 Total energy in the final basis set = -155.02276332
 
 --------------------------------------------------------------
 
                    Orbital Energies (a.u.)
 --------------------------------------------------------------
 
 Alpha MOs
 -- Occupied --
-19.2528 -10.3320 -10.2852  -1.1217  -0.8562  -0.7231  -0.5950  -0.5434
 -0.5122  -0.4718  -0.4547  -0.4132  -0.3572
 -- Virtual --
  0.0621   0.0858   0.0919   0.1026   0.1247   0.1354   0.1419   0.1848
  0.1977   0.2176   0.2283   0.2405   0.2502   0.2696   0.2754   0.3021
  0.3308   0.3392   0.3578   0.3866   0.4543   0.4805   0.5084   0.5332
  0.5427   0.5812   0.5848   0.5909   0.6156   0.6565   0.6735   0.6810
  0.6885   0.7001   0.7802   0.8050   0.8257   0.8575   0.9195   0.9325
  0.9662   1.0371   1.0547   1.0938   1.1321   1.1784   1.1918   1.2094
  1.2294   1.2348   1.2743   1.2910   1.3410   1.3656   1.3784   1.4130
  1.4271   1.4414   1.4578   1.4686   1.5065   1.5678   1.5873   1.6199
  1.6380   1.6982   1.9266   2.1192   2.1394   2.2465   2.2723   2.4106
  2.5166   2.5230   2.5532   2.5795   2.6908   2.8052   2.8285   2.8955
  2.9276   2.9432   2.9622   3.0138   3.0381   3.0413   3.0559   3.0657
  3.1339   3.1662   3.1934   3.2290   3.2606   3.2750   3.2951   3.3096
  3.3385   3.3577   3.4011   3.4477   3.4638   3.5301   3.5518   3.5711
  3.5848   3.6138   3.6423   3.6622   3.7239   3.7421   3.7639   3.8397
  3.8587   3.8990   3.9142   3.9490   3.9749   4.0092   4.0325   4.0417
  4.0990   4.1243   4.1730   4.1909   4.2092   4.2344   4.2798   4.3031
  4.3680   4.4325   4.4705   4.5147   4.5905   4.6221   4.7473   4.8168
  4.8531   4.8714   4.9256   4.9724   5.0442   5.0836   5.1554   5.1938
  5.2163   5.2329   5.2423   5.2908   5.3526   5.3588   5.3701   5.4307
  5.5100   5.5378   5.6320   5.7390   5.9236   6.0912   6.3761   6.3894
  6.4021   6.6449   6.8113   6.8267   7.0884   7.3114   7.3824   7.5417
  7.7367   8.1016  25.1241  25.3773  50.4514
 --------------------------------------------------------------
 
 -----------------------------------------------------------------
                    Cartesian Multipole Moments
 -----------------------------------------------------------------
    Charge (ESU x 10^10)
                 0.0000
    Dipole Moment (Debye)
         X      -1.1820      Y      -0.8615      Z       1.0486
       Tot       1.7997
    Quadrupole Moments (Debye-Ang)
        XX     -11.2181     XY       0.3188     YY     -20.2509
        XZ      -2.4882     YZ      -0.2647     ZZ     -20.0740
    Octopole Moments (Debye-Ang^2)
       XXX     204.1663    XXY      -5.9991    XYY      82.5840
       YYY     -38.7737    XXZ       5.6712    XYZ       0.9769
       YYZ      -0.6211    XZZ      83.9357    YZZ     -13.2552
       ZZZ      -0.3018
    Hexadecapole Moments (Debye-Ang^3)
      XXXX   -2087.3028   XXXY      98.9386   XXYY    -388.8663
      XYYY     147.3632   YYYY     -99.7674   XXXZ      -8.1013
      XXYZ      -3.1372   XYYZ       2.8222   YYYZ      -2.7466
      XXZZ    -389.3735   XYZZ      51.6701   YYZZ     -21.9346
      XZZZ       5.9882   YZZZ      -0.3679   ZZZZ     -35.5091
 -----------------------------------------------------------------
Archival summary:
1\1\centos77-c7\SP\ProcedureUnspecified\BasisUnspecified\126\shihchen\MonJul2714:25:542020MonJul2714:25:542020\0\\#,ProcedureUnspecified,BasisUnspecified,\\0,1\C\H,1,1.08984\H,1,1.09703,2,105.223\O,1,1.42922,2,101.317,3,-111.595,0\H,4,0.957743,1,111.723,2,-179.313,0\C,1,1.56043,2,104.24,3,101.302,0\H,6,1.08995,1,117.234,2,-167.414,0\H,6,1.09024,1,118.361,2,58.7558,0\H,6,1.09542,1,96.4076,2,-54.7273,0\\\@

 Total job time:  10.83s(wall), 56.08s(cpu) 
 Mon Jul 27 14:25:54 2020

        *************************************************************
        *                                                           *
        *  Thank you very much for using Q-Chem.  Have a nice day.  *
        *                                                           *
        *************************************************************


