                  Welcome to Q-Chem
     A Quantum Leap Into The Future Of Chemistry


 Q-Chem 5.3 (devel), Q-Chem, Inc., Pleasanton, CA (2020)

 Yihan Shao,  Zhengting Gan,  E. Epifanovsky,  A. T. B. Gilbert,  M. Wormit,  
 J. Kussmann,  A. W. Lange,  A. Behn,  Jia Deng,  Xintian Feng,  D. Ghosh,  
 M. Goldey,  P. R. Horn,  L. D. Jacobson,  I. Kaliman,  T. Kus,  A. Landau,  
 Jie Liu,  E. I. Proynov,  R. M. Richard,  R. P. Steele,  E. J. Sundstrom,  
 H. L. Woodcock III,  P. M. Zimmerman,  D. Zuev,  B. Alam,  B. Albrecht,  
 E. Alguire,  S. A. Baeppler,  D. Barton,  Z. Benda,  Y. A. Bernard,  
 E. J. Berquist,  K. B. Bravaya,  H. Burton,  K. Carter-Fenk,  D. Casanova,  
 Chun-Min Chang,  Yunqing Chen,  A. Chien,  K. D. Closser,  M. P. Coons,  
 S. Coriani,  S. Dasgupta,  A. L. Dempwolff,  M. Diedenhofen,  Hainam Do,  
 R. G. Edgar,  Po-Tung Fang,  S. Faraji,  S. Fatehi,  Qingguo Feng,  
 J. Fosso-Tande,  J. Gayvert,  Qinghui Ge,  A. Ghysels,  G. Gidofalvi,  
 J. Gomes,  J. Gonthier,  A. Gunina,  D. Hait,  M. W. D. Hanson-Heine,  
 P. H. P. Harbach,  A. W. Hauser,  M. F. Herbst,  J. E. Herr,  
 E. G. Hohenstein,  Z. C. Holden,  Kerwin Hui,  B. C. Huynh,  T.-C. Jagau,  
 Hyunjun Ji,  B. Kaduk,  K. Khistyaev,  Jaehoon Kim,  P. Klunzinger,  K. Koh,  
 D. Kosenkov,  L. Koulias,  T. Kowalczyk,  C. M. Krauter,  A. Kunitsa,  
 Ka Un Lao,  A. Laurent,  K. V. Lawler,  Joonho Lee,  D. Lefrancois,  
 S. Lehtola,  D. S. Levine,  Yi-Pei Li,  You-Sheng Lin,  Fenglai Liu,  
 Kuan-Yu Liu,  E. Livshits,  M. Loipersberger,  A. Luenser,  P. Manohar,  
 E. Mansoor,  S. F. Manzer,  Shan-Ping Mao,  Yuezhi Mao,  N. Mardirossian,  
 A. V. Marenich,  T. Markovich,  L. A. Martinez-Martinez,  S. A. Maurer,  
 N. J. Mayhall,  S. C. McKenzie,  J.-M. Mewes,  P. Morgante,  A. F. Morrison,  
 J. W. Mullinax,  K. Nanda,  T. S. Nguyen-Beck,  R. Olivares-Amaya,  
 K. J. Oosterbaan,  J. A. Parkhill,  S. K. Paul,  F. Pavosevic,  Zheng Pei,  
 T. M. Perrine,  F. Plasser,  P. Pokhilko,  S. Prager,  A. Prociuk,  
 E. Ramos,  B. Rana,  D. R. Rehn,  F. Rob,  M. Scheurer,  M. Schneider,  
 N. Sergueev,  S. M. Sharada,  S. Sharma,  D. W. Small,  T. Stauch,  
 C. J. Stein,  T. Stein,  Yu-Chuan Su,  S. P. Veccham,  Zhen Tao,  
 A. J. W. Thom,  A. Tkatchenko,  T. Tsuchimochi,  N. M. Tubman,  L. Vogt,  
 M. L. Vidal,  O. Vydrov,  M. A. Watson,  J. Wenzel,  M. de Wergifosse,  
 T. A. Wesolowski,  A. White,  J. Witte,  A. Yamada,  Jun Yang,  K. Yao,  
 S. Yeganeh,  S. R. Yost,  Zhi-Qiang You,  A. Zech,  Igor Ying Zhang,  
 Xing Zhang,  Yan Zhao,  Ying Zhu,  B. R. Brooks,  G. K. L. Chan,  
 C. J. Cramer,  M. S. Gordon,  W. J. Hehre,  A. Klamt,  M. W. Schmidt,  
 C. D. Sherrill,  D. G. Truhlar,  A. Aspuru-Guzik,  R. Baer,  A. T. Bell,  
 N. A. Besley,  Jeng-Da Chai,  A. E. DePrince, III,  R. A. DiStasio Jr.,  
 A. Dreuw,  B. D. Dunietz,  T. R. Furlani,  Chao-Ping Hsu,  Yousung Jung,  
 Jing Kong,  D. S. Lambrecht,  WanZhen Liang,  C. Ochsenfeld,  
 V. A. Rassolov,  L. V. Slipchenko,  J. E. Subotnik,  T. Van Voorhis,  
 J. M. Herbert,  A. I. Krylov,  P. M. W. Gill,  M. Head-Gordon

 Contributors to earlier versions of Q-Chem not listed above: 
 R. D. Adamson,  B. Austin,  J. Baker,  G. J. O. Beran,  K. Brandhorst,  
 S. T. Brown,  E. F. C. Byrd,  A. K. Chakraborty,  C.-L. Cheng,  
 Siu Hung Chien,  D. M. Chipman,  D. L. Crittenden,  H. Dachsel,  
 R. J. Doerksen,  A. D. Dutoi,  L. Fusti-Molnar,  W. A. Goddard III,  
 A. Golubeva-Zadorozhnaya,  S. R. Gwaltney,  G. Hawkins,  A. Heyden,  
 S. Hirata,  G. Kedziora,  F. J. Keil,  C. Kelley,  Jihan Kim,  R. A. King,  
 R. Z. Khaliullin,  P. P. Korambath,  W. Kurlancheek,  A. M. Lee,  M. S. Lee,  
 S. V. Levchenko,  Ching Yeh Lin,  D. Liotard,  R. C. Lochan,  I. Lotan,  
 P. E. Maslen,  N. Nair,  D. P. O'Neill,  D. Neuhauser,  E. Neuscamman,  
 C. M. Oana,  R. Olson,  B. Peters,  R. Peverati,  P. A. Pieniazek,  
 Y. M. Rhee,  J. Ritchie,  M. A. Rohrdanz,  E. Rosta,  N. J. Russ,  
 H. F. Schaefer III,  N. E. Schultz,  N. Shenvi,  A. C. Simmonett,  A. Sodt,  
 D. Stuck,  K. S. Thanthiriwatte,  V. Vanovschi,  Tao Wang,  A. Warshel,  
 C. F. Williams,  Q. Wu,  X. Xu,  W. Zhang

 Please cite Q-Chem as follows:
 Y. Shao et al., Mol. Phys. 113, 184-215 (2015)
 DOI: 10.1080/00268976.2014.952696

 Q-Chem 5.3.0 for Intel X86 EM64T Linux

 Parts of Q-Chem use Armadillo 9.800.1 (Horizon Scraper).
 http://arma.sourceforge.net/

 Q-Chem begins on Mon Jul 27 14:44:10 2020  

Host: centos77-c7
0

     Scratch files written to /tmp/29924.centos77-h1/qchem109290//
Processing $rem in /opt/qchem-5.3.0-intel2020u1//config/preferences:
Processing $rem in /home/shihchengli/.qchemrc:

Checking the input file for inconsistencies... 	...done.

--------------------------------------------------------------
User input:
--------------------------------------------------------------
$rem
   JOBTYPE  sp
   EXCHANGE   omegaB97X-D
   BASIS   6-311+G(2df,2pd)
   UNRESTRICTED   False
   max_scf_cycles   250
   geom_opt_max_cycles   1500
   basis2 6-31G*
   scf_algorithm rca_diis
   SYM_IGNORE  TRUE
   print_input   true
   geom_opt_dmax   80
   pop_mulliken false
   XC_GRID 000075000302
$end

$molecule
0 1
C       -5.5015834274     0.1856261962     0.0211452237
C       -4.2501508416     1.1210422834     0.1257380883
H       -5.2681565763     0.0033205958     -1.0195418059
H       -6.1161878343     1.0019998909     0.3857775072
H       -5.1015187554     -0.4869653527     0.7758907033
O       -3.0407633023     0.4950533548     -0.3051899600
H       -4.1341356959     1.5669419592     1.1242988233
H       -4.1433970984     1.9326345885     -0.5930662737
H       -3.0469164682     -0.2024335160     0.3552576940
$end
--------------------------------------------------------------
 ----------------------------------------------------------------
             Standard Nuclear Orientation (Angstroms)
    I     Atom           X                Y                Z
 ----------------------------------------------------------------
    1      C      -5.5015834274     0.1856261962     0.0211452237
    2      C      -4.2501508416     1.1210422834     0.1257380883
    3      H      -5.2681565763     0.0033205958    -1.0195418059
    4      H      -6.1161878343     1.0019998909     0.3857775072
    5      H      -5.1015187554    -0.4869653527     0.7758907033
    6      O      -3.0407633023     0.4950533548    -0.3051899600
    7      H      -4.1341356959     1.5669419592     1.1242988233
    8      H      -4.1433970984     1.9326345885    -0.5930662737
    9      H      -3.0469164682    -0.2024335160     0.3552576940
 ----------------------------------------------------------------
 Nuclear Repulsion Energy =          82.51413747 hartrees
 There are       13 alpha and       13 beta electrons
 Requested basis set is 6-311+G(2df,2pd)
 There are 60 shells and 186 basis functions

 Total QAlloc Memory Limit   2000 MB
 Mega-Array Size       188 MB
 MEM_STATIC part       192 MB

                       Distance Matrix (Angstroms)
             C (  1)   C (  2)   H (  3)   H (  4)   H (  5)   O (  6)
   C (  2)  1.565895
   H (  3)  1.082013  1.896656
   H (  4)  1.084971  1.887826  1.921312
   H (  5)  1.087231  1.932153  1.868616  1.843572
   O (  6)  2.501575  1.428348  2.390268  3.192596  2.525828
   H (  7)  2.234926  1.099732  2.885649  2.189316  2.296901  2.094719
   H (  8)  2.296511  1.089384  2.273591  2.390841  2.940494  1.834479
   H (  9)  2.507511  1.803341  2.620366  3.297274  2.116431  0.960582
             H (  7)   H (  8)
   H (  8)  1.755893
   H (  9)  2.214534  2.580718
 
 A cutoff of  1.0D-09 yielded   1803 shell pairs
 There are     17478 function pairs (     21706 Cartesian)
 Smallest overlap matrix eigenvalue = 1.79E-04

 Scale SEOQF with 1.000000e-02/1.000000e-01/1.000000e-01

 Standard Electronic Orientation quadrupole field applied
 Nucleus-field energy     =     0.0000000025 hartrees
 Requested basis set is 6-31G(d)
 There are 24 shells and 54 basis functions
 A cutoff of  1.0D-09 yielded    298 shell pairs
 There are      1549 function pairs (      1732 Cartesian)
 Smallest overlap matrix eigenvalue = 7.16E-03
 Guess from superposition of atomic densities
 Warning:  Energy on first SCF cycle will be non-variational
 SAD guess density has 26.000000 electrons
 Long-range K will be added via erf
 Coulomb attenuation parameter = 0.2 bohr**(-1)
 A restricted hybrid HF-DFT SCF calculation will be
 performed using Relaxed Constraint Minimization + Pulay DIIS
 Exchange:     0.2220 Hartree-Fock + 1.0000 wB97X-D + LR-HF
 Correlation:  1.0000 wB97X-D
 Using Euler-Maclaurin-Lebedev (75,302) quadrature formula
 Dispersion:   Grimme D
 SCF converges when DIIS error is below 1.0E-04
 using 6 threads for integral computing
 -------------------------------------------------------
 OpenMP Integral computing Module                
 Release: version 1.0, May 2013, Q-Chem Inc. Pittsburgh 
 -------------------------------------------------------
 using 6 threads for integral computing
 -------------------------------------------------------
 OpenMP Integral computing Module                
 Release: version 1.0, May 2013, Q-Chem Inc. Pittsburgh 
 -------------------------------------------------------
 ---------------------------------------
  Cycle       Energy         DIIS Error
 ---------------------------------------
    1    -155.4688988997      1.07E-01
    2    -154.8638758571      1.39E-02
    3    -154.8931609135      3.09E-03
    4    -154.9220028127      2.37E-03
    5    -154.9227245829      2.73E-04 Done RCA. Switching to DIIS
    6    -154.9235617997      1.23E-04
    7    -154.9235673810      1.21E-05 Convergence criterion met
 ---------------------------------------
 SCF time:  CPU 14.43 s  wall 2.42 s
 SCF   energy in the small basis set = -154.92356738
 Total energy in the small basis set = -154.92356738
 ----------------------------------------------------
  Cycle       Energy    
 ----------------------------------------------------
    1     -18.7445492660     -1.87E+01
 Long-range K will be added via erf
 Coulomb attenuation parameter = 0.2 bohr**(-1)
 A restricted hybrid HF-DFT SCF calculation will be
 performed using Relaxed Constraint Minimization + Pulay DIIS
 Exchange:     0.2220 Hartree-Fock + 1.0000 wB97X-D + LR-HF
 Correlation:  1.0000 wB97X-D
 Using Euler-Maclaurin-Lebedev (75,302) quadrature formula
 Dispersion:   Grimme D
 SCF converges when DIIS error is below 1.0E-05
 Basis2 calculation detected. Using small basis as guess for larger.
 SCFMinFind is unable to tell whether the solution found is close.
 Resetting ReadMinima to 0 and attempting to follow guess.
 SCFMinFind following SCF Guess.
 using 6 threads for integral computing
 -------------------------------------------------------
 OpenMP Integral computing Module                
 Release: version 1.0, May 2013, Q-Chem Inc. Pittsburgh 
 -------------------------------------------------------
 using 6 threads for integral computing
 -------------------------------------------------------
 OpenMP Integral computing Module                
 Release: version 1.0, May 2013, Q-Chem Inc. Pittsburgh 
 -------------------------------------------------------
 ---------------------------------------
  Cycle       Energy         DIIS Error
 ---------------------------------------
    1    -154.9559057471      5.74E-03
    2    -154.9699762097      2.98E-03
    3    -154.9803922577      4.02E-04 Done RCA. Switching to DIIS
    4    -154.9931625249      3.12E-04
    5    -154.9934507206      4.01E-05
    6    -154.9934593522      6.70E-06 Convergence criterion met
 ---------------------------------------
 SCF time:  CPU 40.63 s  wall 6.79 s
 SCF   energy in the final basis set = -154.99345935
 Total energy in the final basis set = -154.99345935
 
 --------------------------------------------------------------
 
                    Orbital Energies (a.u.)
 --------------------------------------------------------------
 
 Alpha MOs
 -- Occupied --
-19.2508 -10.3293 -10.2846  -1.1348  -0.8637  -0.7157  -0.6065  -0.5521
 -0.5219  -0.4689  -0.4556  -0.4179  -0.3578
 -- Virtual --
  0.0611   0.0861   0.0924   0.0963   0.1249   0.1270   0.1348   0.1824
  0.1924   0.2041   0.2179   0.2448   0.2688   0.2720   0.2821   0.2929
  0.2995   0.3275   0.3358   0.3805   0.4446   0.4722   0.4866   0.5207
  0.5674   0.5807   0.5877   0.6013   0.6176   0.6352   0.6426   0.6645
  0.6728   0.7023   0.7570   0.8408   0.8611   0.9040   0.9060   0.9332
  1.0092   1.0441   1.0565   1.0954   1.1340   1.1655   1.1811   1.2047
  1.2435   1.2794   1.2972   1.3019   1.3465   1.3615   1.3766   1.4199
  1.4344   1.4505   1.4614   1.4748   1.4882   1.5208   1.5664   1.6057
  1.6933   1.7097   1.9108   1.9765   2.1098   2.2392   2.2887   2.5299
  2.5412   2.5975   2.6413   2.6994   2.7623   2.7643   2.7979   2.8276
  2.8763   2.8856   2.9337   2.9840   3.0009   3.0274   3.0572   3.0887
  3.1407   3.1761   3.1821   3.2269   3.2422   3.2669   3.3387   3.3631
  3.3847   3.4153   3.4422   3.4765   3.5251   3.5313   3.5354   3.5700
  3.5935   3.6468   3.6731   3.6866   3.7342   3.7512   3.7873   3.7965
  3.8496   3.8901   3.8941   3.9321   3.9372   3.9979   4.0503   4.0729
  4.0784   4.1252   4.1550   4.1984   4.2566   4.2927   4.3412   4.3875
  4.4164   4.4838   4.5104   4.5807   4.6194   4.7088   4.7293   4.7772
  4.8259   4.8752   4.9431   4.9524   5.0109   5.0331   5.0744   5.1043
  5.1684   5.2107   5.2582   5.3182   5.4342   5.4725   5.5334   5.6280
  5.6838   5.7971   5.8079   5.9994   6.0158   6.1035   6.3047   6.3384
  6.4147   6.5944   6.6372   6.7824   7.1306   7.4109   7.4385   7.5564
  7.6215   8.0897  25.1216  25.4379  50.4862
 --------------------------------------------------------------
 
 -----------------------------------------------------------------
                    Cartesian Multipole Moments
 -----------------------------------------------------------------
    Charge (ESU x 10^10)
                -0.0000
    Dipole Moment (Debye)
         X      -0.9223      Y      -0.0827      Z       1.3644
       Tot       1.6490
    Quadrupole Moments (Debye-Ang)
        XX     -16.0456     XY      -2.2817     YY     -19.3520
        XZ      -4.2627     YZ      -0.1494     ZZ     -19.5446
    Octopole Moments (Debye-Ang^2)
       XXX     259.6346    XXY       7.3240    XYY      83.4482
       YYY     -35.0616    XXZ      14.5776    XYZ       0.0452
       YYZ       0.3697    XZZ      84.5635    YZZ     -11.7498
       ZZZ       0.7287
    Hexadecapole Moments (Debye-Ang^3)
      XXXX   -2556.8669   XXXY      23.8063   XXYY    -401.6805
      XYYY     144.1242   YYYY    -100.6345   XXXZ     -51.8213
      XXYZ       3.1126   XYYZ      -0.5100   YYYZ      -2.2938
      XXZZ    -398.5822   XYZZ      48.5085   YYZZ     -21.9765
      XZZZ       4.9628   YZZZ      -1.3434   ZZZZ     -38.1275
 -----------------------------------------------------------------
Archival summary:
1\1\centos77-c7\SP\ProcedureUnspecified\BasisUnspecified\126\shihchen\MonJul2714:44:212020MonJul2714:44:212020\0\\#,ProcedureUnspecified,BasisUnspecified,\\0,1\C\H,1,1.08938\H,1,1.09973,2,106.662\O,1,1.42835,2,92.5485,3,-113.072,0\H,4,0.960582,1,96.0485,2,175.627,0\C,1,1.56589,2,118.639,3,128.602,0\H,6,1.08201,1,89.5692,2,53.1254,0\H,6,1.08497,1,88.8988,2,-71.7986,0\H,6,1.08723,1,91.6681,2,172.076,0\\\@

 Total job time:  11.43s(wall), 58.93s(cpu) 
 Mon Jul 27 14:44:21 2020

        *************************************************************
        *                                                           *
        *  Thank you very much for using Q-Chem.  Have a nice day.  *
        *                                                           *
        *************************************************************


