                  Welcome to Q-Chem
     A Quantum Leap Into The Future Of Chemistry


 Q-Chem 5.3 (devel), Q-Chem, Inc., Pleasanton, CA (2020)

 Yihan Shao,  Zhengting Gan,  E. Epifanovsky,  A. T. B. Gilbert,  M. Wormit,  
 J. Kussmann,  A. W. Lange,  A. Behn,  Jia Deng,  Xintian Feng,  D. Ghosh,  
 M. Goldey,  P. R. Horn,  L. D. Jacobson,  I. Kaliman,  T. Kus,  A. Landau,  
 Jie Liu,  E. I. Proynov,  R. M. Richard,  R. P. Steele,  E. J. Sundstrom,  
 H. L. Woodcock III,  P. M. Zimmerman,  D. Zuev,  B. Alam,  B. Albrecht,  
 E. Alguire,  S. A. Baeppler,  D. Barton,  Z. Benda,  Y. A. Bernard,  
 E. J. Berquist,  K. B. Bravaya,  H. Burton,  K. Carter-Fenk,  D. Casanova,  
 Chun-Min Chang,  Yunqing Chen,  A. Chien,  K. D. Closser,  M. P. Coons,  
 S. Coriani,  S. Dasgupta,  A. L. Dempwolff,  M. Diedenhofen,  Hainam Do,  
 R. G. Edgar,  Po-Tung Fang,  S. Faraji,  S. Fatehi,  Qingguo Feng,  
 J. Fosso-Tande,  J. Gayvert,  Qinghui Ge,  A. Ghysels,  G. Gidofalvi,  
 J. Gomes,  J. Gonthier,  A. Gunina,  D. Hait,  M. W. D. Hanson-Heine,  
 P. H. P. Harbach,  A. W. Hauser,  M. F. Herbst,  J. E. Herr,  
 E. G. Hohenstein,  Z. C. Holden,  Kerwin Hui,  B. C. Huynh,  T.-C. Jagau,  
 Hyunjun Ji,  B. Kaduk,  K. Khistyaev,  Jaehoon Kim,  P. Klunzinger,  K. Koh,  
 D. Kosenkov,  L. Koulias,  T. Kowalczyk,  C. M. Krauter,  A. Kunitsa,  
 Ka Un Lao,  A. Laurent,  K. V. Lawler,  Joonho Lee,  D. Lefrancois,  
 S. Lehtola,  D. S. Levine,  Yi-Pei Li,  You-Sheng Lin,  Fenglai Liu,  
 Kuan-Yu Liu,  E. Livshits,  M. Loipersberger,  A. Luenser,  P. Manohar,  
 E. Mansoor,  S. F. Manzer,  Shan-Ping Mao,  Yuezhi Mao,  N. Mardirossian,  
 A. V. Marenich,  T. Markovich,  L. A. Martinez-Martinez,  S. A. Maurer,  
 N. J. Mayhall,  S. C. McKenzie,  J.-M. Mewes,  P. Morgante,  A. F. Morrison,  
 J. W. Mullinax,  K. Nanda,  T. S. Nguyen-Beck,  R. Olivares-Amaya,  
 K. J. Oosterbaan,  J. A. Parkhill,  S. K. Paul,  F. Pavosevic,  Zheng Pei,  
 T. M. Perrine,  F. Plasser,  P. Pokhilko,  S. Prager,  A. Prociuk,  
 E. Ramos,  B. Rana,  D. R. Rehn,  F. Rob,  M. Scheurer,  M. Schneider,  
 N. Sergueev,  S. M. Sharada,  S. Sharma,  D. W. Small,  T. Stauch,  
 C. J. Stein,  T. Stein,  Yu-Chuan Su,  S. P. Veccham,  Zhen Tao,  
 A. J. W. Thom,  A. Tkatchenko,  T. Tsuchimochi,  N. M. Tubman,  L. Vogt,  
 M. L. Vidal,  O. Vydrov,  M. A. Watson,  J. Wenzel,  M. de Wergifosse,  
 T. A. Wesolowski,  A. White,  J. Witte,  A. Yamada,  Jun Yang,  K. Yao,  
 S. Yeganeh,  S. R. Yost,  Zhi-Qiang You,  A. Zech,  Igor Ying Zhang,  
 Xing Zhang,  Yan Zhao,  Ying Zhu,  B. R. Brooks,  G. K. L. Chan,  
 C. J. Cramer,  M. S. Gordon,  W. J. Hehre,  A. Klamt,  M. W. Schmidt,  
 C. D. Sherrill,  D. G. Truhlar,  A. Aspuru-Guzik,  R. Baer,  A. T. Bell,  
 N. A. Besley,  Jeng-Da Chai,  A. E. DePrince, III,  R. A. DiStasio Jr.,  
 A. Dreuw,  B. D. Dunietz,  T. R. Furlani,  Chao-Ping Hsu,  Yousung Jung,  
 Jing Kong,  D. S. Lambrecht,  WanZhen Liang,  C. Ochsenfeld,  
 V. A. Rassolov,  L. V. Slipchenko,  J. E. Subotnik,  T. Van Voorhis,  
 J. M. Herbert,  A. I. Krylov,  P. M. W. Gill,  M. Head-Gordon

 Contributors to earlier versions of Q-Chem not listed above: 
 R. D. Adamson,  B. Austin,  J. Baker,  G. J. O. Beran,  K. Brandhorst,  
 S. T. Brown,  E. F. C. Byrd,  A. K. Chakraborty,  C.-L. Cheng,  
 Siu Hung Chien,  D. M. Chipman,  D. L. Crittenden,  H. Dachsel,  
 R. J. Doerksen,  A. D. Dutoi,  L. Fusti-Molnar,  W. A. Goddard III,  
 A. Golubeva-Zadorozhnaya,  S. R. Gwaltney,  G. Hawkins,  A. Heyden,  
 S. Hirata,  G. Kedziora,  F. J. Keil,  C. Kelley,  Jihan Kim,  R. A. King,  
 R. Z. Khaliullin,  P. P. Korambath,  W. Kurlancheek,  A. M. Lee,  M. S. Lee,  
 S. V. Levchenko,  Ching Yeh Lin,  D. Liotard,  R. C. Lochan,  I. Lotan,  
 P. E. Maslen,  N. Nair,  D. P. O'Neill,  D. Neuhauser,  E. Neuscamman,  
 C. M. Oana,  R. Olson,  B. Peters,  R. Peverati,  P. A. Pieniazek,  
 Y. M. Rhee,  J. Ritchie,  M. A. Rohrdanz,  E. Rosta,  N. J. Russ,  
 H. F. Schaefer III,  N. E. Schultz,  N. Shenvi,  A. C. Simmonett,  A. Sodt,  
 D. Stuck,  K. S. Thanthiriwatte,  V. Vanovschi,  Tao Wang,  A. Warshel,  
 C. F. Williams,  Q. Wu,  X. Xu,  W. Zhang

 Please cite Q-Chem as follows:
 Y. Shao et al., Mol. Phys. 113, 184-215 (2015)
 DOI: 10.1080/00268976.2014.952696

 Q-Chem 5.3.0 for Intel X86 EM64T Linux

 Parts of Q-Chem use Armadillo 9.800.1 (Horizon Scraper).
 http://arma.sourceforge.net/

 Q-Chem begins on Mon Jul 27 14:40:01 2020  

Host: centos77-c7
0

     Scratch files written to /tmp/29924.centos77-h1/qchem108294//
Processing $rem in /opt/qchem-5.3.0-intel2020u1//config/preferences:
Processing $rem in /home/shihchengli/.qchemrc:

Checking the input file for inconsistencies... 	...done.

--------------------------------------------------------------
User input:
--------------------------------------------------------------
$rem
   JOBTYPE  sp
   EXCHANGE   omegaB97X-D
   BASIS   6-311+G(2df,2pd)
   UNRESTRICTED   False
   max_scf_cycles   250
   geom_opt_max_cycles   1500
   basis2 6-31G*
   scf_algorithm rca_diis
   SYM_IGNORE  TRUE
   print_input   true
   geom_opt_dmax   80
   pop_mulliken false
   XC_GRID 000075000302
$end

$molecule
0 1
C       -5.3729973731     0.3548057091     -0.0588948944
C       -4.0971353848     1.1402514956     0.1486356129
H       -5.5280174103     -0.1236122767     -1.0240949962
H       -6.2581075613     0.8642734065     0.3214776442
H       -5.2262607759     -0.4481765291     0.6734604408
O       -2.9295726597     0.4749170367     -0.2489245295
H       -3.8680117369     1.5723296260     1.1268213183
H       -4.3518873156     1.9527947530     -0.5296525302
H       -2.9708197822     -0.1703632210     0.4614819342
$end
--------------------------------------------------------------
 ----------------------------------------------------------------
             Standard Nuclear Orientation (Angstroms)
    I     Atom           X                Y                Z
 ----------------------------------------------------------------
    1      C      -5.3729973731     0.3548057091    -0.0588948944
    2      C      -4.0971353848     1.1402514956     0.1486356129
    3      H      -5.5280174103    -0.1236122767    -1.0240949962
    4      H      -6.2581075613     0.8642734065     0.3214776442
    5      H      -5.2262607759    -0.4481765291     0.6734604408
    6      O      -2.9295726597     0.4749170367    -0.2489245295
    7      H      -3.8680117369     1.5723296260     1.1268213183
    8      H      -4.3518873156     1.9527947530    -0.5296525302
    9      H      -2.9708197822    -0.1703632210     0.4614819342
 ----------------------------------------------------------------
 Nuclear Repulsion Energy =          82.52597944 hartrees
 There are       13 alpha and       13 beta electrons
 Requested basis set is 6-311+G(2df,2pd)
 There are 60 shells and 186 basis functions

 Total QAlloc Memory Limit   2000 MB
 Mega-Array Size       188 MB
 MEM_STATIC part       192 MB

                       Distance Matrix (Angstroms)
             C (  1)   C (  2)   H (  3)   H (  4)   H (  5)   O (  6)
   C (  2)  1.512553
   H (  3)  1.088359  2.240552
   H (  4)  1.089798  2.185369  1.821954
   H (  5)  1.096657  2.018284  1.754450  1.706202
   O (  6)  2.453745  1.401402  2.776876  3.399427  2.641528
   H (  7)  2.270081  1.093635  3.202855  2.619634  2.476453  1.994407
   H (  8)  1.953931  1.088669  2.437052  2.354353  2.824300  2.070244
   H (  9)  2.513375  1.756181  2.957767  3.449106  2.282352  0.960607
             H (  7)   H (  8)
   H (  8)  1.767143
   H (  9)  2.069930  2.719834
 
 A cutoff of  1.0D-09 yielded   1790 shell pairs
 There are     17362 function pairs (     21561 Cartesian)
 Smallest overlap matrix eigenvalue = 1.25E-04

 Scale SEOQF with 1.000000e-02/1.000000e-01/1.000000e-01

 Standard Electronic Orientation quadrupole field applied
 Nucleus-field energy     =     0.0000000026 hartrees
 Requested basis set is 6-31G(d)
 There are 24 shells and 54 basis functions
 A cutoff of  1.0D-09 yielded    298 shell pairs
 There are      1549 function pairs (      1732 Cartesian)
 Smallest overlap matrix eigenvalue = 6.99E-03
 Guess from superposition of atomic densities
 Warning:  Energy on first SCF cycle will be non-variational
 SAD guess density has 26.000000 electrons
 Long-range K will be added via erf
 Coulomb attenuation parameter = 0.2 bohr**(-1)
 A restricted hybrid HF-DFT SCF calculation will be
 performed using Relaxed Constraint Minimization + Pulay DIIS
 Exchange:     0.2220 Hartree-Fock + 1.0000 wB97X-D + LR-HF
 Correlation:  1.0000 wB97X-D
 Using Euler-Maclaurin-Lebedev (75,302) quadrature formula
 Dispersion:   Grimme D
 SCF converges when DIIS error is below 1.0E-04
 using 6 threads for integral computing
 -------------------------------------------------------
 OpenMP Integral computing Module                
 Release: version 1.0, May 2013, Q-Chem Inc. Pittsburgh 
 -------------------------------------------------------
 using 6 threads for integral computing
 -------------------------------------------------------
 OpenMP Integral computing Module                
 Release: version 1.0, May 2013, Q-Chem Inc. Pittsburgh 
 -------------------------------------------------------
 ---------------------------------------
  Cycle       Energy         DIIS Error
 ---------------------------------------
    1    -155.5081630566      1.09E-01
    2    -154.9017633951      1.35E-02
    3    -154.9304841884      3.12E-03
    4    -154.9568975354      2.53E-03
    5    -154.9576899884      2.43E-04 Done RCA. Switching to DIIS
    6    -154.9585870987      1.21E-04
    7    -154.9585915662      8.06E-06 Convergence criterion met
 ---------------------------------------
 SCF time:  CPU 14.31 s  wall 2.40 s
 SCF   energy in the small basis set = -154.95859157
 Total energy in the small basis set = -154.95859157
 ----------------------------------------------------
  Cycle       Energy    
 ----------------------------------------------------
    1     -18.7629440772     -1.88E+01
 Long-range K will be added via erf
 Coulomb attenuation parameter = 0.2 bohr**(-1)
 A restricted hybrid HF-DFT SCF calculation will be
 performed using Relaxed Constraint Minimization + Pulay DIIS
 Exchange:     0.2220 Hartree-Fock + 1.0000 wB97X-D + LR-HF
 Correlation:  1.0000 wB97X-D
 Using Euler-Maclaurin-Lebedev (75,302) quadrature formula
 Dispersion:   Grimme D
 SCF converges when DIIS error is below 1.0E-05
 Basis2 calculation detected. Using small basis as guess for larger.
 SCFMinFind is unable to tell whether the solution found is close.
 Resetting ReadMinima to 0 and attempting to follow guess.
 SCFMinFind following SCF Guess.
 using 6 threads for integral computing
 -------------------------------------------------------
 OpenMP Integral computing Module                
 Release: version 1.0, May 2013, Q-Chem Inc. Pittsburgh 
 -------------------------------------------------------
 using 6 threads for integral computing
 -------------------------------------------------------
 OpenMP Integral computing Module                
 Release: version 1.0, May 2013, Q-Chem Inc. Pittsburgh 
 -------------------------------------------------------
 ---------------------------------------
  Cycle       Energy         DIIS Error
 ---------------------------------------
    1    -154.9913043967      5.69E-03
    2    -155.0072704945      2.74E-03
    3    -155.0161485920      3.38E-04 Done RCA. Switching to DIIS
    4    -155.0267957185      2.37E-04
    5    -155.0269665077      3.92E-05
    6    -155.0269744802      5.53E-06 Convergence criterion met
 ---------------------------------------
 SCF time:  CPU 39.76 s  wall 6.65 s
 SCF   energy in the final basis set = -155.02697448
 Total energy in the final basis set = -155.02697448
 
 --------------------------------------------------------------
 
                    Orbital Energies (a.u.)
 --------------------------------------------------------------
 
 Alpha MOs
 -- Occupied --
-19.2524 -10.3257 -10.2772  -1.1424  -0.8543  -0.7153  -0.6000  -0.5459
 -0.5348  -0.4922  -0.4571  -0.3934  -0.3679
 -- Virtual --
  0.0623   0.0858   0.0890   0.1014   0.1260   0.1317   0.1350   0.1806
  0.2010   0.2105   0.2286   0.2426   0.2656   0.2898   0.2960   0.2985
  0.3146   0.3398   0.3433   0.3913   0.4624   0.4828   0.5065   0.5205
  0.5620   0.5698   0.5884   0.6118   0.6240   0.6268   0.6545   0.6752
  0.6973   0.7188   0.7374   0.8081   0.8522   0.9153   0.9450   0.9523
  0.9802   1.0377   1.0651   1.1122   1.1437   1.1550   1.1762   1.2151
  1.2404   1.2679   1.2848   1.2977   1.3531   1.3651   1.3766   1.4174
  1.4495   1.4628   1.4735   1.4927   1.5093   1.5349   1.5935   1.6232
  1.6663   1.7525   1.9238   2.0661   2.1134   2.2965   2.3074   2.4677
  2.4827   2.5177   2.5619   2.5986   2.7214   2.7961   2.8212   2.8615
  2.9046   2.9530   2.9919   3.0054   3.0399   3.0473   3.0823   3.1077
  3.1219   3.1766   3.2132   3.2691   3.2864   3.3239   3.3492   3.3719
  3.3964   3.4037   3.4584   3.4643   3.5195   3.5578   3.5635   3.5815
  3.6043   3.6194   3.6374   3.6608   3.7246   3.7734   3.7891   3.8344
  3.8783   3.8944   3.9327   3.9830   3.9927   4.0055   4.0670   4.0866
  4.1389   4.1445   4.1647   4.1997   4.2087   4.2674   4.2884   4.3210
  4.3768   4.4216   4.4443   4.5169   4.5935   4.6628   4.6817   4.7980
  4.8940   4.9244   4.9757   5.0139   5.0545   5.1076   5.1452   5.1728
  5.2005   5.2632   5.2877   5.3345   5.3517   5.3675   5.4398   5.5157
  5.6162   5.6241   5.7065   5.8813   6.0347   6.0664   6.3520   6.4044
  6.4267   6.6049   6.6390   6.8198   7.1221   7.4276   7.4784   7.5750
  7.6507   8.0787  25.2052  25.4253  50.4735
 --------------------------------------------------------------
 
 -----------------------------------------------------------------
                    Cartesian Multipole Moments
 -----------------------------------------------------------------
    Charge (ESU x 10^10)
                 0.0000
    Dipole Moment (Debye)
         X      -1.3660      Y      -0.2827      Z       1.3536
       Tot       1.9437
    Quadrupole Moments (Debye-Ang)
        XX     -10.7855     XY      -0.8513     YY     -19.6676
        XZ      -3.3252     YZ       0.1227     ZZ     -19.5219
    Octopole Moments (Debye-Ang^2)
       XXX     206.3858    XXY      -3.0259    XYY      83.0115
       YYY     -38.1864    XXZ       6.8133    XYZ      -0.6917
       YYZ       0.3768    XZZ      82.9732    YZZ     -12.7011
       ZZZ       0.8934
    Hexadecapole Moments (Debye-Ang^3)
      XXXX   -2083.0585   XXXY      93.2472   XXYY    -394.6217
      XYYY     156.0079   YYYY    -105.2302   XXXZ      -5.6839
      XXYZ       4.3613   XYYZ      -0.1011   YYYZ      -2.6297
      XXZZ    -384.6534   XYZZ      52.9380   YYZZ     -22.1980
      XZZZ       0.8958   YZZZ      -1.5277   ZZZZ     -36.8926
 -----------------------------------------------------------------
Archival summary:
1\1\centos77-c7\SP\ProcedureUnspecified\BasisUnspecified\126\shihchen\MonJul2714:40:122020MonJul2714:40:122020\0\\#,ProcedureUnspecified,BasisUnspecified,\\0,1\C\H,1,1.08867\H,1,1.09363,2,108.145\O,1,1.4014,2,111.873,3,-115.726,0\H,4,0.960607,1,94.2062,2,-177.686,0\C,1,1.51255,2,96.0102,3,124.642,0\H,6,1.08836,1,118.04,2,69.5275,0\H,6,1.0898,1,113.231,2,-66.6093,0\H,6,1.09666,1,100.121,2,-175.12,0\\\@

 Total job time:  11.19s(wall), 57.85s(cpu) 
 Mon Jul 27 14:40:12 2020

        *************************************************************
        *                                                           *
        *  Thank you very much for using Q-Chem.  Have a nice day.  *
        *                                                           *
        *************************************************************


