                  Welcome to Q-Chem
     A Quantum Leap Into The Future Of Chemistry


 Q-Chem 5.3 (devel), Q-Chem, Inc., Pleasanton, CA (2020)

 Yihan Shao,  Zhengting Gan,  E. Epifanovsky,  A. T. B. Gilbert,  M. Wormit,  
 J. Kussmann,  A. W. Lange,  A. Behn,  Jia Deng,  Xintian Feng,  D. Ghosh,  
 M. Goldey,  P. R. Horn,  L. D. Jacobson,  I. Kaliman,  T. Kus,  A. Landau,  
 Jie Liu,  E. I. Proynov,  R. M. Richard,  R. P. Steele,  E. J. Sundstrom,  
 H. L. Woodcock III,  P. M. Zimmerman,  D. Zuev,  B. Alam,  B. Albrecht,  
 E. Alguire,  S. A. Baeppler,  D. Barton,  Z. Benda,  Y. A. Bernard,  
 E. J. Berquist,  K. B. Bravaya,  H. Burton,  K. Carter-Fenk,  D. Casanova,  
 Chun-Min Chang,  Yunqing Chen,  A. Chien,  K. D. Closser,  M. P. Coons,  
 S. Coriani,  S. Dasgupta,  A. L. Dempwolff,  M. Diedenhofen,  Hainam Do,  
 R. G. Edgar,  Po-Tung Fang,  S. Faraji,  S. Fatehi,  Qingguo Feng,  
 J. Fosso-Tande,  J. Gayvert,  Qinghui Ge,  A. Ghysels,  G. Gidofalvi,  
 J. Gomes,  J. Gonthier,  A. Gunina,  D. Hait,  M. W. D. Hanson-Heine,  
 P. H. P. Harbach,  A. W. Hauser,  M. F. Herbst,  J. E. Herr,  
 E. G. Hohenstein,  Z. C. Holden,  Kerwin Hui,  B. C. Huynh,  T.-C. Jagau,  
 Hyunjun Ji,  B. Kaduk,  K. Khistyaev,  Jaehoon Kim,  P. Klunzinger,  K. Koh,  
 D. Kosenkov,  L. Koulias,  T. Kowalczyk,  C. M. Krauter,  A. Kunitsa,  
 Ka Un Lao,  A. Laurent,  K. V. Lawler,  Joonho Lee,  D. Lefrancois,  
 S. Lehtola,  D. S. Levine,  Yi-Pei Li,  You-Sheng Lin,  Fenglai Liu,  
 Kuan-Yu Liu,  E. Livshits,  M. Loipersberger,  A. Luenser,  P. Manohar,  
 E. Mansoor,  S. F. Manzer,  Shan-Ping Mao,  Yuezhi Mao,  N. Mardirossian,  
 A. V. Marenich,  T. Markovich,  L. A. Martinez-Martinez,  S. A. Maurer,  
 N. J. Mayhall,  S. C. McKenzie,  J.-M. Mewes,  P. Morgante,  A. F. Morrison,  
 J. W. Mullinax,  K. Nanda,  T. S. Nguyen-Beck,  R. Olivares-Amaya,  
 K. J. Oosterbaan,  J. A. Parkhill,  S. K. Paul,  F. Pavosevic,  Zheng Pei,  
 T. M. Perrine,  F. Plasser,  P. Pokhilko,  S. Prager,  A. Prociuk,  
 E. Ramos,  B. Rana,  D. R. Rehn,  F. Rob,  M. Scheurer,  M. Schneider,  
 N. Sergueev,  S. M. Sharada,  S. Sharma,  D. W. Small,  T. Stauch,  
 C. J. Stein,  T. Stein,  Yu-Chuan Su,  S. P. Veccham,  Zhen Tao,  
 A. J. W. Thom,  A. Tkatchenko,  T. Tsuchimochi,  N. M. Tubman,  L. Vogt,  
 M. L. Vidal,  O. Vydrov,  M. A. Watson,  J. Wenzel,  M. de Wergifosse,  
 T. A. Wesolowski,  A. White,  J. Witte,  A. Yamada,  Jun Yang,  K. Yao,  
 S. Yeganeh,  S. R. Yost,  Zhi-Qiang You,  A. Zech,  Igor Ying Zhang,  
 Xing Zhang,  Yan Zhao,  Ying Zhu,  B. R. Brooks,  G. K. L. Chan,  
 C. J. Cramer,  M. S. Gordon,  W. J. Hehre,  A. Klamt,  M. W. Schmidt,  
 C. D. Sherrill,  D. G. Truhlar,  A. Aspuru-Guzik,  R. Baer,  A. T. Bell,  
 N. A. Besley,  Jeng-Da Chai,  A. E. DePrince, III,  R. A. DiStasio Jr.,  
 A. Dreuw,  B. D. Dunietz,  T. R. Furlani,  Chao-Ping Hsu,  Yousung Jung,  
 Jing Kong,  D. S. Lambrecht,  WanZhen Liang,  C. Ochsenfeld,  
 V. A. Rassolov,  L. V. Slipchenko,  J. E. Subotnik,  T. Van Voorhis,  
 J. M. Herbert,  A. I. Krylov,  P. M. W. Gill,  M. Head-Gordon

 Contributors to earlier versions of Q-Chem not listed above: 
 R. D. Adamson,  B. Austin,  J. Baker,  G. J. O. Beran,  K. Brandhorst,  
 S. T. Brown,  E. F. C. Byrd,  A. K. Chakraborty,  C.-L. Cheng,  
 Siu Hung Chien,  D. M. Chipman,  D. L. Crittenden,  H. Dachsel,  
 R. J. Doerksen,  A. D. Dutoi,  L. Fusti-Molnar,  W. A. Goddard III,  
 A. Golubeva-Zadorozhnaya,  S. R. Gwaltney,  G. Hawkins,  A. Heyden,  
 S. Hirata,  G. Kedziora,  F. J. Keil,  C. Kelley,  Jihan Kim,  R. A. King,  
 R. Z. Khaliullin,  P. P. Korambath,  W. Kurlancheek,  A. M. Lee,  M. S. Lee,  
 S. V. Levchenko,  Ching Yeh Lin,  D. Liotard,  R. C. Lochan,  I. Lotan,  
 P. E. Maslen,  N. Nair,  D. P. O'Neill,  D. Neuhauser,  E. Neuscamman,  
 C. M. Oana,  R. Olson,  B. Peters,  R. Peverati,  P. A. Pieniazek,  
 Y. M. Rhee,  J. Ritchie,  M. A. Rohrdanz,  E. Rosta,  N. J. Russ,  
 H. F. Schaefer III,  N. E. Schultz,  N. Shenvi,  A. C. Simmonett,  A. Sodt,  
 D. Stuck,  K. S. Thanthiriwatte,  V. Vanovschi,  Tao Wang,  A. Warshel,  
 C. F. Williams,  Q. Wu,  X. Xu,  W. Zhang

 Please cite Q-Chem as follows:
 Y. Shao et al., Mol. Phys. 113, 184-215 (2015)
 DOI: 10.1080/00268976.2014.952696

 Q-Chem 5.3.0 for Intel X86 EM64T Linux

 Parts of Q-Chem use Armadillo 9.800.1 (Horizon Scraper).
 http://arma.sourceforge.net/

 Q-Chem begins on Mon Jul 27 14:41:21 2020  

Host: centos77-c7
0

     Scratch files written to /tmp/29924.centos77-h1/qchem108632//
Processing $rem in /opt/qchem-5.3.0-intel2020u1//config/preferences:
Processing $rem in /home/shihchengli/.qchemrc:

Checking the input file for inconsistencies... 	...done.

--------------------------------------------------------------
User input:
--------------------------------------------------------------
$rem
   JOBTYPE  sp
   EXCHANGE   omegaB97X-D
   BASIS   6-311+G(2df,2pd)
   UNRESTRICTED   False
   max_scf_cycles   250
   geom_opt_max_cycles   1500
   basis2 6-31G*
   scf_algorithm rca_diis
   SYM_IGNORE  TRUE
   print_input   true
   geom_opt_dmax   80
   pop_mulliken false
   XC_GRID 000075000302
$end

$molecule
0 1
C       -5.3140884161     0.3682360028     0.0875772557
C       -4.0085103302     1.1439697693     0.1405148277
H       -5.4813673410     -0.0658071616     -0.9003290836
H       -6.2442322253     0.8490475292     0.3925625158
H       -5.3204955003     -0.5671472290     0.6662473511
O       -2.8907500350     0.5003726228     -0.3577080128
H       -4.2997911246     1.6066279884     1.0988731080
H       -4.0485559937     1.9414696533     -0.5933655786
H       -2.9950190335     -0.1595491751     0.3359376168
$end
--------------------------------------------------------------
 ----------------------------------------------------------------
             Standard Nuclear Orientation (Angstroms)
    I     Atom           X                Y                Z
 ----------------------------------------------------------------
    1      C      -5.3140884161     0.3682360028     0.0875772557
    2      C      -4.0085103302     1.1439697693     0.1405148277
    3      H      -5.4813673410    -0.0658071616    -0.9003290836
    4      H      -6.2442322253     0.8490475292     0.3925625158
    5      H      -5.3204955003    -0.5671472290     0.6662473511
    6      O      -2.8907500350     0.5003726228    -0.3577080128
    7      H      -4.2997911246     1.6066279884     1.0988731080
    8      H      -4.0485559937     1.9414696533    -0.5933655786
    9      H      -2.9950190335    -0.1595491751     0.3359376168
 ----------------------------------------------------------------
 Nuclear Repulsion Energy =          82.65025757 hartrees
 There are       13 alpha and       13 beta electrons
 Requested basis set is 6-311+G(2df,2pd)
 There are 60 shells and 186 basis functions

 Total QAlloc Memory Limit   2000 MB
 Mega-Array Size       188 MB
 MEM_STATIC part       192 MB

                       Distance Matrix (Angstroms)
             C (  1)   C (  2)   H (  3)   H (  4)   H (  5)   O (  6)
   C (  2)  1.519572
   H (  3)  1.091941  2.171687
   H (  4)  1.090579  2.269132  1.757979
   H (  5)  1.099928  2.219374  1.652690  1.712834
   O (  6)  2.467450  1.382690  2.706713  3.454030  2.844599
   H (  7)  1.893445  1.103335  2.861813  2.203101  2.440144  2.308858
   H (  8)  2.130803  1.084523  2.485223  2.643186  3.081820  1.863548
   H (  9)  2.391302  1.662683  2.778322  3.402625  2.383921  0.963075
             H (  7)   H (  8)
   H (  8)  1.743247
   H (  9)  2.324625  2.527415
 
 A cutoff of  1.0D-09 yielded   1789 shell pairs
 There are     17347 function pairs (     21541 Cartesian)
 Smallest overlap matrix eigenvalue = 1.45E-04

 Scale SEOQF with 1.000000e-02/1.000000e-01/1.000000e-01

 Standard Electronic Orientation quadrupole field applied
 Nucleus-field energy     =     0.0000000025 hartrees
 Requested basis set is 6-31G(d)
 There are 24 shells and 54 basis functions
 A cutoff of  1.0D-09 yielded    298 shell pairs
 There are      1549 function pairs (      1732 Cartesian)
 Smallest overlap matrix eigenvalue = 7.18E-03
 Guess from superposition of atomic densities
 Warning:  Energy on first SCF cycle will be non-variational
 SAD guess density has 26.000000 electrons
 Long-range K will be added via erf
 Coulomb attenuation parameter = 0.2 bohr**(-1)
 A restricted hybrid HF-DFT SCF calculation will be
 performed using Relaxed Constraint Minimization + Pulay DIIS
 Exchange:     0.2220 Hartree-Fock + 1.0000 wB97X-D + LR-HF
 Correlation:  1.0000 wB97X-D
 Using Euler-Maclaurin-Lebedev (75,302) quadrature formula
 Dispersion:   Grimme D
 SCF converges when DIIS error is below 1.0E-04
 using 6 threads for integral computing
 -------------------------------------------------------
 OpenMP Integral computing Module                
 Release: version 1.0, May 2013, Q-Chem Inc. Pittsburgh 
 -------------------------------------------------------
 using 6 threads for integral computing
 -------------------------------------------------------
 OpenMP Integral computing Module                
 Release: version 1.0, May 2013, Q-Chem Inc. Pittsburgh 
 -------------------------------------------------------
 ---------------------------------------
  Cycle       Energy         DIIS Error
 ---------------------------------------
    1    -155.5477946952      1.10E-01
    2    -154.8780384311      1.31E-02
    3    -154.9057158740      3.25E-03
    4    -154.9306849939      2.85E-03
    5    -154.9316690298      2.91E-04 Done RCA. Switching to DIIS
    6    -154.9328144380      1.96E-04
    7    -154.9328251938      1.04E-05 Convergence criterion met
 ---------------------------------------
 SCF time:  CPU 14.36 s  wall 2.41 s
 SCF   energy in the small basis set = -154.93282519
 Total energy in the small basis set = -154.93282519
 ----------------------------------------------------
  Cycle       Energy    
 ----------------------------------------------------
    1     -18.7585732775     -1.88E+01
 Long-range K will be added via erf
 Coulomb attenuation parameter = 0.2 bohr**(-1)
 A restricted hybrid HF-DFT SCF calculation will be
 performed using Relaxed Constraint Minimization + Pulay DIIS
 Exchange:     0.2220 Hartree-Fock + 1.0000 wB97X-D + LR-HF
 Correlation:  1.0000 wB97X-D
 Using Euler-Maclaurin-Lebedev (75,302) quadrature formula
 Dispersion:   Grimme D
 SCF converges when DIIS error is below 1.0E-05
 Basis2 calculation detected. Using small basis as guess for larger.
 SCFMinFind is unable to tell whether the solution found is close.
 Resetting ReadMinima to 0 and attempting to follow guess.
 SCFMinFind following SCF Guess.
 using 6 threads for integral computing
 -------------------------------------------------------
 OpenMP Integral computing Module                
 Release: version 1.0, May 2013, Q-Chem Inc. Pittsburgh 
 -------------------------------------------------------
 using 6 threads for integral computing
 -------------------------------------------------------
 OpenMP Integral computing Module                
 Release: version 1.0, May 2013, Q-Chem Inc. Pittsburgh 
 -------------------------------------------------------
 ---------------------------------------
  Cycle       Energy         DIIS Error
 ---------------------------------------
    1    -154.9663797036      5.65E-03
    2    -154.9825145893      2.61E-03
    3    -154.9905681459      3.45E-04 Done RCA. Switching to DIIS
    4    -155.0003527538      2.45E-04
    5    -155.0005367388      3.96E-05
    6    -155.0005449964      5.22E-06 Convergence criterion met
 ---------------------------------------
 SCF time:  CPU 39.60 s  wall 6.63 s
 SCF   energy in the final basis set = -155.00054500
 Total energy in the final basis set = -155.00054500
 
 --------------------------------------------------------------
 
                    Orbital Energies (a.u.)
 --------------------------------------------------------------
 
 Alpha MOs
 -- Occupied --
-19.2685 -10.3291 -10.2744  -1.1624  -0.8542  -0.7195  -0.6200  -0.5528
 -0.5188  -0.4768  -0.4593  -0.4131  -0.3620
 -- Virtual --
  0.0621   0.0858   0.0885   0.0990   0.1231   0.1351   0.1367   0.1796
  0.1945   0.2130   0.2178   0.2426   0.2626   0.2837   0.2939   0.3001
  0.3145   0.3242   0.3466   0.3824   0.4757   0.4917   0.5066   0.5173
  0.5601   0.5633   0.5729   0.5987   0.6157   0.6366   0.6555   0.6636
  0.6817   0.7105   0.7548   0.8584   0.8813   0.8954   0.9394   0.9585
  0.9822   1.0299   1.0474   1.1144   1.1339   1.1555   1.1668   1.2293
  1.2435   1.2817   1.2975   1.3153   1.3273   1.3453   1.3694   1.4067
  1.4462   1.4577   1.4865   1.5103   1.5342   1.5405   1.5879   1.6194
  1.6591   1.7148   1.9166   2.1013   2.1335   2.2716   2.3120   2.4057
  2.4477   2.5290   2.5677   2.6106   2.7028   2.7543   2.8234   2.8728
  2.9125   2.9378   2.9589   2.9838   3.0302   3.0847   3.1150   3.1172
  3.1407   3.1857   3.2070   3.2717   3.2785   3.3047   3.3407   3.3745
  3.4010   3.4394   3.4597   3.4663   3.5204   3.5473   3.5557   3.5901
  3.5969   3.6170   3.6734   3.6788   3.7187   3.7501   3.7871   3.8101
  3.8795   3.8905   3.9257   3.9340   3.9888   3.9999   4.0189   4.0878
  4.1108   4.1528   4.1842   4.2370   4.2619   4.2706   4.3088   4.3500
  4.4285   4.4520   4.4876   4.5190   4.5739   4.6041   4.7331   4.8013
  4.8721   4.8858   4.9396   4.9786   5.0185   5.0784   5.1291   5.1885
  5.2070   5.2520   5.3101   5.3178   5.3505   5.3625   5.4365   5.4867
  5.5884   5.6553   5.6844   5.8234   6.1440   6.2362   6.3901   6.4120
  6.4931   6.6170   6.7270   6.9242   7.1021   7.3970   7.4914   7.5365
  7.6778   8.0409  25.1918  25.4086  50.4649
 --------------------------------------------------------------
 
 -----------------------------------------------------------------
                    Cartesian Multipole Moments
 -----------------------------------------------------------------
    Charge (ESU x 10^10)
                 0.0000
    Dipole Moment (Debye)
         X      -1.2947      Y      -0.4613      Z       1.3135
       Tot       1.9011
    Quadrupole Moments (Debye-Ang)
        XX     -11.2690     XY       0.0015     YY     -19.7383
        XZ      -4.3063     YZ      -0.1419     ZZ     -20.3480
    Octopole Moments (Debye-Ang^2)
       XXX     205.6826    XXY      -7.5042    XYY      82.3273
       YYY     -39.3980    XXZ      15.8394    XYZ      -0.3324
       YYZ      -0.2900    XZZ      85.4389    YZZ     -13.0452
       ZZZ       0.0427
    Hexadecapole Moments (Debye-Ang^3)
      XXXX   -2039.2659   XXXY     115.5661   XXYY    -387.8642
      XYYY     159.0158   YYYY    -107.9350   XXXZ     -58.7755
      XXYZ       5.7303   XYYZ       2.5754   YYYZ      -3.7150
      XXZZ    -392.0753   XYZZ      52.5381   YYZZ     -23.3110
      XZZZ       9.9703   YZZZ      -1.9829   ZZZZ     -40.1348
 -----------------------------------------------------------------
Archival summary:
1\1\centos77-c7\SP\ProcedureUnspecified\BasisUnspecified\126\shihchen\MonJul2714:41:332020MonJul2714:41:332020\0\\#,ProcedureUnspecified,BasisUnspecified,\\0,1\C\H,1,1.08452\H,1,1.10333,2,105.645\O,1,1.38269,2,97.3714,3,-142.356,0\H,4,0.963075,1,88.39,2,-178.21,0\C,1,1.51957,2,108.668,3,96.5346,0\H,6,1.09058,1,119.866,2,-66.633,0\H,6,1.09194,1,111.473,2,59.8551,0\H,6,1.09993,1,114.885,2,170.025,0\\\@

 Total job time:  11.29s(wall), 58.10s(cpu) 
 Mon Jul 27 14:41:33 2020

        *************************************************************
        *                                                           *
        *  Thank you very much for using Q-Chem.  Have a nice day.  *
        *                                                           *
        *************************************************************


