                  Welcome to Q-Chem
     A Quantum Leap Into The Future Of Chemistry


 Q-Chem 5.3 (devel), Q-Chem, Inc., Pleasanton, CA (2020)

 Yihan Shao,  Zhengting Gan,  E. Epifanovsky,  A. T. B. Gilbert,  M. Wormit,  
 J. Kussmann,  A. W. Lange,  A. Behn,  Jia Deng,  Xintian Feng,  D. Ghosh,  
 M. Goldey,  P. R. Horn,  L. D. Jacobson,  I. Kaliman,  T. Kus,  A. Landau,  
 Jie Liu,  E. I. Proynov,  R. M. Richard,  R. P. Steele,  E. J. Sundstrom,  
 H. L. Woodcock III,  P. M. Zimmerman,  D. Zuev,  B. Alam,  B. Albrecht,  
 E. Alguire,  S. A. Baeppler,  D. Barton,  Z. Benda,  Y. A. Bernard,  
 E. J. Berquist,  K. B. Bravaya,  H. Burton,  K. Carter-Fenk,  D. Casanova,  
 Chun-Min Chang,  Yunqing Chen,  A. Chien,  K. D. Closser,  M. P. Coons,  
 S. Coriani,  S. Dasgupta,  A. L. Dempwolff,  M. Diedenhofen,  Hainam Do,  
 R. G. Edgar,  Po-Tung Fang,  S. Faraji,  S. Fatehi,  Qingguo Feng,  
 J. Fosso-Tande,  J. Gayvert,  Qinghui Ge,  A. Ghysels,  G. Gidofalvi,  
 J. Gomes,  J. Gonthier,  A. Gunina,  D. Hait,  M. W. D. Hanson-Heine,  
 P. H. P. Harbach,  A. W. Hauser,  M. F. Herbst,  J. E. Herr,  
 E. G. Hohenstein,  Z. C. Holden,  Kerwin Hui,  B. C. Huynh,  T.-C. Jagau,  
 Hyunjun Ji,  B. Kaduk,  K. Khistyaev,  Jaehoon Kim,  P. Klunzinger,  K. Koh,  
 D. Kosenkov,  L. Koulias,  T. Kowalczyk,  C. M. Krauter,  A. Kunitsa,  
 Ka Un Lao,  A. Laurent,  K. V. Lawler,  Joonho Lee,  D. Lefrancois,  
 S. Lehtola,  D. S. Levine,  Yi-Pei Li,  You-Sheng Lin,  Fenglai Liu,  
 Kuan-Yu Liu,  E. Livshits,  M. Loipersberger,  A. Luenser,  P. Manohar,  
 E. Mansoor,  S. F. Manzer,  Shan-Ping Mao,  Yuezhi Mao,  N. Mardirossian,  
 A. V. Marenich,  T. Markovich,  L. A. Martinez-Martinez,  S. A. Maurer,  
 N. J. Mayhall,  S. C. McKenzie,  J.-M. Mewes,  P. Morgante,  A. F. Morrison,  
 J. W. Mullinax,  K. Nanda,  T. S. Nguyen-Beck,  R. Olivares-Amaya,  
 K. J. Oosterbaan,  J. A. Parkhill,  S. K. Paul,  F. Pavosevic,  Zheng Pei,  
 T. M. Perrine,  F. Plasser,  P. Pokhilko,  S. Prager,  A. Prociuk,  
 E. Ramos,  B. Rana,  D. R. Rehn,  F. Rob,  M. Scheurer,  M. Schneider,  
 N. Sergueev,  S. M. Sharada,  S. Sharma,  D. W. Small,  T. Stauch,  
 C. J. Stein,  T. Stein,  Yu-Chuan Su,  S. P. Veccham,  Zhen Tao,  
 A. J. W. Thom,  A. Tkatchenko,  T. Tsuchimochi,  N. M. Tubman,  L. Vogt,  
 M. L. Vidal,  O. Vydrov,  M. A. Watson,  J. Wenzel,  M. de Wergifosse,  
 T. A. Wesolowski,  A. White,  J. Witte,  A. Yamada,  Jun Yang,  K. Yao,  
 S. Yeganeh,  S. R. Yost,  Zhi-Qiang You,  A. Zech,  Igor Ying Zhang,  
 Xing Zhang,  Yan Zhao,  Ying Zhu,  B. R. Brooks,  G. K. L. Chan,  
 C. J. Cramer,  M. S. Gordon,  W. J. Hehre,  A. Klamt,  M. W. Schmidt,  
 C. D. Sherrill,  D. G. Truhlar,  A. Aspuru-Guzik,  R. Baer,  A. T. Bell,  
 N. A. Besley,  Jeng-Da Chai,  A. E. DePrince, III,  R. A. DiStasio Jr.,  
 A. Dreuw,  B. D. Dunietz,  T. R. Furlani,  Chao-Ping Hsu,  Yousung Jung,  
 Jing Kong,  D. S. Lambrecht,  WanZhen Liang,  C. Ochsenfeld,  
 V. A. Rassolov,  L. V. Slipchenko,  J. E. Subotnik,  T. Van Voorhis,  
 J. M. Herbert,  A. I. Krylov,  P. M. W. Gill,  M. Head-Gordon

 Contributors to earlier versions of Q-Chem not listed above: 
 R. D. Adamson,  B. Austin,  J. Baker,  G. J. O. Beran,  K. Brandhorst,  
 S. T. Brown,  E. F. C. Byrd,  A. K. Chakraborty,  C.-L. Cheng,  
 Siu Hung Chien,  D. M. Chipman,  D. L. Crittenden,  H. Dachsel,  
 R. J. Doerksen,  A. D. Dutoi,  L. Fusti-Molnar,  W. A. Goddard III,  
 A. Golubeva-Zadorozhnaya,  S. R. Gwaltney,  G. Hawkins,  A. Heyden,  
 S. Hirata,  G. Kedziora,  F. J. Keil,  C. Kelley,  Jihan Kim,  R. A. King,  
 R. Z. Khaliullin,  P. P. Korambath,  W. Kurlancheek,  A. M. Lee,  M. S. Lee,  
 S. V. Levchenko,  Ching Yeh Lin,  D. Liotard,  R. C. Lochan,  I. Lotan,  
 P. E. Maslen,  N. Nair,  D. P. O'Neill,  D. Neuhauser,  E. Neuscamman,  
 C. M. Oana,  R. Olson,  B. Peters,  R. Peverati,  P. A. Pieniazek,  
 Y. M. Rhee,  J. Ritchie,  M. A. Rohrdanz,  E. Rosta,  N. J. Russ,  
 H. F. Schaefer III,  N. E. Schultz,  N. Shenvi,  A. C. Simmonett,  A. Sodt,  
 D. Stuck,  K. S. Thanthiriwatte,  V. Vanovschi,  Tao Wang,  A. Warshel,  
 C. F. Williams,  Q. Wu,  X. Xu,  W. Zhang

 Please cite Q-Chem as follows:
 Y. Shao et al., Mol. Phys. 113, 184-215 (2015)
 DOI: 10.1080/00268976.2014.952696

 Q-Chem 5.3.0 for Intel X86 EM64T Linux

 Parts of Q-Chem use Armadillo 9.800.1 (Horizon Scraper).
 http://arma.sourceforge.net/

 Q-Chem begins on Mon Jul 27 14:57:22 2020  

Host: centos77-c7
0

     Scratch files written to /tmp/29924.centos77-h1/qchem112496//
Processing $rem in /opt/qchem-5.3.0-intel2020u1//config/preferences:
Processing $rem in /home/shihchengli/.qchemrc:

Checking the input file for inconsistencies... 	...done.

--------------------------------------------------------------
User input:
--------------------------------------------------------------
$rem
   JOBTYPE  sp
   EXCHANGE   omegaB97X-D
   BASIS   6-311+G(2df,2pd)
   UNRESTRICTED   False
   max_scf_cycles   250
   geom_opt_max_cycles   1500
   basis2 6-31G*
   scf_algorithm rca_diis
   SYM_IGNORE  TRUE
   print_input   true
   geom_opt_dmax   80
   pop_mulliken false
   XC_GRID 000075000302
$end

$molecule
0 1
C       -5.4079299556     0.3701696200     0.0172715603
C       -4.1464493628     1.2191813049     0.0914016755
H       -5.5193125665     -0.0531424043     -0.9968137984
H       -6.1264420618     0.8404337287     0.2232530564
H       -5.3350042391     -0.6010877701     0.8224697471
O       -2.9715677685     0.5069678314     -0.2605555468
H       -4.0367933264     1.6503924697     1.1315829966
H       -4.2035108303     1.9169360355     -0.4902120455
H       -2.8557998889     -0.2326308157     0.3319123549
$end
--------------------------------------------------------------
 ----------------------------------------------------------------
             Standard Nuclear Orientation (Angstroms)
    I     Atom           X                Y                Z
 ----------------------------------------------------------------
    1      C      -5.4079299556     0.3701696200     0.0172715603
    2      C      -4.1464493628     1.2191813049     0.0914016755
    3      H      -5.5193125665    -0.0531424043    -0.9968137984
    4      H      -6.1264420618     0.8404337287     0.2232530564
    5      H      -5.3350042391    -0.6010877701     0.8224697471
    6      O      -2.9715677685     0.5069678314    -0.2605555468
    7      H      -4.0367933264     1.6503924697     1.1315829966
    8      H      -4.2035108303     1.9169360355    -0.4902120455
    9      H      -2.8557998889    -0.2326308157     0.3319123549
 ----------------------------------------------------------------
 Nuclear Repulsion Energy =          82.78734638 hartrees
 There are       13 alpha and       13 beta electrons
 Requested basis set is 6-311+G(2df,2pd)
 There are 60 shells and 186 basis functions

 Total QAlloc Memory Limit   2000 MB
 Mega-Array Size       188 MB
 MEM_STATIC part       192 MB

                       Distance Matrix (Angstroms)
             C (  1)   C (  2)   H (  3)   H (  4)   H (  5)   O (  6)
   C (  2)  1.522383
   H (  3)  1.104522  2.165127
   H (  4)  0.883083  2.020199  1.629616
   H (  5)  1.263726  2.293579  1.908928  1.750262
   O (  6)  2.455965  1.418263  2.710499  3.209128  2.826051
   H (  7)  2.181897  1.131346  3.103219  2.418208  2.617263  2.092887
   H (  8)  2.025007  0.910161  2.422641  2.316367  3.056772  1.886382
   H (  9)  2.641162  1.957391  2.981951  3.443889  2.553989  0.954687
             H (  7)   H (  8)
   H (  8)  1.651986
   H (  9)  2.362201  2.666993
 
 A cutoff of  1.0D-09 yielded   1787 shell pairs
 There are     17371 function pairs (     21590 Cartesian)
 Smallest overlap matrix eigenvalue = 1.38E-04

 Scale SEOQF with 1.000000e-02/1.000000e-01/1.000000e-01

 Standard Electronic Orientation quadrupole field applied
 Nucleus-field energy     =     0.0000000027 hartrees
 Requested basis set is 6-31G(d)
 There are 24 shells and 54 basis functions
 A cutoff of  1.0D-09 yielded    298 shell pairs
 There are      1549 function pairs (      1732 Cartesian)
 Smallest overlap matrix eigenvalue = 6.56E-03
 Guess from superposition of atomic densities
 Warning:  Energy on first SCF cycle will be non-variational
 SAD guess density has 26.000000 electrons
 Long-range K will be added via erf
 Coulomb attenuation parameter = 0.2 bohr**(-1)
 A restricted hybrid HF-DFT SCF calculation will be
 performed using Relaxed Constraint Minimization + Pulay DIIS
 Exchange:     0.2220 Hartree-Fock + 1.0000 wB97X-D + LR-HF
 Correlation:  1.0000 wB97X-D
 Using Euler-Maclaurin-Lebedev (75,302) quadrature formula
 Dispersion:   Grimme D
 SCF converges when DIIS error is below 1.0E-04
 using 6 threads for integral computing
 -------------------------------------------------------
 OpenMP Integral computing Module                
 Release: version 1.0, May 2013, Q-Chem Inc. Pittsburgh 
 -------------------------------------------------------
 using 6 threads for integral computing
 -------------------------------------------------------
 OpenMP Integral computing Module                
 Release: version 1.0, May 2013, Q-Chem Inc. Pittsburgh 
 -------------------------------------------------------
 ---------------------------------------
  Cycle       Energy         DIIS Error
 ---------------------------------------
    1    -155.4969899845      1.12E-01
    2    -154.8364755189      1.37E-02
    3    -154.8676689904      3.37E-03
    4    -154.8939839086      2.93E-03
    5    -154.8950397513      2.41E-04 Done RCA. Switching to DIIS
    6    -154.8962158081      1.36E-04
    7    -154.8962212462      8.02E-06 Convergence criterion met
 ---------------------------------------
 SCF time:  CPU 14.37 s  wall 2.41 s
 SCF   energy in the small basis set = -154.89622125
 Total energy in the small basis set = -154.89622125
 ----------------------------------------------------
  Cycle       Energy    
 ----------------------------------------------------
    1     -18.8330006527     -1.88E+01
 Long-range K will be added via erf
 Coulomb attenuation parameter = 0.2 bohr**(-1)
 A restricted hybrid HF-DFT SCF calculation will be
 performed using Relaxed Constraint Minimization + Pulay DIIS
 Exchange:     0.2220 Hartree-Fock + 1.0000 wB97X-D + LR-HF
 Correlation:  1.0000 wB97X-D
 Using Euler-Maclaurin-Lebedev (75,302) quadrature formula
 Dispersion:   Grimme D
 SCF converges when DIIS error is below 1.0E-05
 Basis2 calculation detected. Using small basis as guess for larger.
 SCFMinFind is unable to tell whether the solution found is close.
 Resetting ReadMinima to 0 and attempting to follow guess.
 SCFMinFind following SCF Guess.
 using 6 threads for integral computing
 -------------------------------------------------------
 OpenMP Integral computing Module                
 Release: version 1.0, May 2013, Q-Chem Inc. Pittsburgh 
 -------------------------------------------------------
 using 6 threads for integral computing
 -------------------------------------------------------
 OpenMP Integral computing Module                
 Release: version 1.0, May 2013, Q-Chem Inc. Pittsburgh 
 -------------------------------------------------------
 ---------------------------------------
  Cycle       Energy         DIIS Error
 ---------------------------------------
    1    -154.9324068897      5.72E-03
    2    -154.9479762035      2.83E-03
    3    -154.9574082225      3.45E-04 Done RCA. Switching to DIIS
    4    -154.9687112070      2.47E-04
    5    -154.9688917845      3.83E-05
    6    -154.9688991646      5.47E-06 Convergence criterion met
 ---------------------------------------
 SCF time:  CPU 38.66 s  wall 6.47 s
 SCF   energy in the final basis set = -154.96889916
 Total energy in the final basis set = -154.96889916
 
 --------------------------------------------------------------
 
                    Orbital Energies (a.u.)
 --------------------------------------------------------------
 
 Alpha MOs
 -- Occupied --
-19.2439 -10.3124 -10.2700  -1.1238  -0.8644  -0.7440  -0.5915  -0.5611
 -0.5381  -0.4738  -0.4487  -0.4171  -0.3607
 -- Virtual --
  0.0654   0.0848   0.0895   0.1013   0.1258   0.1350   0.1356   0.1806
  0.1923   0.2036   0.2459   0.2521   0.2744   0.2859   0.2962   0.3010
  0.3180   0.3341   0.3467   0.3829   0.4611   0.4853   0.5060   0.5264
  0.5486   0.5751   0.5975   0.6130   0.6184   0.6351   0.6854   0.6898
  0.7285   0.7386   0.7502   0.8125   0.8513   0.8954   0.9364   0.9459
  1.0020   1.0497   1.0760   1.1274   1.1452   1.1852   1.1920   1.2069
  1.2273   1.2402   1.2832   1.3190   1.3278   1.3568   1.3760   1.4076
  1.4423   1.4646   1.4710   1.5012   1.5157   1.5558   1.6248   1.6775
  1.7159   1.7512   1.9560   2.0526   2.1354   2.2589   2.2808   2.3413
  2.3992   2.5371   2.5741   2.6817   2.7059   2.8262   2.8614   2.8858
  2.9009   2.9350   2.9955   3.0170   3.0516   3.0656   3.0814   3.1337
  3.1501   3.1928   3.2458   3.2489   3.2685   3.2809   3.3096   3.3261
  3.3742   3.3989   3.4388   3.4611   3.4926   3.5389   3.5458   3.5854
  3.6291   3.6442   3.6774   3.6916   3.7340   3.7423   3.8232   3.8427
  3.8501   3.9316   3.9617   4.0034   4.0172   4.0326   4.0658   4.0971
  4.1177   4.1436   4.1958   4.2137   4.2301   4.2841   4.3035   4.3350
  4.3715   4.4262   4.4839   4.5030   4.5457   4.6636   4.7511   4.7655
  4.8302   4.8644   4.9269   5.0352   5.0777   5.1322   5.2178   5.2498
  5.2832   5.3549   5.4293   5.5384   5.6114   5.6398   5.6593   5.7417
  5.7972   5.8256   5.8883   5.9752   6.0284   6.0393   6.1939   6.5621
  6.6667   6.7456   6.7916   6.8880   7.1330   7.3592   7.4301   7.5519
  7.7388   8.1234  25.2363  25.3140  50.4723
 --------------------------------------------------------------
 
 -----------------------------------------------------------------
                    Cartesian Multipole Moments
 -----------------------------------------------------------------
    Charge (ESU x 10^10)
                -0.0000
    Dipole Moment (Debye)
         X      -1.2656      Y      -0.1680      Z       1.0962
       Tot       1.6827
    Quadrupole Moments (Debye-Ang)
        XX     -11.0971     XY      -1.9094     YY     -18.5170
        XZ      -2.5216     YZ      -0.3876     ZZ     -19.9031
    Octopole Moments (Debye-Ang^2)
       XXX     207.6566    XXY       2.9222    XYY      78.3933
       YYY     -36.6514    XXZ       4.2484    XYZ       1.6367
       YYZ      -0.3526    XZZ      84.5641    YZZ     -13.0027
       ZZZ       0.1942
    Hexadecapole Moments (Debye-Ang^3)
      XXXX   -2096.0438   XXXY      63.4962   XXYY    -375.9992
      XYYY     148.8003   YYYY    -104.2453   XXXZ       6.9173
      XXYZ      -6.9132   XYYZ       3.0104   YYYZ      -3.8125
      XXZZ    -391.7902   XYZZ      53.5900   YYZZ     -23.0729
      XZZZ       5.9985   YZZZ      -1.3843   ZZZZ     -37.9196
 -----------------------------------------------------------------
Archival summary:
1\1\centos77-c7\SP\ProcedureUnspecified\BasisUnspecified\126\shihchen\MonJul2714:57:332020MonJul2714:57:332020\0\\#,ProcedureUnspecified,BasisUnspecified,\\0,1\C\H,1,0.910161\H,1,1.13135,2,107.542\O,1,1.41826,2,106.161,3,-117.52,0\H,4,0.954687,1,109.602,2,179.087,0\C,1,1.52238,2,110.15,3,119.55,0\H,6,0.883083,1,111.461,2,-60.047,0\H,6,1.10452,1,109.999,2,61.7895,0\H,6,1.26373,1,110.474,2,179.98,0\\\@

 Total job time:  11.00s(wall), 56.76s(cpu) 
 Mon Jul 27 14:57:33 2020

        *************************************************************
        *                                                           *
        *  Thank you very much for using Q-Chem.  Have a nice day.  *
        *                                                           *
        *************************************************************


