                  Welcome to Q-Chem
     A Quantum Leap Into The Future Of Chemistry


 Q-Chem 5.3 (devel), Q-Chem, Inc., Pleasanton, CA (2020)

 Yihan Shao,  Zhengting Gan,  E. Epifanovsky,  A. T. B. Gilbert,  M. Wormit,  
 J. Kussmann,  A. W. Lange,  A. Behn,  Jia Deng,  Xintian Feng,  D. Ghosh,  
 M. Goldey,  P. R. Horn,  L. D. Jacobson,  I. Kaliman,  T. Kus,  A. Landau,  
 Jie Liu,  E. I. Proynov,  R. M. Richard,  R. P. Steele,  E. J. Sundstrom,  
 H. L. Woodcock III,  P. M. Zimmerman,  D. Zuev,  B. Alam,  B. Albrecht,  
 E. Alguire,  S. A. Baeppler,  D. Barton,  Z. Benda,  Y. A. Bernard,  
 E. J. Berquist,  K. B. Bravaya,  H. Burton,  K. Carter-Fenk,  D. Casanova,  
 Chun-Min Chang,  Yunqing Chen,  A. Chien,  K. D. Closser,  M. P. Coons,  
 S. Coriani,  S. Dasgupta,  A. L. Dempwolff,  M. Diedenhofen,  Hainam Do,  
 R. G. Edgar,  Po-Tung Fang,  S. Faraji,  S. Fatehi,  Qingguo Feng,  
 J. Fosso-Tande,  J. Gayvert,  Qinghui Ge,  A. Ghysels,  G. Gidofalvi,  
 J. Gomes,  J. Gonthier,  A. Gunina,  D. Hait,  M. W. D. Hanson-Heine,  
 P. H. P. Harbach,  A. W. Hauser,  M. F. Herbst,  J. E. Herr,  
 E. G. Hohenstein,  Z. C. Holden,  Kerwin Hui,  B. C. Huynh,  T.-C. Jagau,  
 Hyunjun Ji,  B. Kaduk,  K. Khistyaev,  Jaehoon Kim,  P. Klunzinger,  K. Koh,  
 D. Kosenkov,  L. Koulias,  T. Kowalczyk,  C. M. Krauter,  A. Kunitsa,  
 Ka Un Lao,  A. Laurent,  K. V. Lawler,  Joonho Lee,  D. Lefrancois,  
 S. Lehtola,  D. S. Levine,  Yi-Pei Li,  You-Sheng Lin,  Fenglai Liu,  
 Kuan-Yu Liu,  E. Livshits,  M. Loipersberger,  A. Luenser,  P. Manohar,  
 E. Mansoor,  S. F. Manzer,  Shan-Ping Mao,  Yuezhi Mao,  N. Mardirossian,  
 A. V. Marenich,  T. Markovich,  L. A. Martinez-Martinez,  S. A. Maurer,  
 N. J. Mayhall,  S. C. McKenzie,  J.-M. Mewes,  P. Morgante,  A. F. Morrison,  
 J. W. Mullinax,  K. Nanda,  T. S. Nguyen-Beck,  R. Olivares-Amaya,  
 K. J. Oosterbaan,  J. A. Parkhill,  S. K. Paul,  F. Pavosevic,  Zheng Pei,  
 T. M. Perrine,  F. Plasser,  P. Pokhilko,  S. Prager,  A. Prociuk,  
 E. Ramos,  B. Rana,  D. R. Rehn,  F. Rob,  M. Scheurer,  M. Schneider,  
 N. Sergueev,  S. M. Sharada,  S. Sharma,  D. W. Small,  T. Stauch,  
 C. J. Stein,  T. Stein,  Yu-Chuan Su,  S. P. Veccham,  Zhen Tao,  
 A. J. W. Thom,  A. Tkatchenko,  T. Tsuchimochi,  N. M. Tubman,  L. Vogt,  
 M. L. Vidal,  O. Vydrov,  M. A. Watson,  J. Wenzel,  M. de Wergifosse,  
 T. A. Wesolowski,  A. White,  J. Witte,  A. Yamada,  Jun Yang,  K. Yao,  
 S. Yeganeh,  S. R. Yost,  Zhi-Qiang You,  A. Zech,  Igor Ying Zhang,  
 Xing Zhang,  Yan Zhao,  Ying Zhu,  B. R. Brooks,  G. K. L. Chan,  
 C. J. Cramer,  M. S. Gordon,  W. J. Hehre,  A. Klamt,  M. W. Schmidt,  
 C. D. Sherrill,  D. G. Truhlar,  A. Aspuru-Guzik,  R. Baer,  A. T. Bell,  
 N. A. Besley,  Jeng-Da Chai,  A. E. DePrince, III,  R. A. DiStasio Jr.,  
 A. Dreuw,  B. D. Dunietz,  T. R. Furlani,  Chao-Ping Hsu,  Yousung Jung,  
 Jing Kong,  D. S. Lambrecht,  WanZhen Liang,  C. Ochsenfeld,  
 V. A. Rassolov,  L. V. Slipchenko,  J. E. Subotnik,  T. Van Voorhis,  
 J. M. Herbert,  A. I. Krylov,  P. M. W. Gill,  M. Head-Gordon

 Contributors to earlier versions of Q-Chem not listed above: 
 R. D. Adamson,  B. Austin,  J. Baker,  G. J. O. Beran,  K. Brandhorst,  
 S. T. Brown,  E. F. C. Byrd,  A. K. Chakraborty,  C.-L. Cheng,  
 Siu Hung Chien,  D. M. Chipman,  D. L. Crittenden,  H. Dachsel,  
 R. J. Doerksen,  A. D. Dutoi,  L. Fusti-Molnar,  W. A. Goddard III,  
 A. Golubeva-Zadorozhnaya,  S. R. Gwaltney,  G. Hawkins,  A. Heyden,  
 S. Hirata,  G. Kedziora,  F. J. Keil,  C. Kelley,  Jihan Kim,  R. A. King,  
 R. Z. Khaliullin,  P. P. Korambath,  W. Kurlancheek,  A. M. Lee,  M. S. Lee,  
 S. V. Levchenko,  Ching Yeh Lin,  D. Liotard,  R. C. Lochan,  I. Lotan,  
 P. E. Maslen,  N. Nair,  D. P. O'Neill,  D. Neuhauser,  E. Neuscamman,  
 C. M. Oana,  R. Olson,  B. Peters,  R. Peverati,  P. A. Pieniazek,  
 Y. M. Rhee,  J. Ritchie,  M. A. Rohrdanz,  E. Rosta,  N. J. Russ,  
 H. F. Schaefer III,  N. E. Schultz,  N. Shenvi,  A. C. Simmonett,  A. Sodt,  
 D. Stuck,  K. S. Thanthiriwatte,  V. Vanovschi,  Tao Wang,  A. Warshel,  
 C. F. Williams,  Q. Wu,  X. Xu,  W. Zhang

 Please cite Q-Chem as follows:
 Y. Shao et al., Mol. Phys. 113, 184-215 (2015)
 DOI: 10.1080/00268976.2014.952696

 Q-Chem 5.3.0 for Intel X86 EM64T Linux

 Parts of Q-Chem use Armadillo 9.800.1 (Horizon Scraper).
 http://arma.sourceforge.net/

 Q-Chem begins on Mon Jul 27 14:42:40 2020  

Host: centos77-c7
0

     Scratch files written to /tmp/29924.centos77-h1/qchem108958//
Processing $rem in /opt/qchem-5.3.0-intel2020u1//config/preferences:
Processing $rem in /home/shihchengli/.qchemrc:

Checking the input file for inconsistencies... 	...done.

--------------------------------------------------------------
User input:
--------------------------------------------------------------
$rem
   JOBTYPE  sp
   EXCHANGE   omegaB97X-D
   BASIS   6-311+G(2df,2pd)
   UNRESTRICTED   False
   max_scf_cycles   250
   geom_opt_max_cycles   1500
   basis2 6-31G*
   scf_algorithm rca_diis
   SYM_IGNORE  TRUE
   print_input   true
   geom_opt_dmax   80
   pop_mulliken false
   XC_GRID 000075000302
$end

$molecule
0 1
C       -5.3470200238     0.3361245380     0.0380181233
C       -4.1095579279     1.1896894040     0.1201329556
H       -5.5375242348     -0.1013734317     -0.9440108138
H       -6.2829110946     0.8550388968     0.2584467946
H       -5.3587698824     -0.5227960684     0.7147403121
O       -2.9358480115     0.4868054894     -0.2285128906
H       -4.0182957429     1.6059613115     1.1290040559
H       -4.2315991026     2.0294927710     -0.5636504266
H       -2.7812839794     -0.2617229105     0.3461418895
$end
--------------------------------------------------------------
 ----------------------------------------------------------------
             Standard Nuclear Orientation (Angstroms)
    I     Atom           X                Y                Z
 ----------------------------------------------------------------
    1      C      -5.3470200238     0.3361245380     0.0380181233
    2      C      -4.1095579279     1.1896894040     0.1201329556
    3      H      -5.5375242348    -0.1013734317    -0.9440108138
    4      H      -6.2829110946     0.8550388968     0.2584467946
    5      H      -5.3587698824    -0.5227960684     0.7147403121
    6      O      -2.9358480115     0.4868054894    -0.2285128906
    7      H      -4.0182957429     1.6059613115     1.1290040559
    8      H      -4.2315991026     2.0294927710    -0.5636504266
    9      H      -2.7812839794    -0.2617229105     0.3461418895
 ----------------------------------------------------------------
 Nuclear Repulsion Energy =          81.91558509 hartrees
 There are       13 alpha and       13 beta electrons
 Requested basis set is 6-311+G(2df,2pd)
 There are 60 shells and 186 basis functions

 Total QAlloc Memory Limit   2000 MB
 Mega-Array Size       188 MB
 MEM_STATIC part       192 MB

                       Distance Matrix (Angstroms)
             C (  1)   C (  2)   H (  3)   H (  4)   H (  5)   O (  6)
   C (  2)  1.505533
   H (  3)  1.091823  2.199621
   H (  4)  1.092590  2.203312  1.707697
   H (  5)  1.093543  2.201521  1.720757  1.720660
   O (  6)  2.430534  1.411805  2.761632  3.402287  2.789188
   H (  7)  2.137345  1.095186  3.085521  2.539732  2.549528  2.065685
   H (  8)  2.115104  1.089827  2.527984  2.502612  3.069035  2.042345
   H (  9)  2.652426  1.980401  3.047469  3.676444  2.616765  0.956249
             H (  7)   H (  8)
   H (  8)  1.757827
   H (  9)  2.373039  2.860211
 
 A cutoff of  1.0D-09 yielded   1781 shell pairs
 There are     17290 function pairs (     21474 Cartesian)
 Smallest overlap matrix eigenvalue = 1.31E-04

 Scale SEOQF with 1.000000e-02/1.000000e-01/1.000000e-01

 Standard Electronic Orientation quadrupole field applied
 Nucleus-field energy     =     0.0000000027 hartrees
 Requested basis set is 6-31G(d)
 There are 24 shells and 54 basis functions
 A cutoff of  1.0D-09 yielded    298 shell pairs
 There are      1549 function pairs (      1732 Cartesian)
 Smallest overlap matrix eigenvalue = 7.30E-03
 Guess from superposition of atomic densities
 Warning:  Energy on first SCF cycle will be non-variational
 SAD guess density has 26.000000 electrons
 Long-range K will be added via erf
 Coulomb attenuation parameter = 0.2 bohr**(-1)
 A restricted hybrid HF-DFT SCF calculation will be
 performed using Relaxed Constraint Minimization + Pulay DIIS
 Exchange:     0.2220 Hartree-Fock + 1.0000 wB97X-D + LR-HF
 Correlation:  1.0000 wB97X-D
 Using Euler-Maclaurin-Lebedev (75,302) quadrature formula
 Dispersion:   Grimme D
 SCF converges when DIIS error is below 1.0E-04
 using 6 threads for integral computing
 -------------------------------------------------------
 OpenMP Integral computing Module                
 Release: version 1.0, May 2013, Q-Chem Inc. Pittsburgh 
 -------------------------------------------------------
 using 6 threads for integral computing
 -------------------------------------------------------
 OpenMP Integral computing Module                
 Release: version 1.0, May 2013, Q-Chem Inc. Pittsburgh 
 -------------------------------------------------------
 ---------------------------------------
  Cycle       Energy         DIIS Error
 ---------------------------------------
    1    -155.4460435264      1.06E-01
    2    -154.9234802288      1.35E-02
    3    -154.9518262336      3.04E-03
    4    -154.9777482033      2.42E-03
    5    -154.9784757907      2.20E-04 Done RCA. Switching to DIIS
    6    -154.9792870692      9.61E-05 Convergence criterion met
 ---------------------------------------
 SCF time:  CPU 12.88 s  wall 2.16 s
 SCF   energy in the small basis set = -154.97928707
 Total energy in the small basis set = -154.97928707
 ----------------------------------------------------
  Cycle       Energy    
 ----------------------------------------------------
    1     -18.7535454308     -1.88E+01
 Long-range K will be added via erf
 Coulomb attenuation parameter = 0.2 bohr**(-1)
 A restricted hybrid HF-DFT SCF calculation will be
 performed using Relaxed Constraint Minimization + Pulay DIIS
 Exchange:     0.2220 Hartree-Fock + 1.0000 wB97X-D + LR-HF
 Correlation:  1.0000 wB97X-D
 Using Euler-Maclaurin-Lebedev (75,302) quadrature formula
 Dispersion:   Grimme D
 SCF converges when DIIS error is below 1.0E-05
 Basis2 calculation detected. Using small basis as guess for larger.
 SCFMinFind is unable to tell whether the solution found is close.
 Resetting ReadMinima to 0 and attempting to follow guess.
 SCFMinFind following SCF Guess.
 using 6 threads for integral computing
 -------------------------------------------------------
 OpenMP Integral computing Module                
 Release: version 1.0, May 2013, Q-Chem Inc. Pittsburgh 
 -------------------------------------------------------
 using 6 threads for integral computing
 -------------------------------------------------------
 OpenMP Integral computing Module                
 Release: version 1.0, May 2013, Q-Chem Inc. Pittsburgh 
 -------------------------------------------------------
 ---------------------------------------
  Cycle       Energy         DIIS Error
 ---------------------------------------
    1    -155.0111510801      5.71E-03
    2    -155.0268557095      2.84E-03
    3    -155.0363762663      3.40E-04 Done RCA. Switching to DIIS
    4    -155.0477599314      2.41E-04
    5    -155.0479333697      3.97E-05
    6    -155.0479412625      5.85E-06 Convergence criterion met
 ---------------------------------------
 SCF time:  CPU 39.00 s  wall 6.52 s
 SCF   energy in the final basis set = -155.04794126
 Total energy in the final basis set = -155.04794126
 
 --------------------------------------------------------------
 
                    Orbital Energies (a.u.)
 --------------------------------------------------------------
 
 Alpha MOs
 -- Occupied --
-19.2461 -10.3295 -10.2721  -1.1259  -0.8511  -0.7268  -0.5983  -0.5476
 -0.5271  -0.4647  -0.4534  -0.4084  -0.3641
 -- Virtual --
  0.0651   0.0866   0.0888   0.1030   0.1265   0.1339   0.1383   0.1817
  0.1972   0.2213   0.2403   0.2413   0.2636   0.2816   0.2924   0.3081
  0.3199   0.3316   0.3458   0.3831   0.4582   0.4987   0.5070   0.5287
  0.5697   0.5772   0.5795   0.6010   0.6119   0.6357   0.6724   0.6798
  0.6906   0.7185   0.7392   0.7982   0.8465   0.8921   0.9232   0.9661
  0.9893   1.0493   1.0554   1.1142   1.1467   1.1695   1.1826   1.2110
  1.2348   1.2511   1.2719   1.3005   1.3218   1.3460   1.3767   1.4101
  1.4542   1.4651   1.4737   1.4911   1.5107   1.5460   1.6111   1.6374
  1.6491   1.7206   1.9476   2.0693   2.1170   2.2806   2.3017   2.4339
  2.4461   2.4940   2.5409   2.5623   2.7000   2.8278   2.8387   2.8673
  2.9112   2.9611   3.0079   3.0290   3.0566   3.0681   3.0850   3.1018
  3.1259   3.1866   3.2257   3.2553   3.2757   3.3072   3.3441   3.3687
  3.3806   3.3935   3.4186   3.4261   3.4982   3.5622   3.5690   3.5756
  3.6070   3.6135   3.6462   3.6958   3.7142   3.7489   3.7755   3.8050
  3.8512   3.8986   3.9492   3.9637   3.9698   4.0286   4.0644   4.0902
  4.1064   4.1258   4.1614   4.2074   4.2244   4.2560   4.3100   4.3338
  4.3574   4.3961   4.4636   4.5107   4.5510   4.6421   4.7204   4.8124
  4.8179   4.9296   4.9350   4.9876   4.9949   5.0166   5.0957   5.1455
  5.2018   5.2304   5.2701   5.3453   5.3674   5.3900   5.4210   5.4717
  5.5385   5.5970   5.6993   5.8284   5.9419   6.0415   6.3771   6.4174
  6.4194   6.6586   6.7285   6.8246   7.1257   7.3334   7.4363   7.5380
  7.7629   8.1203  25.1880  25.4282  50.4653
 --------------------------------------------------------------
 
 -----------------------------------------------------------------
                    Cartesian Multipole Moments
 -----------------------------------------------------------------
    Charge (ESU x 10^10)
                 0.0000
    Dipole Moment (Debye)
         X      -1.1591      Y      -0.4441      Z       1.2110
       Tot       1.7341
    Quadrupole Moments (Debye-Ang)
        XX     -11.8660     XY      -0.4683     YY     -18.8796
        XZ      -3.0214     YZ      -0.3254     ZZ     -20.0918
    Octopole Moments (Debye-Ang^2)
       XXX     210.2739    XXY      -5.3148    XYY      79.8012
       YYY     -37.3969    XXZ       6.4469    XYZ       1.3212
       YYZ      -0.5635    XZZ      85.1954    YZZ     -12.9806
       ZZZ      -0.1887
    Hexadecapole Moments (Debye-Ang^3)
      XXXX   -2093.2229   XXXY     111.9879   XXYY    -382.8471
      XYYY     152.5781   YYYY    -105.6600   XXXZ      -3.1558
      XXYZ      -5.6497   XYYZ       3.9979   YYYZ      -4.3948
      XXZZ    -394.4878   XYZZ      53.6809   YYZZ     -22.8346
      XZZZ       7.1302   YZZZ      -1.6909   ZZZZ     -36.6053
 -----------------------------------------------------------------
Archival summary:
1\1\centos77-c7\SP\ProcedureUnspecified\BasisUnspecified\126\shihchen\MonJul2714:42:512020MonJul2714:42:512020\0\\#,ProcedureUnspecified,BasisUnspecified,\\0,1\C\H,1,1.08983\H,1,1.09519,2,107.122\O,1,1.41181,2,108.772,3,-119.254,0\H,4,0.956249,1,112.067,2,179.819,0\C,1,1.50553,2,108.097,3,117.944,0\H,6,1.09182,1,114.813,2,61.9705,0\H,6,1.09259,1,115.074,2,-57.1548,0\H,6,1.09354,1,114.859,2,-177.657,0\\\@

 Total job time:  10.82s(wall), 55.69s(cpu) 
 Mon Jul 27 14:42:51 2020

        *************************************************************
        *                                                           *
        *  Thank you very much for using Q-Chem.  Have a nice day.  *
        *                                                           *
        *************************************************************


