                  Welcome to Q-Chem
     A Quantum Leap Into The Future Of Chemistry


 Q-Chem 5.3 (devel), Q-Chem, Inc., Pleasanton, CA (2020)

 Yihan Shao,  Zhengting Gan,  E. Epifanovsky,  A. T. B. Gilbert,  M. Wormit,  
 J. Kussmann,  A. W. Lange,  A. Behn,  Jia Deng,  Xintian Feng,  D. Ghosh,  
 M. Goldey,  P. R. Horn,  L. D. Jacobson,  I. Kaliman,  T. Kus,  A. Landau,  
 Jie Liu,  E. I. Proynov,  R. M. Richard,  R. P. Steele,  E. J. Sundstrom,  
 H. L. Woodcock III,  P. M. Zimmerman,  D. Zuev,  B. Alam,  B. Albrecht,  
 E. Alguire,  S. A. Baeppler,  D. Barton,  Z. Benda,  Y. A. Bernard,  
 E. J. Berquist,  K. B. Bravaya,  H. Burton,  K. Carter-Fenk,  D. Casanova,  
 Chun-Min Chang,  Yunqing Chen,  A. Chien,  K. D. Closser,  M. P. Coons,  
 S. Coriani,  S. Dasgupta,  A. L. Dempwolff,  M. Diedenhofen,  Hainam Do,  
 R. G. Edgar,  Po-Tung Fang,  S. Faraji,  S. Fatehi,  Qingguo Feng,  
 J. Fosso-Tande,  J. Gayvert,  Qinghui Ge,  A. Ghysels,  G. Gidofalvi,  
 J. Gomes,  J. Gonthier,  A. Gunina,  D. Hait,  M. W. D. Hanson-Heine,  
 P. H. P. Harbach,  A. W. Hauser,  M. F. Herbst,  J. E. Herr,  
 E. G. Hohenstein,  Z. C. Holden,  Kerwin Hui,  B. C. Huynh,  T.-C. Jagau,  
 Hyunjun Ji,  B. Kaduk,  K. Khistyaev,  Jaehoon Kim,  P. Klunzinger,  K. Koh,  
 D. Kosenkov,  L. Koulias,  T. Kowalczyk,  C. M. Krauter,  A. Kunitsa,  
 Ka Un Lao,  A. Laurent,  K. V. Lawler,  Joonho Lee,  D. Lefrancois,  
 S. Lehtola,  D. S. Levine,  Yi-Pei Li,  You-Sheng Lin,  Fenglai Liu,  
 Kuan-Yu Liu,  E. Livshits,  M. Loipersberger,  A. Luenser,  P. Manohar,  
 E. Mansoor,  S. F. Manzer,  Shan-Ping Mao,  Yuezhi Mao,  N. Mardirossian,  
 A. V. Marenich,  T. Markovich,  L. A. Martinez-Martinez,  S. A. Maurer,  
 N. J. Mayhall,  S. C. McKenzie,  J.-M. Mewes,  P. Morgante,  A. F. Morrison,  
 J. W. Mullinax,  K. Nanda,  T. S. Nguyen-Beck,  R. Olivares-Amaya,  
 K. J. Oosterbaan,  J. A. Parkhill,  S. K. Paul,  F. Pavosevic,  Zheng Pei,  
 T. M. Perrine,  F. Plasser,  P. Pokhilko,  S. Prager,  A. Prociuk,  
 E. Ramos,  B. Rana,  D. R. Rehn,  F. Rob,  M. Scheurer,  M. Schneider,  
 N. Sergueev,  S. M. Sharada,  S. Sharma,  D. W. Small,  T. Stauch,  
 C. J. Stein,  T. Stein,  Yu-Chuan Su,  S. P. Veccham,  Zhen Tao,  
 A. J. W. Thom,  A. Tkatchenko,  T. Tsuchimochi,  N. M. Tubman,  L. Vogt,  
 M. L. Vidal,  O. Vydrov,  M. A. Watson,  J. Wenzel,  M. de Wergifosse,  
 T. A. Wesolowski,  A. White,  J. Witte,  A. Yamada,  Jun Yang,  K. Yao,  
 S. Yeganeh,  S. R. Yost,  Zhi-Qiang You,  A. Zech,  Igor Ying Zhang,  
 Xing Zhang,  Yan Zhao,  Ying Zhu,  B. R. Brooks,  G. K. L. Chan,  
 C. J. Cramer,  M. S. Gordon,  W. J. Hehre,  A. Klamt,  M. W. Schmidt,  
 C. D. Sherrill,  D. G. Truhlar,  A. Aspuru-Guzik,  R. Baer,  A. T. Bell,  
 N. A. Besley,  Jeng-Da Chai,  A. E. DePrince, III,  R. A. DiStasio Jr.,  
 A. Dreuw,  B. D. Dunietz,  T. R. Furlani,  Chao-Ping Hsu,  Yousung Jung,  
 Jing Kong,  D. S. Lambrecht,  WanZhen Liang,  C. Ochsenfeld,  
 V. A. Rassolov,  L. V. Slipchenko,  J. E. Subotnik,  T. Van Voorhis,  
 J. M. Herbert,  A. I. Krylov,  P. M. W. Gill,  M. Head-Gordon

 Contributors to earlier versions of Q-Chem not listed above: 
 R. D. Adamson,  B. Austin,  J. Baker,  G. J. O. Beran,  K. Brandhorst,  
 S. T. Brown,  E. F. C. Byrd,  A. K. Chakraborty,  C.-L. Cheng,  
 Siu Hung Chien,  D. M. Chipman,  D. L. Crittenden,  H. Dachsel,  
 R. J. Doerksen,  A. D. Dutoi,  L. Fusti-Molnar,  W. A. Goddard III,  
 A. Golubeva-Zadorozhnaya,  S. R. Gwaltney,  G. Hawkins,  A. Heyden,  
 S. Hirata,  G. Kedziora,  F. J. Keil,  C. Kelley,  Jihan Kim,  R. A. King,  
 R. Z. Khaliullin,  P. P. Korambath,  W. Kurlancheek,  A. M. Lee,  M. S. Lee,  
 S. V. Levchenko,  Ching Yeh Lin,  D. Liotard,  R. C. Lochan,  I. Lotan,  
 P. E. Maslen,  N. Nair,  D. P. O'Neill,  D. Neuhauser,  E. Neuscamman,  
 C. M. Oana,  R. Olson,  B. Peters,  R. Peverati,  P. A. Pieniazek,  
 Y. M. Rhee,  J. Ritchie,  M. A. Rohrdanz,  E. Rosta,  N. J. Russ,  
 H. F. Schaefer III,  N. E. Schultz,  N. Shenvi,  A. C. Simmonett,  A. Sodt,  
 D. Stuck,  K. S. Thanthiriwatte,  V. Vanovschi,  Tao Wang,  A. Warshel,  
 C. F. Williams,  Q. Wu,  X. Xu,  W. Zhang

 Please cite Q-Chem as follows:
 Y. Shao et al., Mol. Phys. 113, 184-215 (2015)
 DOI: 10.1080/00268976.2014.952696

 Q-Chem 5.3.0 for Intel X86 EM64T Linux

 Parts of Q-Chem use Armadillo 9.800.1 (Horizon Scraper).
 http://arma.sourceforge.net/

 Q-Chem begins on Mon Jul 27 14:50:47 2020  

Host: centos77-c7
0

     Scratch files written to /tmp/29924.centos77-h1/qchem110891//
Processing $rem in /opt/qchem-5.3.0-intel2020u1//config/preferences:
Processing $rem in /home/shihchengli/.qchemrc:

Checking the input file for inconsistencies... 	...done.

--------------------------------------------------------------
User input:
--------------------------------------------------------------
$rem
   JOBTYPE  sp
   EXCHANGE   omegaB97X-D
   BASIS   6-311+G(2df,2pd)
   UNRESTRICTED   False
   max_scf_cycles   250
   geom_opt_max_cycles   1500
   basis2 6-31G*
   scf_algorithm rca_diis
   SYM_IGNORE  TRUE
   print_input   true
   geom_opt_dmax   80
   pop_mulliken false
   XC_GRID 000075000302
$end

$molecule
0 1
C       -5.3854230169     0.3223707523     0.0391087428
C       -4.1487220686     1.2037435504     0.1316658255
H       -5.4926035527     -0.1086933159     -0.9566897321
H       -6.2676058631     0.9103099894     0.2959102311
H       -5.3245048903     -0.5404326760     0.7072581358
O       -2.9549745357     0.5226966228     -0.2354775694
H       -4.0124764684     1.5443755127     1.1607924579
H       -4.1922366650     1.9834311703     -0.6253220230
H       -2.8242629392     -0.2205816060     0.3530639315
$end
--------------------------------------------------------------
 ----------------------------------------------------------------
             Standard Nuclear Orientation (Angstroms)
    I     Atom           X                Y                Z
 ----------------------------------------------------------------
    1      C      -5.3854230169     0.3223707523     0.0391087428
    2      C      -4.1487220686     1.2037435504     0.1316658255
    3      H      -5.4926035527    -0.1086933159    -0.9566897321
    4      H      -6.2676058631     0.9103099894     0.2959102311
    5      H      -5.3245048903    -0.5404326760     0.7072581358
    6      O      -2.9549745357     0.5226966228    -0.2354775694
    7      H      -4.0124764684     1.5443755127     1.1607924579
    8      H      -4.1922366650     1.9834311703    -0.6253220230
    9      H      -2.8242629392    -0.2205816060     0.3530639315
 ----------------------------------------------------------------
 Nuclear Repulsion Energy =          81.81013021 hartrees
 There are       13 alpha and       13 beta electrons
 Requested basis set is 6-311+G(2df,2pd)
 There are 60 shells and 186 basis functions

 Total QAlloc Memory Limit   2000 MB
 Mega-Array Size       188 MB
 MEM_STATIC part       192 MB

                       Distance Matrix (Angstroms)
             C (  1)   C (  2)   H (  3)   H (  4)   H (  5)   O (  6)
   C (  2)  1.521451
   H (  3)  1.090375  2.170950
   H (  4)  1.090810  2.145402  1.791090
   H (  5)  1.092961  2.180808  1.727246  1.778567
   O (  6)  2.454100  1.422551  2.712630  3.377298  2.762909
   H (  7)  2.153242  1.092563  3.067107  2.497132  2.504703  2.027735
   H (  8)  2.150415  1.087583  2.485507  2.511457  3.070454  1.953597
   H (  9)  2.636836  1.957527  2.974561  3.624747  2.545382  0.957042
             H (  7)   H (  8)
   H (  8)  1.848050
   H (  9)  2.275819  2.772411
 
 A cutoff of  1.0D-09 yielded   1784 shell pairs
 There are     17300 function pairs (     21484 Cartesian)
 Smallest overlap matrix eigenvalue = 1.36E-04

 Scale SEOQF with 1.000000e-02/1.000000e-01/1.000000e-01

 Standard Electronic Orientation quadrupole field applied
 Nucleus-field energy     =     0.0000000027 hartrees
 Requested basis set is 6-31G(d)
 There are 24 shells and 54 basis functions
 A cutoff of  1.0D-09 yielded    298 shell pairs
 There are      1549 function pairs (      1732 Cartesian)
 Smallest overlap matrix eigenvalue = 6.97E-03
 Guess from superposition of atomic densities
 Warning:  Energy on first SCF cycle will be non-variational
 SAD guess density has 26.000000 electrons
 Long-range K will be added via erf
 Coulomb attenuation parameter = 0.2 bohr**(-1)
 A restricted hybrid HF-DFT SCF calculation will be
 performed using Relaxed Constraint Minimization + Pulay DIIS
 Exchange:     0.2220 Hartree-Fock + 1.0000 wB97X-D + LR-HF
 Correlation:  1.0000 wB97X-D
 Using Euler-Maclaurin-Lebedev (75,302) quadrature formula
 Dispersion:   Grimme D
 SCF converges when DIIS error is below 1.0E-04
 using 6 threads for integral computing
 -------------------------------------------------------
 OpenMP Integral computing Module                
 Release: version 1.0, May 2013, Q-Chem Inc. Pittsburgh 
 -------------------------------------------------------
 using 6 threads for integral computing
 -------------------------------------------------------
 OpenMP Integral computing Module                
 Release: version 1.0, May 2013, Q-Chem Inc. Pittsburgh 
 -------------------------------------------------------
 ---------------------------------------
  Cycle       Energy         DIIS Error
 ---------------------------------------
    1    -155.4228588765      1.06E-01
    2    -154.9219051354      1.38E-02
    3    -154.9508507591      3.00E-03
    4    -154.9780573613      2.34E-03
    5    -154.9787441444      2.30E-04 Done RCA. Switching to DIIS
    6    -154.9795180225      9.95E-05 Convergence criterion met
 ---------------------------------------
 SCF time:  CPU 13.06 s  wall 2.19 s
 SCF   energy in the small basis set = -154.97951802
 Total energy in the small basis set = -154.97951802
 ----------------------------------------------------
  Cycle       Energy    
 ----------------------------------------------------
    1     -18.7506511183     -1.88E+01
 Long-range K will be added via erf
 Coulomb attenuation parameter = 0.2 bohr**(-1)
 A restricted hybrid HF-DFT SCF calculation will be
 performed using Relaxed Constraint Minimization + Pulay DIIS
 Exchange:     0.2220 Hartree-Fock + 1.0000 wB97X-D + LR-HF
 Correlation:  1.0000 wB97X-D
 Using Euler-Maclaurin-Lebedev (75,302) quadrature formula
 Dispersion:   Grimme D
 SCF converges when DIIS error is below 1.0E-05
 Basis2 calculation detected. Using small basis as guess for larger.
 SCFMinFind is unable to tell whether the solution found is close.
 Resetting ReadMinima to 0 and attempting to follow guess.
 SCFMinFind following SCF Guess.
 using 6 threads for integral computing
 -------------------------------------------------------
 OpenMP Integral computing Module                
 Release: version 1.0, May 2013, Q-Chem Inc. Pittsburgh 
 -------------------------------------------------------
 using 6 threads for integral computing
 -------------------------------------------------------
 OpenMP Integral computing Module                
 Release: version 1.0, May 2013, Q-Chem Inc. Pittsburgh 
 -------------------------------------------------------
 ---------------------------------------
  Cycle       Energy         DIIS Error
 ---------------------------------------
    1    -155.0102841927      5.74E-03
    2    -155.0252457729      2.94E-03
    3    -155.0354678987      3.66E-04 Done RCA. Switching to DIIS
    4    -155.0478071513      2.74E-04
    5    -155.0480287266      3.98E-05
    6    -155.0480369017      5.53E-06 Convergence criterion met
 ---------------------------------------
 SCF time:  CPU 39.16 s  wall 6.55 s
 SCF   energy in the final basis set = -155.04803690
 Total energy in the final basis set = -155.04803690
 
 --------------------------------------------------------------
 
                    Orbital Energies (a.u.)
 --------------------------------------------------------------
 
 Alpha MOs
 -- Occupied --
-19.2428 -10.3279 -10.2747  -1.1227  -0.8492  -0.7226  -0.5968  -0.5439
 -0.5214  -0.4708  -0.4561  -0.4141  -0.3602
 -- Virtual --
  0.0653   0.0874   0.0899   0.1012   0.1256   0.1332   0.1371   0.1814
  0.1972   0.2151   0.2358   0.2443   0.2704   0.2766   0.2859   0.3091
  0.3180   0.3343   0.3418   0.3836   0.4573   0.4955   0.5025   0.5180
  0.5663   0.5755   0.5808   0.6085   0.6205   0.6308   0.6622   0.6778
  0.6886   0.7111   0.7415   0.8118   0.8477   0.8958   0.9340   0.9454
  0.9852   1.0445   1.0601   1.1108   1.1491   1.1594   1.1882   1.2132
  1.2291   1.2345   1.2704   1.3015   1.3267   1.3663   1.3913   1.4028
  1.4505   1.4664   1.4751   1.4866   1.5042   1.5362   1.5914   1.6220
  1.6494   1.7174   1.9322   2.0269   2.0934   2.2694   2.2891   2.4583
  2.4764   2.5138   2.5619   2.5913   2.7172   2.8458   2.8517   2.8921
  2.9128   2.9705   3.0040   3.0219   3.0470   3.0548   3.0685   3.0803
  3.0902   3.1853   3.2140   3.2376   3.2652   3.2780   3.3172   3.3398
  3.3714   3.4003   3.4184   3.4420   3.5050   3.5641   3.5773   3.5788
  3.5959   3.6253   3.6643   3.7088   3.7285   3.7542   3.8184   3.8328
  3.8759   3.9172   3.9543   3.9705   3.9918   4.0006   4.0314   4.0683
  4.0758   4.0878   4.1251   4.1705   4.2149   4.2555   4.2855   4.2988
  4.3155   4.3710   4.4817   4.5291   4.5350   4.6527   4.7124   4.7937
  4.8665   4.9197   4.9410   4.9756   5.0186   5.0810   5.1565   5.2046
  5.2283   5.2608   5.2776   5.2940   5.3262   5.3865   5.4394   5.5002
  5.5701   5.5952   5.6837   5.8388   5.8922   5.9907   6.3481   6.3704
  6.3934   6.6589   6.7009   6.8264   7.1302   7.3466   7.4103   7.5557
  7.7199   8.1143  25.1658  25.4267  50.4665
 --------------------------------------------------------------
 
 -----------------------------------------------------------------
                    Cartesian Multipole Moments
 -----------------------------------------------------------------
    Charge (ESU x 10^10)
                 0.0000
    Dipole Moment (Debye)
         X      -1.1896      Y      -0.4650      Z       1.2327
       Tot       1.7751
    Quadrupole Moments (Debye-Ang)
        XX     -12.0564     XY      -0.4213     YY     -19.1264
        XZ      -3.2035     YZ      -0.3064     ZZ     -19.8082
    Octopole Moments (Debye-Ang^2)
       XXX     215.9514    XXY      -4.9593    XYY      80.9355
       YYY     -38.7142    XXZ       7.7045    XYZ       1.1260
       YYZ      -0.8093    XZZ      84.4795    YZZ     -12.8566
       ZZZ      -0.2212
    Hexadecapole Moments (Debye-Ang^3)
      XXXX   -2161.6318   XXXY     106.0655   XXYY    -387.7990
      XYYY     158.1131   YYYY    -108.9112   XXXZ     -11.3909
      XXYZ      -3.8507   XYYZ       4.8304   YYYZ      -4.8669
      XXZZ    -393.6124   XYZZ      53.2242   YYZZ     -22.6972
      XZZZ       7.7322   YZZZ      -1.6037   ZZZZ     -36.8536
 -----------------------------------------------------------------
Archival summary:
1\1\centos77-c7\SP\ProcedureUnspecified\BasisUnspecified\126\shihchen\MonJul2714:50:572020MonJul2714:50:572020\0\\#,ProcedureUnspecified,BasisUnspecified,\\0,1\C\H,1,1.08758\H,1,1.09256,2,115.919\O,1,1.42255,2,101.371,3,-115.089,0\H,4,0.957042,1,109.13,2,-177.978,0\C,1,1.52145,2,109.903,3,125.249,0\H,6,1.09038,1,111.375,2,56.7366,0\H,6,1.09081,1,109.319,2,-65.5315,0\H,6,1.09296,1,112.013,2,173.466,0\\\@

 Total job time:  10.91s(wall), 56.04s(cpu) 
 Mon Jul 27 14:50:57 2020

        *************************************************************
        *                                                           *
        *  Thank you very much for using Q-Chem.  Have a nice day.  *
        *                                                           *
        *************************************************************


