                  Welcome to Q-Chem
     A Quantum Leap Into The Future Of Chemistry


 Q-Chem 5.3 (devel), Q-Chem, Inc., Pleasanton, CA (2020)

 Yihan Shao,  Zhengting Gan,  E. Epifanovsky,  A. T. B. Gilbert,  M. Wormit,  
 J. Kussmann,  A. W. Lange,  A. Behn,  Jia Deng,  Xintian Feng,  D. Ghosh,  
 M. Goldey,  P. R. Horn,  L. D. Jacobson,  I. Kaliman,  T. Kus,  A. Landau,  
 Jie Liu,  E. I. Proynov,  R. M. Richard,  R. P. Steele,  E. J. Sundstrom,  
 H. L. Woodcock III,  P. M. Zimmerman,  D. Zuev,  B. Alam,  B. Albrecht,  
 E. Alguire,  S. A. Baeppler,  D. Barton,  Z. Benda,  Y. A. Bernard,  
 E. J. Berquist,  K. B. Bravaya,  H. Burton,  K. Carter-Fenk,  D. Casanova,  
 Chun-Min Chang,  Yunqing Chen,  A. Chien,  K. D. Closser,  M. P. Coons,  
 S. Coriani,  S. Dasgupta,  A. L. Dempwolff,  M. Diedenhofen,  Hainam Do,  
 R. G. Edgar,  Po-Tung Fang,  S. Faraji,  S. Fatehi,  Qingguo Feng,  
 J. Fosso-Tande,  J. Gayvert,  Qinghui Ge,  A. Ghysels,  G. Gidofalvi,  
 J. Gomes,  J. Gonthier,  A. Gunina,  D. Hait,  M. W. D. Hanson-Heine,  
 P. H. P. Harbach,  A. W. Hauser,  M. F. Herbst,  J. E. Herr,  
 E. G. Hohenstein,  Z. C. Holden,  Kerwin Hui,  B. C. Huynh,  T.-C. Jagau,  
 Hyunjun Ji,  B. Kaduk,  K. Khistyaev,  Jaehoon Kim,  P. Klunzinger,  K. Koh,  
 D. Kosenkov,  L. Koulias,  T. Kowalczyk,  C. M. Krauter,  A. Kunitsa,  
 Ka Un Lao,  A. Laurent,  K. V. Lawler,  Joonho Lee,  D. Lefrancois,  
 S. Lehtola,  D. S. Levine,  Yi-Pei Li,  You-Sheng Lin,  Fenglai Liu,  
 Kuan-Yu Liu,  E. Livshits,  M. Loipersberger,  A. Luenser,  P. Manohar,  
 E. Mansoor,  S. F. Manzer,  Shan-Ping Mao,  Yuezhi Mao,  N. Mardirossian,  
 A. V. Marenich,  T. Markovich,  L. A. Martinez-Martinez,  S. A. Maurer,  
 N. J. Mayhall,  S. C. McKenzie,  J.-M. Mewes,  P. Morgante,  A. F. Morrison,  
 J. W. Mullinax,  K. Nanda,  T. S. Nguyen-Beck,  R. Olivares-Amaya,  
 K. J. Oosterbaan,  J. A. Parkhill,  S. K. Paul,  F. Pavosevic,  Zheng Pei,  
 T. M. Perrine,  F. Plasser,  P. Pokhilko,  S. Prager,  A. Prociuk,  
 E. Ramos,  B. Rana,  D. R. Rehn,  F. Rob,  M. Scheurer,  M. Schneider,  
 N. Sergueev,  S. M. Sharada,  S. Sharma,  D. W. Small,  T. Stauch,  
 C. J. Stein,  T. Stein,  Yu-Chuan Su,  S. P. Veccham,  Zhen Tao,  
 A. J. W. Thom,  A. Tkatchenko,  T. Tsuchimochi,  N. M. Tubman,  L. Vogt,  
 M. L. Vidal,  O. Vydrov,  M. A. Watson,  J. Wenzel,  M. de Wergifosse,  
 T. A. Wesolowski,  A. White,  J. Witte,  A. Yamada,  Jun Yang,  K. Yao,  
 S. Yeganeh,  S. R. Yost,  Zhi-Qiang You,  A. Zech,  Igor Ying Zhang,  
 Xing Zhang,  Yan Zhao,  Ying Zhu,  B. R. Brooks,  G. K. L. Chan,  
 C. J. Cramer,  M. S. Gordon,  W. J. Hehre,  A. Klamt,  M. W. Schmidt,  
 C. D. Sherrill,  D. G. Truhlar,  A. Aspuru-Guzik,  R. Baer,  A. T. Bell,  
 N. A. Besley,  Jeng-Da Chai,  A. E. DePrince, III,  R. A. DiStasio Jr.,  
 A. Dreuw,  B. D. Dunietz,  T. R. Furlani,  Chao-Ping Hsu,  Yousung Jung,  
 Jing Kong,  D. S. Lambrecht,  WanZhen Liang,  C. Ochsenfeld,  
 V. A. Rassolov,  L. V. Slipchenko,  J. E. Subotnik,  T. Van Voorhis,  
 J. M. Herbert,  A. I. Krylov,  P. M. W. Gill,  M. Head-Gordon

 Contributors to earlier versions of Q-Chem not listed above: 
 R. D. Adamson,  B. Austin,  J. Baker,  G. J. O. Beran,  K. Brandhorst,  
 S. T. Brown,  E. F. C. Byrd,  A. K. Chakraborty,  C.-L. Cheng,  
 Siu Hung Chien,  D. M. Chipman,  D. L. Crittenden,  H. Dachsel,  
 R. J. Doerksen,  A. D. Dutoi,  L. Fusti-Molnar,  W. A. Goddard III,  
 A. Golubeva-Zadorozhnaya,  S. R. Gwaltney,  G. Hawkins,  A. Heyden,  
 S. Hirata,  G. Kedziora,  F. J. Keil,  C. Kelley,  Jihan Kim,  R. A. King,  
 R. Z. Khaliullin,  P. P. Korambath,  W. Kurlancheek,  A. M. Lee,  M. S. Lee,  
 S. V. Levchenko,  Ching Yeh Lin,  D. Liotard,  R. C. Lochan,  I. Lotan,  
 P. E. Maslen,  N. Nair,  D. P. O'Neill,  D. Neuhauser,  E. Neuscamman,  
 C. M. Oana,  R. Olson,  B. Peters,  R. Peverati,  P. A. Pieniazek,  
 Y. M. Rhee,  J. Ritchie,  M. A. Rohrdanz,  E. Rosta,  N. J. Russ,  
 H. F. Schaefer III,  N. E. Schultz,  N. Shenvi,  A. C. Simmonett,  A. Sodt,  
 D. Stuck,  K. S. Thanthiriwatte,  V. Vanovschi,  Tao Wang,  A. Warshel,  
 C. F. Williams,  Q. Wu,  X. Xu,  W. Zhang

 Please cite Q-Chem as follows:
 Y. Shao et al., Mol. Phys. 113, 184-215 (2015)
 DOI: 10.1080/00268976.2014.952696

 Q-Chem 5.3.0 for Intel X86 EM64T Linux

 Parts of Q-Chem use Armadillo 9.800.1 (Horizon Scraper).
 http://arma.sourceforge.net/

 Q-Chem begins on Mon Jul 27 14:30:26 2020  

Host: centos77-c7
0

     Scratch files written to /tmp/29924.centos77-h1/qchem105921//
Processing $rem in /opt/qchem-5.3.0-intel2020u1//config/preferences:
Processing $rem in /home/shihchengli/.qchemrc:

Checking the input file for inconsistencies... 	...done.

--------------------------------------------------------------
User input:
--------------------------------------------------------------
$rem
   JOBTYPE  sp
   EXCHANGE   omegaB97X-D
   BASIS   6-311+G(2df,2pd)
   UNRESTRICTED   False
   max_scf_cycles   250
   geom_opt_max_cycles   1500
   basis2 6-31G*
   scf_algorithm rca_diis
   SYM_IGNORE  TRUE
   print_input   true
   geom_opt_dmax   80
   pop_mulliken false
   XC_GRID 000075000302
$end

$molecule
0 1
C       -5.3103996863     0.2881800441     0.0193031136
C       -4.1475776120     1.1327290919     0.1137327273
H       -5.5165739977     -0.0898424471     -0.9804358324
H       -6.1031921074     0.9863535163     0.2970543770
H       -5.3297993125     -0.5294512385     0.7416840459
O       -2.9852943442     0.5200306481     -0.2289805569
H       -4.1131304093     1.5578799516     1.1265527307
H       -4.2729761313     1.9747939959     -0.5684310297
H       -2.8238663993     -0.2234535624     0.3498304246
$end
--------------------------------------------------------------
 ----------------------------------------------------------------
             Standard Nuclear Orientation (Angstroms)
    I     Atom           X                Y                Z
 ----------------------------------------------------------------
    1      C      -5.3103996863     0.2881800441     0.0193031136
    2      C      -4.1475776120     1.1327290919     0.1137327273
    3      H      -5.5165739977    -0.0898424471    -0.9804358324
    4      H      -6.1031921074     0.9863535163     0.2970543770
    5      H      -5.3297993125    -0.5294512385     0.7416840459
    6      O      -2.9852943442     0.5200306481    -0.2289805569
    7      H      -4.1131304093     1.5578799516     1.1265527307
    8      H      -4.2729761313     1.9747939959    -0.5684310297
    9      H      -2.8238663993    -0.2234535624     0.3498304246
 ----------------------------------------------------------------
 Nuclear Repulsion Energy =          84.31202656 hartrees
 There are       13 alpha and       13 beta electrons
 Requested basis set is 6-311+G(2df,2pd)
 There are 60 shells and 186 basis functions

 Total QAlloc Memory Limit   2000 MB
 Mega-Array Size       188 MB
 MEM_STATIC part       192 MB

                       Distance Matrix (Angstroms)
             C (  1)   C (  2)   H (  3)   H (  4)   H (  5)   O (  6)
   C (  2)  1.440255
   H (  3)  1.088525  2.136829
   H (  4)  1.092297  1.969635  1.770395
   H (  5)  1.091206  2.134201  1.787131  1.758834
   O (  6)  2.349790  1.357849  2.709983  3.196163  2.745962
   H (  7)  2.066783  1.098974  3.020603  2.230483  2.446499  2.046122
   H (  8)  2.065513  1.090938  2.445201  2.252947  3.017370  1.972229
   H (  9)  2.560052  1.909760  3.006349  3.495768  2.554777  0.955955
             H (  7)   H (  8)
   H (  8)  1.752809
   H (  9)  2.332091  2.788443
 
 A cutoff of  1.0D-09 yielded   1790 shell pairs
 There are     17363 function pairs (     21573 Cartesian)
 Smallest overlap matrix eigenvalue = 1.05E-04

 Scale SEOQF with 1.000000e-02/1.000000e-01/1.000000e-01

 Standard Electronic Orientation quadrupole field applied
 Nucleus-field energy     =     0.0000000026 hartrees
 Requested basis set is 6-31G(d)
 There are 24 shells and 54 basis functions
 A cutoff of  1.0D-09 yielded    298 shell pairs
 There are      1549 function pairs (      1732 Cartesian)
 Smallest overlap matrix eigenvalue = 5.61E-03
 Guess from superposition of atomic densities
 Warning:  Energy on first SCF cycle will be non-variational
 SAD guess density has 26.000000 electrons
 Long-range K will be added via erf
 Coulomb attenuation parameter = 0.2 bohr**(-1)
 A restricted hybrid HF-DFT SCF calculation will be
 performed using Relaxed Constraint Minimization + Pulay DIIS
 Exchange:     0.2220 Hartree-Fock + 1.0000 wB97X-D + LR-HF
 Correlation:  1.0000 wB97X-D
 Using Euler-Maclaurin-Lebedev (75,302) quadrature formula
 Dispersion:   Grimme D
 SCF converges when DIIS error is below 1.0E-04
 using 6 threads for integral computing
 -------------------------------------------------------
 OpenMP Integral computing Module                
 Release: version 1.0, May 2013, Q-Chem Inc. Pittsburgh 
 -------------------------------------------------------
 using 6 threads for integral computing
 -------------------------------------------------------
 OpenMP Integral computing Module                
 Release: version 1.0, May 2013, Q-Chem Inc. Pittsburgh 
 -------------------------------------------------------
 ---------------------------------------
  Cycle       Energy         DIIS Error
 ---------------------------------------
    1    -155.6522125492      1.14E-01
    2    -154.9138144287      1.38E-02
    3    -154.9441852945      3.18E-03
    4    -154.9707645170      2.59E-03
    5    -154.9715948024      2.06E-04 Done RCA. Switching to DIIS
    6    -154.9724960265      8.06E-05 Convergence criterion met
 ---------------------------------------
 SCF time:  CPU 13.01 s  wall 2.18 s
 SCF   energy in the small basis set = -154.97249603
 Total energy in the small basis set = -154.97249603
 ----------------------------------------------------
  Cycle       Energy    
 ----------------------------------------------------
    1     -18.8156218688     -1.88E+01
 Long-range K will be added via erf
 Coulomb attenuation parameter = 0.2 bohr**(-1)
 A restricted hybrid HF-DFT SCF calculation will be
 performed using Relaxed Constraint Minimization + Pulay DIIS
 Exchange:     0.2220 Hartree-Fock + 1.0000 wB97X-D + LR-HF
 Correlation:  1.0000 wB97X-D
 Using Euler-Maclaurin-Lebedev (75,302) quadrature formula
 Dispersion:   Grimme D
 SCF converges when DIIS error is below 1.0E-05
 Basis2 calculation detected. Using small basis as guess for larger.
 SCFMinFind is unable to tell whether the solution found is close.
 Resetting ReadMinima to 0 and attempting to follow guess.
 SCFMinFind following SCF Guess.
 using 6 threads for integral computing
 -------------------------------------------------------
 OpenMP Integral computing Module                
 Release: version 1.0, May 2013, Q-Chem Inc. Pittsburgh 
 -------------------------------------------------------
 using 6 threads for integral computing
 -------------------------------------------------------
 OpenMP Integral computing Module                
 Release: version 1.0, May 2013, Q-Chem Inc. Pittsburgh 
 -------------------------------------------------------
 ---------------------------------------
  Cycle       Energy         DIIS Error
 ---------------------------------------
    1    -155.0052392354      5.71E-03
    2    -155.0219692232      2.76E-03
    3    -155.0310225807      3.06E-04 Done RCA. Switching to DIIS
    4    -155.0416705724      1.96E-04
    5    -155.0417902941      3.92E-05
    6    -155.0417980549      6.05E-06 Convergence criterion met
 ---------------------------------------
 SCF time:  CPU 40.04 s  wall 6.70 s
 SCF   energy in the final basis set = -155.04179805
 Total energy in the final basis set = -155.04179805
 
 --------------------------------------------------------------
 
                    Orbital Energies (a.u.)
 --------------------------------------------------------------
 
 Alpha MOs
 -- Occupied --
-19.2440 -10.3168 -10.2659  -1.1445  -0.8655  -0.7206  -0.6083  -0.5585
 -0.5307  -0.4756  -0.4545  -0.4037  -0.3598
 -- Virtual --
  0.0649   0.0869   0.0894   0.1008   0.1285   0.1341   0.1361   0.1826
  0.1958   0.2220   0.2395   0.2448   0.2626   0.2811   0.2990   0.3144
  0.3304   0.3397   0.3565   0.3904   0.4613   0.4837   0.5036   0.5206
  0.5693   0.5778   0.5836   0.6164   0.6265   0.6649   0.6832   0.6856
  0.6991   0.7240   0.7510   0.8038   0.8481   0.8988   0.9384   0.9572
  0.9996   1.0460   1.0766   1.1286   1.1395   1.1680   1.1827   1.2290
  1.2467   1.2656   1.2950   1.3020   1.3473   1.3844   1.3993   1.4378
  1.4425   1.4633   1.4691   1.4986   1.5063   1.5409   1.5926   1.6209
  1.6547   1.7207   1.9558   2.0649   2.1488   2.2818   2.3319   2.4643
  2.5295   2.5724   2.5886   2.6397   2.7029   2.8594   2.8866   2.9020
  2.9213   2.9832   2.9922   3.0173   3.0375   3.0544   3.0643   3.0903
  3.1457   3.1872   3.2290   3.2541   3.2677   3.3012   3.3225   3.3750
  3.3988   3.4161   3.4503   3.4732   3.5015   3.5675   3.5795   3.5873
  3.6124   3.6451   3.6519   3.7436   3.7505   3.8086   3.8355   3.8652
  3.8971   3.9498   3.9755   3.9959   4.0330   4.0519   4.0719   4.0869
  4.0982   4.1227   4.1872   4.2242   4.2284   4.3179   4.3441   4.3467
  4.3725   4.4459   4.5282   4.5376   4.5552   4.6996   4.7468   4.8253
  4.8538   4.9313   4.9577   4.9960   5.0163   5.1122   5.1914   5.2189
  5.2635   5.2966   5.3106   5.3180   5.3685   5.3902   5.4364   5.5246
  5.5878   5.6442   5.7342   6.0003   6.0779   6.2169   6.3683   6.4221
  6.4292   6.6622   6.8607   6.8971   7.1378   7.3679   7.4732   7.5931
  7.7712   8.1525  25.2742  25.5390  50.4983
 --------------------------------------------------------------
 
 -----------------------------------------------------------------
                    Cartesian Multipole Moments
 -----------------------------------------------------------------
    Charge (ESU x 10^10)
                -0.0000
    Dipole Moment (Debye)
         X      -1.0231      Y      -0.5273      Z       1.1820
       Tot       1.6498
    Quadrupole Moments (Debye-Ang)
        XX     -13.3611     XY      -0.2462     YY     -19.1650
        XZ      -3.0130     YZ      -0.3183     ZZ     -19.8429
    Octopole Moments (Debye-Ang^2)
       XXX     224.8621    XXY      -5.0291    XYY      80.6980
       YYY     -37.1227    XXZ       6.7989    XYZ       1.2151
       YYZ      -0.4291    XZZ      84.1264    YZZ     -12.8299
       ZZZ      -0.1123
    Hexadecapole Moments (Debye-Ang^3)
      XXXX   -2213.7228   XXXY     104.1151   XXYY    -382.3947
      XYYY     150.9713   YYYY    -103.2471   XXXZ      -6.1859
      XXYZ      -4.5962   XYYZ       3.0096   YYYZ      -3.8387
      XXZZ    -387.6805   XYZZ      52.9320   YYZZ     -22.5938
      XZZZ       6.5027   YZZZ      -1.6537   ZZZZ     -36.8247
 -----------------------------------------------------------------
Archival summary:
1\1\centos77-c7\SP\ProcedureUnspecified\BasisUnspecified\126\shihchen\MonJul2714:30:372020MonJul2714:30:372020\0\\#,ProcedureUnspecified,BasisUnspecified,\\0,1\C\H,1,1.09094\H,1,1.09897,2,106.336\O,1,1.35785,2,106.79,3,-120.161,0\H,4,0.955955,1,110.039,2,179.341,0\C,1,1.44026,2,108.591,3,116.248,0\H,6,1.08853,1,114.631,2,57.6602,0\H,6,1.09121,1,114.225,2,-173.893,0\H,6,1.0923,1,101.216,2,-58.9305,0\\\@

 Total job time:  11.10s(wall), 56.92s(cpu) 
 Mon Jul 27 14:30:37 2020

        *************************************************************
        *                                                           *
        *  Thank you very much for using Q-Chem.  Have a nice day.  *
        *                                                           *
        *************************************************************


