                  Welcome to Q-Chem
     A Quantum Leap Into The Future Of Chemistry


 Q-Chem 5.3 (devel), Q-Chem, Inc., Pleasanton, CA (2020)

 Yihan Shao,  Zhengting Gan,  E. Epifanovsky,  A. T. B. Gilbert,  M. Wormit,  
 J. Kussmann,  A. W. Lange,  A. Behn,  Jia Deng,  Xintian Feng,  D. Ghosh,  
 M. Goldey,  P. R. Horn,  L. D. Jacobson,  I. Kaliman,  T. Kus,  A. Landau,  
 Jie Liu,  E. I. Proynov,  R. M. Richard,  R. P. Steele,  E. J. Sundstrom,  
 H. L. Woodcock III,  P. M. Zimmerman,  D. Zuev,  B. Alam,  B. Albrecht,  
 E. Alguire,  S. A. Baeppler,  D. Barton,  Z. Benda,  Y. A. Bernard,  
 E. J. Berquist,  K. B. Bravaya,  H. Burton,  K. Carter-Fenk,  D. Casanova,  
 Chun-Min Chang,  Yunqing Chen,  A. Chien,  K. D. Closser,  M. P. Coons,  
 S. Coriani,  S. Dasgupta,  A. L. Dempwolff,  M. Diedenhofen,  Hainam Do,  
 R. G. Edgar,  Po-Tung Fang,  S. Faraji,  S. Fatehi,  Qingguo Feng,  
 J. Fosso-Tande,  J. Gayvert,  Qinghui Ge,  A. Ghysels,  G. Gidofalvi,  
 J. Gomes,  J. Gonthier,  A. Gunina,  D. Hait,  M. W. D. Hanson-Heine,  
 P. H. P. Harbach,  A. W. Hauser,  M. F. Herbst,  J. E. Herr,  
 E. G. Hohenstein,  Z. C. Holden,  Kerwin Hui,  B. C. Huynh,  T.-C. Jagau,  
 Hyunjun Ji,  B. Kaduk,  K. Khistyaev,  Jaehoon Kim,  P. Klunzinger,  K. Koh,  
 D. Kosenkov,  L. Koulias,  T. Kowalczyk,  C. M. Krauter,  A. Kunitsa,  
 Ka Un Lao,  A. Laurent,  K. V. Lawler,  Joonho Lee,  D. Lefrancois,  
 S. Lehtola,  D. S. Levine,  Yi-Pei Li,  You-Sheng Lin,  Fenglai Liu,  
 Kuan-Yu Liu,  E. Livshits,  M. Loipersberger,  A. Luenser,  P. Manohar,  
 E. Mansoor,  S. F. Manzer,  Shan-Ping Mao,  Yuezhi Mao,  N. Mardirossian,  
 A. V. Marenich,  T. Markovich,  L. A. Martinez-Martinez,  S. A. Maurer,  
 N. J. Mayhall,  S. C. McKenzie,  J.-M. Mewes,  P. Morgante,  A. F. Morrison,  
 J. W. Mullinax,  K. Nanda,  T. S. Nguyen-Beck,  R. Olivares-Amaya,  
 K. J. Oosterbaan,  J. A. Parkhill,  S. K. Paul,  F. Pavosevic,  Zheng Pei,  
 T. M. Perrine,  F. Plasser,  P. Pokhilko,  S. Prager,  A. Prociuk,  
 E. Ramos,  B. Rana,  D. R. Rehn,  F. Rob,  M. Scheurer,  M. Schneider,  
 N. Sergueev,  S. M. Sharada,  S. Sharma,  D. W. Small,  T. Stauch,  
 C. J. Stein,  T. Stein,  Yu-Chuan Su,  S. P. Veccham,  Zhen Tao,  
 A. J. W. Thom,  A. Tkatchenko,  T. Tsuchimochi,  N. M. Tubman,  L. Vogt,  
 M. L. Vidal,  O. Vydrov,  M. A. Watson,  J. Wenzel,  M. de Wergifosse,  
 T. A. Wesolowski,  A. White,  J. Witte,  A. Yamada,  Jun Yang,  K. Yao,  
 S. Yeganeh,  S. R. Yost,  Zhi-Qiang You,  A. Zech,  Igor Ying Zhang,  
 Xing Zhang,  Yan Zhao,  Ying Zhu,  B. R. Brooks,  G. K. L. Chan,  
 C. J. Cramer,  M. S. Gordon,  W. J. Hehre,  A. Klamt,  M. W. Schmidt,  
 C. D. Sherrill,  D. G. Truhlar,  A. Aspuru-Guzik,  R. Baer,  A. T. Bell,  
 N. A. Besley,  Jeng-Da Chai,  A. E. DePrince, III,  R. A. DiStasio Jr.,  
 A. Dreuw,  B. D. Dunietz,  T. R. Furlani,  Chao-Ping Hsu,  Yousung Jung,  
 Jing Kong,  D. S. Lambrecht,  WanZhen Liang,  C. Ochsenfeld,  
 V. A. Rassolov,  L. V. Slipchenko,  J. E. Subotnik,  T. Van Voorhis,  
 J. M. Herbert,  A. I. Krylov,  P. M. W. Gill,  M. Head-Gordon

 Contributors to earlier versions of Q-Chem not listed above: 
 R. D. Adamson,  B. Austin,  J. Baker,  G. J. O. Beran,  K. Brandhorst,  
 S. T. Brown,  E. F. C. Byrd,  A. K. Chakraborty,  C.-L. Cheng,  
 Siu Hung Chien,  D. M. Chipman,  D. L. Crittenden,  H. Dachsel,  
 R. J. Doerksen,  A. D. Dutoi,  L. Fusti-Molnar,  W. A. Goddard III,  
 A. Golubeva-Zadorozhnaya,  S. R. Gwaltney,  G. Hawkins,  A. Heyden,  
 S. Hirata,  G. Kedziora,  F. J. Keil,  C. Kelley,  Jihan Kim,  R. A. King,  
 R. Z. Khaliullin,  P. P. Korambath,  W. Kurlancheek,  A. M. Lee,  M. S. Lee,  
 S. V. Levchenko,  Ching Yeh Lin,  D. Liotard,  R. C. Lochan,  I. Lotan,  
 P. E. Maslen,  N. Nair,  D. P. O'Neill,  D. Neuhauser,  E. Neuscamman,  
 C. M. Oana,  R. Olson,  B. Peters,  R. Peverati,  P. A. Pieniazek,  
 Y. M. Rhee,  J. Ritchie,  M. A. Rohrdanz,  E. Rosta,  N. J. Russ,  
 H. F. Schaefer III,  N. E. Schultz,  N. Shenvi,  A. C. Simmonett,  A. Sodt,  
 D. Stuck,  K. S. Thanthiriwatte,  V. Vanovschi,  Tao Wang,  A. Warshel,  
 C. F. Williams,  Q. Wu,  X. Xu,  W. Zhang

 Please cite Q-Chem as follows:
 Y. Shao et al., Mol. Phys. 113, 184-215 (2015)
 DOI: 10.1080/00268976.2014.952696

 Q-Chem 5.3.0 for Intel X86 EM64T Linux

 Parts of Q-Chem use Armadillo 9.800.1 (Horizon Scraper).
 http://arma.sourceforge.net/

 Q-Chem begins on Mon Jul 27 14:47:23 2020  

Host: centos77-c7
0

     Scratch files written to /tmp/29924.centos77-h1/qchem110106//
Processing $rem in /opt/qchem-5.3.0-intel2020u1//config/preferences:
Processing $rem in /home/shihchengli/.qchemrc:

Checking the input file for inconsistencies... 	...done.

--------------------------------------------------------------
User input:
--------------------------------------------------------------
$rem
   JOBTYPE  sp
   EXCHANGE   omegaB97X-D
   BASIS   6-311+G(2df,2pd)
   UNRESTRICTED   False
   max_scf_cycles   250
   geom_opt_max_cycles   1500
   basis2 6-31G*
   scf_algorithm rca_diis
   SYM_IGNORE  TRUE
   print_input   true
   geom_opt_dmax   80
   pop_mulliken false
   XC_GRID 000075000302
$end

$molecule
0 1
C       -5.3756816244     0.3190321389     0.0148660737
C       -4.1331324616     1.1846716664     0.1095569789
H       -5.4194896158     -0.1092393465     -0.9845316335
H       -6.2537452456     0.8650880271     0.3635367802
H       -5.3924527168     -0.5099705153     0.7297547292
O       -2.9531309533     0.4898485092     -0.2445982717
H       -4.0416409474     1.6049859675     1.1175370729
H       -4.2093582588     2.0289334695     -0.5762044944
H       -2.8241781762     -0.2561299168     0.3403927647
$end
--------------------------------------------------------------
 ----------------------------------------------------------------
             Standard Nuclear Orientation (Angstroms)
    I     Atom           X                Y                Z
 ----------------------------------------------------------------
    1      C      -5.3756816244     0.3190321389     0.0148660737
    2      C      -4.1331324616     1.1846716664     0.1095569789
    3      H      -5.4194896158    -0.1092393465    -0.9845316335
    4      H      -6.2537452456     0.8650880271     0.3635367802
    5      H      -5.3924527168    -0.5099705153     0.7297547292
    6      O      -2.9531309533     0.4898485092    -0.2445982717
    7      H      -4.0416409474     1.6049859675     1.1175370729
    8      H      -4.2093582588     2.0289334695    -0.5762044944
    9      H      -2.8241781762    -0.2561299168     0.3403927647
 ----------------------------------------------------------------
 Nuclear Repulsion Energy =          81.89649914 hartrees
 There are       13 alpha and       13 beta electrons
 Requested basis set is 6-311+G(2df,2pd)
 There are 60 shells and 186 basis functions

 Total QAlloc Memory Limit   2000 MB
 Mega-Array Size       188 MB
 MEM_STATIC part       192 MB

                       Distance Matrix (Angstroms)
             C (  1)   C (  2)   H (  3)   H (  4)   H (  5)   O (  6)
   C (  2)  1.517309
   H (  3)  1.088178  2.127428
   H (  4)  1.091212  2.159546  1.860802
   H (  5)  1.094802  2.200533  1.760708  1.663348
   O (  6)  2.442386  1.414429  2.643735  3.377083  2.810568
   H (  7)  2.156206  1.095928  3.042323  2.451402  2.539313  2.069734
   H (  8)  2.152542  1.090347  2.490569  2.533213  3.090514  2.014163
   H (  9)  2.635707  1.960244  2.917643  3.608268  2.609995  0.956727
             H (  7)   H (  8)
   H (  8)  1.754030
   H (  9)  2.355827  2.824958
 
 A cutoff of  1.0D-09 yielded   1785 shell pairs
 There are     17315 function pairs (     21502 Cartesian)
 Smallest overlap matrix eigenvalue = 1.38E-04

 Scale SEOQF with 1.000000e-02/1.000000e-01/1.000000e-01

 Standard Electronic Orientation quadrupole field applied
 Nucleus-field energy     =     0.0000000027 hartrees
 Requested basis set is 6-31G(d)
 There are 24 shells and 54 basis functions
 A cutoff of  1.0D-09 yielded    298 shell pairs
 There are      1549 function pairs (      1732 Cartesian)
 Smallest overlap matrix eigenvalue = 7.26E-03
 Guess from superposition of atomic densities
 Warning:  Energy on first SCF cycle will be non-variational
 SAD guess density has 26.000000 electrons
 Long-range K will be added via erf
 Coulomb attenuation parameter = 0.2 bohr**(-1)
 A restricted hybrid HF-DFT SCF calculation will be
 performed using Relaxed Constraint Minimization + Pulay DIIS
 Exchange:     0.2220 Hartree-Fock + 1.0000 wB97X-D + LR-HF
 Correlation:  1.0000 wB97X-D
 Using Euler-Maclaurin-Lebedev (75,302) quadrature formula
 Dispersion:   Grimme D
 SCF converges when DIIS error is below 1.0E-04
 using 6 threads for integral computing
 -------------------------------------------------------
 OpenMP Integral computing Module                
 Release: version 1.0, May 2013, Q-Chem Inc. Pittsburgh 
 -------------------------------------------------------
 using 6 threads for integral computing
 -------------------------------------------------------
 OpenMP Integral computing Module                
 Release: version 1.0, May 2013, Q-Chem Inc. Pittsburgh 
 -------------------------------------------------------
 ---------------------------------------
  Cycle       Energy         DIIS Error
 ---------------------------------------
    1    -155.4338047691      1.06E-01
    2    -154.9231950443      1.35E-02
    3    -154.9514625500      3.03E-03
    4    -154.9775383865      2.40E-03
    5    -154.9782604231      2.25E-04 Done RCA. Switching to DIIS
    6    -154.9790692870      9.97E-05 Convergence criterion met
 ---------------------------------------
 SCF time:  CPU 12.99 s  wall 2.18 s
 SCF   energy in the small basis set = -154.97906929
 Total energy in the small basis set = -154.97906929
 ----------------------------------------------------
  Cycle       Energy    
 ----------------------------------------------------
    1     -18.7502558484     -1.88E+01
 Long-range K will be added via erf
 Coulomb attenuation parameter = 0.2 bohr**(-1)
 A restricted hybrid HF-DFT SCF calculation will be
 performed using Relaxed Constraint Minimization + Pulay DIIS
 Exchange:     0.2220 Hartree-Fock + 1.0000 wB97X-D + LR-HF
 Correlation:  1.0000 wB97X-D
 Using Euler-Maclaurin-Lebedev (75,302) quadrature formula
 Dispersion:   Grimme D
 SCF converges when DIIS error is below 1.0E-05
 Basis2 calculation detected. Using small basis as guess for larger.
 SCFMinFind is unable to tell whether the solution found is close.
 Resetting ReadMinima to 0 and attempting to follow guess.
 SCFMinFind following SCF Guess.
 using 6 threads for integral computing
 -------------------------------------------------------
 OpenMP Integral computing Module                
 Release: version 1.0, May 2013, Q-Chem Inc. Pittsburgh 
 -------------------------------------------------------
 using 6 threads for integral computing
 -------------------------------------------------------
 OpenMP Integral computing Module                
 Release: version 1.0, May 2013, Q-Chem Inc. Pittsburgh 
 -------------------------------------------------------
 ---------------------------------------
  Cycle       Energy         DIIS Error
 ---------------------------------------
    1    -155.0105920053      5.72E-03
    2    -155.0261250666      2.86E-03
    3    -155.0357712010      3.46E-04 Done RCA. Switching to DIIS
    4    -155.0473410455      2.49E-04
    5    -155.0475264727      3.95E-05
    6    -155.0475344443      5.84E-06 Convergence criterion met
 ---------------------------------------
 SCF time:  CPU 38.92 s  wall 6.51 s
 SCF   energy in the final basis set = -155.04753444
 Total energy in the final basis set = -155.04753444
 
 --------------------------------------------------------------
 
                    Orbital Energies (a.u.)
 --------------------------------------------------------------
 
 Alpha MOs
 -- Occupied --
-19.2459 -10.3277 -10.2742  -1.1256  -0.8502  -0.7241  -0.5966  -0.5413
 -0.5318  -0.4736  -0.4459  -0.4138  -0.3616
 -- Virtual --
  0.0650   0.0883   0.0888   0.1011   0.1270   0.1333   0.1372   0.1817
  0.1985   0.2121   0.2390   0.2474   0.2661   0.2834   0.2896   0.3086
  0.3163   0.3276   0.3437   0.3815   0.4567   0.4925   0.5059   0.5246
  0.5672   0.5726   0.5886   0.6051   0.6162   0.6327   0.6674   0.6821
  0.6886   0.7074   0.7413   0.8040   0.8556   0.8889   0.9280   0.9454
  0.9799   1.0496   1.0640   1.1188   1.1491   1.1698   1.1820   1.1978
  1.2300   1.2619   1.2723   1.2957   1.3304   1.3424   1.3750   1.4305
  1.4507   1.4602   1.4730   1.4854   1.5047   1.5390   1.5842   1.6412
  1.6572   1.7136   1.9401   2.0506   2.1122   2.2803   2.2834   2.4637
  2.4711   2.4915   2.5549   2.5835   2.7050   2.8348   2.8447   2.8736
  2.9185   2.9764   2.9900   3.0334   3.0477   3.0509   3.0703   3.0892
  3.1046   3.1780   3.2035   3.2584   3.2687   3.2993   3.3155   3.3516
  3.3973   3.4043   3.4177   3.4372   3.4984   3.5567   3.5786   3.5796
  3.5938   3.6082   3.6562   3.6975   3.7221   3.7434   3.7793   3.8400
  3.8649   3.8884   3.9508   3.9740   3.9820   4.0069   4.0456   4.0617
  4.0971   4.1269   4.1408   4.1863   4.2169   4.2281   4.3071   4.3271
  4.3550   4.3961   4.4674   4.5244   4.5460   4.6417   4.7105   4.7978
  4.8386   4.8748   4.9465   4.9598   5.0118   5.0753   5.1245   5.1764
  5.2243   5.2400   5.2979   5.3222   5.3511   5.4139   5.4364   5.4963
  5.5382   5.6104   5.6858   5.8292   5.9292   6.0312   6.3292   6.3991
  6.4154   6.6574   6.7186   6.8224   7.1247   7.3442   7.4255   7.5468
  7.7397   8.1125  25.1751  25.4290  50.4679
 --------------------------------------------------------------
 
 -----------------------------------------------------------------
                    Cartesian Multipole Moments
 -----------------------------------------------------------------
    Charge (ESU x 10^10)
                 0.0000
    Dipole Moment (Debye)
         X      -1.1588      Y      -0.4434      Z       1.2865
       Tot       1.7873
    Quadrupole Moments (Debye-Ang)
        XX     -12.2813     XY      -0.4265     YY     -18.9737
        XZ      -3.7953     YZ      -0.1845     ZZ     -19.8739
    Octopole Moments (Debye-Ang^2)
       XXX     217.0870    XXY      -5.3812    XYY      80.5778
       YYY     -37.1945    XXZ      12.7876    XYZ       0.4181
       YYZ      -0.2876    XZZ      84.2404    YZZ     -12.8984
       ZZZ       0.3989
    Hexadecapole Moments (Debye-Ang^3)
      XXXX   -2165.3947   XXXY     111.3583   XXYY    -387.4363
      XYYY     152.2274   YYYY    -105.3318   XXXZ     -49.4833
      XXYZ       0.1886   XYYZ       2.6354   YYYZ      -3.9703
      XXZZ    -389.8725   XYZZ      53.2908   YYZZ     -22.8500
      XZZZ       5.0086   YZZZ      -1.3343   ZZZZ     -36.9246
 -----------------------------------------------------------------
Archival summary:
1\1\centos77-c7\SP\ProcedureUnspecified\BasisUnspecified\126\shihchen\MonJul2714:47:342020MonJul2714:47:342020\0\\#,ProcedureUnspecified,BasisUnspecified,\\0,1\C\H,1,1.09035\H,1,1.09593,2,106.699\O,1,1.41443,2,106.333,3,-117.882,0\H,4,0.956727,1,110.022,2,178.793,0\C,1,1.51731,2,110.197,3,119.582,0\H,6,1.08818,1,108.35,2,64.4363,0\H,6,1.09121,1,110.703,2,-65.4458,0\H,6,1.0948,1,113.816,2,-176.017,0\\\@

 Total job time:  10.82s(wall), 55.71s(cpu) 
 Mon Jul 27 14:47:34 2020

        *************************************************************
        *                                                           *
        *  Thank you very much for using Q-Chem.  Have a nice day.  *
        *                                                           *
        *************************************************************


