                  Welcome to Q-Chem
     A Quantum Leap Into The Future Of Chemistry


 Q-Chem 5.3 (devel), Q-Chem, Inc., Pleasanton, CA (2020)

 Yihan Shao,  Zhengting Gan,  E. Epifanovsky,  A. T. B. Gilbert,  M. Wormit,  
 J. Kussmann,  A. W. Lange,  A. Behn,  Jia Deng,  Xintian Feng,  D. Ghosh,  
 M. Goldey,  P. R. Horn,  L. D. Jacobson,  I. Kaliman,  T. Kus,  A. Landau,  
 Jie Liu,  E. I. Proynov,  R. M. Richard,  R. P. Steele,  E. J. Sundstrom,  
 H. L. Woodcock III,  P. M. Zimmerman,  D. Zuev,  B. Alam,  B. Albrecht,  
 E. Alguire,  S. A. Baeppler,  D. Barton,  Z. Benda,  Y. A. Bernard,  
 E. J. Berquist,  K. B. Bravaya,  H. Burton,  K. Carter-Fenk,  D. Casanova,  
 Chun-Min Chang,  Yunqing Chen,  A. Chien,  K. D. Closser,  M. P. Coons,  
 S. Coriani,  S. Dasgupta,  A. L. Dempwolff,  M. Diedenhofen,  Hainam Do,  
 R. G. Edgar,  Po-Tung Fang,  S. Faraji,  S. Fatehi,  Qingguo Feng,  
 J. Fosso-Tande,  J. Gayvert,  Qinghui Ge,  A. Ghysels,  G. Gidofalvi,  
 J. Gomes,  J. Gonthier,  A. Gunina,  D. Hait,  M. W. D. Hanson-Heine,  
 P. H. P. Harbach,  A. W. Hauser,  M. F. Herbst,  J. E. Herr,  
 E. G. Hohenstein,  Z. C. Holden,  Kerwin Hui,  B. C. Huynh,  T.-C. Jagau,  
 Hyunjun Ji,  B. Kaduk,  K. Khistyaev,  Jaehoon Kim,  P. Klunzinger,  K. Koh,  
 D. Kosenkov,  L. Koulias,  T. Kowalczyk,  C. M. Krauter,  A. Kunitsa,  
 Ka Un Lao,  A. Laurent,  K. V. Lawler,  Joonho Lee,  D. Lefrancois,  
 S. Lehtola,  D. S. Levine,  Yi-Pei Li,  You-Sheng Lin,  Fenglai Liu,  
 Kuan-Yu Liu,  E. Livshits,  M. Loipersberger,  A. Luenser,  P. Manohar,  
 E. Mansoor,  S. F. Manzer,  Shan-Ping Mao,  Yuezhi Mao,  N. Mardirossian,  
 A. V. Marenich,  T. Markovich,  L. A. Martinez-Martinez,  S. A. Maurer,  
 N. J. Mayhall,  S. C. McKenzie,  J.-M. Mewes,  P. Morgante,  A. F. Morrison,  
 J. W. Mullinax,  K. Nanda,  T. S. Nguyen-Beck,  R. Olivares-Amaya,  
 K. J. Oosterbaan,  J. A. Parkhill,  S. K. Paul,  F. Pavosevic,  Zheng Pei,  
 T. M. Perrine,  F. Plasser,  P. Pokhilko,  S. Prager,  A. Prociuk,  
 E. Ramos,  B. Rana,  D. R. Rehn,  F. Rob,  M. Scheurer,  M. Schneider,  
 N. Sergueev,  S. M. Sharada,  S. Sharma,  D. W. Small,  T. Stauch,  
 C. J. Stein,  T. Stein,  Yu-Chuan Su,  S. P. Veccham,  Zhen Tao,  
 A. J. W. Thom,  A. Tkatchenko,  T. Tsuchimochi,  N. M. Tubman,  L. Vogt,  
 M. L. Vidal,  O. Vydrov,  M. A. Watson,  J. Wenzel,  M. de Wergifosse,  
 T. A. Wesolowski,  A. White,  J. Witte,  A. Yamada,  Jun Yang,  K. Yao,  
 S. Yeganeh,  S. R. Yost,  Zhi-Qiang You,  A. Zech,  Igor Ying Zhang,  
 Xing Zhang,  Yan Zhao,  Ying Zhu,  B. R. Brooks,  G. K. L. Chan,  
 C. J. Cramer,  M. S. Gordon,  W. J. Hehre,  A. Klamt,  M. W. Schmidt,  
 C. D. Sherrill,  D. G. Truhlar,  A. Aspuru-Guzik,  R. Baer,  A. T. Bell,  
 N. A. Besley,  Jeng-Da Chai,  A. E. DePrince, III,  R. A. DiStasio Jr.,  
 A. Dreuw,  B. D. Dunietz,  T. R. Furlani,  Chao-Ping Hsu,  Yousung Jung,  
 Jing Kong,  D. S. Lambrecht,  WanZhen Liang,  C. Ochsenfeld,  
 V. A. Rassolov,  L. V. Slipchenko,  J. E. Subotnik,  T. Van Voorhis,  
 J. M. Herbert,  A. I. Krylov,  P. M. W. Gill,  M. Head-Gordon

 Contributors to earlier versions of Q-Chem not listed above: 
 R. D. Adamson,  B. Austin,  J. Baker,  G. J. O. Beran,  K. Brandhorst,  
 S. T. Brown,  E. F. C. Byrd,  A. K. Chakraborty,  C.-L. Cheng,  
 Siu Hung Chien,  D. M. Chipman,  D. L. Crittenden,  H. Dachsel,  
 R. J. Doerksen,  A. D. Dutoi,  L. Fusti-Molnar,  W. A. Goddard III,  
 A. Golubeva-Zadorozhnaya,  S. R. Gwaltney,  G. Hawkins,  A. Heyden,  
 S. Hirata,  G. Kedziora,  F. J. Keil,  C. Kelley,  Jihan Kim,  R. A. King,  
 R. Z. Khaliullin,  P. P. Korambath,  W. Kurlancheek,  A. M. Lee,  M. S. Lee,  
 S. V. Levchenko,  Ching Yeh Lin,  D. Liotard,  R. C. Lochan,  I. Lotan,  
 P. E. Maslen,  N. Nair,  D. P. O'Neill,  D. Neuhauser,  E. Neuscamman,  
 C. M. Oana,  R. Olson,  B. Peters,  R. Peverati,  P. A. Pieniazek,  
 Y. M. Rhee,  J. Ritchie,  M. A. Rohrdanz,  E. Rosta,  N. J. Russ,  
 H. F. Schaefer III,  N. E. Schultz,  N. Shenvi,  A. C. Simmonett,  A. Sodt,  
 D. Stuck,  K. S. Thanthiriwatte,  V. Vanovschi,  Tao Wang,  A. Warshel,  
 C. F. Williams,  Q. Wu,  X. Xu,  W. Zhang

 Please cite Q-Chem as follows:
 Y. Shao et al., Mol. Phys. 113, 184-215 (2015)
 DOI: 10.1080/00268976.2014.952696

 Q-Chem 5.3.0 for Intel X86 EM64T Linux

 Parts of Q-Chem use Armadillo 9.800.1 (Horizon Scraper).
 http://arma.sourceforge.net/

 Q-Chem begins on Mon Jul 27 14:24:59 2020  

Host: centos77-c7
0

     Scratch files written to /tmp/29924.centos77-h1/qchem104520//
Processing $rem in /opt/qchem-5.3.0-intel2020u1//config/preferences:
Processing $rem in /home/shihchengli/.qchemrc:

Checking the input file for inconsistencies... 	...done.

--------------------------------------------------------------
User input:
--------------------------------------------------------------
$rem
   JOBTYPE  sp
   EXCHANGE   omegaB97X-D
   BASIS   6-311+G(2df,2pd)
   UNRESTRICTED   False
   max_scf_cycles   250
   geom_opt_max_cycles   1500
   basis2 6-31G*
   scf_algorithm rca_diis
   SYM_IGNORE  TRUE
   print_input   true
   geom_opt_dmax   80
   pop_mulliken false
   XC_GRID 000075000302
$end

$molecule
0 1
C       -5.4022047335     0.2898380619     0.0271851798
C       -4.1189689667     1.1230444022     0.1028814353
H       -5.6055541632     -0.0988980544     -0.9706152223
H       -6.2140091575     0.9693277852     0.2971140860
H       -5.4206416923     -0.5386223240     0.7376056228
O       -2.8530952312     0.5634809100     -0.2138746384
H       -4.0911013638     1.5327355956     1.1194839700
H       -4.2141277073     1.9694846915     -0.5768914846
H       -2.6831069843     -0.1931710681     0.3474210516
$end
--------------------------------------------------------------
 ----------------------------------------------------------------
             Standard Nuclear Orientation (Angstroms)
    I     Atom           X                Y                Z
 ----------------------------------------------------------------
    1      C      -5.4022047335     0.2898380619     0.0271851798
    2      C      -4.1189689667     1.1230444022     0.1028814353
    3      H      -5.6055541632    -0.0988980544    -0.9706152223
    4      H      -6.2140091575     0.9693277852     0.2971140860
    5      H      -5.4206416923    -0.5386223240     0.7376056228
    6      O      -2.8530952312     0.5634809100    -0.2138746384
    7      H      -4.0911013638     1.5327355956     1.1194839700
    8      H      -4.2141277073     1.9694846915    -0.5768914846
    9      H      -2.6831069843    -0.1931710681     0.3474210516
 ----------------------------------------------------------------
 Nuclear Repulsion Energy =          80.89724485 hartrees
 There are       13 alpha and       13 beta electrons
 Requested basis set is 6-311+G(2df,2pd)
 There are 60 shells and 186 basis functions

 Total QAlloc Memory Limit   2000 MB
 Mega-Array Size       188 MB
 MEM_STATIC part       192 MB

                       Distance Matrix (Angstroms)
             C (  1)   C (  2)   H (  3)   H (  4)   H (  5)   O (  6)
   C (  2)  1.531880
   H (  3)  1.089987  2.203514
   H (  4)  1.092517  2.109632  1.765917
   H (  5)  1.091505  2.204169  1.773575  1.759937
   O (  6)  2.575063  1.419818  2.930432  3.423677  2.951651
   H (  7)  2.111138  1.096405  3.053573  2.345306  2.490789  2.061543
   H (  8)  2.144213  1.089774  2.523746  2.400776  3.078016  1.990235
   H (  9)  2.780169  1.963141  3.207305  3.717688  2.786696  0.957325
             H (  7)   H (  8)
   H (  8)  1.756011
   H (  9)  2.357389  2.806325
 
 A cutoff of  1.0D-09 yielded   1773 shell pairs
 There are     17217 function pairs (     21390 Cartesian)
 Smallest overlap matrix eigenvalue = 1.39E-04

 Scale SEOQF with 1.000000e-02/1.000000e-01/1.000000e-01

 Standard Electronic Orientation quadrupole field applied
 Nucleus-field energy     =     0.0000000026 hartrees
 Requested basis set is 6-31G(d)
 There are 24 shells and 54 basis functions
 A cutoff of  1.0D-09 yielded    298 shell pairs
 There are      1549 function pairs (      1732 Cartesian)
 Smallest overlap matrix eigenvalue = 7.42E-03
 Guess from superposition of atomic densities
 Warning:  Energy on first SCF cycle will be non-variational
 SAD guess density has 26.000000 electrons
 Long-range K will be added via erf
 Coulomb attenuation parameter = 0.2 bohr**(-1)
 A restricted hybrid HF-DFT SCF calculation will be
 performed using Relaxed Constraint Minimization + Pulay DIIS
 Exchange:     0.2220 Hartree-Fock + 1.0000 wB97X-D + LR-HF
 Correlation:  1.0000 wB97X-D
 Using Euler-Maclaurin-Lebedev (75,302) quadrature formula
 Dispersion:   Grimme D
 SCF converges when DIIS error is below 1.0E-04
 using 6 threads for integral computing
 -------------------------------------------------------
 OpenMP Integral computing Module                
 Release: version 1.0, May 2013, Q-Chem Inc. Pittsburgh 
 -------------------------------------------------------
 using 6 threads for integral computing
 -------------------------------------------------------
 OpenMP Integral computing Module                
 Release: version 1.0, May 2013, Q-Chem Inc. Pittsburgh 
 -------------------------------------------------------
 ---------------------------------------
  Cycle       Energy         DIIS Error
 ---------------------------------------
    1    -155.4040186986      1.05E-01
    2    -154.9247111696      1.34E-02
    3    -154.9522408298      3.04E-03
    4    -154.9775601034      2.45E-03
    5    -154.9783105891      2.31E-04 Done RCA. Switching to DIIS
    6    -154.9791571171      1.13E-04
    7    -154.9791610077      7.31E-06 Convergence criterion met
 ---------------------------------------
 SCF time:  CPU 14.15 s  wall 2.37 s
 SCF   energy in the small basis set = -154.97916101
 Total energy in the small basis set = -154.97916101
 ----------------------------------------------------
  Cycle       Energy    
 ----------------------------------------------------
    1     -18.7404321007     -1.87E+01
 Long-range K will be added via erf
 Coulomb attenuation parameter = 0.2 bohr**(-1)
 A restricted hybrid HF-DFT SCF calculation will be
 performed using Relaxed Constraint Minimization + Pulay DIIS
 Exchange:     0.2220 Hartree-Fock + 1.0000 wB97X-D + LR-HF
 Correlation:  1.0000 wB97X-D
 Using Euler-Maclaurin-Lebedev (75,302) quadrature formula
 Dispersion:   Grimme D
 SCF converges when DIIS error is below 1.0E-05
 Basis2 calculation detected. Using small basis as guess for larger.
 SCFMinFind is unable to tell whether the solution found is close.
 Resetting ReadMinima to 0 and attempting to follow guess.
 SCFMinFind following SCF Guess.
 using 6 threads for integral computing
 -------------------------------------------------------
 OpenMP Integral computing Module                
 Release: version 1.0, May 2013, Q-Chem Inc. Pittsburgh 
 -------------------------------------------------------
 using 6 threads for integral computing
 -------------------------------------------------------
 OpenMP Integral computing Module                
 Release: version 1.0, May 2013, Q-Chem Inc. Pittsburgh 
 -------------------------------------------------------
 ---------------------------------------
  Cycle       Energy         DIIS Error
 ---------------------------------------
    1    -155.0105352661      5.72E-03
    2    -155.0259065970      2.87E-03
    3    -155.0355848759      3.55E-04 Done RCA. Switching to DIIS
    4    -155.0472384709      2.60E-04
    5    -155.0474388147      3.92E-05
    6    -155.0474467057      5.59E-06 Convergence criterion met
 ---------------------------------------
 SCF time:  CPU 39.34 s  wall 6.58 s
 SCF   energy in the final basis set = -155.04744671
 Total energy in the final basis set = -155.04744671
 
 --------------------------------------------------------------
 
                    Orbital Energies (a.u.)
 --------------------------------------------------------------
 
 Alpha MOs
 -- Occupied --
-19.2485 -10.3287 -10.2775  -1.1239  -0.8515  -0.7227  -0.5948  -0.5440
 -0.5199  -0.4715  -0.4585  -0.4128  -0.3616
 -- Virtual --
  0.0642   0.0873   0.0899   0.1020   0.1264   0.1343   0.1388   0.1823
  0.1966   0.2198   0.2388   0.2403   0.2646   0.2774   0.2853   0.3080
  0.3183   0.3293   0.3460   0.3796   0.4556   0.4911   0.5046   0.5248
  0.5568   0.5787   0.5817   0.6030   0.6135   0.6353   0.6741   0.6788
  0.6870   0.7087   0.7557   0.8061   0.8426   0.8709   0.9251   0.9443
  0.9741   1.0427   1.0586   1.1212   1.1416   1.1504   1.1888   1.2191
  1.2378   1.2454   1.2774   1.2815   1.3361   1.3445   1.3758   1.4288
  1.4510   1.4569   1.4623   1.4989   1.5057   1.5434   1.5934   1.6054
  1.6431   1.6761   1.9379   2.0807   2.1249   2.2595   2.2810   2.4420
  2.4893   2.4994   2.5465   2.5619   2.7043   2.8388   2.8452   2.9022
  2.9133   2.9689   2.9855   3.0303   3.0387   3.0486   3.0643   3.0803
  3.1076   3.1641   3.2110   3.2525   3.2793   3.2930   3.3072   3.3196
  3.3482   3.3811   3.4026   3.4271   3.4913   3.5581   3.5699   3.5846
  3.6003   3.6226   3.6669   3.6854   3.7179   3.7883   3.8065   3.8086
  3.8706   3.9176   3.9260   3.9624   3.9852   4.0093   4.0447   4.0529
  4.0806   4.1055   4.1484   4.1779   4.2025   4.2545   4.2932   4.3003
  4.3338   4.4065   4.4544   4.4964   4.5568   4.6600   4.7063   4.8113
  4.8466   4.9226   4.9437   4.9679   4.9869   5.0613   5.1345   5.1985
  5.2277   5.2336   5.2687   5.3035   5.3356   5.3643   5.3897   5.4793
  5.5000   5.5431   5.6843   5.7790   5.9238   6.0506   6.3633   6.3755
  6.4026   6.6501   6.7262   6.8228   7.1118   7.3346   7.4069   7.5435
  7.7273   8.1060  25.1593  25.4096  50.4549
 --------------------------------------------------------------
 
 -----------------------------------------------------------------
                    Cartesian Multipole Moments
 -----------------------------------------------------------------
    Charge (ESU x 10^10)
                 0.0000
    Dipole Moment (Debye)
         X      -1.2168      Y      -0.5838      Z       1.1781
       Tot       1.7914
    Quadrupole Moments (Debye-Ang)
        XX     -11.5747     XY      -0.3195     YY     -19.3564
        XZ      -2.9913     YZ      -0.2925     ZZ     -19.9697
    Octopole Moments (Debye-Ang^2)
       XXX     210.2335    XXY      -4.1388    XYY      80.8784
       YYY     -37.7308    XXZ       7.1623    XYZ       1.0381
       YYZ      -0.5035    XZZ      84.2832    YZZ     -13.0050
       ZZZ      -0.1357
    Hexadecapole Moments (Debye-Ang^3)
      XXXX   -2120.5195   XXXY      95.5694   XXYY    -385.1489
      XYYY     150.7812   YYYY    -103.3043   XXXZ     -10.9141
      XXYZ      -3.3995   XYYZ       3.2401   YYYZ      -3.7021
      XXZZ    -390.7556   XYZZ      52.8245   YYZZ     -22.4316
      XZZZ       6.9317   YZZZ      -1.1377   ZZZZ     -36.4468
 -----------------------------------------------------------------
Archival summary:
1\1\centos77-c7\SP\ProcedureUnspecified\BasisUnspecified\126\shihchen\MonJul2714:25:102020MonJul2714:25:102020\0\\#,ProcedureUnspecified,BasisUnspecified,\\0,1\C\H,1,1.08977\H,1,1.09641,2,106.879\O,1,1.41982,2,104.17,3,-115.713,0\H,4,0.957325,1,109.816,2,179.667,0\C,1,1.53188,2,108.572,3,113.578,0\H,6,1.08999,1,113.297,2,59.9283,0\H,6,1.09151,1,113.255,2,-175.559,0\H,6,1.09252,1,105.781,2,-58.217,0\\\@

 Total job time:  11.06s(wall), 57.30s(cpu) 
 Mon Jul 27 14:25:10 2020

        *************************************************************
        *                                                           *
        *  Thank you very much for using Q-Chem.  Have a nice day.  *
        *                                                           *
        *************************************************************


