                  Welcome to Q-Chem
     A Quantum Leap Into The Future Of Chemistry


 Q-Chem 5.3 (devel), Q-Chem, Inc., Pleasanton, CA (2020)

 Yihan Shao,  Zhengting Gan,  E. Epifanovsky,  A. T. B. Gilbert,  M. Wormit,  
 J. Kussmann,  A. W. Lange,  A. Behn,  Jia Deng,  Xintian Feng,  D. Ghosh,  
 M. Goldey,  P. R. Horn,  L. D. Jacobson,  I. Kaliman,  T. Kus,  A. Landau,  
 Jie Liu,  E. I. Proynov,  R. M. Richard,  R. P. Steele,  E. J. Sundstrom,  
 H. L. Woodcock III,  P. M. Zimmerman,  D. Zuev,  B. Alam,  B. Albrecht,  
 E. Alguire,  S. A. Baeppler,  D. Barton,  Z. Benda,  Y. A. Bernard,  
 E. J. Berquist,  K. B. Bravaya,  H. Burton,  K. Carter-Fenk,  D. Casanova,  
 Chun-Min Chang,  Yunqing Chen,  A. Chien,  K. D. Closser,  M. P. Coons,  
 S. Coriani,  S. Dasgupta,  A. L. Dempwolff,  M. Diedenhofen,  Hainam Do,  
 R. G. Edgar,  Po-Tung Fang,  S. Faraji,  S. Fatehi,  Qingguo Feng,  
 J. Fosso-Tande,  J. Gayvert,  Qinghui Ge,  A. Ghysels,  G. Gidofalvi,  
 J. Gomes,  J. Gonthier,  A. Gunina,  D. Hait,  M. W. D. Hanson-Heine,  
 P. H. P. Harbach,  A. W. Hauser,  M. F. Herbst,  J. E. Herr,  
 E. G. Hohenstein,  Z. C. Holden,  Kerwin Hui,  B. C. Huynh,  T.-C. Jagau,  
 Hyunjun Ji,  B. Kaduk,  K. Khistyaev,  Jaehoon Kim,  P. Klunzinger,  K. Koh,  
 D. Kosenkov,  L. Koulias,  T. Kowalczyk,  C. M. Krauter,  A. Kunitsa,  
 Ka Un Lao,  A. Laurent,  K. V. Lawler,  Joonho Lee,  D. Lefrancois,  
 S. Lehtola,  D. S. Levine,  Yi-Pei Li,  You-Sheng Lin,  Fenglai Liu,  
 Kuan-Yu Liu,  E. Livshits,  M. Loipersberger,  A. Luenser,  P. Manohar,  
 E. Mansoor,  S. F. Manzer,  Shan-Ping Mao,  Yuezhi Mao,  N. Mardirossian,  
 A. V. Marenich,  T. Markovich,  L. A. Martinez-Martinez,  S. A. Maurer,  
 N. J. Mayhall,  S. C. McKenzie,  J.-M. Mewes,  P. Morgante,  A. F. Morrison,  
 J. W. Mullinax,  K. Nanda,  T. S. Nguyen-Beck,  R. Olivares-Amaya,  
 K. J. Oosterbaan,  J. A. Parkhill,  S. K. Paul,  F. Pavosevic,  Zheng Pei,  
 T. M. Perrine,  F. Plasser,  P. Pokhilko,  S. Prager,  A. Prociuk,  
 E. Ramos,  B. Rana,  D. R. Rehn,  F. Rob,  M. Scheurer,  M. Schneider,  
 N. Sergueev,  S. M. Sharada,  S. Sharma,  D. W. Small,  T. Stauch,  
 C. J. Stein,  T. Stein,  Yu-Chuan Su,  S. P. Veccham,  Zhen Tao,  
 A. J. W. Thom,  A. Tkatchenko,  T. Tsuchimochi,  N. M. Tubman,  L. Vogt,  
 M. L. Vidal,  O. Vydrov,  M. A. Watson,  J. Wenzel,  M. de Wergifosse,  
 T. A. Wesolowski,  A. White,  J. Witte,  A. Yamada,  Jun Yang,  K. Yao,  
 S. Yeganeh,  S. R. Yost,  Zhi-Qiang You,  A. Zech,  Igor Ying Zhang,  
 Xing Zhang,  Yan Zhao,  Ying Zhu,  B. R. Brooks,  G. K. L. Chan,  
 C. J. Cramer,  M. S. Gordon,  W. J. Hehre,  A. Klamt,  M. W. Schmidt,  
 C. D. Sherrill,  D. G. Truhlar,  A. Aspuru-Guzik,  R. Baer,  A. T. Bell,  
 N. A. Besley,  Jeng-Da Chai,  A. E. DePrince, III,  R. A. DiStasio Jr.,  
 A. Dreuw,  B. D. Dunietz,  T. R. Furlani,  Chao-Ping Hsu,  Yousung Jung,  
 Jing Kong,  D. S. Lambrecht,  WanZhen Liang,  C. Ochsenfeld,  
 V. A. Rassolov,  L. V. Slipchenko,  J. E. Subotnik,  T. Van Voorhis,  
 J. M. Herbert,  A. I. Krylov,  P. M. W. Gill,  M. Head-Gordon

 Contributors to earlier versions of Q-Chem not listed above: 
 R. D. Adamson,  B. Austin,  J. Baker,  G. J. O. Beran,  K. Brandhorst,  
 S. T. Brown,  E. F. C. Byrd,  A. K. Chakraborty,  C.-L. Cheng,  
 Siu Hung Chien,  D. M. Chipman,  D. L. Crittenden,  H. Dachsel,  
 R. J. Doerksen,  A. D. Dutoi,  L. Fusti-Molnar,  W. A. Goddard III,  
 A. Golubeva-Zadorozhnaya,  S. R. Gwaltney,  G. Hawkins,  A. Heyden,  
 S. Hirata,  G. Kedziora,  F. J. Keil,  C. Kelley,  Jihan Kim,  R. A. King,  
 R. Z. Khaliullin,  P. P. Korambath,  W. Kurlancheek,  A. M. Lee,  M. S. Lee,  
 S. V. Levchenko,  Ching Yeh Lin,  D. Liotard,  R. C. Lochan,  I. Lotan,  
 P. E. Maslen,  N. Nair,  D. P. O'Neill,  D. Neuhauser,  E. Neuscamman,  
 C. M. Oana,  R. Olson,  B. Peters,  R. Peverati,  P. A. Pieniazek,  
 Y. M. Rhee,  J. Ritchie,  M. A. Rohrdanz,  E. Rosta,  N. J. Russ,  
 H. F. Schaefer III,  N. E. Schultz,  N. Shenvi,  A. C. Simmonett,  A. Sodt,  
 D. Stuck,  K. S. Thanthiriwatte,  V. Vanovschi,  Tao Wang,  A. Warshel,  
 C. F. Williams,  Q. Wu,  X. Xu,  W. Zhang

 Please cite Q-Chem as follows:
 Y. Shao et al., Mol. Phys. 113, 184-215 (2015)
 DOI: 10.1080/00268976.2014.952696

 Q-Chem 5.3.0 for Intel X86 EM64T Linux

 Parts of Q-Chem use Armadillo 9.800.1 (Horizon Scraper).
 http://arma.sourceforge.net/

 Q-Chem begins on Mon Jul 27 14:37:12 2020  

Host: centos77-c7
0

     Scratch files written to /tmp/29924.centos77-h1/qchem107557//
Processing $rem in /opt/qchem-5.3.0-intel2020u1//config/preferences:
Processing $rem in /home/shihchengli/.qchemrc:

Checking the input file for inconsistencies... 	...done.

--------------------------------------------------------------
User input:
--------------------------------------------------------------
$rem
   JOBTYPE  sp
   EXCHANGE   omegaB97X-D
   BASIS   6-311+G(2df,2pd)
   UNRESTRICTED   False
   max_scf_cycles   250
   geom_opt_max_cycles   1500
   basis2 6-31G*
   scf_algorithm rca_diis
   SYM_IGNORE  TRUE
   print_input   true
   geom_opt_dmax   80
   pop_mulliken false
   XC_GRID 000075000302
$end

$molecule
0 1
C       -5.3995827488     0.3793137544     0.1248595913
C       -4.1143916259     1.1369189239     0.0302906500
H       -5.2888837145     -0.0219503287     -0.8889431549
H       -6.3860671194     0.8152576839     0.2328314950
H       -5.2754361987     -0.5274980682     0.7218074618
O       -3.0228558575     0.5258740639     -0.2311906035
H       -3.8625939035     1.4630844576     1.0473634647
H       -4.2495449998     2.0418979350     -0.5621159016
H       -3.0034538317     -0.1956784219     0.3954069971
$end
--------------------------------------------------------------
 ----------------------------------------------------------------
             Standard Nuclear Orientation (Angstroms)
    I     Atom           X                Y                Z
 ----------------------------------------------------------------
    1      C      -5.3995827488     0.3793137544     0.1248595913
    2      C      -4.1143916259     1.1369189239     0.0302906500
    3      H      -5.2888837145    -0.0219503287    -0.8889431549
    4      H      -6.3860671194     0.8152576839     0.2328314950
    5      H      -5.2754361987    -0.5274980682     0.7218074618
    6      O      -3.0228558575     0.5258740639    -0.2311906035
    7      H      -3.8625939035     1.4630844576     1.0473634647
    8      H      -4.2495449998     2.0418979350    -0.5621159016
    9      H      -3.0034538317    -0.1956784219     0.3954069971
 ----------------------------------------------------------------
 Nuclear Repulsion Energy =          85.27475133 hartrees
 There are       13 alpha and       13 beta electrons
 Requested basis set is 6-311+G(2df,2pd)
 There are 60 shells and 186 basis functions

 Total QAlloc Memory Limit   2000 MB
 Mega-Array Size       188 MB
 MEM_STATIC part       192 MB

                       Distance Matrix (Angstroms)
             C (  1)   C (  2)   H (  3)   H (  4)   H (  5)   O (  6)
   C (  2)  1.494866
   H (  3)  1.095930  1.888756
   H (  4)  1.083908  2.303258  1.778513
   H (  5)  1.092734  2.143946  1.688276  1.809860
   O (  6)  2.407713  1.277967  2.422320  3.407382  2.663065
   H (  7)  2.094733  1.097371  2.826467  2.729663  2.462626  1.793941
   H (  8)  2.135113  1.090045  2.333776  2.588690  3.050034  1.978031
   H (  9)  2.478961  1.772938  2.627342  3.534189  2.319169  0.955845
             H (  7)   H (  8)
   H (  8)  1.753619
   H (  9)  1.978551  2.734290
 
 A cutoff of  1.0D-09 yielded   1795 shell pairs
 There are     17369 function pairs (     21558 Cartesian)
 Smallest overlap matrix eigenvalue = 1.31E-04

 Scale SEOQF with 1.000000e-02/1.000000e-01/1.000000e-01

 Standard Electronic Orientation quadrupole field applied
 Nucleus-field energy     =     0.0000000027 hartrees
 Requested basis set is 6-31G(d)
 There are 24 shells and 54 basis functions
 A cutoff of  1.0D-09 yielded    298 shell pairs
 There are      1549 function pairs (      1732 Cartesian)
 Smallest overlap matrix eigenvalue = 5.87E-03
 Guess from superposition of atomic densities
 Warning:  Energy on first SCF cycle will be non-variational
 SAD guess density has 26.000000 electrons
 Long-range K will be added via erf
 Coulomb attenuation parameter = 0.2 bohr**(-1)
 A restricted hybrid HF-DFT SCF calculation will be
 performed using Relaxed Constraint Minimization + Pulay DIIS
 Exchange:     0.2220 Hartree-Fock + 1.0000 wB97X-D + LR-HF
 Correlation:  1.0000 wB97X-D
 Using Euler-Maclaurin-Lebedev (75,302) quadrature formula
 Dispersion:   Grimme D
 SCF converges when DIIS error is below 1.0E-04
 using 6 threads for integral computing
 -------------------------------------------------------
 OpenMP Integral computing Module                
 Release: version 1.0, May 2013, Q-Chem Inc. Pittsburgh 
 -------------------------------------------------------
 using 6 threads for integral computing
 -------------------------------------------------------
 OpenMP Integral computing Module                
 Release: version 1.0, May 2013, Q-Chem Inc. Pittsburgh 
 -------------------------------------------------------
 ---------------------------------------
  Cycle       Energy         DIIS Error
 ---------------------------------------
    1    -155.7626798827      1.20E-01
    2    -154.8787559199      1.34E-02
    3    -154.9084332868      3.42E-03
    4    -154.9324099412      2.87E-03
    5    -154.9334316999      1.96E-04 Done RCA. Switching to DIIS
    6    -154.9345031514      7.96E-05 Convergence criterion met
 ---------------------------------------
 SCF time:  CPU 13.10 s  wall 2.20 s
 SCF   energy in the small basis set = -154.93450315
 Total energy in the small basis set = -154.93450315
 ----------------------------------------------------
  Cycle       Energy    
 ----------------------------------------------------
    1     -18.8411211612     -1.88E+01
 Long-range K will be added via erf
 Coulomb attenuation parameter = 0.2 bohr**(-1)
 A restricted hybrid HF-DFT SCF calculation will be
 performed using Relaxed Constraint Minimization + Pulay DIIS
 Exchange:     0.2220 Hartree-Fock + 1.0000 wB97X-D + LR-HF
 Correlation:  1.0000 wB97X-D
 Using Euler-Maclaurin-Lebedev (75,302) quadrature formula
 Dispersion:   Grimme D
 SCF converges when DIIS error is below 1.0E-05
 Basis2 calculation detected. Using small basis as guess for larger.
 SCFMinFind is unable to tell whether the solution found is close.
 Resetting ReadMinima to 0 and attempting to follow guess.
 SCFMinFind following SCF Guess.
 using 6 threads for integral computing
 -------------------------------------------------------
 OpenMP Integral computing Module                
 Release: version 1.0, May 2013, Q-Chem Inc. Pittsburgh 
 -------------------------------------------------------
 using 6 threads for integral computing
 -------------------------------------------------------
 OpenMP Integral computing Module                
 Release: version 1.0, May 2013, Q-Chem Inc. Pittsburgh 
 -------------------------------------------------------
 ---------------------------------------
  Cycle       Energy         DIIS Error
 ---------------------------------------
    1    -154.9693338070      5.67E-03
    2    -154.9877890915      2.54E-03
    3    -154.9955450614      2.60E-04 Done RCA. Switching to DIIS
    4    -155.0044142043      1.33E-04
    5    -155.0044780229      3.86E-05
    6    -155.0044860326      5.30E-06 Convergence criterion met
 ---------------------------------------
 SCF time:  CPU 40.19 s  wall 6.72 s
 SCF   energy in the final basis set = -155.00448603
 Total energy in the final basis set = -155.00448603
 
 --------------------------------------------------------------
 
                    Orbital Energies (a.u.)
 --------------------------------------------------------------
 
 Alpha MOs
 -- Occupied --
-19.2530 -10.3169 -10.2711  -1.1890  -0.8521  -0.7321  -0.6158  -0.5665
 -0.5592  -0.4762  -0.4505  -0.4139  -0.3362
 -- Virtual --
  0.0639   0.0861   0.0900   0.1007   0.1245   0.1351   0.1376   0.1844
  0.1914   0.2196   0.2327   0.2506   0.2569   0.2842   0.2922   0.3143
  0.3204   0.3576   0.3623   0.4007   0.4643   0.4801   0.5054   0.5267
  0.5686   0.5851   0.6004   0.6067   0.6427   0.6572   0.6727   0.6908
  0.7017   0.7118   0.7258   0.8058   0.8831   0.9144   0.9452   0.9614
  0.9804   1.0504   1.0758   1.0911   1.1358   1.1559   1.1910   1.2171
  1.2267   1.2711   1.2946   1.3413   1.3524   1.3650   1.4056   1.4331
  1.4520   1.4723   1.4787   1.5105   1.5254   1.5618   1.6071   1.6327
  1.6838   1.7137   1.9522   2.1143   2.1760   2.2666   2.3445   2.4539
  2.5111   2.5345   2.6003   2.6314   2.7541   2.8344   2.8846   2.9215
  2.9271   2.9718   3.0073   3.0270   3.0384   3.0599   3.0815   3.1109
  3.1725   3.2243   3.2346   3.2673   3.2919   3.3270   3.3466   3.3595
  3.3946   3.4269   3.4505   3.4724   3.5285   3.5458   3.5746   3.5857
  3.6095   3.6155   3.6657   3.6878   3.7495   3.7737   3.7909   3.8545
  3.9063   3.9289   3.9700   3.9995   4.0349   4.0579   4.0864   4.0914
  4.1223   4.1782   4.2092   4.2469   4.2658   4.3001   4.3295   4.3703
  4.4029   4.4364   4.4704   4.5657   4.5921   4.6359   4.7579   4.7858
  4.8708   4.9143   4.9541   4.9878   5.0701   5.1404   5.1667   5.1869
  5.1986   5.2737   5.3181   5.3457   5.3795   5.4222   5.4567   5.5674
  5.6735   5.7676   5.8760   5.9283   6.2792   6.3651   6.4154   6.4424
  6.4783   6.6569   6.8574   7.0452   7.1640   7.4527   7.4838   7.6753
  7.7502   8.1739  25.3903  25.4727  50.5479
 --------------------------------------------------------------
 
 -----------------------------------------------------------------
                    Cartesian Multipole Moments
 -----------------------------------------------------------------
    Charge (ESU x 10^10)
                 0.0000
    Dipole Moment (Debye)
         X      -0.9355      Y      -0.6141      Z       1.0093
       Tot       1.5070
    Quadrupole Moments (Debye-Ang)
        XX     -13.4538     XY       0.4191     YY     -19.8151
        XZ      -2.5179     YZ      -1.0908     ZZ     -20.4773
    Octopole Moments (Debye-Ang^2)
       XXX     219.5685    XXY      -7.4340    XYY      84.4199
       YYY     -39.4591    XXZ       6.2030    XYZ       4.6258
       YYZ      -1.7242    XZZ      88.3168    YZZ     -13.8583
       ZZZ      -0.7444
    Hexadecapole Moments (Debye-Ang^3)
      XXXX   -2134.5201   XXXY     105.2990   XXYY    -402.4654
      XYYY     162.1808   YYYY    -105.9685   XXXZ     -12.5695
      XXYZ     -19.4337   XYYZ       9.0407   YYYZ      -4.8332
      XXZZ    -413.1458   XYZZ      57.6059   YYZZ     -24.2719
      XZZZ      10.4799   YZZZ      -1.2998   ZZZZ     -37.5293
 -----------------------------------------------------------------
Archival summary:
1\1\centos77-c7\SP\ProcedureUnspecified\BasisUnspecified\126\shihchen\MonJul2714:37:232020MonJul2714:37:232020\0\\#,ProcedureUnspecified,BasisUnspecified,\\0,1\C\H,1,1.09005\H,1,1.09737,2,106.582\O,1,1.27797,2,113.058,3,-106.303,0\H,4,0.955845,1,104.131,2,175.813,0\C,1,1.49487,2,110.398,3,115.642,0\H,6,1.08391,1,125.798,2,-38.3137,0\H,6,1.09273,1,110.944,2,-179.694,0\H,6,1.09593,1,92.3038,2,77.6535,0\\\@

 Total job time:  11.15s(wall), 57.49s(cpu) 
 Mon Jul 27 14:37:23 2020

        *************************************************************
        *                                                           *
        *  Thank you very much for using Q-Chem.  Have a nice day.  *
        *                                                           *
        *************************************************************


