                  Welcome to Q-Chem
     A Quantum Leap Into The Future Of Chemistry


 Q-Chem 5.3 (devel), Q-Chem, Inc., Pleasanton, CA (2020)

 Yihan Shao,  Zhengting Gan,  E. Epifanovsky,  A. T. B. Gilbert,  M. Wormit,  
 J. Kussmann,  A. W. Lange,  A. Behn,  Jia Deng,  Xintian Feng,  D. Ghosh,  
 M. Goldey,  P. R. Horn,  L. D. Jacobson,  I. Kaliman,  T. Kus,  A. Landau,  
 Jie Liu,  E. I. Proynov,  R. M. Richard,  R. P. Steele,  E. J. Sundstrom,  
 H. L. Woodcock III,  P. M. Zimmerman,  D. Zuev,  B. Alam,  B. Albrecht,  
 E. Alguire,  S. A. Baeppler,  D. Barton,  Z. Benda,  Y. A. Bernard,  
 E. J. Berquist,  K. B. Bravaya,  H. Burton,  K. Carter-Fenk,  D. Casanova,  
 Chun-Min Chang,  Yunqing Chen,  A. Chien,  K. D. Closser,  M. P. Coons,  
 S. Coriani,  S. Dasgupta,  A. L. Dempwolff,  M. Diedenhofen,  Hainam Do,  
 R. G. Edgar,  Po-Tung Fang,  S. Faraji,  S. Fatehi,  Qingguo Feng,  
 J. Fosso-Tande,  J. Gayvert,  Qinghui Ge,  A. Ghysels,  G. Gidofalvi,  
 J. Gomes,  J. Gonthier,  A. Gunina,  D. Hait,  M. W. D. Hanson-Heine,  
 P. H. P. Harbach,  A. W. Hauser,  M. F. Herbst,  J. E. Herr,  
 E. G. Hohenstein,  Z. C. Holden,  Kerwin Hui,  B. C. Huynh,  T.-C. Jagau,  
 Hyunjun Ji,  B. Kaduk,  K. Khistyaev,  Jaehoon Kim,  P. Klunzinger,  K. Koh,  
 D. Kosenkov,  L. Koulias,  T. Kowalczyk,  C. M. Krauter,  A. Kunitsa,  
 Ka Un Lao,  A. Laurent,  K. V. Lawler,  Joonho Lee,  D. Lefrancois,  
 S. Lehtola,  D. S. Levine,  Yi-Pei Li,  You-Sheng Lin,  Fenglai Liu,  
 Kuan-Yu Liu,  E. Livshits,  M. Loipersberger,  A. Luenser,  P. Manohar,  
 E. Mansoor,  S. F. Manzer,  Shan-Ping Mao,  Yuezhi Mao,  N. Mardirossian,  
 A. V. Marenich,  T. Markovich,  L. A. Martinez-Martinez,  S. A. Maurer,  
 N. J. Mayhall,  S. C. McKenzie,  J.-M. Mewes,  P. Morgante,  A. F. Morrison,  
 J. W. Mullinax,  K. Nanda,  T. S. Nguyen-Beck,  R. Olivares-Amaya,  
 K. J. Oosterbaan,  J. A. Parkhill,  S. K. Paul,  F. Pavosevic,  Zheng Pei,  
 T. M. Perrine,  F. Plasser,  P. Pokhilko,  S. Prager,  A. Prociuk,  
 E. Ramos,  B. Rana,  D. R. Rehn,  F. Rob,  M. Scheurer,  M. Schneider,  
 N. Sergueev,  S. M. Sharada,  S. Sharma,  D. W. Small,  T. Stauch,  
 C. J. Stein,  T. Stein,  Yu-Chuan Su,  S. P. Veccham,  Zhen Tao,  
 A. J. W. Thom,  A. Tkatchenko,  T. Tsuchimochi,  N. M. Tubman,  L. Vogt,  
 M. L. Vidal,  O. Vydrov,  M. A. Watson,  J. Wenzel,  M. de Wergifosse,  
 T. A. Wesolowski,  A. White,  J. Witte,  A. Yamada,  Jun Yang,  K. Yao,  
 S. Yeganeh,  S. R. Yost,  Zhi-Qiang You,  A. Zech,  Igor Ying Zhang,  
 Xing Zhang,  Yan Zhao,  Ying Zhu,  B. R. Brooks,  G. K. L. Chan,  
 C. J. Cramer,  M. S. Gordon,  W. J. Hehre,  A. Klamt,  M. W. Schmidt,  
 C. D. Sherrill,  D. G. Truhlar,  A. Aspuru-Guzik,  R. Baer,  A. T. Bell,  
 N. A. Besley,  Jeng-Da Chai,  A. E. DePrince, III,  R. A. DiStasio Jr.,  
 A. Dreuw,  B. D. Dunietz,  T. R. Furlani,  Chao-Ping Hsu,  Yousung Jung,  
 Jing Kong,  D. S. Lambrecht,  WanZhen Liang,  C. Ochsenfeld,  
 V. A. Rassolov,  L. V. Slipchenko,  J. E. Subotnik,  T. Van Voorhis,  
 J. M. Herbert,  A. I. Krylov,  P. M. W. Gill,  M. Head-Gordon

 Contributors to earlier versions of Q-Chem not listed above: 
 R. D. Adamson,  B. Austin,  J. Baker,  G. J. O. Beran,  K. Brandhorst,  
 S. T. Brown,  E. F. C. Byrd,  A. K. Chakraborty,  C.-L. Cheng,  
 Siu Hung Chien,  D. M. Chipman,  D. L. Crittenden,  H. Dachsel,  
 R. J. Doerksen,  A. D. Dutoi,  L. Fusti-Molnar,  W. A. Goddard III,  
 A. Golubeva-Zadorozhnaya,  S. R. Gwaltney,  G. Hawkins,  A. Heyden,  
 S. Hirata,  G. Kedziora,  F. J. Keil,  C. Kelley,  Jihan Kim,  R. A. King,  
 R. Z. Khaliullin,  P. P. Korambath,  W. Kurlancheek,  A. M. Lee,  M. S. Lee,  
 S. V. Levchenko,  Ching Yeh Lin,  D. Liotard,  R. C. Lochan,  I. Lotan,  
 P. E. Maslen,  N. Nair,  D. P. O'Neill,  D. Neuhauser,  E. Neuscamman,  
 C. M. Oana,  R. Olson,  B. Peters,  R. Peverati,  P. A. Pieniazek,  
 Y. M. Rhee,  J. Ritchie,  M. A. Rohrdanz,  E. Rosta,  N. J. Russ,  
 H. F. Schaefer III,  N. E. Schultz,  N. Shenvi,  A. C. Simmonett,  A. Sodt,  
 D. Stuck,  K. S. Thanthiriwatte,  V. Vanovschi,  Tao Wang,  A. Warshel,  
 C. F. Williams,  Q. Wu,  X. Xu,  W. Zhang

 Please cite Q-Chem as follows:
 Y. Shao et al., Mol. Phys. 113, 184-215 (2015)
 DOI: 10.1080/00268976.2014.952696

 Q-Chem 5.3.0 for Intel X86 EM64T Linux

 Parts of Q-Chem use Armadillo 9.800.1 (Horizon Scraper).
 http://arma.sourceforge.net/

 Q-Chem begins on Mon Jul 27 14:58:07 2020  

Host: centos77-c7
0

     Scratch files written to /tmp/29924.centos77-h1/qchem112694//
Processing $rem in /opt/qchem-5.3.0-intel2020u1//config/preferences:
Processing $rem in /home/shihchengli/.qchemrc:

Checking the input file for inconsistencies... 	...done.

--------------------------------------------------------------
User input:
--------------------------------------------------------------
$rem
   JOBTYPE  sp
   EXCHANGE   omegaB97X-D
   BASIS   6-311+G(2df,2pd)
   UNRESTRICTED   False
   max_scf_cycles   250
   geom_opt_max_cycles   1500
   basis2 6-31G*
   scf_algorithm rca_diis
   SYM_IGNORE  TRUE
   print_input   true
   geom_opt_dmax   80
   pop_mulliken false
   XC_GRID 000075000302
$end

$molecule
0 1
C       -5.3866208182     0.3275616424     0.1123650151
C       -4.1339273846     1.1791932521     0.1603639506
H       -5.5439554731     -0.1701087735     -1.1428243656
H       -6.1686864752     0.8391586285     0.3276716010
H       -5.3226317366     -0.4502084087     0.7372482868
O       -2.9641091673     0.4844614710     -0.2283258283
H       -4.0258246917     1.5906764828     1.1232105047
H       -4.2196222912     2.0710256002     -0.5871570601
H       -2.8374319620     -0.2545398948     0.3677578959
$end
--------------------------------------------------------------
 ----------------------------------------------------------------
             Standard Nuclear Orientation (Angstroms)
    I     Atom           X                Y                Z
 ----------------------------------------------------------------
    1      C      -5.3866208182     0.3275616424     0.1123650151
    2      C      -4.1339273846     1.1791932521     0.1603639506
    3      H      -5.5439554731    -0.1701087735    -1.1428243656
    4      H      -6.1686864752     0.8391586285     0.3276716010
    5      H      -5.3226317366    -0.4502084087     0.7372482868
    6      O      -2.9641091673     0.4844614710    -0.2283258283
    7      H      -4.0258246917     1.5906764828     1.1232105047
    8      H      -4.2196222912     2.0710256002    -0.5871570601
    9      H      -2.8374319620    -0.2545398948     0.3677578959
 ----------------------------------------------------------------
 Nuclear Repulsion Energy =          81.84129802 hartrees
 There are       13 alpha and       13 beta electrons
 Requested basis set is 6-311+G(2df,2pd)
 There are 60 shells and 186 basis functions

 Total QAlloc Memory Limit   2000 MB
 Mega-Array Size       188 MB
 MEM_STATIC part       192 MB

                       Distance Matrix (Angstroms)
             C (  1)   C (  2)   H (  3)   H (  4)   H (  5)   O (  6)
   C (  2)  1.515527
   H (  3)  1.359386  2.346720
   H (  4)  0.959018  2.069749  1.889780
   H (  5)  0.999750  2.097800  1.913665  1.595628
   O (  6)  2.451377  1.414994  2.814316  3.271736  2.714511
   H (  7)  2.114009  1.052653  3.246537  2.406142  2.448650  2.043918
   H (  8)  2.211534  1.166832  2.661824  2.480576  3.054063  2.054814
   H (  9)  2.627248  1.944094  3.100687  3.506428  2.520124  0.957855
             H (  7)   H (  8)
   H (  8)  1.787079
   H (  9)  2.321166  2.868897
 
 A cutoff of  1.0D-09 yielded   1781 shell pairs
 There are     17309 function pairs (     21511 Cartesian)
 Smallest overlap matrix eigenvalue = 1.35E-04

 Scale SEOQF with 1.000000e-02/1.000000e-01/1.000000e-01

 Standard Electronic Orientation quadrupole field applied
 Nucleus-field energy     =     0.0000000026 hartrees
 Requested basis set is 6-31G(d)
 There are 24 shells and 54 basis functions
 A cutoff of  1.0D-09 yielded    298 shell pairs
 There are      1549 function pairs (      1732 Cartesian)
 Smallest overlap matrix eigenvalue = 7.13E-03
 Guess from superposition of atomic densities
 Warning:  Energy on first SCF cycle will be non-variational
 SAD guess density has 26.000000 electrons
 Long-range K will be added via erf
 Coulomb attenuation parameter = 0.2 bohr**(-1)
 A restricted hybrid HF-DFT SCF calculation will be
 performed using Relaxed Constraint Minimization + Pulay DIIS
 Exchange:     0.2220 Hartree-Fock + 1.0000 wB97X-D + LR-HF
 Correlation:  1.0000 wB97X-D
 Using Euler-Maclaurin-Lebedev (75,302) quadrature formula
 Dispersion:   Grimme D
 SCF converges when DIIS error is below 1.0E-04
 using 6 threads for integral computing
 -------------------------------------------------------
 OpenMP Integral computing Module                
 Release: version 1.0, May 2013, Q-Chem Inc. Pittsburgh 
 -------------------------------------------------------
 using 6 threads for integral computing
 -------------------------------------------------------
 OpenMP Integral computing Module                
 Release: version 1.0, May 2013, Q-Chem Inc. Pittsburgh 
 -------------------------------------------------------
 ---------------------------------------
  Cycle       Energy         DIIS Error
 ---------------------------------------
    1    -155.3954181119      1.07E-01
    2    -154.8707517983      1.38E-02
    3    -154.9008923352      3.14E-03
    4    -154.9279092847      2.55E-03
    5    -154.9287218283      2.33E-04 Done RCA. Switching to DIIS
    6    -154.9296334150      1.14E-04
    7    -154.9296373971      7.92E-06 Convergence criterion met
 ---------------------------------------
 SCF time:  CPU 14.52 s  wall 2.44 s
 SCF   energy in the small basis set = -154.92963740
 Total energy in the small basis set = -154.92963740
 ----------------------------------------------------
  Cycle       Energy    
 ----------------------------------------------------
    1     -18.7491702867     -1.87E+01
 Long-range K will be added via erf
 Coulomb attenuation parameter = 0.2 bohr**(-1)
 A restricted hybrid HF-DFT SCF calculation will be
 performed using Relaxed Constraint Minimization + Pulay DIIS
 Exchange:     0.2220 Hartree-Fock + 1.0000 wB97X-D + LR-HF
 Correlation:  1.0000 wB97X-D
 Using Euler-Maclaurin-Lebedev (75,302) quadrature formula
 Dispersion:   Grimme D
 SCF converges when DIIS error is below 1.0E-05
 Basis2 calculation detected. Using small basis as guess for larger.
 SCFMinFind is unable to tell whether the solution found is close.
 Resetting ReadMinima to 0 and attempting to follow guess.
 SCFMinFind following SCF Guess.
 using 6 threads for integral computing
 -------------------------------------------------------
 OpenMP Integral computing Module                
 Release: version 1.0, May 2013, Q-Chem Inc. Pittsburgh 
 -------------------------------------------------------
 using 6 threads for integral computing
 -------------------------------------------------------
 OpenMP Integral computing Module                
 Release: version 1.0, May 2013, Q-Chem Inc. Pittsburgh 
 -------------------------------------------------------
 ---------------------------------------
  Cycle       Energy         DIIS Error
 ---------------------------------------
    1    -154.9630427629      5.71E-03
    2    -154.9785239763      2.83E-03
    3    -154.9880108758      3.43E-04 Done RCA. Switching to DIIS
    4    -154.9993907838      2.50E-04
    5    -154.9995766456      4.03E-05
    6    -154.9995850132      5.67E-06 Convergence criterion met
 ---------------------------------------
 SCF time:  CPU 39.16 s  wall 6.55 s
 SCF   energy in the final basis set = -154.99958501
 Total energy in the final basis set = -154.99958501
 
 --------------------------------------------------------------
 
                    Orbital Energies (a.u.)
 --------------------------------------------------------------
 
 Alpha MOs
 -- Occupied --
-19.2472 -10.3321 -10.2750  -1.1268  -0.8568  -0.7260  -0.5972  -0.5544
 -0.5318  -0.4717  -0.4399  -0.4051  -0.3647
 -- Virtual --
  0.0636   0.0842   0.0881   0.1010   0.1253   0.1314   0.1353   0.1696
  0.1844   0.2192   0.2265   0.2512   0.2600   0.2856   0.2891   0.3102
  0.3153   0.3292   0.3441   0.3800   0.4602   0.4930   0.5077   0.5252
  0.5335   0.5642   0.5952   0.6121   0.6163   0.6346   0.6657   0.6854
  0.6947   0.7203   0.7450   0.8076   0.8519   0.8790   0.9211   0.9468
  0.9966   1.0455   1.0576   1.1136   1.1411   1.1568   1.1732   1.1961
  1.2277   1.2405   1.2652   1.2960   1.3104   1.3647   1.3769   1.3950
  1.4246   1.4373   1.4764   1.4938   1.5076   1.5463   1.5932   1.6335
  1.7076   1.7280   1.9303   2.0431   2.1287   2.2705   2.2847   2.3761
  2.4320   2.5064   2.5742   2.6675   2.7368   2.8230   2.8381   2.8578
  2.8809   2.9361   2.9641   3.0044   3.0199   3.0396   3.0605   3.0993
  3.1214   3.1601   3.1759   3.2447   3.2654   3.2752   3.2865   3.3118
  3.3613   3.3947   3.3971   3.4270   3.4682   3.5033   3.5679   3.5833
  3.6112   3.6166   3.6432   3.6740   3.7123   3.7348   3.7748   3.7987
  3.8834   3.9205   3.9362   3.9724   3.9785   3.9933   4.0274   4.0703
  4.0799   4.1192   4.1427   4.1689   4.1892   4.2421   4.2744   4.3072
  4.3317   4.3731   4.4133   4.4864   4.5211   4.6048   4.6896   4.7383
  4.7617   4.8018   4.8513   4.9348   4.9594   5.0392   5.1850   5.2082
  5.2657   5.2867   5.3485   5.3587   5.4587   5.4820   5.5224   5.5961
  5.6386   5.6717   5.6910   5.7575   5.9089   6.0514   6.1755   6.3595
  6.6118   6.6587   6.7042   6.8081   7.1267   7.3513   7.4289   7.5564
  7.7131   8.1090  25.1134  25.3255  50.4636
 --------------------------------------------------------------
 
 -----------------------------------------------------------------
                    Cartesian Multipole Moments
 -----------------------------------------------------------------
    Charge (ESU x 10^10)
                -0.0000
    Dipole Moment (Debye)
         X      -1.1265      Y      -0.3467      Z       1.5865
       Tot       1.9764
    Quadrupole Moments (Debye-Ang)
        XX     -12.5143     XY      -0.9723     YY     -19.0026
        XZ      -5.1052     YZ      -0.1403     ZZ     -19.8028
    Octopole Moments (Debye-Ang^2)
       XXX     218.5733    XXY      -1.9425    XYY      80.6930
       YYY     -37.1060    XXZ      17.8040    XYZ       0.2916
       YYZ      -0.3769    XZZ      84.2039    YZZ     -12.8081
       ZZZ      -0.4890
    Hexadecapole Moments (Debye-Ang^3)
      XXXX   -2173.2006   XXXY      88.8464   XXYY    -387.3704
      XYYY     151.0675   YYYY    -106.0033   XXXZ     -66.2736
      XXYZ      -0.3181   XYYZ       2.7015   YYYZ      -5.1454
      XXZZ    -390.9708   XYZZ      52.9626   YYZZ     -23.2183
      XZZZ       7.8510   YZZZ      -2.4334   ZZZZ     -39.8250
 -----------------------------------------------------------------
Archival summary:
1\1\centos77-c7\SP\ProcedureUnspecified\BasisUnspecified\126\shihchen\MonJul2714:58:182020MonJul2714:58:182020\0\\#,ProcedureUnspecified,BasisUnspecified,\\0,1\C\H,1,1.05265\H,1,1.16683,2,107.143\O,1,1.41499,2,110.995,3,114.193,0\H,4,0.957855,1,108.493,2,63.5151,0\C,1,1.51553,2,109.482,3,-119.734,0\H,6,0.959018,1,111.542,2,58.9266,0\H,6,0.99975,1,111.375,2,-63.2065,0\H,6,1.35939,1,109.307,2,178.228,0\\\@

 Total job time:  11.20s(wall), 57.53s(cpu) 
 Mon Jul 27 14:58:18 2020

        *************************************************************
        *                                                           *
        *  Thank you very much for using Q-Chem.  Have a nice day.  *
        *                                                           *
        *************************************************************


