                  Welcome to Q-Chem
     A Quantum Leap Into The Future Of Chemistry


 Q-Chem 5.3 (devel), Q-Chem, Inc., Pleasanton, CA (2020)

 Yihan Shao,  Zhengting Gan,  E. Epifanovsky,  A. T. B. Gilbert,  M. Wormit,  
 J. Kussmann,  A. W. Lange,  A. Behn,  Jia Deng,  Xintian Feng,  D. Ghosh,  
 M. Goldey,  P. R. Horn,  L. D. Jacobson,  I. Kaliman,  T. Kus,  A. Landau,  
 Jie Liu,  E. I. Proynov,  R. M. Richard,  R. P. Steele,  E. J. Sundstrom,  
 H. L. Woodcock III,  P. M. Zimmerman,  D. Zuev,  B. Alam,  B. Albrecht,  
 E. Alguire,  S. A. Baeppler,  D. Barton,  Z. Benda,  Y. A. Bernard,  
 E. J. Berquist,  K. B. Bravaya,  H. Burton,  K. Carter-Fenk,  D. Casanova,  
 Chun-Min Chang,  Yunqing Chen,  A. Chien,  K. D. Closser,  M. P. Coons,  
 S. Coriani,  S. Dasgupta,  A. L. Dempwolff,  M. Diedenhofen,  Hainam Do,  
 R. G. Edgar,  Po-Tung Fang,  S. Faraji,  S. Fatehi,  Qingguo Feng,  
 J. Fosso-Tande,  J. Gayvert,  Qinghui Ge,  A. Ghysels,  G. Gidofalvi,  
 J. Gomes,  J. Gonthier,  A. Gunina,  D. Hait,  M. W. D. Hanson-Heine,  
 P. H. P. Harbach,  A. W. Hauser,  M. F. Herbst,  J. E. Herr,  
 E. G. Hohenstein,  Z. C. Holden,  Kerwin Hui,  B. C. Huynh,  T.-C. Jagau,  
 Hyunjun Ji,  B. Kaduk,  K. Khistyaev,  Jaehoon Kim,  P. Klunzinger,  K. Koh,  
 D. Kosenkov,  L. Koulias,  T. Kowalczyk,  C. M. Krauter,  A. Kunitsa,  
 Ka Un Lao,  A. Laurent,  K. V. Lawler,  Joonho Lee,  D. Lefrancois,  
 S. Lehtola,  D. S. Levine,  Yi-Pei Li,  You-Sheng Lin,  Fenglai Liu,  
 Kuan-Yu Liu,  E. Livshits,  M. Loipersberger,  A. Luenser,  P. Manohar,  
 E. Mansoor,  S. F. Manzer,  Shan-Ping Mao,  Yuezhi Mao,  N. Mardirossian,  
 A. V. Marenich,  T. Markovich,  L. A. Martinez-Martinez,  S. A. Maurer,  
 N. J. Mayhall,  S. C. McKenzie,  J.-M. Mewes,  P. Morgante,  A. F. Morrison,  
 J. W. Mullinax,  K. Nanda,  T. S. Nguyen-Beck,  R. Olivares-Amaya,  
 K. J. Oosterbaan,  J. A. Parkhill,  S. K. Paul,  F. Pavosevic,  Zheng Pei,  
 T. M. Perrine,  F. Plasser,  P. Pokhilko,  S. Prager,  A. Prociuk,  
 E. Ramos,  B. Rana,  D. R. Rehn,  F. Rob,  M. Scheurer,  M. Schneider,  
 N. Sergueev,  S. M. Sharada,  S. Sharma,  D. W. Small,  T. Stauch,  
 C. J. Stein,  T. Stein,  Yu-Chuan Su,  S. P. Veccham,  Zhen Tao,  
 A. J. W. Thom,  A. Tkatchenko,  T. Tsuchimochi,  N. M. Tubman,  L. Vogt,  
 M. L. Vidal,  O. Vydrov,  M. A. Watson,  J. Wenzel,  M. de Wergifosse,  
 T. A. Wesolowski,  A. White,  J. Witte,  A. Yamada,  Jun Yang,  K. Yao,  
 S. Yeganeh,  S. R. Yost,  Zhi-Qiang You,  A. Zech,  Igor Ying Zhang,  
 Xing Zhang,  Yan Zhao,  Ying Zhu,  B. R. Brooks,  G. K. L. Chan,  
 C. J. Cramer,  M. S. Gordon,  W. J. Hehre,  A. Klamt,  M. W. Schmidt,  
 C. D. Sherrill,  D. G. Truhlar,  A. Aspuru-Guzik,  R. Baer,  A. T. Bell,  
 N. A. Besley,  Jeng-Da Chai,  A. E. DePrince, III,  R. A. DiStasio Jr.,  
 A. Dreuw,  B. D. Dunietz,  T. R. Furlani,  Chao-Ping Hsu,  Yousung Jung,  
 Jing Kong,  D. S. Lambrecht,  WanZhen Liang,  C. Ochsenfeld,  
 V. A. Rassolov,  L. V. Slipchenko,  J. E. Subotnik,  T. Van Voorhis,  
 J. M. Herbert,  A. I. Krylov,  P. M. W. Gill,  M. Head-Gordon

 Contributors to earlier versions of Q-Chem not listed above: 
 R. D. Adamson,  B. Austin,  J. Baker,  G. J. O. Beran,  K. Brandhorst,  
 S. T. Brown,  E. F. C. Byrd,  A. K. Chakraborty,  C.-L. Cheng,  
 Siu Hung Chien,  D. M. Chipman,  D. L. Crittenden,  H. Dachsel,  
 R. J. Doerksen,  A. D. Dutoi,  L. Fusti-Molnar,  W. A. Goddard III,  
 A. Golubeva-Zadorozhnaya,  S. R. Gwaltney,  G. Hawkins,  A. Heyden,  
 S. Hirata,  G. Kedziora,  F. J. Keil,  C. Kelley,  Jihan Kim,  R. A. King,  
 R. Z. Khaliullin,  P. P. Korambath,  W. Kurlancheek,  A. M. Lee,  M. S. Lee,  
 S. V. Levchenko,  Ching Yeh Lin,  D. Liotard,  R. C. Lochan,  I. Lotan,  
 P. E. Maslen,  N. Nair,  D. P. O'Neill,  D. Neuhauser,  E. Neuscamman,  
 C. M. Oana,  R. Olson,  B. Peters,  R. Peverati,  P. A. Pieniazek,  
 Y. M. Rhee,  J. Ritchie,  M. A. Rohrdanz,  E. Rosta,  N. J. Russ,  
 H. F. Schaefer III,  N. E. Schultz,  N. Shenvi,  A. C. Simmonett,  A. Sodt,  
 D. Stuck,  K. S. Thanthiriwatte,  V. Vanovschi,  Tao Wang,  A. Warshel,  
 C. F. Williams,  Q. Wu,  X. Xu,  W. Zhang

 Please cite Q-Chem as follows:
 Y. Shao et al., Mol. Phys. 113, 184-215 (2015)
 DOI: 10.1080/00268976.2014.952696

 Q-Chem 5.3.0 for Intel X86 EM64T Linux

 Parts of Q-Chem use Armadillo 9.800.1 (Horizon Scraper).
 http://arma.sourceforge.net/

 Q-Chem begins on Mon Jul 27 14:43:13 2020  

Host: centos77-c7
0

     Scratch files written to /tmp/29924.centos77-h1/qchem109085//
Processing $rem in /opt/qchem-5.3.0-intel2020u1//config/preferences:
Processing $rem in /home/shihchengli/.qchemrc:

Checking the input file for inconsistencies... 	...done.

--------------------------------------------------------------
User input:
--------------------------------------------------------------
$rem
   JOBTYPE  sp
   EXCHANGE   omegaB97X-D
   BASIS   6-311+G(2df,2pd)
   UNRESTRICTED   False
   max_scf_cycles   250
   geom_opt_max_cycles   1500
   basis2 6-31G*
   scf_algorithm rca_diis
   SYM_IGNORE  TRUE
   print_input   true
   geom_opt_dmax   80
   pop_mulliken false
   XC_GRID 000075000302
$end

$molecule
0 1
C       -5.2752938682     0.4051986811     0.0391151299
C       -4.0488998881     1.2113888090     0.1091329627
H       -5.6660797415     -0.1189401415     -0.8426609067
H       -6.3071292803     0.7547766820     0.1690176889
H       -5.4814597314     -0.4803540829     0.6534635628
O       -2.8931101204     0.4729892252     -0.1810095758
H       -3.9805637027     1.6096894445     1.1240970192
H       -4.3060010660     2.0529273972     -0.5343067188
H       -2.6442726014     -0.2904560146     0.3334608379
$end
--------------------------------------------------------------
 ----------------------------------------------------------------
             Standard Nuclear Orientation (Angstroms)
    I     Atom           X                Y                Z
 ----------------------------------------------------------------
    1      C      -5.2752938682     0.4051986811     0.0391151299
    2      C      -4.0488998881     1.2113888090     0.1091329627
    3      H      -5.6660797415    -0.1189401415    -0.8426609067
    4      H      -6.3071292803     0.7547766820     0.1690176889
    5      H      -5.4814597314    -0.4803540829     0.6534635628
    6      O      -2.8931101204     0.4729892252    -0.1810095758
    7      H      -3.9805637027     1.6096894445     1.1240970192
    8      H      -4.3060010660     2.0529273972    -0.5343067188
    9      H      -2.6442726014    -0.2904560146     0.3334608379
 ----------------------------------------------------------------
 Nuclear Repulsion Energy =          82.17404621 hartrees
 There are       13 alpha and       13 beta electrons
 Requested basis set is 6-311+G(2df,2pd)
 There are 60 shells and 186 basis functions

 Total QAlloc Memory Limit   2000 MB
 Mega-Array Size       188 MB
 MEM_STATIC part       192 MB

                       Distance Matrix (Angstroms)
             C (  1)   C (  2)   H (  3)   H (  4)   H (  5)   O (  6)
   C (  2)  1.469315
   H (  3)  1.097709  2.300208
   H (  4)  1.097162  2.304708  1.482504
   H (  5)  1.097330  2.282656  1.550191  1.562679
   O (  6)  2.393293  1.401880  2.911619  3.443465  2.881798
   H (  7)  2.074683  1.092458  3.114043  2.656306  2.615811  2.044002
   H (  8)  1.995833  1.090093  2.581067  2.486840  3.034801  2.148787
   H (  9)  2.737307  2.068535  3.247152  3.812620  2.861485  0.953650
             H (  7)   H (  8)
   H (  8)  1.747190
   H (  9)  2.453840  3.000968
 
 A cutoff of  1.0D-09 yielded   1773 shell pairs
 There are     17238 function pairs (     21414 Cartesian)
 Smallest overlap matrix eigenvalue = 1.29E-04

 Scale SEOQF with 1.000000e-02/1.000000e-01/1.000000e-01

 Standard Electronic Orientation quadrupole field applied
 Nucleus-field energy     =     0.0000000027 hartrees
 Requested basis set is 6-31G(d)
 There are 24 shells and 54 basis functions
 A cutoff of  1.0D-09 yielded    298 shell pairs
 There are      1549 function pairs (      1732 Cartesian)
 Smallest overlap matrix eigenvalue = 7.53E-03
 Guess from superposition of atomic densities
 Warning:  Energy on first SCF cycle will be non-variational
 SAD guess density has 26.000000 electrons
 Long-range K will be added via erf
 Coulomb attenuation parameter = 0.2 bohr**(-1)
 A restricted hybrid HF-DFT SCF calculation will be
 performed using Relaxed Constraint Minimization + Pulay DIIS
 Exchange:     0.2220 Hartree-Fock + 1.0000 wB97X-D + LR-HF
 Correlation:  1.0000 wB97X-D
 Using Euler-Maclaurin-Lebedev (75,302) quadrature formula
 Dispersion:   Grimme D
 SCF converges when DIIS error is below 1.0E-04
 using 6 threads for integral computing
 -------------------------------------------------------
 OpenMP Integral computing Module                
 Release: version 1.0, May 2013, Q-Chem Inc. Pittsburgh 
 -------------------------------------------------------
 using 6 threads for integral computing
 -------------------------------------------------------
 OpenMP Integral computing Module                
 Release: version 1.0, May 2013, Q-Chem Inc. Pittsburgh 
 -------------------------------------------------------
 ---------------------------------------
  Cycle       Energy         DIIS Error
 ---------------------------------------
    1    -155.5176687247      1.08E-01
    2    -154.8760581628      1.37E-02
    3    -154.9057929252      3.11E-03
    4    -154.9325311809      2.42E-03
    5    -154.9332657243      2.13E-04 Done RCA. Switching to DIIS
    6    -154.9340712746      7.93E-05 Convergence criterion met
 ---------------------------------------
 SCF time:  CPU 12.82 s  wall 2.15 s
 SCF   energy in the small basis set = -154.93407127
 Total energy in the small basis set = -154.93407127
 ----------------------------------------------------
  Cycle       Energy    
 ----------------------------------------------------
    1     -18.7611231567     -1.88E+01
 Long-range K will be added via erf
 Coulomb attenuation parameter = 0.2 bohr**(-1)
 A restricted hybrid HF-DFT SCF calculation will be
 performed using Relaxed Constraint Minimization + Pulay DIIS
 Exchange:     0.2220 Hartree-Fock + 1.0000 wB97X-D + LR-HF
 Correlation:  1.0000 wB97X-D
 Using Euler-Maclaurin-Lebedev (75,302) quadrature formula
 Dispersion:   Grimme D
 SCF converges when DIIS error is below 1.0E-05
 Basis2 calculation detected. Using small basis as guess for larger.
 SCFMinFind is unable to tell whether the solution found is close.
 Resetting ReadMinima to 0 and attempting to follow guess.
 SCFMinFind following SCF Guess.
 using 6 threads for integral computing
 -------------------------------------------------------
 OpenMP Integral computing Module                
 Release: version 1.0, May 2013, Q-Chem Inc. Pittsburgh 
 -------------------------------------------------------
 using 6 threads for integral computing
 -------------------------------------------------------
 OpenMP Integral computing Module                
 Release: version 1.0, May 2013, Q-Chem Inc. Pittsburgh 
 -------------------------------------------------------
 ---------------------------------------
  Cycle       Energy         DIIS Error
 ---------------------------------------
    1    -154.9689867357      5.72E-03
    2    -154.9849789113      2.83E-03
    3    -154.9944990608      3.26E-04 Done RCA. Switching to DIIS
    4    -155.0057818045      2.19E-04
    5    -155.0059268532      4.24E-05
    6    -155.0059355257      6.78E-06 Convergence criterion met
 ---------------------------------------
 SCF time:  CPU 38.65 s  wall 6.47 s
 SCF   energy in the final basis set = -155.00593553
 Total energy in the final basis set = -155.00593553
 
 --------------------------------------------------------------
 
                    Orbital Energies (a.u.)
 --------------------------------------------------------------
 
 Alpha MOs
 -- Occupied --
-19.2455 -10.3376 -10.2678  -1.1265  -0.8610  -0.7436  -0.6137  -0.5555
 -0.5407  -0.4434  -0.4320  -0.3929  -0.3670
 -- Virtual --
  0.0626   0.0829   0.0882   0.1057   0.1262   0.1352   0.1394   0.1848
  0.1950   0.2256   0.2339   0.2399   0.2585   0.2618   0.2971   0.3080
  0.3262   0.3404   0.3568   0.3866   0.4603   0.5067   0.5258   0.5373
  0.5730   0.5807   0.5828   0.5951   0.6118   0.6493   0.6761   0.6816
  0.6976   0.7197   0.7605   0.7960   0.8445   0.8790   0.9107   0.9800
  1.0204   1.0255   1.0518   1.0888   1.1259   1.1351   1.1856   1.2082
  1.2505   1.2780   1.2943   1.3187   1.3361   1.3645   1.3700   1.4180
  1.4436   1.4731   1.4839   1.5127   1.5294   1.5971   1.6084   1.6171
  1.6709   1.7530   1.9535   2.0761   2.1319   2.2792   2.3205   2.4046
  2.4389   2.5058   2.5775   2.5964   2.6926   2.7613   2.7960   2.8256
  2.8853   2.9157   3.0081   3.0167   3.0718   3.0806   3.1255   3.1586
  3.1663   3.1919   3.2106   3.2154   3.2305   3.2950   3.3475   3.3601
  3.4110   3.4647   3.4928   3.5090   3.5320   3.5475   3.5761   3.5868
  3.6020   3.6186   3.6527   3.6797   3.6977   3.7216   3.7340   3.7609
  3.8037   3.8283   3.8667   3.9701   3.9919   4.0025   4.0534   4.1081
  4.1132   4.1597   4.1897   4.2114   4.2556   4.2990   4.3185   4.3787
  4.3987   4.4522   4.4863   4.5104   4.5560   4.6624   4.6725   4.7550
  4.8275   4.8880   4.9375   4.9816   4.9935   5.0653   5.0753   5.1252
  5.1692   5.2439   5.3235   5.3627   5.4261   5.4402   5.5319   5.6015
  5.6462   5.6669   5.7528   5.9206   6.0760   6.1182   6.4198   6.4465
  6.4657   6.6856   6.7109   6.9221   7.1132   7.2749   7.4598   7.5012
  7.8310   8.1566  25.2304  25.4427  50.4721
 --------------------------------------------------------------
 
 -----------------------------------------------------------------
                    Cartesian Multipole Moments
 -----------------------------------------------------------------
    Charge (ESU x 10^10)
                 0.0000
    Dipole Moment (Debye)
         X      -1.0864      Y      -0.5077      Z       1.0980
       Tot       1.6259
    Quadrupole Moments (Debye-Ang)
        XX     -11.4038     XY      -0.0649     YY     -18.8543
        XZ      -2.2669     YZ      -0.3856     ZZ     -20.6474
    Octopole Moments (Debye-Ang^2)
       XXX     197.9264    XXY      -9.8266    XYY      79.2980
       YYY     -38.2240    XXZ       1.6559    XYZ       1.8447
       YYZ      -0.8898    XZZ      87.3989    YZZ     -13.3025
       ZZZ      -0.4327
    Hexadecapole Moments (Debye-Ang^3)
      XXXX   -1954.1459   XXXY     152.8686   XXYY    -381.2547
      XYYY     155.2090   YYYY    -107.4424   XXXZ      26.2894
      XXYZ      -9.7811   XYYZ       5.5898   YYYZ      -4.8064
      XXZZ    -404.2889   XYZZ      54.8611   YYZZ     -23.2023
      XZZZ       6.5395   YZZZ      -1.7940   ZZZZ     -35.7250
 -----------------------------------------------------------------
Archival summary:
1\1\centos77-c7\SP\ProcedureUnspecified\BasisUnspecified\126\shihchen\MonJul2714:43:242020MonJul2714:43:242020\0\\#,ProcedureUnspecified,BasisUnspecified,\\0,1\C\H,1,1.09009\H,1,1.09246,2,106.361\O,1,1.40188,2,118.614,3,-123.724,0\H,4,0.95365,1,121.678,2,-177.737,0\C,1,1.46932,2,101.455,3,112.013,0\H,6,1.09716,1,127.194,2,-48.4397,0\H,6,1.09733,1,124.955,2,-171.954,0\H,6,1.09771,1,126.685,2,66.9175,0\\\@

 Total job time:  10.70s(wall), 55.12s(cpu) 
 Mon Jul 27 14:43:24 2020

        *************************************************************
        *                                                           *
        *  Thank you very much for using Q-Chem.  Have a nice day.  *
        *                                                           *
        *************************************************************


