                  Welcome to Q-Chem
     A Quantum Leap Into The Future Of Chemistry


 Q-Chem 5.3 (devel), Q-Chem, Inc., Pleasanton, CA (2020)

 Yihan Shao,  Zhengting Gan,  E. Epifanovsky,  A. T. B. Gilbert,  M. Wormit,  
 J. Kussmann,  A. W. Lange,  A. Behn,  Jia Deng,  Xintian Feng,  D. Ghosh,  
 M. Goldey,  P. R. Horn,  L. D. Jacobson,  I. Kaliman,  T. Kus,  A. Landau,  
 Jie Liu,  E. I. Proynov,  R. M. Richard,  R. P. Steele,  E. J. Sundstrom,  
 H. L. Woodcock III,  P. M. Zimmerman,  D. Zuev,  B. Alam,  B. Albrecht,  
 E. Alguire,  S. A. Baeppler,  D. Barton,  Z. Benda,  Y. A. Bernard,  
 E. J. Berquist,  K. B. Bravaya,  H. Burton,  K. Carter-Fenk,  D. Casanova,  
 Chun-Min Chang,  Yunqing Chen,  A. Chien,  K. D. Closser,  M. P. Coons,  
 S. Coriani,  S. Dasgupta,  A. L. Dempwolff,  M. Diedenhofen,  Hainam Do,  
 R. G. Edgar,  Po-Tung Fang,  S. Faraji,  S. Fatehi,  Qingguo Feng,  
 J. Fosso-Tande,  J. Gayvert,  Qinghui Ge,  A. Ghysels,  G. Gidofalvi,  
 J. Gomes,  J. Gonthier,  A. Gunina,  D. Hait,  M. W. D. Hanson-Heine,  
 P. H. P. Harbach,  A. W. Hauser,  M. F. Herbst,  J. E. Herr,  
 E. G. Hohenstein,  Z. C. Holden,  Kerwin Hui,  B. C. Huynh,  T.-C. Jagau,  
 Hyunjun Ji,  B. Kaduk,  K. Khistyaev,  Jaehoon Kim,  P. Klunzinger,  K. Koh,  
 D. Kosenkov,  L. Koulias,  T. Kowalczyk,  C. M. Krauter,  A. Kunitsa,  
 Ka Un Lao,  A. Laurent,  K. V. Lawler,  Joonho Lee,  D. Lefrancois,  
 S. Lehtola,  D. S. Levine,  Yi-Pei Li,  You-Sheng Lin,  Fenglai Liu,  
 Kuan-Yu Liu,  E. Livshits,  M. Loipersberger,  A. Luenser,  P. Manohar,  
 E. Mansoor,  S. F. Manzer,  Shan-Ping Mao,  Yuezhi Mao,  N. Mardirossian,  
 A. V. Marenich,  T. Markovich,  L. A. Martinez-Martinez,  S. A. Maurer,  
 N. J. Mayhall,  S. C. McKenzie,  J.-M. Mewes,  P. Morgante,  A. F. Morrison,  
 J. W. Mullinax,  K. Nanda,  T. S. Nguyen-Beck,  R. Olivares-Amaya,  
 K. J. Oosterbaan,  J. A. Parkhill,  S. K. Paul,  F. Pavosevic,  Zheng Pei,  
 T. M. Perrine,  F. Plasser,  P. Pokhilko,  S. Prager,  A. Prociuk,  
 E. Ramos,  B. Rana,  D. R. Rehn,  F. Rob,  M. Scheurer,  M. Schneider,  
 N. Sergueev,  S. M. Sharada,  S. Sharma,  D. W. Small,  T. Stauch,  
 C. J. Stein,  T. Stein,  Yu-Chuan Su,  S. P. Veccham,  Zhen Tao,  
 A. J. W. Thom,  A. Tkatchenko,  T. Tsuchimochi,  N. M. Tubman,  L. Vogt,  
 M. L. Vidal,  O. Vydrov,  M. A. Watson,  J. Wenzel,  M. de Wergifosse,  
 T. A. Wesolowski,  A. White,  J. Witte,  A. Yamada,  Jun Yang,  K. Yao,  
 S. Yeganeh,  S. R. Yost,  Zhi-Qiang You,  A. Zech,  Igor Ying Zhang,  
 Xing Zhang,  Yan Zhao,  Ying Zhu,  B. R. Brooks,  G. K. L. Chan,  
 C. J. Cramer,  M. S. Gordon,  W. J. Hehre,  A. Klamt,  M. W. Schmidt,  
 C. D. Sherrill,  D. G. Truhlar,  A. Aspuru-Guzik,  R. Baer,  A. T. Bell,  
 N. A. Besley,  Jeng-Da Chai,  A. E. DePrince, III,  R. A. DiStasio Jr.,  
 A. Dreuw,  B. D. Dunietz,  T. R. Furlani,  Chao-Ping Hsu,  Yousung Jung,  
 Jing Kong,  D. S. Lambrecht,  WanZhen Liang,  C. Ochsenfeld,  
 V. A. Rassolov,  L. V. Slipchenko,  J. E. Subotnik,  T. Van Voorhis,  
 J. M. Herbert,  A. I. Krylov,  P. M. W. Gill,  M. Head-Gordon

 Contributors to earlier versions of Q-Chem not listed above: 
 R. D. Adamson,  B. Austin,  J. Baker,  G. J. O. Beran,  K. Brandhorst,  
 S. T. Brown,  E. F. C. Byrd,  A. K. Chakraborty,  C.-L. Cheng,  
 Siu Hung Chien,  D. M. Chipman,  D. L. Crittenden,  H. Dachsel,  
 R. J. Doerksen,  A. D. Dutoi,  L. Fusti-Molnar,  W. A. Goddard III,  
 A. Golubeva-Zadorozhnaya,  S. R. Gwaltney,  G. Hawkins,  A. Heyden,  
 S. Hirata,  G. Kedziora,  F. J. Keil,  C. Kelley,  Jihan Kim,  R. A. King,  
 R. Z. Khaliullin,  P. P. Korambath,  W. Kurlancheek,  A. M. Lee,  M. S. Lee,  
 S. V. Levchenko,  Ching Yeh Lin,  D. Liotard,  R. C. Lochan,  I. Lotan,  
 P. E. Maslen,  N. Nair,  D. P. O'Neill,  D. Neuhauser,  E. Neuscamman,  
 C. M. Oana,  R. Olson,  B. Peters,  R. Peverati,  P. A. Pieniazek,  
 Y. M. Rhee,  J. Ritchie,  M. A. Rohrdanz,  E. Rosta,  N. J. Russ,  
 H. F. Schaefer III,  N. E. Schultz,  N. Shenvi,  A. C. Simmonett,  A. Sodt,  
 D. Stuck,  K. S. Thanthiriwatte,  V. Vanovschi,  Tao Wang,  A. Warshel,  
 C. F. Williams,  Q. Wu,  X. Xu,  W. Zhang

 Please cite Q-Chem as follows:
 Y. Shao et al., Mol. Phys. 113, 184-215 (2015)
 DOI: 10.1080/00268976.2014.952696

 Q-Chem 5.3.0 for Intel X86 EM64T Linux

 Parts of Q-Chem use Armadillo 9.800.1 (Horizon Scraper).
 http://arma.sourceforge.net/

 Q-Chem begins on Mon Jul 27 14:35:30 2020  

Host: centos77-c7
0

     Scratch files written to /tmp/29924.centos77-h1/qchem107143//
Processing $rem in /opt/qchem-5.3.0-intel2020u1//config/preferences:
Processing $rem in /home/shihchengli/.qchemrc:

Checking the input file for inconsistencies... 	...done.

--------------------------------------------------------------
User input:
--------------------------------------------------------------
$rem
   JOBTYPE  sp
   EXCHANGE   omegaB97X-D
   BASIS   6-311+G(2df,2pd)
   UNRESTRICTED   False
   max_scf_cycles   250
   geom_opt_max_cycles   1500
   basis2 6-31G*
   scf_algorithm rca_diis
   SYM_IGNORE  TRUE
   print_input   true
   geom_opt_dmax   80
   pop_mulliken false
   XC_GRID 000075000302
$end

$molecule
0 1
C       -5.3571956585     0.3155493536     0.0482057192
C       -4.1531669831     1.1773652765     0.1092028706
H       -5.4560285582     -0.0696987386     -0.9662241485
H       -6.2483321940     0.9006534866     0.2798248040
H       -5.3059524987     -0.5277060845     0.7386958955
O       -2.9277151005     0.4718363980     -0.2584894294
H       -4.0319983748     1.5778834930     1.1202987452
H       -4.2606662057     2.0228595475     -0.5680759581
H       -2.8617544265     -0.2515227321     0.3668715016
$end
--------------------------------------------------------------
 ----------------------------------------------------------------
             Standard Nuclear Orientation (Angstroms)
    I     Atom           X                Y                Z
 ----------------------------------------------------------------
    1      C      -5.3571956585     0.3155493536     0.0482057192
    2      C      -4.1531669831     1.1773652765     0.1092028706
    3      H      -5.4560285582    -0.0696987386    -0.9662241485
    4      H      -6.2483321940     0.9006534866     0.2798248040
    5      H      -5.3059524987    -0.5277060845     0.7386958955
    6      O      -2.9277151005     0.4718363980    -0.2584894294
    7      H      -4.0319983748     1.5778834930     1.1202987452
    8      H      -4.2606662057     2.0228595475    -0.5680759581
    9      H      -2.8617544265    -0.2515227321     0.3668715016
 ----------------------------------------------------------------
 Nuclear Repulsion Energy =          81.70500695 hartrees
 There are       13 alpha and       13 beta electrons
 Requested basis set is 6-311+G(2df,2pd)
 There are 60 shells and 186 basis functions

 Total QAlloc Memory Limit   2000 MB
 Mega-Array Size       188 MB
 MEM_STATIC part       192 MB

                       Distance Matrix (Angstroms)
             C (  1)   C (  2)   H (  3)   H (  4)   H (  5)   O (  6)
   C (  2)  1.481935
   H (  3)  1.089611  2.099800
   H (  4)  1.090926  2.120235  1.766909
   H (  5)  1.091092  2.152311  1.771735  1.771681
   O (  6)  2.453745  1.461062  2.680768  3.391189  2.765769
   H (  7)  2.121089  1.094263  3.015952  2.465192  2.490399  2.084188
   H (  8)  2.120634  1.088634  2.442583  2.434974  3.050518  2.068399
   H (  9)  2.578826  1.943157  2.922407  3.578267  2.487697  0.958476
             H (  7)   H (  8)
   H (  8)  1.760938
   H (  9)  2.298663  2.829116
 
 A cutoff of  1.0D-09 yielded   1786 shell pairs
 There are     17308 function pairs (     21493 Cartesian)
 Smallest overlap matrix eigenvalue = 1.20E-04

 Scale SEOQF with 1.000000e-02/1.000000e-01/1.000000e-01

 Standard Electronic Orientation quadrupole field applied
 Nucleus-field energy     =     0.0000000026 hartrees
 Requested basis set is 6-31G(d)
 There are 24 shells and 54 basis functions
 A cutoff of  1.0D-09 yielded    298 shell pairs
 There are      1549 function pairs (      1732 Cartesian)
 Smallest overlap matrix eigenvalue = 6.81E-03
 Guess from superposition of atomic densities
 Warning:  Energy on first SCF cycle will be non-variational
 SAD guess density has 26.000000 electrons
 Long-range K will be added via erf
 Coulomb attenuation parameter = 0.2 bohr**(-1)
 A restricted hybrid HF-DFT SCF calculation will be
 performed using Relaxed Constraint Minimization + Pulay DIIS
 Exchange:     0.2220 Hartree-Fock + 1.0000 wB97X-D + LR-HF
 Correlation:  1.0000 wB97X-D
 Using Euler-Maclaurin-Lebedev (75,302) quadrature formula
 Dispersion:   Grimme D
 SCF converges when DIIS error is below 1.0E-04
 using 6 threads for integral computing
 -------------------------------------------------------
 OpenMP Integral computing Module                
 Release: version 1.0, May 2013, Q-Chem Inc. Pittsburgh 
 -------------------------------------------------------
 using 6 threads for integral computing
 -------------------------------------------------------
 OpenMP Integral computing Module                
 Release: version 1.0, May 2013, Q-Chem Inc. Pittsburgh 
 -------------------------------------------------------
 ---------------------------------------
  Cycle       Energy         DIIS Error
 ---------------------------------------
    1    -155.4234889895      1.05E-01
    2    -154.9224158375      1.37E-02
    3    -154.9511365757      3.05E-03
    4    -154.9784736079      2.40E-03
    5    -154.9791997878      2.52E-04 Done RCA. Switching to DIIS
    6    -154.9800342433      1.30E-04
    7    -154.9800394748      8.77E-06 Convergence criterion met
 ---------------------------------------
 SCF time:  CPU 14.25 s  wall 2.39 s
 SCF   energy in the small basis set = -154.98003947
 Total energy in the small basis set = -154.98003947
 ----------------------------------------------------
  Cycle       Energy    
 ----------------------------------------------------
    1     -18.7471761687     -1.87E+01
 Long-range K will be added via erf
 Coulomb attenuation parameter = 0.2 bohr**(-1)
 A restricted hybrid HF-DFT SCF calculation will be
 performed using Relaxed Constraint Minimization + Pulay DIIS
 Exchange:     0.2220 Hartree-Fock + 1.0000 wB97X-D + LR-HF
 Correlation:  1.0000 wB97X-D
 Using Euler-Maclaurin-Lebedev (75,302) quadrature formula
 Dispersion:   Grimme D
 SCF converges when DIIS error is below 1.0E-05
 Basis2 calculation detected. Using small basis as guess for larger.
 SCFMinFind is unable to tell whether the solution found is close.
 Resetting ReadMinima to 0 and attempting to follow guess.
 SCFMinFind following SCF Guess.
 using 6 threads for integral computing
 -------------------------------------------------------
 OpenMP Integral computing Module                
 Release: version 1.0, May 2013, Q-Chem Inc. Pittsburgh 
 -------------------------------------------------------
 using 6 threads for integral computing
 -------------------------------------------------------
 OpenMP Integral computing Module                
 Release: version 1.0, May 2013, Q-Chem Inc. Pittsburgh 
 -------------------------------------------------------
 ---------------------------------------
  Cycle       Energy         DIIS Error
 ---------------------------------------
    1    -155.0111234991      5.73E-03
    2    -155.0254518774      2.95E-03
    3    -155.0357127106      3.90E-04 Done RCA. Switching to DIIS
    4    -155.0482455787      3.07E-04
    5    -155.0485206047      4.05E-05
    6    -155.0485290417      5.93E-06 Convergence criterion met
 ---------------------------------------
 SCF time:  CPU 39.21 s  wall 6.56 s
 SCF   energy in the final basis set = -155.04852904
 Total energy in the final basis set = -155.04852904
 
 --------------------------------------------------------------
 
                    Orbital Energies (a.u.)
 --------------------------------------------------------------
 
 Alpha MOs
 -- Occupied --
-19.2459 -10.3278 -10.2748  -1.1141  -0.8601  -0.7174  -0.5907  -0.5469
 -0.5262  -0.4687  -0.4560  -0.4178  -0.3640
 -- Virtual --
  0.0646   0.0871   0.0887   0.1009   0.1254   0.1339   0.1359   0.1812
  0.1950   0.2158   0.2402   0.2428   0.2646   0.2733   0.2873   0.3057
  0.3206   0.3253   0.3434   0.3829   0.4589   0.4878   0.4985   0.5217
  0.5684   0.5740   0.5754   0.6081   0.6138   0.6374   0.6673   0.6780
  0.6880   0.7099   0.7347   0.8058   0.8540   0.9017   0.9328   0.9502
  0.9878   1.0526   1.0606   1.1060   1.1393   1.1821   1.1897   1.2124
  1.2361   1.2431   1.2763   1.3045   1.3252   1.3560   1.3826   1.4209
  1.4388   1.4704   1.4758   1.4895   1.4995   1.5329   1.5998   1.6178
  1.6503   1.7087   1.9341   2.0313   2.1169   2.2510   2.2826   2.4638
  2.4851   2.5189   2.5506   2.5927   2.7032   2.8320   2.8561   2.8862
  2.9095   2.9728   3.0001   3.0177   3.0449   3.0480   3.0599   3.0742
  3.0843   3.1631   3.2262   3.2623   3.2881   3.2943   3.3046   3.3510
  3.3610   3.4091   3.4105   3.4407   3.5049   3.5624   3.5702   3.5773
  3.6082   3.6156   3.6555   3.7150   3.7219   3.7588   3.8067   3.8606
  3.8948   3.9164   3.9577   3.9879   4.0064   4.0161   4.0402   4.0799
  4.0946   4.1085   4.1447   4.1566   4.2121   4.2489   4.2948   4.3362
  4.3619   4.4011   4.5085   4.5325   4.5442   4.6736   4.6971   4.7776
  4.8640   4.9357   4.9503   4.9978   5.0094   5.0707   5.1340   5.2155
  5.2360   5.2696   5.2807   5.3184   5.3384   5.3608   5.4201   5.5111
  5.5407   5.5884   5.6611   5.8764   5.9248   5.9371   6.3583   6.3837
  6.4133   6.5652   6.6514   6.7824   7.1214   7.3723   7.3957   7.5499
  7.6702   8.0859  25.1458  25.4664  50.4568
 --------------------------------------------------------------
 
 -----------------------------------------------------------------
                    Cartesian Multipole Moments
 -----------------------------------------------------------------
    Charge (ESU x 10^10)
                 0.0000
    Dipole Moment (Debye)
         X      -1.4357      Y      -0.3166      Z       1.2925
       Tot       1.9575
    Quadrupole Moments (Debye-Ang)
        XX     -10.2337     XY      -1.1455     YY     -18.7983
        XZ      -3.4327     YZ      -0.3996     ZZ     -19.8888
    Octopole Moments (Debye-Ang^2)
       XXX     204.1310    XXY      -0.8648    XYY      79.1916
       YYY     -36.5696    XXZ       8.7617    XYZ       1.5886
       YYZ      -0.4065    XZZ      84.2749    YZZ     -12.7051
       ZZZ       0.2736
    Hexadecapole Moments (Debye-Ang^3)
      XXXX   -2082.6262   XXXY      83.0630   XXYY    -378.0604
      XYYY     149.7389   YYYY    -103.3066   XXXZ     -16.2600
      XXYZ      -6.3549   XYYZ       3.5113   YYYZ      -4.0170
      XXZZ    -390.1574   XYZZ      52.7758   YYZZ     -22.5366
      XZZZ       6.2804   YZZZ      -1.3290   ZZZZ     -36.8272
 -----------------------------------------------------------------
Archival summary:
1\1\centos77-c7\SP\ProcedureUnspecified\BasisUnspecified\126\shihchen\MonJul2714:35:412020MonJul2714:35:412020\0\\#,ProcedureUnspecified,BasisUnspecified,\\0,1\C\H,1,1.08863\H,1,1.09426,2,107.549\O,1,1.46106,2,107.535,3,-116.612,0\H,4,0.958476,1,104.949,2,179.038,0\C,1,1.48194,2,110.232,3,119.838,0\H,6,1.08961,1,108.52,2,61.5819,0\H,6,1.09093,1,110.062,2,-56.7106,0\H,6,1.09109,1,112.659,2,-178.037,0\\\@

 Total job time:  11.12s(wall), 57.25s(cpu) 
 Mon Jul 27 14:35:41 2020

        *************************************************************
        *                                                           *
        *  Thank you very much for using Q-Chem.  Have a nice day.  *
        *                                                           *
        *************************************************************


