                  Welcome to Q-Chem
     A Quantum Leap Into The Future Of Chemistry


 Q-Chem 5.3 (devel), Q-Chem, Inc., Pleasanton, CA (2020)

 Yihan Shao,  Zhengting Gan,  E. Epifanovsky,  A. T. B. Gilbert,  M. Wormit,  
 J. Kussmann,  A. W. Lange,  A. Behn,  Jia Deng,  Xintian Feng,  D. Ghosh,  
 M. Goldey,  P. R. Horn,  L. D. Jacobson,  I. Kaliman,  T. Kus,  A. Landau,  
 Jie Liu,  E. I. Proynov,  R. M. Richard,  R. P. Steele,  E. J. Sundstrom,  
 H. L. Woodcock III,  P. M. Zimmerman,  D. Zuev,  B. Alam,  B. Albrecht,  
 E. Alguire,  S. A. Baeppler,  D. Barton,  Z. Benda,  Y. A. Bernard,  
 E. J. Berquist,  K. B. Bravaya,  H. Burton,  K. Carter-Fenk,  D. Casanova,  
 Chun-Min Chang,  Yunqing Chen,  A. Chien,  K. D. Closser,  M. P. Coons,  
 S. Coriani,  S. Dasgupta,  A. L. Dempwolff,  M. Diedenhofen,  Hainam Do,  
 R. G. Edgar,  Po-Tung Fang,  S. Faraji,  S. Fatehi,  Qingguo Feng,  
 J. Fosso-Tande,  J. Gayvert,  Qinghui Ge,  A. Ghysels,  G. Gidofalvi,  
 J. Gomes,  J. Gonthier,  A. Gunina,  D. Hait,  M. W. D. Hanson-Heine,  
 P. H. P. Harbach,  A. W. Hauser,  M. F. Herbst,  J. E. Herr,  
 E. G. Hohenstein,  Z. C. Holden,  Kerwin Hui,  B. C. Huynh,  T.-C. Jagau,  
 Hyunjun Ji,  B. Kaduk,  K. Khistyaev,  Jaehoon Kim,  P. Klunzinger,  K. Koh,  
 D. Kosenkov,  L. Koulias,  T. Kowalczyk,  C. M. Krauter,  A. Kunitsa,  
 Ka Un Lao,  A. Laurent,  K. V. Lawler,  Joonho Lee,  D. Lefrancois,  
 S. Lehtola,  D. S. Levine,  Yi-Pei Li,  You-Sheng Lin,  Fenglai Liu,  
 Kuan-Yu Liu,  E. Livshits,  M. Loipersberger,  A. Luenser,  P. Manohar,  
 E. Mansoor,  S. F. Manzer,  Shan-Ping Mao,  Yuezhi Mao,  N. Mardirossian,  
 A. V. Marenich,  T. Markovich,  L. A. Martinez-Martinez,  S. A. Maurer,  
 N. J. Mayhall,  S. C. McKenzie,  J.-M. Mewes,  P. Morgante,  A. F. Morrison,  
 J. W. Mullinax,  K. Nanda,  T. S. Nguyen-Beck,  R. Olivares-Amaya,  
 K. J. Oosterbaan,  J. A. Parkhill,  S. K. Paul,  F. Pavosevic,  Zheng Pei,  
 T. M. Perrine,  F. Plasser,  P. Pokhilko,  S. Prager,  A. Prociuk,  
 E. Ramos,  B. Rana,  D. R. Rehn,  F. Rob,  M. Scheurer,  M. Schneider,  
 N. Sergueev,  S. M. Sharada,  S. Sharma,  D. W. Small,  T. Stauch,  
 C. J. Stein,  T. Stein,  Yu-Chuan Su,  S. P. Veccham,  Zhen Tao,  
 A. J. W. Thom,  A. Tkatchenko,  T. Tsuchimochi,  N. M. Tubman,  L. Vogt,  
 M. L. Vidal,  O. Vydrov,  M. A. Watson,  J. Wenzel,  M. de Wergifosse,  
 T. A. Wesolowski,  A. White,  J. Witte,  A. Yamada,  Jun Yang,  K. Yao,  
 S. Yeganeh,  S. R. Yost,  Zhi-Qiang You,  A. Zech,  Igor Ying Zhang,  
 Xing Zhang,  Yan Zhao,  Ying Zhu,  B. R. Brooks,  G. K. L. Chan,  
 C. J. Cramer,  M. S. Gordon,  W. J. Hehre,  A. Klamt,  M. W. Schmidt,  
 C. D. Sherrill,  D. G. Truhlar,  A. Aspuru-Guzik,  R. Baer,  A. T. Bell,  
 N. A. Besley,  Jeng-Da Chai,  A. E. DePrince, III,  R. A. DiStasio Jr.,  
 A. Dreuw,  B. D. Dunietz,  T. R. Furlani,  Chao-Ping Hsu,  Yousung Jung,  
 Jing Kong,  D. S. Lambrecht,  WanZhen Liang,  C. Ochsenfeld,  
 V. A. Rassolov,  L. V. Slipchenko,  J. E. Subotnik,  T. Van Voorhis,  
 J. M. Herbert,  A. I. Krylov,  P. M. W. Gill,  M. Head-Gordon

 Contributors to earlier versions of Q-Chem not listed above: 
 R. D. Adamson,  B. Austin,  J. Baker,  G. J. O. Beran,  K. Brandhorst,  
 S. T. Brown,  E. F. C. Byrd,  A. K. Chakraborty,  C.-L. Cheng,  
 Siu Hung Chien,  D. M. Chipman,  D. L. Crittenden,  H. Dachsel,  
 R. J. Doerksen,  A. D. Dutoi,  L. Fusti-Molnar,  W. A. Goddard III,  
 A. Golubeva-Zadorozhnaya,  S. R. Gwaltney,  G. Hawkins,  A. Heyden,  
 S. Hirata,  G. Kedziora,  F. J. Keil,  C. Kelley,  Jihan Kim,  R. A. King,  
 R. Z. Khaliullin,  P. P. Korambath,  W. Kurlancheek,  A. M. Lee,  M. S. Lee,  
 S. V. Levchenko,  Ching Yeh Lin,  D. Liotard,  R. C. Lochan,  I. Lotan,  
 P. E. Maslen,  N. Nair,  D. P. O'Neill,  D. Neuhauser,  E. Neuscamman,  
 C. M. Oana,  R. Olson,  B. Peters,  R. Peverati,  P. A. Pieniazek,  
 Y. M. Rhee,  J. Ritchie,  M. A. Rohrdanz,  E. Rosta,  N. J. Russ,  
 H. F. Schaefer III,  N. E. Schultz,  N. Shenvi,  A. C. Simmonett,  A. Sodt,  
 D. Stuck,  K. S. Thanthiriwatte,  V. Vanovschi,  Tao Wang,  A. Warshel,  
 C. F. Williams,  Q. Wu,  X. Xu,  W. Zhang

 Please cite Q-Chem as follows:
 Y. Shao et al., Mol. Phys. 113, 184-215 (2015)
 DOI: 10.1080/00268976.2014.952696

 Q-Chem 5.3.0 for Intel X86 EM64T Linux

 Parts of Q-Chem use Armadillo 9.800.1 (Horizon Scraper).
 http://arma.sourceforge.net/

 Q-Chem begins on Mon Jul 27 14:53:02 2020  

Host: centos77-c7
0

     Scratch files written to /tmp/29924.centos77-h1/qchem111427//
Processing $rem in /opt/qchem-5.3.0-intel2020u1//config/preferences:
Processing $rem in /home/shihchengli/.qchemrc:

Checking the input file for inconsistencies... 	...done.

--------------------------------------------------------------
User input:
--------------------------------------------------------------
$rem
   JOBTYPE  sp
   EXCHANGE   omegaB97X-D
   BASIS   6-311+G(2df,2pd)
   UNRESTRICTED   False
   max_scf_cycles   250
   geom_opt_max_cycles   1500
   basis2 6-31G*
   scf_algorithm rca_diis
   SYM_IGNORE  TRUE
   print_input   true
   geom_opt_dmax   80
   pop_mulliken false
   XC_GRID 000075000302
$end

$molecule
0 1
C       -5.3684494238     0.3229588001     0.0446928957
C       -4.1295367966     1.2077375822     0.1712144783
H       -5.4783381166     -0.0604695961     -0.9562691666
H       -6.2821917417     0.9082297662     0.3053650637
H       -5.3087333444     -0.5403861060     0.7448420160
O       -2.9471992940     0.5159866407     -0.2157304379
H       -4.0670283210     1.5000120744     0.8889419710
H       -4.1969899102     1.9936990588     -0.4823961798
H       -2.8243430515     -0.2305482203     0.3696493597
$end
--------------------------------------------------------------
 ----------------------------------------------------------------
             Standard Nuclear Orientation (Angstroms)
    I     Atom           X                Y                Z
 ----------------------------------------------------------------
    1      C      -5.3684494238     0.3229588001     0.0446928957
    2      C      -4.1295367966     1.2077375822     0.1712144783
    3      H      -5.4783381166    -0.0604695961    -0.9562691666
    4      H      -6.2821917417     0.9082297662     0.3053650637
    5      H      -5.3087333444    -0.5403861060     0.7448420160
    6      O      -2.9471992940     0.5159866407    -0.2157304379
    7      H      -4.0670283210     1.5000120744     0.8889419710
    8      H      -4.1969899102     1.9936990588    -0.4823961798
    9      H      -2.8243430515    -0.2305482203     0.3696493597
 ----------------------------------------------------------------
 Nuclear Repulsion Energy =          83.56217244 hartrees
 There are       13 alpha and       13 beta electrons
 Requested basis set is 6-311+G(2df,2pd)
 There are 60 shells and 186 basis functions

 Total QAlloc Memory Limit   2000 MB
 Mega-Array Size       188 MB
 MEM_STATIC part       192 MB

                       Distance Matrix (Angstroms)
             C (  1)   C (  2)   H (  3)   H (  4)   H (  5)   O (  6)
   C (  2)  1.527660
   H (  3)  1.077505  2.167679
   H (  4)  1.115983  2.177527  1.782212
   H (  5)  1.113166  2.185289  1.775631  1.799791
   O (  6)  2.442853  1.423435  2.699512  3.398172  2.759613
   H (  7)  1.947282  0.777473  2.798518  2.365950  2.392869  1.855431
   H (  8)  2.107490  1.024447  2.466986  2.479290  3.027156  1.953643
   H (  9)  2.623822  1.952325  2.971645  3.641108  2.531593  0.956597
             H (  7)   H (  8)
   H (  8)  1.463279
   H (  9)  2.192891  2.749076
 
 A cutoff of  1.0D-09 yielded   1788 shell pairs
 There are     17320 function pairs (     21505 Cartesian)
 Smallest overlap matrix eigenvalue = 1.40E-04

 Scale SEOQF with 1.000000e-02/1.000000e-01/1.000000e-01

 Standard Electronic Orientation quadrupole field applied
 Nucleus-field energy     =     0.0000000027 hartrees
 Requested basis set is 6-31G(d)
 There are 24 shells and 54 basis functions
 A cutoff of  1.0D-09 yielded    298 shell pairs
 There are      1549 function pairs (      1732 Cartesian)
 Smallest overlap matrix eigenvalue = 5.98E-03
 Guess from superposition of atomic densities
 Warning:  Energy on first SCF cycle will be non-variational
 SAD guess density has 26.000000 electrons
 Long-range K will be added via erf
 Coulomb attenuation parameter = 0.2 bohr**(-1)
 A restricted hybrid HF-DFT SCF calculation will be
 performed using Relaxed Constraint Minimization + Pulay DIIS
 Exchange:     0.2220 Hartree-Fock + 1.0000 wB97X-D + LR-HF
 Correlation:  1.0000 wB97X-D
 Using Euler-Maclaurin-Lebedev (75,302) quadrature formula
 Dispersion:   Grimme D
 SCF converges when DIIS error is below 1.0E-04
 using 6 threads for integral computing
 -------------------------------------------------------
 OpenMP Integral computing Module                
 Release: version 1.0, May 2013, Q-Chem Inc. Pittsburgh 
 -------------------------------------------------------
 using 6 threads for integral computing
 -------------------------------------------------------
 OpenMP Integral computing Module                
 Release: version 1.0, May 2013, Q-Chem Inc. Pittsburgh 
 -------------------------------------------------------
 ---------------------------------------
  Cycle       Energy         DIIS Error
 ---------------------------------------
    1    -155.5568336255      1.17E-01
    2    -154.7996677041      1.31E-02
    3    -154.8286424007      3.77E-03
    4    -154.8506865988      3.48E-03
    5    -154.8521708199      2.60E-04 Done RCA. Switching to DIIS
    6    -154.8538164184      1.75E-04
    7    -154.8538250183      9.91E-06 Convergence criterion met
 ---------------------------------------
 SCF time:  CPU 14.32 s  wall 2.40 s
 SCF   energy in the small basis set = -154.85382502
 Total energy in the small basis set = -154.85382502
 ----------------------------------------------------
  Cycle       Energy    
 ----------------------------------------------------
    1     -18.8941376827     -1.89E+01
 Long-range K will be added via erf
 Coulomb attenuation parameter = 0.2 bohr**(-1)
 A restricted hybrid HF-DFT SCF calculation will be
 performed using Relaxed Constraint Minimization + Pulay DIIS
 Exchange:     0.2220 Hartree-Fock + 1.0000 wB97X-D + LR-HF
 Correlation:  1.0000 wB97X-D
 Using Euler-Maclaurin-Lebedev (75,302) quadrature formula
 Dispersion:   Grimme D
 SCF converges when DIIS error is below 1.0E-05
 Basis2 calculation detected. Using small basis as guess for larger.
 SCFMinFind is unable to tell whether the solution found is close.
 Resetting ReadMinima to 0 and attempting to follow guess.
 SCFMinFind following SCF Guess.
 using 6 threads for integral computing
 -------------------------------------------------------
 OpenMP Integral computing Module                
 Release: version 1.0, May 2013, Q-Chem Inc. Pittsburgh 
 -------------------------------------------------------
 using 6 threads for integral computing
 -------------------------------------------------------
 OpenMP Integral computing Module                
 Release: version 1.0, May 2013, Q-Chem Inc. Pittsburgh 
 -------------------------------------------------------
 ---------------------------------------
  Cycle       Energy         DIIS Error
 ---------------------------------------
    1    -154.8921830618      5.74E-03
    2    -154.9075699343      2.89E-03
    3    -154.9173880544      3.61E-04 Done RCA. Switching to DIIS
    4    -154.9291947957      2.59E-04
    5    -154.9293931700      3.74E-05
    6    -154.9294002420      5.80E-06 Convergence criterion met
 ---------------------------------------
 SCF time:  CPU 39.68 s  wall 6.64 s
 SCF   energy in the final basis set = -154.92940024
 Total energy in the final basis set = -154.92940024
 
 --------------------------------------------------------------
 
                    Orbital Energies (a.u.)
 --------------------------------------------------------------
 
 Alpha MOs
 -- Occupied --
-19.2418 -10.2854 -10.2766  -1.1223  -0.8653  -0.7486  -0.6253  -0.5459
 -0.5209  -0.4760  -0.4553  -0.4207  -0.3652
 -- Virtual --
  0.0646   0.0887   0.0889   0.1026   0.1270   0.1336   0.1383   0.1816
  0.1985   0.2153   0.2446   0.2571   0.2790   0.2851   0.2890   0.3137
  0.3196   0.3355   0.3477   0.3819   0.4603   0.4923   0.5018   0.5318
  0.5689   0.5775   0.5864   0.6112   0.6313   0.6602   0.6848   0.6974
  0.7089   0.7369   0.7797   0.8286   0.8693   0.9055   0.9441   0.9531
  0.9837   1.0673   1.1018   1.1093   1.1489   1.1852   1.1973   1.2165
  1.2465   1.2624   1.3044   1.3192   1.3212   1.3620   1.4054   1.4315
  1.4498   1.4712   1.4851   1.5094   1.5240   1.5826   1.6166   1.6555
  1.7009   1.8091   1.9522   2.1013   2.1428   2.2902   2.2975   2.3603
  2.4901   2.5021   2.5281   2.6138   2.7318   2.8680   2.8891   2.9106
  2.9267   2.9563   3.0226   3.0299   3.0447   3.0688   3.0804   3.1455
  3.1558   3.2145   3.2209   3.2704   3.2965   3.3112   3.3225   3.3582
  3.3950   3.4083   3.4300   3.4415   3.5264   3.5603   3.5759   3.5954
  3.6446   3.6571   3.6981   3.7288   3.7315   3.8317   3.8677   3.8848
  3.9111   3.9522   3.9812   3.9899   4.0208   4.0450   4.0682   4.1055
  4.1204   4.1790   4.2287   4.2545   4.2646   4.3053   4.3441   4.3731
  4.4631   4.5147   4.5490   4.5677   4.6473   4.7409   4.7618   4.8772
  4.9139   4.9472   5.0493   5.1233   5.1564   5.2153   5.2430   5.2691
  5.2931   5.2936   5.3807   5.4112   5.4586   5.5664   5.5975   5.6339
  5.8249   5.9301   5.9936   6.1991   6.3242   6.3488   6.4605   6.5257
  6.6762   6.7524   6.8173   7.1432   7.2913   7.3738   7.4789   7.5882
  7.7508   8.1293  25.3766  25.4658  50.4680
 --------------------------------------------------------------
 
 -----------------------------------------------------------------
                    Cartesian Multipole Moments
 -----------------------------------------------------------------
    Charge (ESU x 10^10)
                 0.0000
    Dipole Moment (Debye)
         X      -1.1996      Y      -0.2538      Z       1.3537
       Tot       1.8265
    Quadrupole Moments (Debye-Ang)
        XX     -11.9098     XY      -1.3636     YY     -18.2660
        XZ      -3.7376     YZ      -0.0079     ZZ     -19.5638
    Octopole Moments (Debye-Ang^2)
       XXX     214.1957    XXY      -0.3128    XYY      77.3557
       YYY     -35.4284    XXZ       9.7341    XYZ      -0.1695
       YYZ      -0.0469    XZZ      83.1674    YZZ     -12.6403
       ZZZ      -0.6397
    Hexadecapole Moments (Debye-Ang^3)
      XXXX   -2145.6338   XXXY      82.0188   XXYY    -371.9936
      XYYY     144.6794   YYYY     -98.6933   XXXZ     -17.3712
      XXYZ       1.8341   XYYZ       1.6056   YYYZ      -2.2257
      XXZZ    -385.9177   XYZZ      52.1623   YYZZ     -21.4533
      XZZZ       9.5164   YZZZ      -1.0372   ZZZZ     -32.4608
 -----------------------------------------------------------------
Archival summary:
1\1\centos77-c7\SP\ProcedureUnspecified\BasisUnspecified\126\shihchen\MonJul2714:53:132020MonJul2714:53:132020\0\\#,ProcedureUnspecified,BasisUnspecified,\\0,1\C\H,1,0.777473\H,1,1.02445,2,107.81\O,1,1.42344,2,111.522,3,114.43,0\H,4,0.956597,1,108.638,2,63.079,0\C,1,1.52766,2,111.063,3,-120.283,0\H,6,1.07751,1,111.453,2,178.201,0\H,6,1.11317,1,110.707,2,-61.2044,0\H,6,1.11598,1,109.934,2,57.6456,0\\\@

 Total job time:  11.25s(wall), 57.93s(cpu) 
 Mon Jul 27 14:53:13 2020

        *************************************************************
        *                                                           *
        *  Thank you very much for using Q-Chem.  Have a nice day.  *
        *                                                           *
        *************************************************************


