                  Welcome to Q-Chem
     A Quantum Leap Into The Future Of Chemistry


 Q-Chem 5.3 (devel), Q-Chem, Inc., Pleasanton, CA (2020)

 Yihan Shao,  Zhengting Gan,  E. Epifanovsky,  A. T. B. Gilbert,  M. Wormit,  
 J. Kussmann,  A. W. Lange,  A. Behn,  Jia Deng,  Xintian Feng,  D. Ghosh,  
 M. Goldey,  P. R. Horn,  L. D. Jacobson,  I. Kaliman,  T. Kus,  A. Landau,  
 Jie Liu,  E. I. Proynov,  R. M. Richard,  R. P. Steele,  E. J. Sundstrom,  
 H. L. Woodcock III,  P. M. Zimmerman,  D. Zuev,  B. Alam,  B. Albrecht,  
 E. Alguire,  S. A. Baeppler,  D. Barton,  Z. Benda,  Y. A. Bernard,  
 E. J. Berquist,  K. B. Bravaya,  H. Burton,  K. Carter-Fenk,  D. Casanova,  
 Chun-Min Chang,  Yunqing Chen,  A. Chien,  K. D. Closser,  M. P. Coons,  
 S. Coriani,  S. Dasgupta,  A. L. Dempwolff,  M. Diedenhofen,  Hainam Do,  
 R. G. Edgar,  Po-Tung Fang,  S. Faraji,  S. Fatehi,  Qingguo Feng,  
 J. Fosso-Tande,  J. Gayvert,  Qinghui Ge,  A. Ghysels,  G. Gidofalvi,  
 J. Gomes,  J. Gonthier,  A. Gunina,  D. Hait,  M. W. D. Hanson-Heine,  
 P. H. P. Harbach,  A. W. Hauser,  M. F. Herbst,  J. E. Herr,  
 E. G. Hohenstein,  Z. C. Holden,  Kerwin Hui,  B. C. Huynh,  T.-C. Jagau,  
 Hyunjun Ji,  B. Kaduk,  K. Khistyaev,  Jaehoon Kim,  P. Klunzinger,  K. Koh,  
 D. Kosenkov,  L. Koulias,  T. Kowalczyk,  C. M. Krauter,  A. Kunitsa,  
 Ka Un Lao,  A. Laurent,  K. V. Lawler,  Joonho Lee,  D. Lefrancois,  
 S. Lehtola,  D. S. Levine,  Yi-Pei Li,  You-Sheng Lin,  Fenglai Liu,  
 Kuan-Yu Liu,  E. Livshits,  M. Loipersberger,  A. Luenser,  P. Manohar,  
 E. Mansoor,  S. F. Manzer,  Shan-Ping Mao,  Yuezhi Mao,  N. Mardirossian,  
 A. V. Marenich,  T. Markovich,  L. A. Martinez-Martinez,  S. A. Maurer,  
 N. J. Mayhall,  S. C. McKenzie,  J.-M. Mewes,  P. Morgante,  A. F. Morrison,  
 J. W. Mullinax,  K. Nanda,  T. S. Nguyen-Beck,  R. Olivares-Amaya,  
 K. J. Oosterbaan,  J. A. Parkhill,  S. K. Paul,  F. Pavosevic,  Zheng Pei,  
 T. M. Perrine,  F. Plasser,  P. Pokhilko,  S. Prager,  A. Prociuk,  
 E. Ramos,  B. Rana,  D. R. Rehn,  F. Rob,  M. Scheurer,  M. Schneider,  
 N. Sergueev,  S. M. Sharada,  S. Sharma,  D. W. Small,  T. Stauch,  
 C. J. Stein,  T. Stein,  Yu-Chuan Su,  S. P. Veccham,  Zhen Tao,  
 A. J. W. Thom,  A. Tkatchenko,  T. Tsuchimochi,  N. M. Tubman,  L. Vogt,  
 M. L. Vidal,  O. Vydrov,  M. A. Watson,  J. Wenzel,  M. de Wergifosse,  
 T. A. Wesolowski,  A. White,  J. Witte,  A. Yamada,  Jun Yang,  K. Yao,  
 S. Yeganeh,  S. R. Yost,  Zhi-Qiang You,  A. Zech,  Igor Ying Zhang,  
 Xing Zhang,  Yan Zhao,  Ying Zhu,  B. R. Brooks,  G. K. L. Chan,  
 C. J. Cramer,  M. S. Gordon,  W. J. Hehre,  A. Klamt,  M. W. Schmidt,  
 C. D. Sherrill,  D. G. Truhlar,  A. Aspuru-Guzik,  R. Baer,  A. T. Bell,  
 N. A. Besley,  Jeng-Da Chai,  A. E. DePrince, III,  R. A. DiStasio Jr.,  
 A. Dreuw,  B. D. Dunietz,  T. R. Furlani,  Chao-Ping Hsu,  Yousung Jung,  
 Jing Kong,  D. S. Lambrecht,  WanZhen Liang,  C. Ochsenfeld,  
 V. A. Rassolov,  L. V. Slipchenko,  J. E. Subotnik,  T. Van Voorhis,  
 J. M. Herbert,  A. I. Krylov,  P. M. W. Gill,  M. Head-Gordon

 Contributors to earlier versions of Q-Chem not listed above: 
 R. D. Adamson,  B. Austin,  J. Baker,  G. J. O. Beran,  K. Brandhorst,  
 S. T. Brown,  E. F. C. Byrd,  A. K. Chakraborty,  C.-L. Cheng,  
 Siu Hung Chien,  D. M. Chipman,  D. L. Crittenden,  H. Dachsel,  
 R. J. Doerksen,  A. D. Dutoi,  L. Fusti-Molnar,  W. A. Goddard III,  
 A. Golubeva-Zadorozhnaya,  S. R. Gwaltney,  G. Hawkins,  A. Heyden,  
 S. Hirata,  G. Kedziora,  F. J. Keil,  C. Kelley,  Jihan Kim,  R. A. King,  
 R. Z. Khaliullin,  P. P. Korambath,  W. Kurlancheek,  A. M. Lee,  M. S. Lee,  
 S. V. Levchenko,  Ching Yeh Lin,  D. Liotard,  R. C. Lochan,  I. Lotan,  
 P. E. Maslen,  N. Nair,  D. P. O'Neill,  D. Neuhauser,  E. Neuscamman,  
 C. M. Oana,  R. Olson,  B. Peters,  R. Peverati,  P. A. Pieniazek,  
 Y. M. Rhee,  J. Ritchie,  M. A. Rohrdanz,  E. Rosta,  N. J. Russ,  
 H. F. Schaefer III,  N. E. Schultz,  N. Shenvi,  A. C. Simmonett,  A. Sodt,  
 D. Stuck,  K. S. Thanthiriwatte,  V. Vanovschi,  Tao Wang,  A. Warshel,  
 C. F. Williams,  Q. Wu,  X. Xu,  W. Zhang

 Please cite Q-Chem as follows:
 Y. Shao et al., Mol. Phys. 113, 184-215 (2015)
 DOI: 10.1080/00268976.2014.952696

 Q-Chem 5.3.0 for Intel X86 EM64T Linux

 Parts of Q-Chem use Armadillo 9.800.1 (Horizon Scraper).
 http://arma.sourceforge.net/

 Q-Chem begins on Mon Jul 27 14:50:01 2020  

Host: centos77-c7
0

     Scratch files written to /tmp/29924.centos77-h1/qchem110721//
Processing $rem in /opt/qchem-5.3.0-intel2020u1//config/preferences:
Processing $rem in /home/shihchengli/.qchemrc:

Checking the input file for inconsistencies... 	...done.

--------------------------------------------------------------
User input:
--------------------------------------------------------------
$rem
   JOBTYPE  sp
   EXCHANGE   omegaB97X-D
   BASIS   6-311+G(2df,2pd)
   UNRESTRICTED   False
   max_scf_cycles   250
   geom_opt_max_cycles   1500
   basis2 6-31G*
   scf_algorithm rca_diis
   SYM_IGNORE  TRUE
   print_input   true
   geom_opt_dmax   80
   pop_mulliken false
   XC_GRID 000075000302
$end

$molecule
0 1
C       -5.3620019351     0.2988653586     0.0329792770
C       -4.1177491555     1.1572048056     0.1139347752
H       -5.4878662427     -0.0689564691     -0.9846361423
H       -6.2630909888     0.8634049602     0.2785771415
H       -5.3005635590     -0.5159724239     0.7567570048
O       -2.9515961336     0.4589392439     -0.2522158324
H       -4.0582828527     1.6578638817     1.0911670728
H       -4.2244940122     2.0450546049     -0.5126124147
H       -2.8371651205     -0.2791839620     0.3463591182
$end
--------------------------------------------------------------
 ----------------------------------------------------------------
             Standard Nuclear Orientation (Angstroms)
    I     Atom           X                Y                Z
 ----------------------------------------------------------------
    1      C      -5.3620019351     0.2988653586     0.0329792770
    2      C      -4.1177491555     1.1572048056     0.1139347752
    3      H      -5.4878662427    -0.0689564691    -0.9846361423
    4      H      -6.2630909888     0.8634049602     0.2785771415
    5      H      -5.3005635590    -0.5159724239     0.7567570048
    6      O      -2.9515961336     0.4589392439    -0.2522158324
    7      H      -4.0582828527     1.6578638817     1.0911670728
    8      H      -4.2244940122     2.0450546049    -0.5126124147
    9      H      -2.8371651205    -0.2791839620     0.3463591182
 ----------------------------------------------------------------
 Nuclear Repulsion Energy =          82.03321132 hartrees
 There are       13 alpha and       13 beta electrons
 Requested basis set is 6-311+G(2df,2pd)
 There are 60 shells and 186 basis functions

 Total QAlloc Memory Limit   2000 MB
 Mega-Array Size       188 MB
 MEM_STATIC part       192 MB

                       Distance Matrix (Angstroms)
             C (  1)   C (  2)   H (  3)   H (  4)   H (  5)   O (  6)
   C (  2)  1.513759
   H (  3)  1.089347  2.141857
   H (  4)  1.091322  2.171616  1.750994
   H (  5)  1.091600  2.147508  1.807583  1.748656
   O (  6)  2.432492  1.407677  2.692170  3.378066  2.736079
   H (  7)  2.160167  1.099627  3.055254  2.480453  2.525996  2.113493
   H (  8)  2.154245  1.091894  2.507580  2.485589  3.054191  2.050326
   H (  9)  2.609051  1.938332  2.973543  3.612073  2.508551  0.957190
             H (  7)   H (  8)
   H (  8)  1.658207
   H (  9)  2.407908  2.839824
 
 A cutoff of  1.0D-09 yielded   1786 shell pairs
 There are     17308 function pairs (     21493 Cartesian)
 Smallest overlap matrix eigenvalue = 1.35E-04

 Scale SEOQF with 1.000000e-02/1.000000e-01/1.000000e-01

 Standard Electronic Orientation quadrupole field applied
 Nucleus-field energy     =     0.0000000026 hartrees
 Requested basis set is 6-31G(d)
 There are 24 shells and 54 basis functions
 A cutoff of  1.0D-09 yielded    298 shell pairs
 There are      1549 function pairs (      1732 Cartesian)
 Smallest overlap matrix eigenvalue = 7.39E-03
 Guess from superposition of atomic densities
 Warning:  Energy on first SCF cycle will be non-variational
 SAD guess density has 26.000000 electrons
 Long-range K will be added via erf
 Coulomb attenuation parameter = 0.2 bohr**(-1)
 A restricted hybrid HF-DFT SCF calculation will be
 performed using Relaxed Constraint Minimization + Pulay DIIS
 Exchange:     0.2220 Hartree-Fock + 1.0000 wB97X-D + LR-HF
 Correlation:  1.0000 wB97X-D
 Using Euler-Maclaurin-Lebedev (75,302) quadrature formula
 Dispersion:   Grimme D
 SCF converges when DIIS error is below 1.0E-04
 using 6 threads for integral computing
 -------------------------------------------------------
 OpenMP Integral computing Module                
 Release: version 1.0, May 2013, Q-Chem Inc. Pittsburgh 
 -------------------------------------------------------
 using 6 threads for integral computing
 -------------------------------------------------------
 OpenMP Integral computing Module                
 Release: version 1.0, May 2013, Q-Chem Inc. Pittsburgh 
 -------------------------------------------------------
 ---------------------------------------
  Cycle       Energy         DIIS Error
 ---------------------------------------
    1    -155.4479699435      1.06E-01
    2    -154.9252636985      1.33E-02
    3    -154.9529365656      3.08E-03
    4    -154.9780443485      2.49E-03
    5    -154.9788166139      2.25E-04 Done RCA. Switching to DIIS
    6    -154.9796795053      1.05E-04
    7    -154.9796828661      7.88E-06 Convergence criterion met
 ---------------------------------------
 SCF time:  CPU 14.27 s  wall 2.39 s
 SCF   energy in the small basis set = -154.97968287
 Total energy in the small basis set = -154.97968287
 ----------------------------------------------------
  Cycle       Energy    
 ----------------------------------------------------
    1     -18.7514752472     -1.88E+01
 Long-range K will be added via erf
 Coulomb attenuation parameter = 0.2 bohr**(-1)
 A restricted hybrid HF-DFT SCF calculation will be
 performed using Relaxed Constraint Minimization + Pulay DIIS
 Exchange:     0.2220 Hartree-Fock + 1.0000 wB97X-D + LR-HF
 Correlation:  1.0000 wB97X-D
 Using Euler-Maclaurin-Lebedev (75,302) quadrature formula
 Dispersion:   Grimme D
 SCF converges when DIIS error is below 1.0E-05
 Basis2 calculation detected. Using small basis as guess for larger.
 SCFMinFind is unable to tell whether the solution found is close.
 Resetting ReadMinima to 0 and attempting to follow guess.
 SCFMinFind following SCF Guess.
 using 6 threads for integral computing
 -------------------------------------------------------
 OpenMP Integral computing Module                
 Release: version 1.0, May 2013, Q-Chem Inc. Pittsburgh 
 -------------------------------------------------------
 using 6 threads for integral computing
 -------------------------------------------------------
 OpenMP Integral computing Module                
 Release: version 1.0, May 2013, Q-Chem Inc. Pittsburgh 
 -------------------------------------------------------
 ---------------------------------------
  Cycle       Energy         DIIS Error
 ---------------------------------------
    1    -155.0118362857      5.70E-03
    2    -155.0277450916      2.78E-03
    3    -155.0368758992      3.33E-04 Done RCA. Switching to DIIS
    4    -155.0477859244      2.33E-04
    5    -155.0479493465      3.90E-05
    6    -155.0479569729      5.91E-06 Convergence criterion met
 ---------------------------------------
 SCF time:  CPU 39.16 s  wall 6.55 s
 SCF   energy in the final basis set = -155.04795697
 Total energy in the final basis set = -155.04795697
 
 --------------------------------------------------------------
 
                    Orbital Energies (a.u.)
 --------------------------------------------------------------
 
 Alpha MOs
 -- Occupied --
-19.2498 -10.3268 -10.2739  -1.1299  -0.8507  -0.7240  -0.5984  -0.5471
 -0.5254  -0.4691  -0.4579  -0.4079  -0.3644
 -- Virtual --
  0.0652   0.0867   0.0884   0.1023   0.1272   0.1342   0.1366   0.1812
  0.1972   0.2182   0.2410   0.2465   0.2612   0.2857   0.2973   0.3028
  0.3141   0.3259   0.3454   0.3795   0.4585   0.4903   0.4991   0.5317
  0.5697   0.5746   0.5835   0.6056   0.6130   0.6342   0.6694   0.6832
  0.6913   0.7163   0.7364   0.7987   0.8498   0.8986   0.9210   0.9571
  0.9879   1.0496   1.0653   1.0997   1.1413   1.1759   1.1922   1.2131
  1.2329   1.2411   1.2868   1.2932   1.3218   1.3482   1.3630   1.4239
  1.4525   1.4608   1.4723   1.4755   1.5046   1.5432   1.6045   1.6330
  1.6543   1.7118   1.9393   2.0870   2.1272   2.2760   2.2897   2.4604
  2.4789   2.4983   2.5431   2.5829   2.6935   2.8281   2.8494   2.8762
  2.9104   2.9787   2.9951   3.0325   3.0416   3.0484   3.0687   3.0797
  3.1124   3.1696   3.2192   3.2625   3.2899   3.3073   3.3333   3.3536
  3.3749   3.3913   3.4094   3.4496   3.5052   3.5540   3.5618   3.5764
  3.5814   3.6167   3.6559   3.7082   3.7176   3.7298   3.7658   3.8396
  3.8774   3.9174   3.9362   3.9842   4.0075   4.0131   4.0397   4.0861
  4.1054   4.1127   4.1365   4.1809   4.2122   4.2297   4.3052   4.3390
  4.3729   4.4368   4.4701   4.4994   4.5382   4.6370   4.7277   4.7619
  4.7904   4.9365   4.9569   4.9773   4.9946   5.0594   5.1402   5.1995
  5.2151   5.2573   5.2811   5.3317   5.3629   5.3724   5.3906   5.4558
  5.5297   5.6004   5.6747   5.8227   5.9870   6.0893   6.3422   6.4034
  6.4191   6.6516   6.7206   6.8147   7.1223   7.3571   7.4360   7.5552
  7.7274   8.1097  25.1811  25.4351  50.4689
 --------------------------------------------------------------
 
 -----------------------------------------------------------------
                    Cartesian Multipole Moments
 -----------------------------------------------------------------
    Charge (ESU x 10^10)
                 0.0000
    Dipole Moment (Debye)
         X      -1.1563      Y      -0.3662      Z       1.2512
       Tot       1.7426
    Quadrupole Moments (Debye-Ang)
        XX     -12.1582     XY      -0.8609     YY     -18.7704
        XZ      -3.3171     YZ      -0.2885     ZZ     -20.0881
    Octopole Moments (Debye-Ang^2)
       XXX     214.5717    XXY      -2.2557    XYY      79.6351
       YYY     -35.5420    XXZ       8.3548    XYZ       1.0543
       YYZ       0.0198    XZZ      85.0317    YZZ     -12.8927
       ZZZ       0.0114
    Hexadecapole Moments (Debye-Ang^3)
      XXXX   -2134.5186   XXXY      89.0265   XXYY    -382.1562
      XYYY     145.2914   YYYY    -101.3869   XXXZ     -14.4969
      XXYZ      -4.0186   XYYZ       1.4814   YYYZ      -3.2325
      XXZZ    -392.5825   XYZZ      53.3240   YYZZ     -22.9443
      XZZZ       6.7532   YZZZ      -1.8353   ZZZZ     -37.0066
 -----------------------------------------------------------------
Archival summary:
1\1\centos77-c7\SP\ProcedureUnspecified\BasisUnspecified\126\shihchen\MonJul2714:50:122020MonJul2714:50:122020\0\\#,ProcedureUnspecified,BasisUnspecified,\\0,1\C\H,1,1.09189\H,1,1.09963,2,98.3383\O,1,1.40768,2,109.577,3,-119.623,0\H,4,0.95719,1,108.596,2,175.887,0\C,1,1.51376,2,110.489,3,115.629,0\H,6,1.08935,1,109.657,2,63.7248,0\H,6,1.09132,1,111.921,2,-54.6419,0\H,6,1.0916,1,109.971,2,-172.759,0\\\@

 Total job time:  11.11s(wall), 57.24s(cpu) 
 Mon Jul 27 14:50:12 2020

        *************************************************************
        *                                                           *
        *  Thank you very much for using Q-Chem.  Have a nice day.  *
        *                                                           *
        *************************************************************


