                  Welcome to Q-Chem
     A Quantum Leap Into The Future Of Chemistry


 Q-Chem 5.3 (devel), Q-Chem, Inc., Pleasanton, CA (2020)

 Yihan Shao,  Zhengting Gan,  E. Epifanovsky,  A. T. B. Gilbert,  M. Wormit,  
 J. Kussmann,  A. W. Lange,  A. Behn,  Jia Deng,  Xintian Feng,  D. Ghosh,  
 M. Goldey,  P. R. Horn,  L. D. Jacobson,  I. Kaliman,  T. Kus,  A. Landau,  
 Jie Liu,  E. I. Proynov,  R. M. Richard,  R. P. Steele,  E. J. Sundstrom,  
 H. L. Woodcock III,  P. M. Zimmerman,  D. Zuev,  B. Alam,  B. Albrecht,  
 E. Alguire,  S. A. Baeppler,  D. Barton,  Z. Benda,  Y. A. Bernard,  
 E. J. Berquist,  K. B. Bravaya,  H. Burton,  K. Carter-Fenk,  D. Casanova,  
 Chun-Min Chang,  Yunqing Chen,  A. Chien,  K. D. Closser,  M. P. Coons,  
 S. Coriani,  S. Dasgupta,  A. L. Dempwolff,  M. Diedenhofen,  Hainam Do,  
 R. G. Edgar,  Po-Tung Fang,  S. Faraji,  S. Fatehi,  Qingguo Feng,  
 J. Fosso-Tande,  J. Gayvert,  Qinghui Ge,  A. Ghysels,  G. Gidofalvi,  
 J. Gomes,  J. Gonthier,  A. Gunina,  D. Hait,  M. W. D. Hanson-Heine,  
 P. H. P. Harbach,  A. W. Hauser,  M. F. Herbst,  J. E. Herr,  
 E. G. Hohenstein,  Z. C. Holden,  Kerwin Hui,  B. C. Huynh,  T.-C. Jagau,  
 Hyunjun Ji,  B. Kaduk,  K. Khistyaev,  Jaehoon Kim,  P. Klunzinger,  K. Koh,  
 D. Kosenkov,  L. Koulias,  T. Kowalczyk,  C. M. Krauter,  A. Kunitsa,  
 Ka Un Lao,  A. Laurent,  K. V. Lawler,  Joonho Lee,  D. Lefrancois,  
 S. Lehtola,  D. S. Levine,  Yi-Pei Li,  You-Sheng Lin,  Fenglai Liu,  
 Kuan-Yu Liu,  E. Livshits,  M. Loipersberger,  A. Luenser,  P. Manohar,  
 E. Mansoor,  S. F. Manzer,  Shan-Ping Mao,  Yuezhi Mao,  N. Mardirossian,  
 A. V. Marenich,  T. Markovich,  L. A. Martinez-Martinez,  S. A. Maurer,  
 N. J. Mayhall,  S. C. McKenzie,  J.-M. Mewes,  P. Morgante,  A. F. Morrison,  
 J. W. Mullinax,  K. Nanda,  T. S. Nguyen-Beck,  R. Olivares-Amaya,  
 K. J. Oosterbaan,  J. A. Parkhill,  S. K. Paul,  F. Pavosevic,  Zheng Pei,  
 T. M. Perrine,  F. Plasser,  P. Pokhilko,  S. Prager,  A. Prociuk,  
 E. Ramos,  B. Rana,  D. R. Rehn,  F. Rob,  M. Scheurer,  M. Schneider,  
 N. Sergueev,  S. M. Sharada,  S. Sharma,  D. W. Small,  T. Stauch,  
 C. J. Stein,  T. Stein,  Yu-Chuan Su,  S. P. Veccham,  Zhen Tao,  
 A. J. W. Thom,  A. Tkatchenko,  T. Tsuchimochi,  N. M. Tubman,  L. Vogt,  
 M. L. Vidal,  O. Vydrov,  M. A. Watson,  J. Wenzel,  M. de Wergifosse,  
 T. A. Wesolowski,  A. White,  J. Witte,  A. Yamada,  Jun Yang,  K. Yao,  
 S. Yeganeh,  S. R. Yost,  Zhi-Qiang You,  A. Zech,  Igor Ying Zhang,  
 Xing Zhang,  Yan Zhao,  Ying Zhu,  B. R. Brooks,  G. K. L. Chan,  
 C. J. Cramer,  M. S. Gordon,  W. J. Hehre,  A. Klamt,  M. W. Schmidt,  
 C. D. Sherrill,  D. G. Truhlar,  A. Aspuru-Guzik,  R. Baer,  A. T. Bell,  
 N. A. Besley,  Jeng-Da Chai,  A. E. DePrince, III,  R. A. DiStasio Jr.,  
 A. Dreuw,  B. D. Dunietz,  T. R. Furlani,  Chao-Ping Hsu,  Yousung Jung,  
 Jing Kong,  D. S. Lambrecht,  WanZhen Liang,  C. Ochsenfeld,  
 V. A. Rassolov,  L. V. Slipchenko,  J. E. Subotnik,  T. Van Voorhis,  
 J. M. Herbert,  A. I. Krylov,  P. M. W. Gill,  M. Head-Gordon

 Contributors to earlier versions of Q-Chem not listed above: 
 R. D. Adamson,  B. Austin,  J. Baker,  G. J. O. Beran,  K. Brandhorst,  
 S. T. Brown,  E. F. C. Byrd,  A. K. Chakraborty,  C.-L. Cheng,  
 Siu Hung Chien,  D. M. Chipman,  D. L. Crittenden,  H. Dachsel,  
 R. J. Doerksen,  A. D. Dutoi,  L. Fusti-Molnar,  W. A. Goddard III,  
 A. Golubeva-Zadorozhnaya,  S. R. Gwaltney,  G. Hawkins,  A. Heyden,  
 S. Hirata,  G. Kedziora,  F. J. Keil,  C. Kelley,  Jihan Kim,  R. A. King,  
 R. Z. Khaliullin,  P. P. Korambath,  W. Kurlancheek,  A. M. Lee,  M. S. Lee,  
 S. V. Levchenko,  Ching Yeh Lin,  D. Liotard,  R. C. Lochan,  I. Lotan,  
 P. E. Maslen,  N. Nair,  D. P. O'Neill,  D. Neuhauser,  E. Neuscamman,  
 C. M. Oana,  R. Olson,  B. Peters,  R. Peverati,  P. A. Pieniazek,  
 Y. M. Rhee,  J. Ritchie,  M. A. Rohrdanz,  E. Rosta,  N. J. Russ,  
 H. F. Schaefer III,  N. E. Schultz,  N. Shenvi,  A. C. Simmonett,  A. Sodt,  
 D. Stuck,  K. S. Thanthiriwatte,  V. Vanovschi,  Tao Wang,  A. Warshel,  
 C. F. Williams,  Q. Wu,  X. Xu,  W. Zhang

 Please cite Q-Chem as follows:
 Y. Shao et al., Mol. Phys. 113, 184-215 (2015)
 DOI: 10.1080/00268976.2014.952696

 Q-Chem 5.3.0 for Intel X86 EM64T Linux

 Parts of Q-Chem use Armadillo 9.800.1 (Horizon Scraper).
 http://arma.sourceforge.net/

 Q-Chem begins on Mon Jul 27 14:57:56 2020  

Host: centos77-c7
0

     Scratch files written to /tmp/29924.centos77-h1/qchem112654//
Processing $rem in /opt/qchem-5.3.0-intel2020u1//config/preferences:
Processing $rem in /home/shihchengli/.qchemrc:

Checking the input file for inconsistencies... 	...done.

--------------------------------------------------------------
User input:
--------------------------------------------------------------
$rem
   JOBTYPE  sp
   EXCHANGE   omegaB97X-D
   BASIS   6-311+G(2df,2pd)
   UNRESTRICTED   False
   max_scf_cycles   250
   geom_opt_max_cycles   1500
   basis2 6-31G*
   scf_algorithm rca_diis
   SYM_IGNORE  TRUE
   print_input   true
   geom_opt_dmax   80
   pop_mulliken false
   XC_GRID 000075000302
$end

$molecule
0 1
C       -5.3825924444     0.3218216885     0.0870078814
C       -4.1336660208     1.1793826218     0.1477818284
H       -5.5259614678     -0.1432710306     -1.0855435858
H       -6.2010336842     0.8553490849     0.3141190194
H       -5.3193431441     -0.4766415817     0.7355283159
O       -2.9603571901     0.4863962098     -0.2335796767
H       -4.0287902082     1.5945234126     1.1252445086
H       -4.2160498016     2.0528400237     -0.5819249185
H       -2.8350160387     -0.2531804290     0.3616766275
$end
--------------------------------------------------------------
 ----------------------------------------------------------------
             Standard Nuclear Orientation (Angstroms)
    I     Atom           X                Y                Z
 ----------------------------------------------------------------
    1      C      -5.3825924444     0.3218216885     0.0870078814
    2      C      -4.1336660208     1.1793826218     0.1477818284
    3      H      -5.5259614678    -0.1432710306    -1.0855435858
    4      H      -6.2010336842     0.8553490849     0.3141190194
    5      H      -5.3193431441    -0.4766415817     0.7355283159
    6      O      -2.9603571901     0.4863962098    -0.2335796767
    7      H      -4.0287902082     1.5945234126     1.1252445086
    8      H      -4.2160498016     2.0528400237    -0.5819249185
    9      H      -2.8350160387    -0.2531804290     0.3616766275
 ----------------------------------------------------------------
 Nuclear Repulsion Energy =          81.81109689 hartrees
 There are       13 alpha and       13 beta electrons
 Requested basis set is 6-311+G(2df,2pd)
 There are 60 shells and 186 basis functions

 Total QAlloc Memory Limit   2000 MB
 Mega-Array Size       188 MB
 MEM_STATIC part       192 MB

                       Distance Matrix (Angstroms)
             C (  1)   C (  2)   H (  3)   H (  4)   H (  5)   O (  6)
   C (  2)  1.516219
   H (  3)  1.269544  2.282321
   H (  4)  1.003034  2.099208  1.847165
   H (  5)  1.030593  2.119833  1.862828  1.652018
   O (  6)  2.448895  1.415034  2.775725  3.307277  2.726064
   H (  7)  2.128494  1.067134  3.185755  2.433710  2.471261  2.053265
   H (  8)  2.191967  1.141134  2.606224  2.485365  3.057976  2.037610
   H (  9)  2.626065  1.945374  3.057403  3.544175  2.522218  0.957609
             H (  7)   H (  8)
   H (  8)  1.777512
   H (  9)  2.328549  2.848749
 
 A cutoff of  1.0D-09 yielded   1781 shell pairs
 There are     17293 function pairs (     21477 Cartesian)
 Smallest overlap matrix eigenvalue = 1.35E-04

 Scale SEOQF with 1.000000e-02/1.000000e-01/1.000000e-01

 Standard Electronic Orientation quadrupole field applied
 Nucleus-field energy     =     0.0000000026 hartrees
 Requested basis set is 6-31G(d)
 There are 24 shells and 54 basis functions
 A cutoff of  1.0D-09 yielded    298 shell pairs
 There are      1549 function pairs (      1732 Cartesian)
 Smallest overlap matrix eigenvalue = 7.17E-03
 Guess from superposition of atomic densities
 Warning:  Energy on first SCF cycle will be non-variational
 SAD guess density has 26.000000 electrons
 Long-range K will be added via erf
 Coulomb attenuation parameter = 0.2 bohr**(-1)
 A restricted hybrid HF-DFT SCF calculation will be
 performed using Relaxed Constraint Minimization + Pulay DIIS
 Exchange:     0.2220 Hartree-Fock + 1.0000 wB97X-D + LR-HF
 Correlation:  1.0000 wB97X-D
 Using Euler-Maclaurin-Lebedev (75,302) quadrature formula
 Dispersion:   Grimme D
 SCF converges when DIIS error is below 1.0E-04
 using 6 threads for integral computing
 -------------------------------------------------------
 OpenMP Integral computing Module                
 Release: version 1.0, May 2013, Q-Chem Inc. Pittsburgh 
 -------------------------------------------------------
 using 6 threads for integral computing
 -------------------------------------------------------
 OpenMP Integral computing Module                
 Release: version 1.0, May 2013, Q-Chem Inc. Pittsburgh 
 -------------------------------------------------------
 ---------------------------------------
  Cycle       Energy         DIIS Error
 ---------------------------------------
    1    -155.4062046349      1.06E-01
    2    -154.9011332250      1.36E-02
    3    -154.9299579110      3.07E-03
    4    -154.9562269904      2.47E-03
    5    -154.9569863564      2.29E-04 Done RCA. Switching to DIIS
    6    -154.9578385612      1.08E-04
    7    -154.9578421216      7.60E-06 Convergence criterion met
 ---------------------------------------
 SCF time:  CPU 14.21 s  wall 2.38 s
 SCF   energy in the small basis set = -154.95784212
 Total energy in the small basis set = -154.95784212
 ----------------------------------------------------
  Cycle       Energy    
 ----------------------------------------------------
    1     -18.7446509523     -1.87E+01
 Long-range K will be added via erf
 Coulomb attenuation parameter = 0.2 bohr**(-1)
 A restricted hybrid HF-DFT SCF calculation will be
 performed using Relaxed Constraint Minimization + Pulay DIIS
 Exchange:     0.2220 Hartree-Fock + 1.0000 wB97X-D + LR-HF
 Correlation:  1.0000 wB97X-D
 Using Euler-Maclaurin-Lebedev (75,302) quadrature formula
 Dispersion:   Grimme D
 SCF converges when DIIS error is below 1.0E-05
 Basis2 calculation detected. Using small basis as guess for larger.
 SCFMinFind is unable to tell whether the solution found is close.
 Resetting ReadMinima to 0 and attempting to follow guess.
 SCFMinFind following SCF Guess.
 using 6 threads for integral computing
 -------------------------------------------------------
 OpenMP Integral computing Module                
 Release: version 1.0, May 2013, Q-Chem Inc. Pittsburgh 
 -------------------------------------------------------
 using 6 threads for integral computing
 -------------------------------------------------------
 OpenMP Integral computing Module                
 Release: version 1.0, May 2013, Q-Chem Inc. Pittsburgh 
 -------------------------------------------------------
 ---------------------------------------
  Cycle       Energy         DIIS Error
 ---------------------------------------
    1    -154.9901683465      5.71E-03
    2    -155.0056658067      2.84E-03
    3    -155.0151949580      3.44E-04 Done RCA. Switching to DIIS
    4    -155.0266229873      2.49E-04
    5    -155.0268083074      3.97E-05
    6    -155.0268163971      5.58E-06 Convergence criterion met
 ---------------------------------------
 SCF time:  CPU 39.09 s  wall 6.54 s
 SCF   energy in the final basis set = -155.02681640
 Total energy in the final basis set = -155.02681640
 
 --------------------------------------------------------------
 
                    Orbital Energies (a.u.)
 --------------------------------------------------------------
 
 Alpha MOs
 -- Occupied --
-19.2466 -10.3303 -10.2755  -1.1263  -0.8526  -0.7234  -0.5960  -0.5494
 -0.5292  -0.4677  -0.4487  -0.4084  -0.3638
 -- Virtual --
  0.0646   0.0856   0.0885   0.1018   0.1260   0.1335   0.1355   0.1788
  0.1877   0.2192   0.2297   0.2493   0.2600   0.2843   0.2890   0.3089
  0.3158   0.3288   0.3439   0.3805   0.4602   0.4940   0.5044   0.5252
  0.5468   0.5658   0.5960   0.6044   0.6148   0.6333   0.6655   0.6851
  0.6919   0.7139   0.7402   0.8064   0.8504   0.8859   0.9242   0.9492
  0.9930   1.0489   1.0582   1.1169   1.1384   1.1655   1.1774   1.2000
  1.2285   1.2393   1.2712   1.2966   1.3164   1.3654   1.3764   1.4002
  1.4301   1.4476   1.4780   1.4960   1.5027   1.5383   1.5875   1.6309
  1.6841   1.7160   1.9328   2.0464   2.1241   2.2741   2.2849   2.4058
  2.4483   2.5064   2.5648   2.6489   2.7291   2.8331   2.8453   2.8619
  2.8945   2.9509   2.9859   3.0145   3.0191   3.0430   3.0710   3.0951
  3.1171   3.1768   3.1879   3.2588   3.2693   3.2835   3.2960   3.3110
  3.3627   3.4013   3.4130   3.4205   3.4873   3.5052   3.5795   3.5870
  3.5993   3.6171   3.6489   3.6974   3.7201   3.7455   3.7809   3.8117
  3.8845   3.9168   3.9393   3.9789   3.9830   4.0035   4.0286   4.0687
  4.0815   4.1210   4.1347   4.1738   4.2088   4.2245   4.2815   4.3190
  4.3367   4.3762   4.4203   4.4979   4.5321   4.6188   4.7046   4.7418
  4.8101   4.8512   4.8868   4.9607   4.9849   5.0197   5.1415   5.2221
  5.2374   5.2458   5.3031   5.3378   5.3964   5.4582   5.4743   5.5295
  5.5906   5.5972   5.6962   5.7782   5.9134   6.0411   6.1827   6.3721
  6.5388   6.6545   6.7019   6.8122   7.1270   7.3517   7.4274   7.5560
  7.7175   8.1098  25.1371  25.3587  50.4649
 --------------------------------------------------------------
 
 -----------------------------------------------------------------
                    Cartesian Multipole Moments
 -----------------------------------------------------------------
    Charge (ESU x 10^10)
                -0.0000
    Dipole Moment (Debye)
         X      -1.1562      Y      -0.3761      Z       1.4599
       Tot       1.8999
    Quadrupole Moments (Debye-Ang)
        XX     -12.2414     XY      -0.8327     YY     -18.9870
        XZ      -4.4188     YZ      -0.1932     ZZ     -19.8499
    Octopole Moments (Debye-Ang^2)
       XXX     216.4170    XXY      -2.6359    XYY      80.5580
       YYY     -37.1262    XXZ      14.1110    XYZ       0.5638
       YYZ      -0.3984    XZZ      84.3670    YZZ     -12.8284
       ZZZ      -0.3929
    Hexadecapole Moments (Debye-Ang^3)
      XXXX   -2157.2642   XXXY      92.4266   XXYY    -386.4945
      XYYY     151.3460   YYYY    -105.6250   XXXZ     -45.8068
      XXYZ      -1.5651   XYYZ       2.9468   YYYZ      -4.7788
      XXZZ    -391.4772   XYZZ      53.0582   YYZZ     -23.0295
      XZZZ       7.8509   YZZZ      -2.1647   ZZZZ     -38.7202
 -----------------------------------------------------------------
Archival summary:
1\1\centos77-c7\SP\ProcedureUnspecified\BasisUnspecified\126\shihchen\MonJul2714:58:072020MonJul2714:58:072020\0\\#,ProcedureUnspecified,BasisUnspecified,\\0,1\C\H,1,1.06713\H,1,1.14113,2,107.16\O,1,1.41503,2,110.848,3,114.295,0\H,4,0.957609,1,108.616,2,63.4833,0\C,1,1.51622,2,109.737,3,-119.837,0\H,6,1.00303,1,111.235,2,58.6504,0\H,6,1.03059,1,111.249,2,-62.6224,0\H,6,1.26954,1,109.709,2,178.292,0\\\@

 Total job time:  11.11s(wall), 57.12s(cpu) 
 Mon Jul 27 14:58:07 2020

        *************************************************************
        *                                                           *
        *  Thank you very much for using Q-Chem.  Have a nice day.  *
        *                                                           *
        *************************************************************


