                  Welcome to Q-Chem
     A Quantum Leap Into The Future Of Chemistry


 Q-Chem 5.3 (devel), Q-Chem, Inc., Pleasanton, CA (2020)

 Yihan Shao,  Zhengting Gan,  E. Epifanovsky,  A. T. B. Gilbert,  M. Wormit,  
 J. Kussmann,  A. W. Lange,  A. Behn,  Jia Deng,  Xintian Feng,  D. Ghosh,  
 M. Goldey,  P. R. Horn,  L. D. Jacobson,  I. Kaliman,  T. Kus,  A. Landau,  
 Jie Liu,  E. I. Proynov,  R. M. Richard,  R. P. Steele,  E. J. Sundstrom,  
 H. L. Woodcock III,  P. M. Zimmerman,  D. Zuev,  B. Alam,  B. Albrecht,  
 E. Alguire,  S. A. Baeppler,  D. Barton,  Z. Benda,  Y. A. Bernard,  
 E. J. Berquist,  K. B. Bravaya,  H. Burton,  K. Carter-Fenk,  D. Casanova,  
 Chun-Min Chang,  Yunqing Chen,  A. Chien,  K. D. Closser,  M. P. Coons,  
 S. Coriani,  S. Dasgupta,  A. L. Dempwolff,  M. Diedenhofen,  Hainam Do,  
 R. G. Edgar,  Po-Tung Fang,  S. Faraji,  S. Fatehi,  Qingguo Feng,  
 J. Fosso-Tande,  J. Gayvert,  Qinghui Ge,  A. Ghysels,  G. Gidofalvi,  
 J. Gomes,  J. Gonthier,  A. Gunina,  D. Hait,  M. W. D. Hanson-Heine,  
 P. H. P. Harbach,  A. W. Hauser,  M. F. Herbst,  J. E. Herr,  
 E. G. Hohenstein,  Z. C. Holden,  Kerwin Hui,  B. C. Huynh,  T.-C. Jagau,  
 Hyunjun Ji,  B. Kaduk,  K. Khistyaev,  Jaehoon Kim,  P. Klunzinger,  K. Koh,  
 D. Kosenkov,  L. Koulias,  T. Kowalczyk,  C. M. Krauter,  A. Kunitsa,  
 Ka Un Lao,  A. Laurent,  K. V. Lawler,  Joonho Lee,  D. Lefrancois,  
 S. Lehtola,  D. S. Levine,  Yi-Pei Li,  You-Sheng Lin,  Fenglai Liu,  
 Kuan-Yu Liu,  E. Livshits,  M. Loipersberger,  A. Luenser,  P. Manohar,  
 E. Mansoor,  S. F. Manzer,  Shan-Ping Mao,  Yuezhi Mao,  N. Mardirossian,  
 A. V. Marenich,  T. Markovich,  L. A. Martinez-Martinez,  S. A. Maurer,  
 N. J. Mayhall,  S. C. McKenzie,  J.-M. Mewes,  P. Morgante,  A. F. Morrison,  
 J. W. Mullinax,  K. Nanda,  T. S. Nguyen-Beck,  R. Olivares-Amaya,  
 K. J. Oosterbaan,  J. A. Parkhill,  S. K. Paul,  F. Pavosevic,  Zheng Pei,  
 T. M. Perrine,  F. Plasser,  P. Pokhilko,  S. Prager,  A. Prociuk,  
 E. Ramos,  B. Rana,  D. R. Rehn,  F. Rob,  M. Scheurer,  M. Schneider,  
 N. Sergueev,  S. M. Sharada,  S. Sharma,  D. W. Small,  T. Stauch,  
 C. J. Stein,  T. Stein,  Yu-Chuan Su,  S. P. Veccham,  Zhen Tao,  
 A. J. W. Thom,  A. Tkatchenko,  T. Tsuchimochi,  N. M. Tubman,  L. Vogt,  
 M. L. Vidal,  O. Vydrov,  M. A. Watson,  J. Wenzel,  M. de Wergifosse,  
 T. A. Wesolowski,  A. White,  J. Witte,  A. Yamada,  Jun Yang,  K. Yao,  
 S. Yeganeh,  S. R. Yost,  Zhi-Qiang You,  A. Zech,  Igor Ying Zhang,  
 Xing Zhang,  Yan Zhao,  Ying Zhu,  B. R. Brooks,  G. K. L. Chan,  
 C. J. Cramer,  M. S. Gordon,  W. J. Hehre,  A. Klamt,  M. W. Schmidt,  
 C. D. Sherrill,  D. G. Truhlar,  A. Aspuru-Guzik,  R. Baer,  A. T. Bell,  
 N. A. Besley,  Jeng-Da Chai,  A. E. DePrince, III,  R. A. DiStasio Jr.,  
 A. Dreuw,  B. D. Dunietz,  T. R. Furlani,  Chao-Ping Hsu,  Yousung Jung,  
 Jing Kong,  D. S. Lambrecht,  WanZhen Liang,  C. Ochsenfeld,  
 V. A. Rassolov,  L. V. Slipchenko,  J. E. Subotnik,  T. Van Voorhis,  
 J. M. Herbert,  A. I. Krylov,  P. M. W. Gill,  M. Head-Gordon

 Contributors to earlier versions of Q-Chem not listed above: 
 R. D. Adamson,  B. Austin,  J. Baker,  G. J. O. Beran,  K. Brandhorst,  
 S. T. Brown,  E. F. C. Byrd,  A. K. Chakraborty,  C.-L. Cheng,  
 Siu Hung Chien,  D. M. Chipman,  D. L. Crittenden,  H. Dachsel,  
 R. J. Doerksen,  A. D. Dutoi,  L. Fusti-Molnar,  W. A. Goddard III,  
 A. Golubeva-Zadorozhnaya,  S. R. Gwaltney,  G. Hawkins,  A. Heyden,  
 S. Hirata,  G. Kedziora,  F. J. Keil,  C. Kelley,  Jihan Kim,  R. A. King,  
 R. Z. Khaliullin,  P. P. Korambath,  W. Kurlancheek,  A. M. Lee,  M. S. Lee,  
 S. V. Levchenko,  Ching Yeh Lin,  D. Liotard,  R. C. Lochan,  I. Lotan,  
 P. E. Maslen,  N. Nair,  D. P. O'Neill,  D. Neuhauser,  E. Neuscamman,  
 C. M. Oana,  R. Olson,  B. Peters,  R. Peverati,  P. A. Pieniazek,  
 Y. M. Rhee,  J. Ritchie,  M. A. Rohrdanz,  E. Rosta,  N. J. Russ,  
 H. F. Schaefer III,  N. E. Schultz,  N. Shenvi,  A. C. Simmonett,  A. Sodt,  
 D. Stuck,  K. S. Thanthiriwatte,  V. Vanovschi,  Tao Wang,  A. Warshel,  
 C. F. Williams,  Q. Wu,  X. Xu,  W. Zhang

 Please cite Q-Chem as follows:
 Y. Shao et al., Mol. Phys. 113, 184-215 (2015)
 DOI: 10.1080/00268976.2014.952696

 Q-Chem 5.3.0 for Intel X86 EM64T Linux

 Parts of Q-Chem use Armadillo 9.800.1 (Horizon Scraper).
 http://arma.sourceforge.net/

 Q-Chem begins on Mon Jul 27 14:29:07 2020  

Host: centos77-c7
0

     Scratch files written to /tmp/29924.centos77-h1/qchem105582//
Processing $rem in /opt/qchem-5.3.0-intel2020u1//config/preferences:
Processing $rem in /home/shihchengli/.qchemrc:

Checking the input file for inconsistencies... 	...done.

--------------------------------------------------------------
User input:
--------------------------------------------------------------
$rem
   JOBTYPE  sp
   EXCHANGE   omegaB97X-D
   BASIS   6-311+G(2df,2pd)
   UNRESTRICTED   False
   max_scf_cycles   250
   geom_opt_max_cycles   1500
   basis2 6-31G*
   scf_algorithm rca_diis
   SYM_IGNORE  TRUE
   print_input   true
   geom_opt_dmax   80
   pop_mulliken false
   XC_GRID 000075000302
$end

$molecule
0 1
C       -5.3760274787     0.2936810019     0.0989277348
C       -4.1337487661     1.1594154844     0.1752436751
H       -5.4007308823     0.0452289496     -0.9637614655
H       -6.2634698012     0.8985734075     0.2907601001
H       -5.4377248960     -0.6304507465     0.6737231381
O       -2.9745282014     0.4749206715     -0.2573878607
H       -3.9740144878     1.7042846439     1.1105915053
H       -4.2882159061     1.8970718111     -0.6141364796
H       -2.7543495802     -0.2255052234     0.3563496525
$end
--------------------------------------------------------------
 ----------------------------------------------------------------
             Standard Nuclear Orientation (Angstroms)
    I     Atom           X                Y                Z
 ----------------------------------------------------------------
    1      C      -5.3760274787     0.2936810019     0.0989277348
    2      C      -4.1337487661     1.1594154844     0.1752436751
    3      H      -5.4007308823     0.0452289496    -0.9637614655
    4      H      -6.2634698012     0.8985734075     0.2907601001
    5      H      -5.4377248960    -0.6304507465     0.6737231381
    6      O      -2.9745282014     0.4749206715    -0.2573878607
    7      H      -3.9740144878     1.7042846439     1.1105915053
    8      H      -4.2882159061     1.8970718111    -0.6141364796
    9      H      -2.7543495802    -0.2255052234     0.3563496525
 ----------------------------------------------------------------
 Nuclear Repulsion Energy =          82.02098265 hartrees
 There are       13 alpha and       13 beta electrons
 Requested basis set is 6-311+G(2df,2pd)
 There are 60 shells and 186 basis functions

 Total QAlloc Memory Limit   2000 MB
 Mega-Array Size       188 MB
 MEM_STATIC part       192 MB

                       Distance Matrix (Angstroms)
             C (  1)   C (  2)   H (  3)   H (  4)   H (  5)   O (  6)
   C (  2)  1.516106
   H (  3)  1.091626  2.035679
   H (  4)  1.090985  2.148742  1.745377
   H (  5)  1.090053  2.269902  1.771798  1.779447
   O (  6)  2.434545  1.414035  2.563212  3.361114  2.855898
   H (  7)  2.231346  1.094200  3.015116  2.561816  2.790034  2.093245
   H (  8)  2.064620  1.091384  2.188435  2.391122  3.060772  1.968644
   H (  9)  2.684961  1.963045  2.969735  3.685347  2.732254  0.956948
             H (  7)   H (  8)
   H (  8)  1.763683
   H (  9)  2.404278  2.792834
 
 A cutoff of  1.0D-09 yielded   1786 shell pairs
 There are     17319 function pairs (     21506 Cartesian)
 Smallest overlap matrix eigenvalue = 1.34E-04

 Scale SEOQF with 1.000000e-02/1.000000e-01/1.000000e-01

 Standard Electronic Orientation quadrupole field applied
 Nucleus-field energy     =     0.0000000026 hartrees
 Requested basis set is 6-31G(d)
 There are 24 shells and 54 basis functions
 A cutoff of  1.0D-09 yielded    298 shell pairs
 There are      1549 function pairs (      1732 Cartesian)
 Smallest overlap matrix eigenvalue = 6.88E-03
 Guess from superposition of atomic densities
 Warning:  Energy on first SCF cycle will be non-variational
 SAD guess density has 26.000000 electrons
 Long-range K will be added via erf
 Coulomb attenuation parameter = 0.2 bohr**(-1)
 A restricted hybrid HF-DFT SCF calculation will be
 performed using Relaxed Constraint Minimization + Pulay DIIS
 Exchange:     0.2220 Hartree-Fock + 1.0000 wB97X-D + LR-HF
 Correlation:  1.0000 wB97X-D
 Using Euler-Maclaurin-Lebedev (75,302) quadrature formula
 Dispersion:   Grimme D
 SCF converges when DIIS error is below 1.0E-04
 using 6 threads for integral computing
 -------------------------------------------------------
 OpenMP Integral computing Module                
 Release: version 1.0, May 2013, Q-Chem Inc. Pittsburgh 
 -------------------------------------------------------
 using 6 threads for integral computing
 -------------------------------------------------------
 OpenMP Integral computing Module                
 Release: version 1.0, May 2013, Q-Chem Inc. Pittsburgh 
 -------------------------------------------------------
 ---------------------------------------
  Cycle       Energy         DIIS Error
 ---------------------------------------
    1    -155.4442917538      1.06E-01
    2    -154.9206590501      1.35E-02
    3    -154.9488826833      3.03E-03
    4    -154.9749671103      2.40E-03
    5    -154.9756890764      2.26E-04 Done RCA. Switching to DIIS
    6    -154.9764986972      1.01E-04
    7    -154.9765019045      7.41E-06 Convergence criterion met
 ---------------------------------------
 SCF time:  CPU 14.46 s  wall 2.42 s
 SCF   energy in the small basis set = -154.97650190
 Total energy in the small basis set = -154.97650190
 ----------------------------------------------------
  Cycle       Energy    
 ----------------------------------------------------
    1     -18.7534485459     -1.88E+01
 Long-range K will be added via erf
 Coulomb attenuation parameter = 0.2 bohr**(-1)
 A restricted hybrid HF-DFT SCF calculation will be
 performed using Relaxed Constraint Minimization + Pulay DIIS
 Exchange:     0.2220 Hartree-Fock + 1.0000 wB97X-D + LR-HF
 Correlation:  1.0000 wB97X-D
 Using Euler-Maclaurin-Lebedev (75,302) quadrature formula
 Dispersion:   Grimme D
 SCF converges when DIIS error is below 1.0E-05
 Basis2 calculation detected. Using small basis as guess for larger.
 SCFMinFind is unable to tell whether the solution found is close.
 Resetting ReadMinima to 0 and attempting to follow guess.
 SCFMinFind following SCF Guess.
 using 6 threads for integral computing
 -------------------------------------------------------
 OpenMP Integral computing Module                
 Release: version 1.0, May 2013, Q-Chem Inc. Pittsburgh 
 -------------------------------------------------------
 using 6 threads for integral computing
 -------------------------------------------------------
 OpenMP Integral computing Module                
 Release: version 1.0, May 2013, Q-Chem Inc. Pittsburgh 
 -------------------------------------------------------
 ---------------------------------------
  Cycle       Energy         DIIS Error
 ---------------------------------------
    1    -155.0080089804      5.72E-03
    2    -155.0234564030      2.86E-03
    3    -155.0331223948      3.48E-04 Done RCA. Switching to DIIS
    4    -155.0447222421      2.51E-04
    5    -155.0449107928      3.93E-05
    6    -155.0449186076      5.65E-06 Convergence criterion met
 ---------------------------------------
 SCF time:  CPU 39.20 s  wall 6.56 s
 SCF   energy in the final basis set = -155.04491861
 Total energy in the final basis set = -155.04491861
 
 --------------------------------------------------------------
 
                    Orbital Energies (a.u.)
 --------------------------------------------------------------
 
 Alpha MOs
 -- Occupied --
-19.2461 -10.3275 -10.2729  -1.1259  -0.8517  -0.7217  -0.5968  -0.5463
 -0.5266  -0.4617  -0.4569  -0.4081  -0.3647
 -- Virtual --
  0.0667   0.0867   0.0889   0.1010   0.1265   0.1342   0.1361   0.1818
  0.1955   0.2248   0.2365   0.2462   0.2630   0.2832   0.2881   0.3086
  0.3157   0.3354   0.3483   0.3798   0.4618   0.4887   0.5041   0.5290
  0.5615   0.5806   0.5868   0.6065   0.6150   0.6326   0.6715   0.6790
  0.6985   0.7128   0.7456   0.8124   0.8544   0.8857   0.9268   0.9427
  0.9952   1.0547   1.0706   1.1005   1.1425   1.1670   1.1945   1.1954
  1.2250   1.2531   1.2775   1.2998   1.3399   1.3658   1.3727   1.4161
  1.4310   1.4584   1.4780   1.4940   1.5123   1.5351   1.5939   1.6253
  1.6539   1.7539   1.9329   2.0391   2.1262   2.2677   2.2884   2.4452
  2.4949   2.5145   2.5753   2.6190   2.6969   2.8088   2.8723   2.9071
  2.9120   2.9666   2.9783   3.0324   3.0386   3.0555   3.0664   3.0962
  3.1386   3.1988   3.2199   3.2645   3.2744   3.3098   3.3133   3.3226
  3.3510   3.3607   3.4194   3.4389   3.5061   3.5454   3.5628   3.5839
  3.6006   3.6230   3.6404   3.7054   3.7579   3.7749   3.7859   3.8460
  3.8619   3.8786   3.9547   3.9614   3.9914   4.0355   4.0542   4.0782
  4.1203   4.1260   4.1549   4.1906   4.2272   4.2473   4.3085   4.3292
  4.3386   4.3502   4.4876   4.5240   4.5680   4.6521   4.7267   4.7802
  4.8559   4.9241   4.9406   4.9849   5.0224   5.0473   5.1303   5.2117
  5.2252   5.2616   5.2713   5.3022   5.3188   5.3742   5.4180   5.4884
  5.5663   5.5723   5.6825   5.8346   5.8930   6.1036   6.3777   6.3973
  6.4113   6.6559   6.7208   6.8264   7.1238   7.3302   7.4508   7.5485
  7.7203   8.1359  25.1693  25.4315  50.4789
 --------------------------------------------------------------
 
 -----------------------------------------------------------------
                    Cartesian Multipole Moments
 -----------------------------------------------------------------
    Charge (ESU x 10^10)
                -0.0000
    Dipole Moment (Debye)
         X      -0.9883      Y      -0.3599      Z       1.2780
       Tot       1.6551
    Quadrupole Moments (Debye-Ang)
        XX     -13.1611     XY      -0.7917     YY     -19.0003
        XZ      -3.2468     YZ      -0.2985     ZZ     -19.9905
    Octopole Moments (Debye-Ang^2)
       XXX     220.5376    XXY      -3.1478    XYY      80.3989
       YYY     -36.9922    XXZ       7.3536    XYZ       1.6080
       YYZ      -0.2950    XZZ      85.3020    YZZ     -12.3246
       ZZZ      -1.5898
    Hexadecapole Moments (Debye-Ang^3)
      XXXX   -2177.5831   XXXY      96.1091   XXYY    -384.2606
      XYYY     151.5155   YYYY    -104.3012   XXXZ      -6.3619
      XXYZ      -8.8596   XYYZ       3.4794   YYYZ      -3.7344
      XXZZ    -397.1202   XYZZ      50.9543   YYZZ     -22.1013
      XZZZ      14.8175   YZZZ      -2.7842   ZZZZ     -37.6589
 -----------------------------------------------------------------
Archival summary:
1\1\centos77-c7\SP\ProcedureUnspecified\BasisUnspecified\126\shihchen\MonJul2714:29:192020MonJul2714:29:192020\0\\#,ProcedureUnspecified,BasisUnspecified,\\0,1\C\H,1,1.09138\H,1,1.0942,2,107.6\O,1,1.41404,2,102.822,3,-118.959,0\H,4,0.956948,1,110.286,2,-178.363,0\C,1,1.51611,2,103.507,3,123.951,0\H,6,1.09005,1,120.261,2,170.65,0\H,6,1.09099,1,109.942,2,-61.0557,0\H,6,1.09163,1,101.391,2,51.0188,0\\\@

 Total job time:  11.16s(wall), 57.50s(cpu) 
 Mon Jul 27 14:29:19 2020

        *************************************************************
        *                                                           *
        *  Thank you very much for using Q-Chem.  Have a nice day.  *
        *                                                           *
        *************************************************************


