                  Welcome to Q-Chem
     A Quantum Leap Into The Future Of Chemistry


 Q-Chem 5.3 (devel), Q-Chem, Inc., Pleasanton, CA (2020)

 Yihan Shao,  Zhengting Gan,  E. Epifanovsky,  A. T. B. Gilbert,  M. Wormit,  
 J. Kussmann,  A. W. Lange,  A. Behn,  Jia Deng,  Xintian Feng,  D. Ghosh,  
 M. Goldey,  P. R. Horn,  L. D. Jacobson,  I. Kaliman,  T. Kus,  A. Landau,  
 Jie Liu,  E. I. Proynov,  R. M. Richard,  R. P. Steele,  E. J. Sundstrom,  
 H. L. Woodcock III,  P. M. Zimmerman,  D. Zuev,  B. Alam,  B. Albrecht,  
 E. Alguire,  S. A. Baeppler,  D. Barton,  Z. Benda,  Y. A. Bernard,  
 E. J. Berquist,  K. B. Bravaya,  H. Burton,  K. Carter-Fenk,  D. Casanova,  
 Chun-Min Chang,  Yunqing Chen,  A. Chien,  K. D. Closser,  M. P. Coons,  
 S. Coriani,  S. Dasgupta,  A. L. Dempwolff,  M. Diedenhofen,  Hainam Do,  
 R. G. Edgar,  Po-Tung Fang,  S. Faraji,  S. Fatehi,  Qingguo Feng,  
 J. Fosso-Tande,  J. Gayvert,  Qinghui Ge,  A. Ghysels,  G. Gidofalvi,  
 J. Gomes,  J. Gonthier,  A. Gunina,  D. Hait,  M. W. D. Hanson-Heine,  
 P. H. P. Harbach,  A. W. Hauser,  M. F. Herbst,  J. E. Herr,  
 E. G. Hohenstein,  Z. C. Holden,  Kerwin Hui,  B. C. Huynh,  T.-C. Jagau,  
 Hyunjun Ji,  B. Kaduk,  K. Khistyaev,  Jaehoon Kim,  P. Klunzinger,  K. Koh,  
 D. Kosenkov,  L. Koulias,  T. Kowalczyk,  C. M. Krauter,  A. Kunitsa,  
 Ka Un Lao,  A. Laurent,  K. V. Lawler,  Joonho Lee,  D. Lefrancois,  
 S. Lehtola,  D. S. Levine,  Yi-Pei Li,  You-Sheng Lin,  Fenglai Liu,  
 Kuan-Yu Liu,  E. Livshits,  M. Loipersberger,  A. Luenser,  P. Manohar,  
 E. Mansoor,  S. F. Manzer,  Shan-Ping Mao,  Yuezhi Mao,  N. Mardirossian,  
 A. V. Marenich,  T. Markovich,  L. A. Martinez-Martinez,  S. A. Maurer,  
 N. J. Mayhall,  S. C. McKenzie,  J.-M. Mewes,  P. Morgante,  A. F. Morrison,  
 J. W. Mullinax,  K. Nanda,  T. S. Nguyen-Beck,  R. Olivares-Amaya,  
 K. J. Oosterbaan,  J. A. Parkhill,  S. K. Paul,  F. Pavosevic,  Zheng Pei,  
 T. M. Perrine,  F. Plasser,  P. Pokhilko,  S. Prager,  A. Prociuk,  
 E. Ramos,  B. Rana,  D. R. Rehn,  F. Rob,  M. Scheurer,  M. Schneider,  
 N. Sergueev,  S. M. Sharada,  S. Sharma,  D. W. Small,  T. Stauch,  
 C. J. Stein,  T. Stein,  Yu-Chuan Su,  S. P. Veccham,  Zhen Tao,  
 A. J. W. Thom,  A. Tkatchenko,  T. Tsuchimochi,  N. M. Tubman,  L. Vogt,  
 M. L. Vidal,  O. Vydrov,  M. A. Watson,  J. Wenzel,  M. de Wergifosse,  
 T. A. Wesolowski,  A. White,  J. Witte,  A. Yamada,  Jun Yang,  K. Yao,  
 S. Yeganeh,  S. R. Yost,  Zhi-Qiang You,  A. Zech,  Igor Ying Zhang,  
 Xing Zhang,  Yan Zhao,  Ying Zhu,  B. R. Brooks,  G. K. L. Chan,  
 C. J. Cramer,  M. S. Gordon,  W. J. Hehre,  A. Klamt,  M. W. Schmidt,  
 C. D. Sherrill,  D. G. Truhlar,  A. Aspuru-Guzik,  R. Baer,  A. T. Bell,  
 N. A. Besley,  Jeng-Da Chai,  A. E. DePrince, III,  R. A. DiStasio Jr.,  
 A. Dreuw,  B. D. Dunietz,  T. R. Furlani,  Chao-Ping Hsu,  Yousung Jung,  
 Jing Kong,  D. S. Lambrecht,  WanZhen Liang,  C. Ochsenfeld,  
 V. A. Rassolov,  L. V. Slipchenko,  J. E. Subotnik,  T. Van Voorhis,  
 J. M. Herbert,  A. I. Krylov,  P. M. W. Gill,  M. Head-Gordon

 Contributors to earlier versions of Q-Chem not listed above: 
 R. D. Adamson,  B. Austin,  J. Baker,  G. J. O. Beran,  K. Brandhorst,  
 S. T. Brown,  E. F. C. Byrd,  A. K. Chakraborty,  C.-L. Cheng,  
 Siu Hung Chien,  D. M. Chipman,  D. L. Crittenden,  H. Dachsel,  
 R. J. Doerksen,  A. D. Dutoi,  L. Fusti-Molnar,  W. A. Goddard III,  
 A. Golubeva-Zadorozhnaya,  S. R. Gwaltney,  G. Hawkins,  A. Heyden,  
 S. Hirata,  G. Kedziora,  F. J. Keil,  C. Kelley,  Jihan Kim,  R. A. King,  
 R. Z. Khaliullin,  P. P. Korambath,  W. Kurlancheek,  A. M. Lee,  M. S. Lee,  
 S. V. Levchenko,  Ching Yeh Lin,  D. Liotard,  R. C. Lochan,  I. Lotan,  
 P. E. Maslen,  N. Nair,  D. P. O'Neill,  D. Neuhauser,  E. Neuscamman,  
 C. M. Oana,  R. Olson,  B. Peters,  R. Peverati,  P. A. Pieniazek,  
 Y. M. Rhee,  J. Ritchie,  M. A. Rohrdanz,  E. Rosta,  N. J. Russ,  
 H. F. Schaefer III,  N. E. Schultz,  N. Shenvi,  A. C. Simmonett,  A. Sodt,  
 D. Stuck,  K. S. Thanthiriwatte,  V. Vanovschi,  Tao Wang,  A. Warshel,  
 C. F. Williams,  Q. Wu,  X. Xu,  W. Zhang

 Please cite Q-Chem as follows:
 Y. Shao et al., Mol. Phys. 113, 184-215 (2015)
 DOI: 10.1080/00268976.2014.952696

 Q-Chem 5.3.0 for Intel X86 EM64T Linux

 Parts of Q-Chem use Armadillo 9.800.1 (Horizon Scraper).
 http://arma.sourceforge.net/

 Q-Chem begins on Mon Jul 27 14:36:39 2020  

Host: centos77-c7
0

     Scratch files written to /tmp/29924.centos77-h1/qchem107430//
Processing $rem in /opt/qchem-5.3.0-intel2020u1//config/preferences:
Processing $rem in /home/shihchengli/.qchemrc:

Checking the input file for inconsistencies... 	...done.

--------------------------------------------------------------
User input:
--------------------------------------------------------------
$rem
   JOBTYPE  sp
   EXCHANGE   omegaB97X-D
   BASIS   6-311+G(2df,2pd)
   UNRESTRICTED   False
   max_scf_cycles   250
   geom_opt_max_cycles   1500
   basis2 6-31G*
   scf_algorithm rca_diis
   SYM_IGNORE  TRUE
   print_input   true
   geom_opt_dmax   80
   pop_mulliken false
   XC_GRID 000075000302
$end

$molecule
0 1
C       -5.3815022092     0.3264904888     0.0599502120
C       -4.1267031277     1.1690373986     0.0986411795
H       -5.4423345144     -0.0724976320     -0.9540588995
H       -6.3004368051     0.8712952839     0.2727188207
H       -5.3053826706     -0.5321055609     0.7310259576
O       -2.9676729513     0.4995685752     -0.2406880147
H       -3.9881857357     1.5678536193     1.1105118165
H       -4.2206369146     2.0240502969     -0.5705575083
H       -2.8699550712     -0.2364724697     0.3627664364
$end
--------------------------------------------------------------
 ----------------------------------------------------------------
             Standard Nuclear Orientation (Angstroms)
    I     Atom           X                Y                Z
 ----------------------------------------------------------------
    1      C      -5.3815022092     0.3264904888     0.0599502120
    2      C      -4.1267031277     1.1690373986     0.0986411795
    3      H      -5.4423345144    -0.0724976320    -0.9540588995
    4      H      -6.3004368051     0.8712952839     0.2727188207
    5      H      -5.3053826706    -0.5321055609     0.7310259576
    6      O      -2.9676729513     0.4995685752    -0.2406880147
    7      H      -3.9881857357     1.5678536193     1.1105118165
    8      H      -4.2206369146     2.0240502969    -0.5705575083
    9      H      -2.8699550712    -0.2364724697     0.3627664364
 ----------------------------------------------------------------
 Nuclear Repulsion Energy =          82.64124254 hartrees
 There are       13 alpha and       13 beta electrons
 Requested basis set is 6-311+G(2df,2pd)
 There are 60 shells and 186 basis functions

 Total QAlloc Memory Limit   2000 MB
 Mega-Array Size       188 MB
 MEM_STATIC part       192 MB

                       Distance Matrix (Angstroms)
             C (  1)   C (  2)   H (  3)   H (  4)   H (  5)   O (  6)
   C (  2)  1.511920
   H (  3)  1.091378  2.092958
   H (  4)  1.089277  2.200925  1.769765
   H (  5)  1.092394  2.164043  1.752001  1.780369
   O (  6)  2.438629  1.380827  2.638202  3.392504  2.733764
   H (  7)  2.141493  1.096414  3.011271  2.556090  2.507757  2.002104
   H (  8)  2.151013  1.089815  2.456650  2.523000  3.066713  2.000694
   H (  9)  2.591620  1.903848  2.894487  3.606031  2.480791  0.956798
             H (  7)   H (  8)
   H (  8)  1.757311
   H (  9)  2.250590  2.793814
 
 A cutoff of  1.0D-09 yielded   1790 shell pairs
 There are     17338 function pairs (     21526 Cartesian)
 Smallest overlap matrix eigenvalue = 1.33E-04

 Scale SEOQF with 1.000000e-02/1.000000e-01/1.000000e-01

 Standard Electronic Orientation quadrupole field applied
 Nucleus-field energy     =     0.0000000027 hartrees
 Requested basis set is 6-31G(d)
 There are 24 shells and 54 basis functions
 A cutoff of  1.0D-09 yielded    298 shell pairs
 There are      1549 function pairs (      1732 Cartesian)
 Smallest overlap matrix eigenvalue = 7.01E-03
 Guess from superposition of atomic densities
 Warning:  Energy on first SCF cycle will be non-variational
 SAD guess density has 26.000000 electrons
 Long-range K will be added via erf
 Coulomb attenuation parameter = 0.2 bohr**(-1)
 A restricted hybrid HF-DFT SCF calculation will be
 performed using Relaxed Constraint Minimization + Pulay DIIS
 Exchange:     0.2220 Hartree-Fock + 1.0000 wB97X-D + LR-HF
 Correlation:  1.0000 wB97X-D
 Using Euler-Maclaurin-Lebedev (75,302) quadrature formula
 Dispersion:   Grimme D
 SCF converges when DIIS error is below 1.0E-04
 using 6 threads for integral computing
 -------------------------------------------------------
 OpenMP Integral computing Module                
 Release: version 1.0, May 2013, Q-Chem Inc. Pittsburgh 
 -------------------------------------------------------
 using 6 threads for integral computing
 -------------------------------------------------------
 OpenMP Integral computing Module                
 Release: version 1.0, May 2013, Q-Chem Inc. Pittsburgh 
 -------------------------------------------------------
 ---------------------------------------
  Cycle       Energy         DIIS Error
 ---------------------------------------
    1    -155.5022671471      1.09E-01
    2    -154.9251052891      1.34E-02
    3    -154.9533123830      3.12E-03
    4    -154.9783174152      2.55E-03
    5    -154.9791237329      2.15E-04 Done RCA. Switching to DIIS
    6    -154.9800127959      9.45E-05 Convergence criterion met
 ---------------------------------------
 SCF time:  CPU 13.11 s  wall 2.20 s
 SCF   energy in the small basis set = -154.98001280
 Total energy in the small basis set = -154.98001280
 ----------------------------------------------------
  Cycle       Energy    
 ----------------------------------------------------
    1     -18.7710587314     -1.88E+01
 Long-range K will be added via erf
 Coulomb attenuation parameter = 0.2 bohr**(-1)
 A restricted hybrid HF-DFT SCF calculation will be
 performed using Relaxed Constraint Minimization + Pulay DIIS
 Exchange:     0.2220 Hartree-Fock + 1.0000 wB97X-D + LR-HF
 Correlation:  1.0000 wB97X-D
 Using Euler-Maclaurin-Lebedev (75,302) quadrature formula
 Dispersion:   Grimme D
 SCF converges when DIIS error is below 1.0E-05
 Basis2 calculation detected. Using small basis as guess for larger.
 SCFMinFind is unable to tell whether the solution found is close.
 Resetting ReadMinima to 0 and attempting to follow guess.
 SCFMinFind following SCF Guess.
 using 6 threads for integral computing
 -------------------------------------------------------
 OpenMP Integral computing Module                
 Release: version 1.0, May 2013, Q-Chem Inc. Pittsburgh 
 -------------------------------------------------------
 using 6 threads for integral computing
 -------------------------------------------------------
 OpenMP Integral computing Module                
 Release: version 1.0, May 2013, Q-Chem Inc. Pittsburgh 
 -------------------------------------------------------
 ---------------------------------------
  Cycle       Energy         DIIS Error
 ---------------------------------------
    1    -155.0121133401      5.70E-03
    2    -155.0284992465      2.75E-03
    3    -155.0374917472      3.18E-04 Done RCA. Switching to DIIS
    4    -155.0481436929      2.12E-04
    5    -155.0482818485      3.86E-05
    6    -155.0482894258      5.39E-06 Convergence criterion met
 ---------------------------------------
 SCF time:  CPU 39.46 s  wall 6.60 s
 SCF   energy in the final basis set = -155.04828943
 Total energy in the final basis set = -155.04828943
 
 --------------------------------------------------------------
 
                    Orbital Energies (a.u.)
 --------------------------------------------------------------
 
 Alpha MOs
 -- Occupied --
-19.2480 -10.3238 -10.2733  -1.1395  -0.8494  -0.7243  -0.5996  -0.5499
 -0.5317  -0.4645  -0.4627  -0.4124  -0.3594
 -- Virtual --
  0.0651   0.0873   0.0894   0.1018   0.1263   0.1346   0.1370   0.1818
  0.1978   0.2167   0.2396   0.2465   0.2624   0.2880   0.2924   0.3134
  0.3166   0.3312   0.3460   0.3834   0.4600   0.4906   0.5023   0.5270
  0.5710   0.5751   0.5850   0.6101   0.6204   0.6320   0.6702   0.6838
  0.6916   0.7107   0.7340   0.8021   0.8583   0.9025   0.9308   0.9527
  0.9811   1.0525   1.0656   1.1044   1.1449   1.1755   1.1875   1.2068
  1.2306   1.2442   1.2774   1.3111   1.3350   1.3527   1.3919   1.4130
  1.4441   1.4745   1.4751   1.4908   1.5062   1.5398   1.6033   1.6277
  1.6528   1.7131   1.9386   2.0759   2.1277   2.2864   2.3035   2.4553
  2.4829   2.5053   2.5536   2.5977   2.7234   2.8465   2.8533   2.9025
  2.9230   2.9720   3.0120   3.0199   3.0472   3.0588   3.0726   3.0743
  3.1027   3.1821   3.2292   3.2553   3.2904   3.2969   3.3189   3.3436
  3.3691   3.3917   3.4264   3.4411   3.5239   3.5671   3.5730   3.5820
  3.5990   3.6278   3.6738   3.7148   3.7314   3.7419   3.7933   3.8542
  3.9042   3.9221   3.9535   3.9665   4.0025   4.0232   4.0441   4.0786
  4.1073   4.1194   4.1519   4.1768   4.2046   4.2601   4.3020   4.3335
  4.3693   4.3967   4.4974   4.5243   4.5405   4.6575   4.7035   4.8022
  4.8506   4.9251   4.9316   4.9901   5.0224   5.0702   5.1274   5.2106
  5.2213   5.2464   5.2805   5.3210   5.3399   5.3775   5.4161   5.5222
  5.5613   5.6214   5.7241   5.8366   6.0216   6.0804   6.3599   6.3858
  6.4135   6.6545   6.7759   6.8628   7.1332   7.3769   7.4457   7.5917
  7.7320   8.1161  25.2254  25.4368  50.4792
 --------------------------------------------------------------
 
 -----------------------------------------------------------------
                    Cartesian Multipole Moments
 -----------------------------------------------------------------
    Charge (ESU x 10^10)
                 0.0000
    Dipole Moment (Debye)
         X      -1.1154      Y      -0.4663      Z       1.1942
       Tot       1.6993
    Quadrupole Moments (Debye-Ang)
        XX     -12.4346     XY      -0.3785     YY     -19.1460
        XZ      -3.1009     YZ      -0.5023     ZZ     -20.0474
    Octopole Moments (Debye-Ang^2)
       XXX     216.2370    XXY      -4.4887    XYY      81.2241
       YYY     -37.6679    XXZ       7.6505    XYZ       2.0393
       YYZ      -0.7477    XZZ      85.5079    YZZ     -13.0799
       ZZZ      -0.2338
    Hexadecapole Moments (Debye-Ang^3)
      XXXX   -2143.8908   XXXY      98.5050   XXYY    -388.8767
      XYYY     154.0923   YYYY    -105.1591   XXXZ     -13.2504
      XXYZ      -8.2316   XYYZ       4.7779   YYYZ      -4.2855
      XXZZ    -397.5856   XYZZ      54.1831   YYZZ     -23.0615
      XZZZ       7.9641   YZZZ      -1.4780   ZZZZ     -36.9067
 -----------------------------------------------------------------
Archival summary:
1\1\centos77-c7\SP\ProcedureUnspecified\BasisUnspecified\126\shihchen\MonJul2714:36:492020MonJul2714:36:492020\0\\#,ProcedureUnspecified,BasisUnspecified,\\0,1\C\H,1,1.08982\H,1,1.09641,2,106.99\O,1,1.38083,2,107.567,3,-114.999,0\H,4,0.956798,1,107.68,2,178.342,0\C,1,1.51192,2,110.485,3,118.935,0\H,6,1.08928,1,114.61,2,-54.8029,0\H,6,1.09138,1,105.888,2,64.7513,0\H,6,1.09239,1,111.374,2,-179.642,0\\\@

 Total job time:  10.96s(wall), 56.41s(cpu) 
 Mon Jul 27 14:36:49 2020

        *************************************************************
        *                                                           *
        *  Thank you very much for using Q-Chem.  Have a nice day.  *
        *                                                           *
        *************************************************************


