                  Welcome to Q-Chem
     A Quantum Leap Into The Future Of Chemistry


 Q-Chem 5.3 (devel), Q-Chem, Inc., Pleasanton, CA (2020)

 Yihan Shao,  Zhengting Gan,  E. Epifanovsky,  A. T. B. Gilbert,  M. Wormit,  
 J. Kussmann,  A. W. Lange,  A. Behn,  Jia Deng,  Xintian Feng,  D. Ghosh,  
 M. Goldey,  P. R. Horn,  L. D. Jacobson,  I. Kaliman,  T. Kus,  A. Landau,  
 Jie Liu,  E. I. Proynov,  R. M. Richard,  R. P. Steele,  E. J. Sundstrom,  
 H. L. Woodcock III,  P. M. Zimmerman,  D. Zuev,  B. Alam,  B. Albrecht,  
 E. Alguire,  S. A. Baeppler,  D. Barton,  Z. Benda,  Y. A. Bernard,  
 E. J. Berquist,  K. B. Bravaya,  H. Burton,  K. Carter-Fenk,  D. Casanova,  
 Chun-Min Chang,  Yunqing Chen,  A. Chien,  K. D. Closser,  M. P. Coons,  
 S. Coriani,  S. Dasgupta,  A. L. Dempwolff,  M. Diedenhofen,  Hainam Do,  
 R. G. Edgar,  Po-Tung Fang,  S. Faraji,  S. Fatehi,  Qingguo Feng,  
 J. Fosso-Tande,  J. Gayvert,  Qinghui Ge,  A. Ghysels,  G. Gidofalvi,  
 J. Gomes,  J. Gonthier,  A. Gunina,  D. Hait,  M. W. D. Hanson-Heine,  
 P. H. P. Harbach,  A. W. Hauser,  M. F. Herbst,  J. E. Herr,  
 E. G. Hohenstein,  Z. C. Holden,  Kerwin Hui,  B. C. Huynh,  T.-C. Jagau,  
 Hyunjun Ji,  B. Kaduk,  K. Khistyaev,  Jaehoon Kim,  P. Klunzinger,  K. Koh,  
 D. Kosenkov,  L. Koulias,  T. Kowalczyk,  C. M. Krauter,  A. Kunitsa,  
 Ka Un Lao,  A. Laurent,  K. V. Lawler,  Joonho Lee,  D. Lefrancois,  
 S. Lehtola,  D. S. Levine,  Yi-Pei Li,  You-Sheng Lin,  Fenglai Liu,  
 Kuan-Yu Liu,  E. Livshits,  M. Loipersberger,  A. Luenser,  P. Manohar,  
 E. Mansoor,  S. F. Manzer,  Shan-Ping Mao,  Yuezhi Mao,  N. Mardirossian,  
 A. V. Marenich,  T. Markovich,  L. A. Martinez-Martinez,  S. A. Maurer,  
 N. J. Mayhall,  S. C. McKenzie,  J.-M. Mewes,  P. Morgante,  A. F. Morrison,  
 J. W. Mullinax,  K. Nanda,  T. S. Nguyen-Beck,  R. Olivares-Amaya,  
 K. J. Oosterbaan,  J. A. Parkhill,  S. K. Paul,  F. Pavosevic,  Zheng Pei,  
 T. M. Perrine,  F. Plasser,  P. Pokhilko,  S. Prager,  A. Prociuk,  
 E. Ramos,  B. Rana,  D. R. Rehn,  F. Rob,  M. Scheurer,  M. Schneider,  
 N. Sergueev,  S. M. Sharada,  S. Sharma,  D. W. Small,  T. Stauch,  
 C. J. Stein,  T. Stein,  Yu-Chuan Su,  S. P. Veccham,  Zhen Tao,  
 A. J. W. Thom,  A. Tkatchenko,  T. Tsuchimochi,  N. M. Tubman,  L. Vogt,  
 M. L. Vidal,  O. Vydrov,  M. A. Watson,  J. Wenzel,  M. de Wergifosse,  
 T. A. Wesolowski,  A. White,  J. Witte,  A. Yamada,  Jun Yang,  K. Yao,  
 S. Yeganeh,  S. R. Yost,  Zhi-Qiang You,  A. Zech,  Igor Ying Zhang,  
 Xing Zhang,  Yan Zhao,  Ying Zhu,  B. R. Brooks,  G. K. L. Chan,  
 C. J. Cramer,  M. S. Gordon,  W. J. Hehre,  A. Klamt,  M. W. Schmidt,  
 C. D. Sherrill,  D. G. Truhlar,  A. Aspuru-Guzik,  R. Baer,  A. T. Bell,  
 N. A. Besley,  Jeng-Da Chai,  A. E. DePrince, III,  R. A. DiStasio Jr.,  
 A. Dreuw,  B. D. Dunietz,  T. R. Furlani,  Chao-Ping Hsu,  Yousung Jung,  
 Jing Kong,  D. S. Lambrecht,  WanZhen Liang,  C. Ochsenfeld,  
 V. A. Rassolov,  L. V. Slipchenko,  J. E. Subotnik,  T. Van Voorhis,  
 J. M. Herbert,  A. I. Krylov,  P. M. W. Gill,  M. Head-Gordon

 Contributors to earlier versions of Q-Chem not listed above: 
 R. D. Adamson,  B. Austin,  J. Baker,  G. J. O. Beran,  K. Brandhorst,  
 S. T. Brown,  E. F. C. Byrd,  A. K. Chakraborty,  C.-L. Cheng,  
 Siu Hung Chien,  D. M. Chipman,  D. L. Crittenden,  H. Dachsel,  
 R. J. Doerksen,  A. D. Dutoi,  L. Fusti-Molnar,  W. A. Goddard III,  
 A. Golubeva-Zadorozhnaya,  S. R. Gwaltney,  G. Hawkins,  A. Heyden,  
 S. Hirata,  G. Kedziora,  F. J. Keil,  C. Kelley,  Jihan Kim,  R. A. King,  
 R. Z. Khaliullin,  P. P. Korambath,  W. Kurlancheek,  A. M. Lee,  M. S. Lee,  
 S. V. Levchenko,  Ching Yeh Lin,  D. Liotard,  R. C. Lochan,  I. Lotan,  
 P. E. Maslen,  N. Nair,  D. P. O'Neill,  D. Neuhauser,  E. Neuscamman,  
 C. M. Oana,  R. Olson,  B. Peters,  R. Peverati,  P. A. Pieniazek,  
 Y. M. Rhee,  J. Ritchie,  M. A. Rohrdanz,  E. Rosta,  N. J. Russ,  
 H. F. Schaefer III,  N. E. Schultz,  N. Shenvi,  A. C. Simmonett,  A. Sodt,  
 D. Stuck,  K. S. Thanthiriwatte,  V. Vanovschi,  Tao Wang,  A. Warshel,  
 C. F. Williams,  Q. Wu,  X. Xu,  W. Zhang

 Please cite Q-Chem as follows:
 Y. Shao et al., Mol. Phys. 113, 184-215 (2015)
 DOI: 10.1080/00268976.2014.952696

 Q-Chem 5.3.0 for Intel X86 EM64T Linux

 Parts of Q-Chem use Armadillo 9.800.1 (Horizon Scraper).
 http://arma.sourceforge.net/

 Q-Chem begins on Mon Jul 27 14:33:16 2020  

Host: centos77-c7
0

     Scratch files written to /tmp/29924.centos77-h1/qchem106577//
Processing $rem in /opt/qchem-5.3.0-intel2020u1//config/preferences:
Processing $rem in /home/shihchengli/.qchemrc:

Checking the input file for inconsistencies... 	...done.

--------------------------------------------------------------
User input:
--------------------------------------------------------------
$rem
   JOBTYPE  sp
   EXCHANGE   omegaB97X-D
   BASIS   6-311+G(2df,2pd)
   UNRESTRICTED   False
   max_scf_cycles   250
   geom_opt_max_cycles   1500
   basis2 6-31G*
   scf_algorithm rca_diis
   SYM_IGNORE  TRUE
   print_input   true
   geom_opt_dmax   80
   pop_mulliken false
   XC_GRID 000075000302
$end

$molecule
0 1
C       -5.4370168912     0.4819653604     0.0371774055
C       -4.2547320493     1.1050514226     0.1879338270
H       -5.3895160865     -0.0166072899     -0.9285308041
H       -6.4267536408     0.8292500647     0.3068359496
H       -5.0945804206     -0.3119556910     0.7077326360
O       -3.0441501181     0.4221842061     -0.1819098981
H       -4.2485392719     1.6155624908     1.1537316419
H       -4.0921755149     1.8409640206     -0.5969631106
H       -2.6153460066     -0.3491945843     0.1843023528
$end
--------------------------------------------------------------
 ----------------------------------------------------------------
             Standard Nuclear Orientation (Angstroms)
    I     Atom           X                Y                Z
 ----------------------------------------------------------------
    1      C      -5.4370168912     0.4819653604     0.0371774055
    2      C      -4.2547320493     1.1050514226     0.1879338270
    3      H      -5.3895160865    -0.0166072899    -0.9285308041
    4      H      -6.4267536408     0.8292500647     0.3068359496
    5      H      -5.0945804206    -0.3119556910     0.7077326360
    6      O      -3.0441501181     0.4221842061    -0.1819098981
    7      H      -4.2485392719     1.6155624908     1.1537316419
    8      H      -4.0921755149     1.8409640206    -0.5969631106
    9      H      -2.6153460066    -0.3491945843     0.1843023528
 ----------------------------------------------------------------
 Nuclear Repulsion Energy =          84.40263264 hartrees
 There are       13 alpha and       13 beta electrons
 Requested basis set is 6-311+G(2df,2pd)
 There are 60 shells and 186 basis functions

 Total QAlloc Memory Limit   2000 MB
 Mega-Array Size       188 MB
 MEM_STATIC part       192 MB

                       Distance Matrix (Angstroms)
             C (  1)   C (  2)   H (  3)   H (  4)   H (  5)   O (  6)
   C (  2)  1.344902
   H (  3)  1.087853  1.947395
   H (  4)  1.083006  2.192688  1.821392
   H (  5)  1.094174  1.727265  1.688661  1.799376
   O (  6)  2.403619  1.438263  2.500144  3.441886  2.352592
   H (  7)  1.986005  1.092440  2.881254  2.465793  2.151750  2.158389
   H (  8)  2.014351  1.088143  2.289891  2.700125  2.709633  1.812060
   H (  9)  2.945216  2.191445  3.007496  3.991312  2.534160  0.955515
             H (  7)   H (  8)
   H (  8)  1.772057
   H (  9)  2.732651  2.754668
 
 A cutoff of  1.0D-09 yielded   1795 shell pairs
 There are     17381 function pairs (     21572 Cartesian)
 Smallest overlap matrix eigenvalue = 7.93E-05

 Scale SEOQF with 1.000000e-02/1.000000e-01/1.000000e-01

 Standard Electronic Orientation quadrupole field applied
 Nucleus-field energy     =     0.0000000026 hartrees
 Requested basis set is 6-31G(d)
 There are 24 shells and 54 basis functions
 A cutoff of  1.0D-09 yielded    298 shell pairs
 There are      1549 function pairs (      1732 Cartesian)
 Smallest overlap matrix eigenvalue = 4.44E-03
 Guess from superposition of atomic densities
 Warning:  Energy on first SCF cycle will be non-variational
 SAD guess density has 26.000000 electrons
 Long-range K will be added via erf
 Coulomb attenuation parameter = 0.2 bohr**(-1)
 A restricted hybrid HF-DFT SCF calculation will be
 performed using Relaxed Constraint Minimization + Pulay DIIS
 Exchange:     0.2220 Hartree-Fock + 1.0000 wB97X-D + LR-HF
 Correlation:  1.0000 wB97X-D
 Using Euler-Maclaurin-Lebedev (75,302) quadrature formula
 Dispersion:   Grimme D
 SCF converges when DIIS error is below 1.0E-04
 using 6 threads for integral computing
 -------------------------------------------------------
 OpenMP Integral computing Module                
 Release: version 1.0, May 2013, Q-Chem Inc. Pittsburgh 
 -------------------------------------------------------
 using 6 threads for integral computing
 -------------------------------------------------------
 OpenMP Integral computing Module                
 Release: version 1.0, May 2013, Q-Chem Inc. Pittsburgh 
 -------------------------------------------------------
 ---------------------------------------
  Cycle       Energy         DIIS Error
 ---------------------------------------
    1    -155.7077763250      1.16E-01
    2    -154.8484128696      1.43E-02
    3    -154.8806055061      3.23E-03
    4    -154.9092350799      2.70E-03
    5    -154.9101345242      2.37E-04 Done RCA. Switching to DIIS
    6    -154.9111523078      1.41E-04
    7    -154.9111581463      1.78E-05 Convergence criterion met
 ---------------------------------------
 SCF time:  CPU 14.42 s  wall 2.42 s
 SCF   energy in the small basis set = -154.91115815
 Total energy in the small basis set = -154.91115815
 ----------------------------------------------------
  Cycle       Energy    
 ----------------------------------------------------
    1     -18.8273933523     -1.88E+01
 Long-range K will be added via erf
 Coulomb attenuation parameter = 0.2 bohr**(-1)
 A restricted hybrid HF-DFT SCF calculation will be
 performed using Relaxed Constraint Minimization + Pulay DIIS
 Exchange:     0.2220 Hartree-Fock + 1.0000 wB97X-D + LR-HF
 Correlation:  1.0000 wB97X-D
 Using Euler-Maclaurin-Lebedev (75,302) quadrature formula
 Dispersion:   Grimme D
 SCF converges when DIIS error is below 1.0E-05
 Basis2 calculation detected. Using small basis as guess for larger.
 SCFMinFind is unable to tell whether the solution found is close.
 Resetting ReadMinima to 0 and attempting to follow guess.
 SCFMinFind following SCF Guess.
 using 6 threads for integral computing
 -------------------------------------------------------
 OpenMP Integral computing Module                
 Release: version 1.0, May 2013, Q-Chem Inc. Pittsburgh 
 -------------------------------------------------------
 using 6 threads for integral computing
 -------------------------------------------------------
 OpenMP Integral computing Module                
 Release: version 1.0, May 2013, Q-Chem Inc. Pittsburgh 
 -------------------------------------------------------
 ---------------------------------------
  Cycle       Energy         DIIS Error
 ---------------------------------------
    1    -154.9435484722      5.79E-03
    2    -154.9574478109      3.17E-03
    3    -154.9692424323      4.10E-04 Done RCA. Switching to DIIS
    4    -154.9836651032      3.21E-04
    5    -154.9839688859      4.55E-05
    6    -154.9839795065      6.77E-06 Convergence criterion met
 ---------------------------------------
 SCF time:  CPU 40.11 s  wall 6.71 s
 SCF   energy in the final basis set = -154.98397951
 Total energy in the final basis set = -154.98397951
 
 --------------------------------------------------------------
 
                    Orbital Energies (a.u.)
 --------------------------------------------------------------
 
 Alpha MOs
 -- Occupied --
-19.2398 -10.3206 -10.2622  -1.1128  -0.9005  -0.7230  -0.6118  -0.5695
 -0.5459  -0.4565  -0.4283  -0.3777  -0.3698
 -- Virtual --
  0.0679   0.0884   0.0919   0.0992   0.1176   0.1365   0.1382   0.1857
  0.1948   0.2058   0.2283   0.2501   0.2662   0.2750   0.2904   0.3140
  0.3303   0.3419   0.3757   0.4017   0.4595   0.4888   0.5061   0.5263
  0.5605   0.5712   0.5875   0.6004   0.6320   0.6666   0.6892   0.6986
  0.7274   0.7533   0.8069   0.8412   0.8457   0.8979   0.9290   0.9648
  0.9882   1.0497   1.0846   1.1068   1.1418   1.1956   1.2045   1.2169
  1.2659   1.3015   1.3199   1.3416   1.3463   1.3851   1.3983   1.4119
  1.4336   1.4423   1.4817   1.4976   1.5155   1.5668   1.5948   1.6351
  1.7265   1.7656   1.9001   1.9867   2.1212   2.2580   2.2686   2.4348
  2.5301   2.5512   2.6367   2.6485   2.7131   2.7579   2.8577   2.9450
  2.9557   2.9969   3.0097   3.0606   3.0711   3.0733   3.0916   3.1182
  3.1667   3.2097   3.2322   3.2382   3.3009   3.3407   3.3467   3.3626
  3.4031   3.4063   3.4524   3.4635   3.5384   3.5543   3.5744   3.5934
  3.6046   3.6556   3.6892   3.6932   3.7553   3.7947   3.8189   3.8455
  3.8925   3.9316   3.9639   4.0096   4.0176   4.0800   4.0975   4.1297
  4.1560   4.2065   4.2390   4.2605   4.2947   4.3111   4.3396   4.4204
  4.4602   4.5109   4.5982   4.6516   4.6956   4.7650   4.7842   4.8458
  4.8674   4.9926   5.0212   5.0284   5.0947   5.1397   5.1710   5.2308
  5.2553   5.2708   5.3267   5.3417   5.3625   5.4088   5.4510   5.5025
  5.5662   5.6697   5.8141   5.9041   6.1108   6.2349   6.3737   6.4159
  6.4903   6.5629   6.7553   6.9701   7.0998   7.1705   7.4436   7.4725
  7.8734   8.2657  25.2246  25.6911  50.4866
 --------------------------------------------------------------
 
 -----------------------------------------------------------------
                    Cartesian Multipole Moments
 -----------------------------------------------------------------
    Charge (ESU x 10^10)
                 0.0000
    Dipole Moment (Debye)
         X      -0.9606      Y      -0.6139      Z       1.0770
       Tot       1.5683
    Quadrupole Moments (Debye-Ang)
        XX     -11.5552     XY      -0.7061     YY     -19.8351
        XZ      -3.3690     YZ       0.2329     ZZ     -20.1508
    Octopole Moments (Debye-Ang^2)
       XXX     201.9049    XXY       0.8145    XYY      85.3315
       YYY     -39.5784    XXZ      10.9545    XYZ      -1.6351
       YYZ      -0.4368    XZZ      86.5639    YZZ     -12.6476
       ZZZ      -1.7955
    Hexadecapole Moments (Debye-Ang^3)
      XXXX   -2025.2228   XXXY      65.1738   XXYY    -409.7795
      XYYY     170.4071   YYYY    -104.0027   XXXZ     -34.1498
      XXYZ       9.5186   XYYZ       2.9771   YYYZ      -4.0318
      XXZZ    -405.2436   XYZZ      54.6684   YYZZ     -21.8044
      XZZZ      13.4368   YZZZ      -3.3091   ZZZZ     -36.9523
 -----------------------------------------------------------------
Archival summary:
1\1\centos77-c7\SP\ProcedureUnspecified\BasisUnspecified\126\shihchen\MonJul2714:33:272020MonJul2714:33:272020\0\\#,ProcedureUnspecified,BasisUnspecified,\\0,1\C\H,1,1.08814\H,1,1.09244,2,108.712\C,1,1.3449,2,111.334,3,119.713,0\H,4,1.08301,1,128.822,2,-79.7762,0\H,4,1.08785,1,105.87,2,60.8536,0\H,4,1.09417,1,89.5613,2,162.595,0\O,1,1.43826,2,90.5658,3,-118.204,0\H,8,0.955515,1,131.488,2,178.626,0\\\@

 Total job time:  11.39s(wall), 58.52s(cpu) 
 Mon Jul 27 14:33:27 2020

        *************************************************************
        *                                                           *
        *  Thank you very much for using Q-Chem.  Have a nice day.  *
        *                                                           *
        *************************************************************


