                  Welcome to Q-Chem
     A Quantum Leap Into The Future Of Chemistry


 Q-Chem 5.3 (devel), Q-Chem, Inc., Pleasanton, CA (2020)

 Yihan Shao,  Zhengting Gan,  E. Epifanovsky,  A. T. B. Gilbert,  M. Wormit,  
 J. Kussmann,  A. W. Lange,  A. Behn,  Jia Deng,  Xintian Feng,  D. Ghosh,  
 M. Goldey,  P. R. Horn,  L. D. Jacobson,  I. Kaliman,  T. Kus,  A. Landau,  
 Jie Liu,  E. I. Proynov,  R. M. Richard,  R. P. Steele,  E. J. Sundstrom,  
 H. L. Woodcock III,  P. M. Zimmerman,  D. Zuev,  B. Alam,  B. Albrecht,  
 E. Alguire,  S. A. Baeppler,  D. Barton,  Z. Benda,  Y. A. Bernard,  
 E. J. Berquist,  K. B. Bravaya,  H. Burton,  K. Carter-Fenk,  D. Casanova,  
 Chun-Min Chang,  Yunqing Chen,  A. Chien,  K. D. Closser,  M. P. Coons,  
 S. Coriani,  S. Dasgupta,  A. L. Dempwolff,  M. Diedenhofen,  Hainam Do,  
 R. G. Edgar,  Po-Tung Fang,  S. Faraji,  S. Fatehi,  Qingguo Feng,  
 J. Fosso-Tande,  J. Gayvert,  Qinghui Ge,  A. Ghysels,  G. Gidofalvi,  
 J. Gomes,  J. Gonthier,  A. Gunina,  D. Hait,  M. W. D. Hanson-Heine,  
 P. H. P. Harbach,  A. W. Hauser,  M. F. Herbst,  J. E. Herr,  
 E. G. Hohenstein,  Z. C. Holden,  Kerwin Hui,  B. C. Huynh,  T.-C. Jagau,  
 Hyunjun Ji,  B. Kaduk,  K. Khistyaev,  Jaehoon Kim,  P. Klunzinger,  K. Koh,  
 D. Kosenkov,  L. Koulias,  T. Kowalczyk,  C. M. Krauter,  A. Kunitsa,  
 Ka Un Lao,  A. Laurent,  K. V. Lawler,  Joonho Lee,  D. Lefrancois,  
 S. Lehtola,  D. S. Levine,  Yi-Pei Li,  You-Sheng Lin,  Fenglai Liu,  
 Kuan-Yu Liu,  E. Livshits,  M. Loipersberger,  A. Luenser,  P. Manohar,  
 E. Mansoor,  S. F. Manzer,  Shan-Ping Mao,  Yuezhi Mao,  N. Mardirossian,  
 A. V. Marenich,  T. Markovich,  L. A. Martinez-Martinez,  S. A. Maurer,  
 N. J. Mayhall,  S. C. McKenzie,  J.-M. Mewes,  P. Morgante,  A. F. Morrison,  
 J. W. Mullinax,  K. Nanda,  T. S. Nguyen-Beck,  R. Olivares-Amaya,  
 K. J. Oosterbaan,  J. A. Parkhill,  S. K. Paul,  F. Pavosevic,  Zheng Pei,  
 T. M. Perrine,  F. Plasser,  P. Pokhilko,  S. Prager,  A. Prociuk,  
 E. Ramos,  B. Rana,  D. R. Rehn,  F. Rob,  M. Scheurer,  M. Schneider,  
 N. Sergueev,  S. M. Sharada,  S. Sharma,  D. W. Small,  T. Stauch,  
 C. J. Stein,  T. Stein,  Yu-Chuan Su,  S. P. Veccham,  Zhen Tao,  
 A. J. W. Thom,  A. Tkatchenko,  T. Tsuchimochi,  N. M. Tubman,  L. Vogt,  
 M. L. Vidal,  O. Vydrov,  M. A. Watson,  J. Wenzel,  M. de Wergifosse,  
 T. A. Wesolowski,  A. White,  J. Witte,  A. Yamada,  Jun Yang,  K. Yao,  
 S. Yeganeh,  S. R. Yost,  Zhi-Qiang You,  A. Zech,  Igor Ying Zhang,  
 Xing Zhang,  Yan Zhao,  Ying Zhu,  B. R. Brooks,  G. K. L. Chan,  
 C. J. Cramer,  M. S. Gordon,  W. J. Hehre,  A. Klamt,  M. W. Schmidt,  
 C. D. Sherrill,  D. G. Truhlar,  A. Aspuru-Guzik,  R. Baer,  A. T. Bell,  
 N. A. Besley,  Jeng-Da Chai,  A. E. DePrince, III,  R. A. DiStasio Jr.,  
 A. Dreuw,  B. D. Dunietz,  T. R. Furlani,  Chao-Ping Hsu,  Yousung Jung,  
 Jing Kong,  D. S. Lambrecht,  WanZhen Liang,  C. Ochsenfeld,  
 V. A. Rassolov,  L. V. Slipchenko,  J. E. Subotnik,  T. Van Voorhis,  
 J. M. Herbert,  A. I. Krylov,  P. M. W. Gill,  M. Head-Gordon

 Contributors to earlier versions of Q-Chem not listed above: 
 R. D. Adamson,  B. Austin,  J. Baker,  G. J. O. Beran,  K. Brandhorst,  
 S. T. Brown,  E. F. C. Byrd,  A. K. Chakraborty,  C.-L. Cheng,  
 Siu Hung Chien,  D. M. Chipman,  D. L. Crittenden,  H. Dachsel,  
 R. J. Doerksen,  A. D. Dutoi,  L. Fusti-Molnar,  W. A. Goddard III,  
 A. Golubeva-Zadorozhnaya,  S. R. Gwaltney,  G. Hawkins,  A. Heyden,  
 S. Hirata,  G. Kedziora,  F. J. Keil,  C. Kelley,  Jihan Kim,  R. A. King,  
 R. Z. Khaliullin,  P. P. Korambath,  W. Kurlancheek,  A. M. Lee,  M. S. Lee,  
 S. V. Levchenko,  Ching Yeh Lin,  D. Liotard,  R. C. Lochan,  I. Lotan,  
 P. E. Maslen,  N. Nair,  D. P. O'Neill,  D. Neuhauser,  E. Neuscamman,  
 C. M. Oana,  R. Olson,  B. Peters,  R. Peverati,  P. A. Pieniazek,  
 Y. M. Rhee,  J. Ritchie,  M. A. Rohrdanz,  E. Rosta,  N. J. Russ,  
 H. F. Schaefer III,  N. E. Schultz,  N. Shenvi,  A. C. Simmonett,  A. Sodt,  
 D. Stuck,  K. S. Thanthiriwatte,  V. Vanovschi,  Tao Wang,  A. Warshel,  
 C. F. Williams,  Q. Wu,  X. Xu,  W. Zhang

 Please cite Q-Chem as follows:
 Y. Shao et al., Mol. Phys. 113, 184-215 (2015)
 DOI: 10.1080/00268976.2014.952696

 Q-Chem 5.3.0 for Intel X86 EM64T Linux

 Parts of Q-Chem use Armadillo 9.800.1 (Horizon Scraper).
 http://arma.sourceforge.net/

 Q-Chem begins on Mon Jul 27 14:46:37 2020  

Host: centos77-c7
0

     Scratch files written to /tmp/29924.centos77-h1/qchem109861//
Processing $rem in /opt/qchem-5.3.0-intel2020u1//config/preferences:
Processing $rem in /home/shihchengli/.qchemrc:

Checking the input file for inconsistencies... 	...done.

--------------------------------------------------------------
User input:
--------------------------------------------------------------
$rem
   JOBTYPE  sp
   EXCHANGE   omegaB97X-D
   BASIS   6-311+G(2df,2pd)
   UNRESTRICTED   False
   max_scf_cycles   250
   geom_opt_max_cycles   1500
   basis2 6-31G*
   scf_algorithm rca_diis
   SYM_IGNORE  TRUE
   print_input   true
   geom_opt_dmax   80
   pop_mulliken false
   XC_GRID 000075000302
$end

$molecule
0 1
C       -5.3727763278     0.3031122760     0.0575937376
C       -4.1329525958     1.1753257277     0.1357234448
H       -5.5626293911     -0.0689486421     -0.9508677656
H       -6.2716610573     0.9025067742     0.2087203494
H       -5.2358041577     -0.5438734730     0.7294768899
O       -2.9532244232     0.4904884873     -0.2433903635
H       -4.0283163559     1.5994057786     1.1412069789
H       -4.2082470952     2.0041323293     -0.5668537109
H       -2.8371985960     -0.2449292580     0.3587004396
$end
--------------------------------------------------------------
 ----------------------------------------------------------------
             Standard Nuclear Orientation (Angstroms)
    I     Atom           X                Y                Z
 ----------------------------------------------------------------
    1      C      -5.3727763278     0.3031122760     0.0575937376
    2      C      -4.1329525958     1.1753257277     0.1357234448
    3      H      -5.5626293911    -0.0689486421    -0.9508677656
    4      H      -6.2716610573     0.9025067742     0.2087203494
    5      H      -5.2358041577    -0.5438734730     0.7294768899
    6      O      -2.9532244232     0.4904884873    -0.2433903635
    7      H      -4.0283163559     1.5994057786     1.1412069789
    8      H      -4.2082470952     2.0041323293    -0.5668537109
    9      H      -2.8371985960    -0.2449292580     0.3587004396
 ----------------------------------------------------------------
 Nuclear Repulsion Energy =          81.93496574 hartrees
 There are       13 alpha and       13 beta electrons
 Requested basis set is 6-311+G(2df,2pd)
 There are 60 shells and 186 basis functions

 Total QAlloc Memory Limit   2000 MB
 Mega-Array Size       188 MB
 MEM_STATIC part       192 MB

                       Distance Matrix (Angstroms)
             C (  1)   C (  2)   H (  3)   H (  4)   H (  5)   O (  6)
   C (  2)  1.517901
   H (  3)  1.091544  2.184691
   H (  4)  1.090920  2.157274  1.670657
   H (  5)  1.089758  2.127080  1.776493  1.853700
   O (  6)  2.445390  1.415799  2.760885  3.374342  2.688224
   H (  7)  2.159205  1.096262  3.084526  2.527409  2.494232  2.074278
   H (  8)  2.153957  1.089130  2.505890  2.464299  3.037874  1.992694
   H (  9)  2.611545  1.935412  3.028846  3.624174  2.445435  0.957504
             H (  7)   H (  8)
   H (  8)  1.764554
   H (  9)  2.330805  2.791899
 
 A cutoff of  1.0D-09 yielded   1784 shell pairs
 There are     17302 function pairs (     21487 Cartesian)
 Smallest overlap matrix eigenvalue = 1.34E-04

 Scale SEOQF with 1.000000e-02/1.000000e-01/1.000000e-01

 Standard Electronic Orientation quadrupole field applied
 Nucleus-field energy     =     0.0000000026 hartrees
 Requested basis set is 6-31G(d)
 There are 24 shells and 54 basis functions
 A cutoff of  1.0D-09 yielded    298 shell pairs
 There are      1549 function pairs (      1732 Cartesian)
 Smallest overlap matrix eigenvalue = 7.14E-03
 Guess from superposition of atomic densities
 Warning:  Energy on first SCF cycle will be non-variational
 SAD guess density has 26.000000 electrons
 Long-range K will be added via erf
 Coulomb attenuation parameter = 0.2 bohr**(-1)
 A restricted hybrid HF-DFT SCF calculation will be
 performed using Relaxed Constraint Minimization + Pulay DIIS
 Exchange:     0.2220 Hartree-Fock + 1.0000 wB97X-D + LR-HF
 Correlation:  1.0000 wB97X-D
 Using Euler-Maclaurin-Lebedev (75,302) quadrature formula
 Dispersion:   Grimme D
 SCF converges when DIIS error is below 1.0E-04
 using 6 threads for integral computing
 -------------------------------------------------------
 OpenMP Integral computing Module                
 Release: version 1.0, May 2013, Q-Chem Inc. Pittsburgh 
 -------------------------------------------------------
 using 6 threads for integral computing
 -------------------------------------------------------
 OpenMP Integral computing Module                
 Release: version 1.0, May 2013, Q-Chem Inc. Pittsburgh 
 -------------------------------------------------------
 ---------------------------------------
  Cycle       Energy         DIIS Error
 ---------------------------------------
    1    -155.4368303879      1.06E-01
    2    -154.9227801662      1.36E-02
    3    -154.9512595129      3.05E-03
    4    -154.9775681100      2.43E-03
    5    -154.9783086922      2.31E-04 Done RCA. Switching to DIIS
    6    -154.9791410882      1.06E-04
    7    -154.9791445858      7.73E-06 Convergence criterion met
 ---------------------------------------
 SCF time:  CPU 14.37 s  wall 2.41 s
 SCF   energy in the small basis set = -154.97914459
 Total energy in the small basis set = -154.97914459
 ----------------------------------------------------
  Cycle       Energy    
 ----------------------------------------------------
    1     -18.7511787958     -1.88E+01
 Long-range K will be added via erf
 Coulomb attenuation parameter = 0.2 bohr**(-1)
 A restricted hybrid HF-DFT SCF calculation will be
 performed using Relaxed Constraint Minimization + Pulay DIIS
 Exchange:     0.2220 Hartree-Fock + 1.0000 wB97X-D + LR-HF
 Correlation:  1.0000 wB97X-D
 Using Euler-Maclaurin-Lebedev (75,302) quadrature formula
 Dispersion:   Grimme D
 SCF converges when DIIS error is below 1.0E-05
 Basis2 calculation detected. Using small basis as guess for larger.
 SCFMinFind is unable to tell whether the solution found is close.
 Resetting ReadMinima to 0 and attempting to follow guess.
 SCFMinFind following SCF Guess.
 using 6 threads for integral computing
 -------------------------------------------------------
 OpenMP Integral computing Module                
 Release: version 1.0, May 2013, Q-Chem Inc. Pittsburgh 
 -------------------------------------------------------
 using 6 threads for integral computing
 -------------------------------------------------------
 OpenMP Integral computing Module                
 Release: version 1.0, May 2013, Q-Chem Inc. Pittsburgh 
 -------------------------------------------------------
 ---------------------------------------
  Cycle       Energy         DIIS Error
 ---------------------------------------
    1    -155.0107111434      5.72E-03
    2    -155.0261343808      2.85E-03
    3    -155.0357696143      3.50E-04 Done RCA. Switching to DIIS
    4    -155.0473463694      2.54E-04
    5    -155.0475384816      3.93E-05
    6    -155.0475463356      5.58E-06 Convergence criterion met
 ---------------------------------------
 SCF time:  CPU 39.25 s  wall 6.57 s
 SCF   energy in the final basis set = -155.04754634
 Total energy in the final basis set = -155.04754634
 
 --------------------------------------------------------------
 
                    Orbital Energies (a.u.)
 --------------------------------------------------------------
 
 Alpha MOs
 -- Occupied --
-19.2465 -10.3269 -10.2748  -1.1266  -0.8501  -0.7227  -0.5967  -0.5513
 -0.5172  -0.4701  -0.4611  -0.4089  -0.3633
 -- Virtual --
  0.0654   0.0863   0.0890   0.1026   0.1260   0.1338   0.1367   0.1810
  0.1941   0.2185   0.2397   0.2442   0.2651   0.2858   0.2890   0.3046
  0.3170   0.3307   0.3429   0.3790   0.4581   0.4950   0.4982   0.5245
  0.5670   0.5712   0.5880   0.6089   0.6128   0.6322   0.6673   0.6806
  0.6893   0.7170   0.7365   0.8054   0.8397   0.9027   0.9276   0.9461
  0.9930   1.0533   1.0577   1.1094   1.1458   1.1701   1.1853   1.1980
  1.2275   1.2384   1.2845   1.3051   1.3239   1.3646   1.3819   1.4054
  1.4514   1.4642   1.4690   1.4806   1.5043   1.5487   1.5982   1.6157
  1.6481   1.7140   1.9389   2.0470   2.1216   2.2776   2.2857   2.4605
  2.4736   2.5194   2.5449   2.5930   2.7073   2.8359   2.8521   2.8799
  2.9125   2.9657   3.0068   3.0304   3.0363   3.0476   3.0602   3.0763
  3.1049   3.1748   3.2306   3.2473   3.2683   3.2798   3.3259   3.3382
  3.3950   3.4141   3.4164   3.4404   3.5139   3.5626   3.5692   3.5758
  3.6055   3.6142   3.6493   3.6813   3.7208   3.7567   3.7882   3.8288
  3.8788   3.9139   3.9356   3.9746   3.9802   4.0258   4.0417   4.0638
  4.0726   4.1114   4.1675   4.1717   4.1972   4.2588   4.2918   4.3190
  4.3422   4.3953   4.4577   4.5312   4.5522   4.6414   4.7253   4.7787
  4.8459   4.9029   4.9386   4.9582   4.9900   5.1004   5.1504   5.1899
  5.2289   5.2437   5.2816   5.3201   5.3604   5.4057   5.4113   5.4950
  5.5756   5.5965   5.6785   5.8292   5.9299   6.0321   6.3189   6.4006
  6.4129   6.6531   6.6974   6.8220   7.1301   7.3622   7.4237   7.5621
  7.7099   8.1104  25.1742  25.4328  50.4659
 --------------------------------------------------------------
 
 -----------------------------------------------------------------
                    Cartesian Multipole Moments
 -----------------------------------------------------------------
    Charge (ESU x 10^10)
                 0.0000
    Dipole Moment (Debye)
         X      -1.1958      Y      -0.3917      Z       1.1985
       Tot       1.7378
    Quadrupole Moments (Debye-Ang)
        XX     -11.8425     XY      -0.8114     YY     -18.9496
        XZ      -2.7199     YZ      -0.4227     ZZ     -20.0125
    Octopole Moments (Debye-Ang^2)
       XXX     212.7246    XXY      -2.2111    XYY      80.2165
       YYY     -37.0638    XXZ       3.1835    XYZ       1.8630
       YYZ      -0.5709    XZZ      85.2292    YZZ     -12.7551
       ZZZ      -0.5254
    Hexadecapole Moments (Debye-Ang^3)
      XXXX   -2125.9945   XXXY      86.6932   XXYY    -384.0833
      XYYY     151.3602   YYYY    -104.8531   XXXZ      24.4490
      XXYZ      -8.7764   XYYZ       4.0767   YYYZ      -4.2955
      XXZZ    -396.1400   XYZZ      52.8221   YYZZ     -22.6049
      XZZZ       9.0635   YZZZ      -1.9302   ZZZZ     -37.0084
 -----------------------------------------------------------------
Archival summary:
1\1\centos77-c7\SP\ProcedureUnspecified\BasisUnspecified\126\shihchen\MonJul2714:46:482020MonJul2714:46:482020\0\\#,ProcedureUnspecified,BasisUnspecified,\\0,1\C\H,1,1.08913\H,1,1.09626,2,107.691\O,1,1.4158,2,104.653,3,-117.813,0\H,4,0.957504,1,107.705,2,179.183,0\C,1,1.5179,2,110.341,3,120.478,0\H,6,1.08976,1,108.192,2,176.747,0\H,6,1.09092,1,110.498,2,-54.7069,0\H,6,1.09154,1,112.674,2,56.0947,0\\\@

 Total job time:  11.11s(wall), 57.48s(cpu) 
 Mon Jul 27 14:46:48 2020

        *************************************************************
        *                                                           *
        *  Thank you very much for using Q-Chem.  Have a nice day.  *
        *                                                           *
        *************************************************************


