                  Welcome to Q-Chem
     A Quantum Leap Into The Future Of Chemistry


 Q-Chem 5.3 (devel), Q-Chem, Inc., Pleasanton, CA (2020)

 Yihan Shao,  Zhengting Gan,  E. Epifanovsky,  A. T. B. Gilbert,  M. Wormit,  
 J. Kussmann,  A. W. Lange,  A. Behn,  Jia Deng,  Xintian Feng,  D. Ghosh,  
 M. Goldey,  P. R. Horn,  L. D. Jacobson,  I. Kaliman,  T. Kus,  A. Landau,  
 Jie Liu,  E. I. Proynov,  R. M. Richard,  R. P. Steele,  E. J. Sundstrom,  
 H. L. Woodcock III,  P. M. Zimmerman,  D. Zuev,  B. Alam,  B. Albrecht,  
 E. Alguire,  S. A. Baeppler,  D. Barton,  Z. Benda,  Y. A. Bernard,  
 E. J. Berquist,  K. B. Bravaya,  H. Burton,  K. Carter-Fenk,  D. Casanova,  
 Chun-Min Chang,  Yunqing Chen,  A. Chien,  K. D. Closser,  M. P. Coons,  
 S. Coriani,  S. Dasgupta,  A. L. Dempwolff,  M. Diedenhofen,  Hainam Do,  
 R. G. Edgar,  Po-Tung Fang,  S. Faraji,  S. Fatehi,  Qingguo Feng,  
 J. Fosso-Tande,  J. Gayvert,  Qinghui Ge,  A. Ghysels,  G. Gidofalvi,  
 J. Gomes,  J. Gonthier,  A. Gunina,  D. Hait,  M. W. D. Hanson-Heine,  
 P. H. P. Harbach,  A. W. Hauser,  M. F. Herbst,  J. E. Herr,  
 E. G. Hohenstein,  Z. C. Holden,  Kerwin Hui,  B. C. Huynh,  T.-C. Jagau,  
 Hyunjun Ji,  B. Kaduk,  K. Khistyaev,  Jaehoon Kim,  P. Klunzinger,  K. Koh,  
 D. Kosenkov,  L. Koulias,  T. Kowalczyk,  C. M. Krauter,  A. Kunitsa,  
 Ka Un Lao,  A. Laurent,  K. V. Lawler,  Joonho Lee,  D. Lefrancois,  
 S. Lehtola,  D. S. Levine,  Yi-Pei Li,  You-Sheng Lin,  Fenglai Liu,  
 Kuan-Yu Liu,  E. Livshits,  M. Loipersberger,  A. Luenser,  P. Manohar,  
 E. Mansoor,  S. F. Manzer,  Shan-Ping Mao,  Yuezhi Mao,  N. Mardirossian,  
 A. V. Marenich,  T. Markovich,  L. A. Martinez-Martinez,  S. A. Maurer,  
 N. J. Mayhall,  S. C. McKenzie,  J.-M. Mewes,  P. Morgante,  A. F. Morrison,  
 J. W. Mullinax,  K. Nanda,  T. S. Nguyen-Beck,  R. Olivares-Amaya,  
 K. J. Oosterbaan,  J. A. Parkhill,  S. K. Paul,  F. Pavosevic,  Zheng Pei,  
 T. M. Perrine,  F. Plasser,  P. Pokhilko,  S. Prager,  A. Prociuk,  
 E. Ramos,  B. Rana,  D. R. Rehn,  F. Rob,  M. Scheurer,  M. Schneider,  
 N. Sergueev,  S. M. Sharada,  S. Sharma,  D. W. Small,  T. Stauch,  
 C. J. Stein,  T. Stein,  Yu-Chuan Su,  S. P. Veccham,  Zhen Tao,  
 A. J. W. Thom,  A. Tkatchenko,  T. Tsuchimochi,  N. M. Tubman,  L. Vogt,  
 M. L. Vidal,  O. Vydrov,  M. A. Watson,  J. Wenzel,  M. de Wergifosse,  
 T. A. Wesolowski,  A. White,  J. Witte,  A. Yamada,  Jun Yang,  K. Yao,  
 S. Yeganeh,  S. R. Yost,  Zhi-Qiang You,  A. Zech,  Igor Ying Zhang,  
 Xing Zhang,  Yan Zhao,  Ying Zhu,  B. R. Brooks,  G. K. L. Chan,  
 C. J. Cramer,  M. S. Gordon,  W. J. Hehre,  A. Klamt,  M. W. Schmidt,  
 C. D. Sherrill,  D. G. Truhlar,  A. Aspuru-Guzik,  R. Baer,  A. T. Bell,  
 N. A. Besley,  Jeng-Da Chai,  A. E. DePrince, III,  R. A. DiStasio Jr.,  
 A. Dreuw,  B. D. Dunietz,  T. R. Furlani,  Chao-Ping Hsu,  Yousung Jung,  
 Jing Kong,  D. S. Lambrecht,  WanZhen Liang,  C. Ochsenfeld,  
 V. A. Rassolov,  L. V. Slipchenko,  J. E. Subotnik,  T. Van Voorhis,  
 J. M. Herbert,  A. I. Krylov,  P. M. W. Gill,  M. Head-Gordon

 Contributors to earlier versions of Q-Chem not listed above: 
 R. D. Adamson,  B. Austin,  J. Baker,  G. J. O. Beran,  K. Brandhorst,  
 S. T. Brown,  E. F. C. Byrd,  A. K. Chakraborty,  C.-L. Cheng,  
 Siu Hung Chien,  D. M. Chipman,  D. L. Crittenden,  H. Dachsel,  
 R. J. Doerksen,  A. D. Dutoi,  L. Fusti-Molnar,  W. A. Goddard III,  
 A. Golubeva-Zadorozhnaya,  S. R. Gwaltney,  G. Hawkins,  A. Heyden,  
 S. Hirata,  G. Kedziora,  F. J. Keil,  C. Kelley,  Jihan Kim,  R. A. King,  
 R. Z. Khaliullin,  P. P. Korambath,  W. Kurlancheek,  A. M. Lee,  M. S. Lee,  
 S. V. Levchenko,  Ching Yeh Lin,  D. Liotard,  R. C. Lochan,  I. Lotan,  
 P. E. Maslen,  N. Nair,  D. P. O'Neill,  D. Neuhauser,  E. Neuscamman,  
 C. M. Oana,  R. Olson,  B. Peters,  R. Peverati,  P. A. Pieniazek,  
 Y. M. Rhee,  J. Ritchie,  M. A. Rohrdanz,  E. Rosta,  N. J. Russ,  
 H. F. Schaefer III,  N. E. Schultz,  N. Shenvi,  A. C. Simmonett,  A. Sodt,  
 D. Stuck,  K. S. Thanthiriwatte,  V. Vanovschi,  Tao Wang,  A. Warshel,  
 C. F. Williams,  Q. Wu,  X. Xu,  W. Zhang

 Please cite Q-Chem as follows:
 Y. Shao et al., Mol. Phys. 113, 184-215 (2015)
 DOI: 10.1080/00268976.2014.952696

 Q-Chem 5.3.0 for Intel X86 EM64T Linux

 Parts of Q-Chem use Armadillo 9.800.1 (Horizon Scraper).
 http://arma.sourceforge.net/

 Q-Chem begins on Mon Jul 27 14:27:02 2020  

Host: centos77-c7
0

     Scratch files written to /tmp/29924.centos77-h1/qchem105053//
Processing $rem in /opt/qchem-5.3.0-intel2020u1//config/preferences:
Processing $rem in /home/shihchengli/.qchemrc:

Checking the input file for inconsistencies... 	...done.

--------------------------------------------------------------
User input:
--------------------------------------------------------------
$rem
   JOBTYPE  sp
   EXCHANGE   omegaB97X-D
   BASIS   6-311+G(2df,2pd)
   UNRESTRICTED   False
   max_scf_cycles   250
   geom_opt_max_cycles   1500
   basis2 6-31G*
   scf_algorithm rca_diis
   SYM_IGNORE  TRUE
   print_input   true
   geom_opt_dmax   80
   pop_mulliken false
   XC_GRID 000075000302
$end

$molecule
0 1
C       -5.3168359097     0.3488210438     0.0518648647
C       -4.1556050194     1.2747299759     0.1591933183
H       -5.2629598587     -0.0420428293     -0.9637969135
H       -6.3246548953     0.7009958336     0.2625160644
H       -5.0947432617     -0.4924832035     0.7146978471
O       -3.1955174586     0.3528653541     -0.2929235738
H       -3.9129451655     1.7187863956     1.1307873057
H       -4.2012456024     2.0924682905     -0.5595534649
H       -3.1383028286     -0.3369208606     0.3675245522
$end
--------------------------------------------------------------
 ----------------------------------------------------------------
             Standard Nuclear Orientation (Angstroms)
    I     Atom           X                Y                Z
 ----------------------------------------------------------------
    1      C      -5.3168359097     0.3488210438     0.0518648647
    2      C      -4.1556050194     1.2747299759     0.1591933183
    3      H      -5.2629598587    -0.0420428293    -0.9637969135
    4      H      -6.3246548953     0.7009958336     0.2625160644
    5      H      -5.0947432617    -0.4924832035     0.7146978471
    6      O      -3.1955174586     0.3528653541    -0.2929235738
    7      H      -3.9129451655     1.7187863956     1.1307873057
    8      H      -4.2012456024     2.0924682905    -0.5595534649
    9      H      -3.1383028286    -0.3369208606     0.3675245522
 ----------------------------------------------------------------
 Nuclear Repulsion Energy =          84.65410026 hartrees
 There are       13 alpha and       13 beta electrons
 Requested basis set is 6-311+G(2df,2pd)
 There are 60 shells and 186 basis functions

 Total QAlloc Memory Limit   2000 MB
 Mega-Array Size       188 MB
 MEM_STATIC part       192 MB

                       Distance Matrix (Angstroms)
             C (  1)   C (  2)   H (  3)   H (  4)   H (  5)   O (  6)
   C (  2)  1.489055
   H (  3)  1.089608  2.054564
   H (  4)  1.088164  2.246024  1.784137
   H (  5)  1.093831  2.076923  1.746006  1.772440
   O (  6)  2.149160  1.405707  2.209150  3.197063  2.310189
   H (  7)  2.238702  1.095475  3.051285  2.757922  2.541553  2.099380
   H (  8)  2.158398  1.089668  2.418013  2.668494  3.017288  2.027017
   H (  9)  2.305621  1.917218  2.524587  3.352781  1.993085  0.956698
             H (  7)   H (  8)
   H (  8)  1.754995
   H (  9)  2.325634  2.809137
 
 A cutoff of  1.0D-09 yielded   1804 shell pairs
 There are     17477 function pairs (     21706 Cartesian)
 Smallest overlap matrix eigenvalue = 1.22E-04

 Scale SEOQF with 1.000000e-02/1.000000e-01/1.000000e-01

 Standard Electronic Orientation quadrupole field applied
 Nucleus-field energy     =     0.0000000027 hartrees
 Requested basis set is 6-31G(d)
 There are 24 shells and 54 basis functions
 A cutoff of  1.0D-09 yielded    298 shell pairs
 There are      1549 function pairs (      1732 Cartesian)
 Smallest overlap matrix eigenvalue = 7.06E-03
 Guess from superposition of atomic densities
 Warning:  Energy on first SCF cycle will be non-variational
 SAD guess density has 26.000000 electrons
 Long-range K will be added via erf
 Coulomb attenuation parameter = 0.2 bohr**(-1)
 A restricted hybrid HF-DFT SCF calculation will be
 performed using Relaxed Constraint Minimization + Pulay DIIS
 Exchange:     0.2220 Hartree-Fock + 1.0000 wB97X-D + LR-HF
 Correlation:  1.0000 wB97X-D
 Using Euler-Maclaurin-Lebedev (75,302) quadrature formula
 Dispersion:   Grimme D
 SCF converges when DIIS error is below 1.0E-04
 using 6 threads for integral computing
 -------------------------------------------------------
 OpenMP Integral computing Module                
 Release: version 1.0, May 2013, Q-Chem Inc. Pittsburgh 
 -------------------------------------------------------
 using 6 threads for integral computing
 -------------------------------------------------------
 OpenMP Integral computing Module                
 Release: version 1.0, May 2013, Q-Chem Inc. Pittsburgh 
 -------------------------------------------------------
 ---------------------------------------
  Cycle       Energy         DIIS Error
 ---------------------------------------
    1    -155.5456418265      1.10E-01
    2    -154.9043228110      1.39E-02
    3    -154.9336744941      3.00E-03
    4    -154.9615836904      2.26E-03
    5    -154.9622212399      2.30E-04 Done RCA. Switching to DIIS
    6    -154.9629333441      8.22E-05 Convergence criterion met
 ---------------------------------------
 SCF time:  CPU 13.11 s  wall 2.20 s
 SCF   energy in the small basis set = -154.96293334
 Total energy in the small basis set = -154.96293334
 ----------------------------------------------------
  Cycle       Energy    
 ----------------------------------------------------
    1     -18.7834509924     -1.88E+01
 Long-range K will be added via erf
 Coulomb attenuation parameter = 0.2 bohr**(-1)
 A restricted hybrid HF-DFT SCF calculation will be
 performed using Relaxed Constraint Minimization + Pulay DIIS
 Exchange:     0.2220 Hartree-Fock + 1.0000 wB97X-D + LR-HF
 Correlation:  1.0000 wB97X-D
 Using Euler-Maclaurin-Lebedev (75,302) quadrature formula
 Dispersion:   Grimme D
 SCF converges when DIIS error is below 1.0E-05
 Basis2 calculation detected. Using small basis as guess for larger.
 SCFMinFind is unable to tell whether the solution found is close.
 Resetting ReadMinima to 0 and attempting to follow guess.
 SCFMinFind following SCF Guess.
 using 6 threads for integral computing
 -------------------------------------------------------
 OpenMP Integral computing Module                
 Release: version 1.0, May 2013, Q-Chem Inc. Pittsburgh 
 -------------------------------------------------------
 using 6 threads for integral computing
 -------------------------------------------------------
 OpenMP Integral computing Module                
 Release: version 1.0, May 2013, Q-Chem Inc. Pittsburgh 
 -------------------------------------------------------
 ---------------------------------------
  Cycle       Energy         DIIS Error
 ---------------------------------------
    1    -154.9948577220      5.71E-03
    2    -155.0103371145      2.81E-03
    3    -155.0197496689      3.39E-04 Done RCA. Switching to DIIS
    4    -155.0310405854      2.44E-04
    5    -155.0312194776      4.00E-05
    6    -155.0312274713      6.09E-06 Convergence criterion met
 ---------------------------------------
 SCF time:  CPU 40.63 s  wall 6.80 s
 SCF   energy in the final basis set = -155.03122747
 Total energy in the final basis set = -155.03122747
 
 --------------------------------------------------------------
 
                    Orbital Energies (a.u.)
 --------------------------------------------------------------
 
 Alpha MOs
 -- Occupied --
-19.2411 -10.3257 -10.2692  -1.1364  -0.8451  -0.7260  -0.6050  -0.5525
 -0.5243  -0.4638  -0.4512  -0.4140  -0.3570
 -- Virtual --
  0.0672   0.0860   0.0881   0.1014   0.1259   0.1334   0.1341   0.1809
  0.1977   0.2136   0.2445   0.2539   0.2691   0.2785   0.3021   0.3049
  0.3188   0.3302   0.3457   0.3908   0.4590   0.4958   0.5015   0.5389
  0.5624   0.5786   0.5879   0.6019   0.6237   0.6395   0.6614   0.6892
  0.7079   0.7191   0.7495   0.8139   0.8686   0.9116   0.9300   0.9799
  1.0172   1.0407   1.0683   1.1263   1.1450   1.1713   1.1878   1.2075
  1.2367   1.2653   1.2914   1.3020   1.3383   1.3670   1.3919   1.4097
  1.4338   1.4528   1.4936   1.4977   1.5135   1.5235   1.6016   1.6228
  1.6748   1.8437   1.9669   2.0826   2.1188   2.2820   2.3043   2.4612
  2.5003   2.5473   2.6040   2.6053   2.7157   2.8311   2.8437   2.8763
  2.9220   2.9776   2.9919   3.0152   3.0388   3.0622   3.0807   3.1161
  3.1422   3.1662   3.2376   3.2632   3.2878   3.3166   3.3427   3.3648
  3.3841   3.3994   3.4561   3.4860   3.5064   3.5506   3.5689   3.5762
  3.6051   3.6213   3.6777   3.7168   3.7212   3.7720   3.8144   3.8914
  3.8979   3.9448   3.9645   3.9791   4.0037   4.0380   4.0665   4.0938
  4.1271   4.1591   4.1734   4.2058   4.2289   4.2942   4.3201   4.3820
  4.4045   4.4496   4.5126   4.5294   4.5579   4.6448   4.7484   4.7704
  4.8631   4.9418   4.9753   4.9817   5.0533   5.1377   5.1453   5.2142
  5.2286   5.2636   5.2750   5.3455   5.3616   5.3944   5.4508   5.5074
  5.6584   5.6982   5.7589   5.8909   5.9705   6.0881   6.3907   6.4250
  6.4478   6.6714   6.7177   6.8442   7.1786   7.3849   7.4654   7.6001
  7.7296   8.1587  25.1908  25.4651  50.5248
 --------------------------------------------------------------
 
 -----------------------------------------------------------------
                    Cartesian Multipole Moments
 -----------------------------------------------------------------
    Charge (ESU x 10^10)
                -0.0000
    Dipole Moment (Debye)
         X      -0.8995      Y      -0.0872      Z       1.3200
       Tot       1.5998
    Quadrupole Moments (Debye-Ang)
        XX     -14.6394     XY      -1.0726     YY     -18.2107
        XZ      -3.6171     YZ      -0.3100     ZZ     -19.8699
    Octopole Moments (Debye-Ang^2)
       XXX     235.7639    XXY      -4.4786    XYY      79.4644
       YYY     -35.7234    XXZ       9.0039    XYZ       1.3521
       YYZ      -0.2204    XZZ      85.8280    YZZ     -12.4878
       ZZZ      -0.1781
    Hexadecapole Moments (Debye-Ang^3)
      XXXX   -2277.4112   XXXY     115.3040   XXYY    -387.1395
      XYYY     151.3313   YYYY    -107.7201   XXXZ     -13.3610
      XXYZ      -6.4348   XYYZ       3.0140   YYYZ      -4.7117
      XXZZ    -399.3851   XYZZ      53.2537   YYZZ     -23.2577
      XZZZ       7.5368   YZZZ      -2.7959   ZZZZ     -37.5578
 -----------------------------------------------------------------
Archival summary:
1\1\centos77-c7\SP\ProcedureUnspecified\BasisUnspecified\126\shihchen\MonJul2714:27:132020MonJul2714:27:132020\0\\#,ProcedureUnspecified,BasisUnspecified,\\0,1\O\H,1,0.956698\C,1,1.40571,2,106.957\H,3,1.08967,1,107.975,2,177.439,0\H,3,1.09547,1,113.566,2,59.1296,0\C,3,1.48905,1,95.8349,2,-66.3591,0\H,6,1.08816,3,120.469,1,-176.166,0\H,6,1.08961,3,104.577,1,-51.8751,0\H,6,1.09383,3,106.036,1,60.1242,0\\\@

 Total job time:  11.20s(wall), 57.59s(cpu) 
 Mon Jul 27 14:27:13 2020

        *************************************************************
        *                                                           *
        *  Thank you very much for using Q-Chem.  Have a nice day.  *
        *                                                           *
        *************************************************************


