                  Welcome to Q-Chem
     A Quantum Leap Into The Future Of Chemistry


 Q-Chem 5.3 (devel), Q-Chem, Inc., Pleasanton, CA (2020)

 Yihan Shao,  Zhengting Gan,  E. Epifanovsky,  A. T. B. Gilbert,  M. Wormit,  
 J. Kussmann,  A. W. Lange,  A. Behn,  Jia Deng,  Xintian Feng,  D. Ghosh,  
 M. Goldey,  P. R. Horn,  L. D. Jacobson,  I. Kaliman,  T. Kus,  A. Landau,  
 Jie Liu,  E. I. Proynov,  R. M. Richard,  R. P. Steele,  E. J. Sundstrom,  
 H. L. Woodcock III,  P. M. Zimmerman,  D. Zuev,  B. Alam,  B. Albrecht,  
 E. Alguire,  S. A. Baeppler,  D. Barton,  Z. Benda,  Y. A. Bernard,  
 E. J. Berquist,  K. B. Bravaya,  H. Burton,  K. Carter-Fenk,  D. Casanova,  
 Chun-Min Chang,  Yunqing Chen,  A. Chien,  K. D. Closser,  M. P. Coons,  
 S. Coriani,  S. Dasgupta,  A. L. Dempwolff,  M. Diedenhofen,  Hainam Do,  
 R. G. Edgar,  Po-Tung Fang,  S. Faraji,  S. Fatehi,  Qingguo Feng,  
 J. Fosso-Tande,  J. Gayvert,  Qinghui Ge,  A. Ghysels,  G. Gidofalvi,  
 J. Gomes,  J. Gonthier,  A. Gunina,  D. Hait,  M. W. D. Hanson-Heine,  
 P. H. P. Harbach,  A. W. Hauser,  M. F. Herbst,  J. E. Herr,  
 E. G. Hohenstein,  Z. C. Holden,  Kerwin Hui,  B. C. Huynh,  T.-C. Jagau,  
 Hyunjun Ji,  B. Kaduk,  K. Khistyaev,  Jaehoon Kim,  P. Klunzinger,  K. Koh,  
 D. Kosenkov,  L. Koulias,  T. Kowalczyk,  C. M. Krauter,  A. Kunitsa,  
 Ka Un Lao,  A. Laurent,  K. V. Lawler,  Joonho Lee,  D. Lefrancois,  
 S. Lehtola,  D. S. Levine,  Yi-Pei Li,  You-Sheng Lin,  Fenglai Liu,  
 Kuan-Yu Liu,  E. Livshits,  M. Loipersberger,  A. Luenser,  P. Manohar,  
 E. Mansoor,  S. F. Manzer,  Shan-Ping Mao,  Yuezhi Mao,  N. Mardirossian,  
 A. V. Marenich,  T. Markovich,  L. A. Martinez-Martinez,  S. A. Maurer,  
 N. J. Mayhall,  S. C. McKenzie,  J.-M. Mewes,  P. Morgante,  A. F. Morrison,  
 J. W. Mullinax,  K. Nanda,  T. S. Nguyen-Beck,  R. Olivares-Amaya,  
 K. J. Oosterbaan,  J. A. Parkhill,  S. K. Paul,  F. Pavosevic,  Zheng Pei,  
 T. M. Perrine,  F. Plasser,  P. Pokhilko,  S. Prager,  A. Prociuk,  
 E. Ramos,  B. Rana,  D. R. Rehn,  F. Rob,  M. Scheurer,  M. Schneider,  
 N. Sergueev,  S. M. Sharada,  S. Sharma,  D. W. Small,  T. Stauch,  
 C. J. Stein,  T. Stein,  Yu-Chuan Su,  S. P. Veccham,  Zhen Tao,  
 A. J. W. Thom,  A. Tkatchenko,  T. Tsuchimochi,  N. M. Tubman,  L. Vogt,  
 M. L. Vidal,  O. Vydrov,  M. A. Watson,  J. Wenzel,  M. de Wergifosse,  
 T. A. Wesolowski,  A. White,  J. Witte,  A. Yamada,  Jun Yang,  K. Yao,  
 S. Yeganeh,  S. R. Yost,  Zhi-Qiang You,  A. Zech,  Igor Ying Zhang,  
 Xing Zhang,  Yan Zhao,  Ying Zhu,  B. R. Brooks,  G. K. L. Chan,  
 C. J. Cramer,  M. S. Gordon,  W. J. Hehre,  A. Klamt,  M. W. Schmidt,  
 C. D. Sherrill,  D. G. Truhlar,  A. Aspuru-Guzik,  R. Baer,  A. T. Bell,  
 N. A. Besley,  Jeng-Da Chai,  A. E. DePrince, III,  R. A. DiStasio Jr.,  
 A. Dreuw,  B. D. Dunietz,  T. R. Furlani,  Chao-Ping Hsu,  Yousung Jung,  
 Jing Kong,  D. S. Lambrecht,  WanZhen Liang,  C. Ochsenfeld,  
 V. A. Rassolov,  L. V. Slipchenko,  J. E. Subotnik,  T. Van Voorhis,  
 J. M. Herbert,  A. I. Krylov,  P. M. W. Gill,  M. Head-Gordon

 Contributors to earlier versions of Q-Chem not listed above: 
 R. D. Adamson,  B. Austin,  J. Baker,  G. J. O. Beran,  K. Brandhorst,  
 S. T. Brown,  E. F. C. Byrd,  A. K. Chakraborty,  C.-L. Cheng,  
 Siu Hung Chien,  D. M. Chipman,  D. L. Crittenden,  H. Dachsel,  
 R. J. Doerksen,  A. D. Dutoi,  L. Fusti-Molnar,  W. A. Goddard III,  
 A. Golubeva-Zadorozhnaya,  S. R. Gwaltney,  G. Hawkins,  A. Heyden,  
 S. Hirata,  G. Kedziora,  F. J. Keil,  C. Kelley,  Jihan Kim,  R. A. King,  
 R. Z. Khaliullin,  P. P. Korambath,  W. Kurlancheek,  A. M. Lee,  M. S. Lee,  
 S. V. Levchenko,  Ching Yeh Lin,  D. Liotard,  R. C. Lochan,  I. Lotan,  
 P. E. Maslen,  N. Nair,  D. P. O'Neill,  D. Neuhauser,  E. Neuscamman,  
 C. M. Oana,  R. Olson,  B. Peters,  R. Peverati,  P. A. Pieniazek,  
 Y. M. Rhee,  J. Ritchie,  M. A. Rohrdanz,  E. Rosta,  N. J. Russ,  
 H. F. Schaefer III,  N. E. Schultz,  N. Shenvi,  A. C. Simmonett,  A. Sodt,  
 D. Stuck,  K. S. Thanthiriwatte,  V. Vanovschi,  Tao Wang,  A. Warshel,  
 C. F. Williams,  Q. Wu,  X. Xu,  W. Zhang

 Please cite Q-Chem as follows:
 Y. Shao et al., Mol. Phys. 113, 184-215 (2015)
 DOI: 10.1080/00268976.2014.952696

 Q-Chem 5.3.0 for Intel X86 EM64T Linux

 Parts of Q-Chem use Armadillo 9.800.1 (Horizon Scraper).
 http://arma.sourceforge.net/

 Q-Chem begins on Mon Jul 27 14:31:57 2020  

Host: centos77-c7
0

     Scratch files written to /tmp/29924.centos77-h1/qchem106292//
Processing $rem in /opt/qchem-5.3.0-intel2020u1//config/preferences:
Processing $rem in /home/shihchengli/.qchemrc:

Checking the input file for inconsistencies... 	...done.

--------------------------------------------------------------
User input:
--------------------------------------------------------------
$rem
   JOBTYPE  sp
   EXCHANGE   omegaB97X-D
   BASIS   6-311+G(2df,2pd)
   UNRESTRICTED   False
   max_scf_cycles   250
   geom_opt_max_cycles   1500
   basis2 6-31G*
   scf_algorithm rca_diis
   SYM_IGNORE  TRUE
   print_input   true
   geom_opt_dmax   80
   pop_mulliken false
   XC_GRID 000075000302
$end

$molecule
0 1
C       -5.5425952750     0.3750226449     0.0804929353
C       -4.1027049811     1.2970228140     0.1443826392
H       -5.4203079657     -0.0592758835     -0.9152572339
H       -6.5942367818     0.5973660976     0.2488263129
H       -5.2662556374     -0.4902655627     0.6919353184
O       -2.8947009694     0.4086674926     -0.2796182959
H       -3.8559312229     1.6958771358     1.1270904335
H       -4.0613753977     2.1066884835     -0.5793151684
H       -2.8647017688     -0.3138832222     0.3517730592
$end
--------------------------------------------------------------
 ----------------------------------------------------------------
             Standard Nuclear Orientation (Angstroms)
    I     Atom           X                Y                Z
 ----------------------------------------------------------------
    1      C      -5.5425952750     0.3750226449     0.0804929353
    2      C      -4.1027049811     1.2970228140     0.1443826392
    3      H      -5.4203079657    -0.0592758835    -0.9152572339
    4      H      -6.5942367818     0.5973660976     0.2488263129
    5      H      -5.2662556374    -0.4902655627     0.6919353184
    6      O      -2.8947009694     0.4086674926    -0.2796182959
    7      H      -3.8559312229     1.6958771358     1.1270904335
    8      H      -4.0613753977     2.1066884835    -0.5793151684
    9      H      -2.8647017688    -0.3138832222     0.3517730592
 ----------------------------------------------------------------
 Nuclear Repulsion Energy =          76.96228218 hartrees
 There are       13 alpha and       13 beta electrons
 Requested basis set is 6-311+G(2df,2pd)
 There are 60 shells and 186 basis functions

 Total QAlloc Memory Limit   2000 MB
 Mega-Array Size       188 MB
 MEM_STATIC part       192 MB

                       Distance Matrix (Angstroms)
             C (  1)   C (  2)   H (  3)   H (  4)   H (  5)   O (  6)
   C (  2)  1.710979
   H (  3)  1.093201  2.167593
   H (  4)  1.087990  2.590011  1.778870
   H (  5)  1.094965  2.201832  1.671093  1.772801
   O (  6)  2.672481  1.558277  2.646072  3.741848  2.715929
   H (  7)  2.384294  1.088897  3.114325  3.078375  2.637725  2.135346
   H (  8)  2.372346  1.086741  2.578945  3.062558  3.132409  2.081880
   H (  9)  2.778362  2.042225  2.863794  3.840626  2.431930  0.960018
             H (  7)   H (  8)
   H (  8)  1.767143
   H (  9)  2.371242  2.856242
 
 A cutoff of  1.0D-09 yielded   1773 shell pairs
 There are     17219 function pairs (     21394 Cartesian)
 Smallest overlap matrix eigenvalue = 2.70E-04

 Scale SEOQF with 1.000000e-02/1.000000e-01/1.000000e-01

 Standard Electronic Orientation quadrupole field applied
 Nucleus-field energy     =     0.0000000028 hartrees
 Requested basis set is 6-31G(d)
 There are 24 shells and 54 basis functions
 A cutoff of  1.0D-09 yielded    298 shell pairs
 There are      1549 function pairs (      1732 Cartesian)
 Smallest overlap matrix eigenvalue = 1.06E-02
 Guess from superposition of atomic densities
 Warning:  Energy on first SCF cycle will be non-variational
 SAD guess density has 26.000000 electrons
 Long-range K will be added via erf
 Coulomb attenuation parameter = 0.2 bohr**(-1)
 A restricted hybrid HF-DFT SCF calculation will be
 performed using Relaxed Constraint Minimization + Pulay DIIS
 Exchange:     0.2220 Hartree-Fock + 1.0000 wB97X-D + LR-HF
 Correlation:  1.0000 wB97X-D
 Using Euler-Maclaurin-Lebedev (75,302) quadrature formula
 Dispersion:   Grimme D
 SCF converges when DIIS error is below 1.0E-04
 using 6 threads for integral computing
 -------------------------------------------------------
 OpenMP Integral computing Module                
 Release: version 1.0, May 2013, Q-Chem Inc. Pittsburgh 
 -------------------------------------------------------
 using 6 threads for integral computing
 -------------------------------------------------------
 OpenMP Integral computing Module                
 Release: version 1.0, May 2013, Q-Chem Inc. Pittsburgh 
 -------------------------------------------------------
 ---------------------------------------
  Cycle       Energy         DIIS Error
 ---------------------------------------
    1    -155.0375818949      9.17E-02
    2    -154.8839487577      1.39E-02
    3    -154.9111286932      2.85E-03
    4    -154.9420002782      1.51E-03
    5    -154.9423516673      3.04E-04 Done RCA. Switching to DIIS
    6    -154.9427521859      1.58E-04
    7    -154.9427605662      2.18E-05 Convergence criterion met
 ---------------------------------------
 SCF time:  CPU 14.16 s  wall 2.38 s
 SCF   energy in the small basis set = -154.94276057
 Total energy in the small basis set = -154.94276057
 ----------------------------------------------------
  Cycle       Energy    
 ----------------------------------------------------
    1     -18.6237499823     -1.86E+01
 Long-range K will be added via erf
 Coulomb attenuation parameter = 0.2 bohr**(-1)
 A restricted hybrid HF-DFT SCF calculation will be
 performed using Relaxed Constraint Minimization + Pulay DIIS
 Exchange:     0.2220 Hartree-Fock + 1.0000 wB97X-D + LR-HF
 Correlation:  1.0000 wB97X-D
 Using Euler-Maclaurin-Lebedev (75,302) quadrature formula
 Dispersion:   Grimme D
 SCF converges when DIIS error is below 1.0E-05
 Basis2 calculation detected. Using small basis as guess for larger.
 SCFMinFind is unable to tell whether the solution found is close.
 Resetting ReadMinima to 0 and attempting to follow guess.
 SCFMinFind following SCF Guess.
 using 6 threads for integral computing
 -------------------------------------------------------
 OpenMP Integral computing Module                
 Release: version 1.0, May 2013, Q-Chem Inc. Pittsburgh 
 -------------------------------------------------------
 using 6 threads for integral computing
 -------------------------------------------------------
 OpenMP Integral computing Module                
 Release: version 1.0, May 2013, Q-Chem Inc. Pittsburgh 
 -------------------------------------------------------
 ---------------------------------------
  Cycle       Energy         DIIS Error
 ---------------------------------------
    1    -154.9715175348      5.78E-03
    2    -154.9816564410      3.31E-03
    3    -154.9943571639      5.28E-04 Done RCA. Switching to DIIS
    4    -155.0105128845      4.95E-04
    5    -155.0112090554      4.20E-05
    6    -155.0112185204      6.64E-06 Convergence criterion met
 ---------------------------------------
 SCF time:  CPU 37.67 s  wall 6.30 s
 SCF   energy in the final basis set = -155.01121852
 Total energy in the final basis set = -155.01121852
 
 --------------------------------------------------------------
 
                    Orbital Energies (a.u.)
 --------------------------------------------------------------
 
 Alpha MOs
 -- Occupied --
-19.2515 -10.3559 -10.2927  -1.0928  -0.8269  -0.7343  -0.5734  -0.5270
 -0.5152  -0.4549  -0.4464  -0.4259  -0.3687
 -- Virtual --
  0.0653   0.0828   0.0853   0.1039   0.1166   0.1330   0.1362   0.1799
  0.1901   0.2016   0.2228   0.2249   0.2463   0.2544   0.2784   0.2956
  0.3005   0.3178   0.3406   0.3730   0.4516   0.4862   0.5042   0.5196
  0.5495   0.5684   0.5727   0.6017   0.6166   0.6222   0.6504   0.6685
  0.6728   0.7029   0.7410   0.8042   0.8267   0.8515   0.8904   0.9764
  0.9834   1.0263   1.0428   1.0625   1.1183   1.1714   1.1775   1.2012
  1.2186   1.2266   1.2421   1.2727   1.2885   1.3143   1.3503   1.3517
  1.4406   1.4512   1.4583   1.4869   1.5063   1.5538   1.5756   1.6038
  1.6299   1.7121   1.9098   1.9677   2.0301   2.1518   2.2705   2.4274
  2.4404   2.5000   2.5206   2.5433   2.6236   2.7367   2.7907   2.8311
  2.8974   2.9034   2.9095   2.9925   3.0377   3.0574   3.0808   3.1057
  3.1373   3.1450   3.1785   3.2041   3.2346   3.2725   3.2839   3.3049
  3.3247   3.3869   3.4113   3.4275   3.4507   3.4558   3.5066   3.5649
  3.5792   3.5869   3.6116   3.6284   3.6596   3.6878   3.6954   3.7695
  3.7969   3.8227   3.8682   3.9050   3.9313   3.9430   3.9779   3.9956
  4.0504   4.0863   4.1550   4.1679   4.1869   4.2119   4.2765   4.2889
  4.2951   4.3250   4.3349   4.3887   4.4999   4.5402   4.6823   4.7499
  4.8170   4.8843   4.9020   4.9338   4.9880   5.0517   5.0940   5.1238
  5.1627   5.1876   5.2352   5.2490   5.2645   5.3286   5.3901   5.4265
  5.4740   5.4799   5.5742   5.6702   5.7006   5.7315   6.2743   6.3713
  6.3921   6.4059   6.6434   6.7259   7.1056   7.2959   7.3114   7.4742
  7.5860   8.0501  24.9296  25.3177  50.4279
 --------------------------------------------------------------
 
 -----------------------------------------------------------------
                    Cartesian Multipole Moments
 -----------------------------------------------------------------
    Charge (ESU x 10^10)
                 0.0000
    Dipole Moment (Debye)
         X      -1.3795      Y      -0.1635      Z       1.3420
       Tot       1.9315
    Quadrupole Moments (Debye-Ang)
        XX     -10.2901     XY      -0.9969     YY     -18.4250
        XZ      -3.5929     YZ      -0.2956     ZZ     -20.3304
    Octopole Moments (Debye-Ang^2)
       XXX     199.4441    XXY      -5.6275    XYY      80.2352
       YYY     -36.9527    XXZ       9.3118    XYZ       1.1772
       YYZ      -0.4705    XZZ      87.3625    YZZ     -12.9003
       ZZZ      -0.1752
    Hexadecapole Moments (Debye-Ang^3)
      XXXX   -2028.8505   XXXY     123.8745   XXYY    -400.5474
      XYYY     154.3357   YYYY    -109.7810   XXXZ     -18.1454
      XXYZ      -5.1846   XYYZ       4.5492   YYYZ      -4.9334
      XXZZ    -413.4314   XYZZ      54.1985   YYZZ     -23.3445
      XZZZ       9.6064   YZZZ      -2.0499   ZZZZ     -37.4548
 -----------------------------------------------------------------
Archival summary:
1\1\centos77-c7\SP\ProcedureUnspecified\BasisUnspecified\126\shihchen\MonJul2714:32:082020MonJul2714:32:082020\0\\#,ProcedureUnspecified,BasisUnspecified,\\0,1\C\H,1,1.08674\H,1,1.0889,2,108.631\O,1,1.55828,2,102.36,3,-112.022,0\H,4,0.960018,1,105.923,2,178.075,0\C,1,1.71098,2,114.118,3,129.691,0\H,6,1.08799,1,134.23,2,-62.9422,0\H,6,1.0932,1,98.8561,2,65.2365,0\H,6,1.09497,1,101.105,2,166.906,0\\\@

 Total job time:  10.77s(wall), 55.48s(cpu) 
 Mon Jul 27 14:32:08 2020

        *************************************************************
        *                                                           *
        *  Thank you very much for using Q-Chem.  Have a nice day.  *
        *                                                           *
        *************************************************************


