                  Welcome to Q-Chem
     A Quantum Leap Into The Future Of Chemistry


 Q-Chem 5.3 (devel), Q-Chem, Inc., Pleasanton, CA (2020)

 Yihan Shao,  Zhengting Gan,  E. Epifanovsky,  A. T. B. Gilbert,  M. Wormit,  
 J. Kussmann,  A. W. Lange,  A. Behn,  Jia Deng,  Xintian Feng,  D. Ghosh,  
 M. Goldey,  P. R. Horn,  L. D. Jacobson,  I. Kaliman,  T. Kus,  A. Landau,  
 Jie Liu,  E. I. Proynov,  R. M. Richard,  R. P. Steele,  E. J. Sundstrom,  
 H. L. Woodcock III,  P. M. Zimmerman,  D. Zuev,  B. Alam,  B. Albrecht,  
 E. Alguire,  S. A. Baeppler,  D. Barton,  Z. Benda,  Y. A. Bernard,  
 E. J. Berquist,  K. B. Bravaya,  H. Burton,  K. Carter-Fenk,  D. Casanova,  
 Chun-Min Chang,  Yunqing Chen,  A. Chien,  K. D. Closser,  M. P. Coons,  
 S. Coriani,  S. Dasgupta,  A. L. Dempwolff,  M. Diedenhofen,  Hainam Do,  
 R. G. Edgar,  Po-Tung Fang,  S. Faraji,  S. Fatehi,  Qingguo Feng,  
 J. Fosso-Tande,  J. Gayvert,  Qinghui Ge,  A. Ghysels,  G. Gidofalvi,  
 J. Gomes,  J. Gonthier,  A. Gunina,  D. Hait,  M. W. D. Hanson-Heine,  
 P. H. P. Harbach,  A. W. Hauser,  M. F. Herbst,  J. E. Herr,  
 E. G. Hohenstein,  Z. C. Holden,  Kerwin Hui,  B. C. Huynh,  T.-C. Jagau,  
 Hyunjun Ji,  B. Kaduk,  K. Khistyaev,  Jaehoon Kim,  P. Klunzinger,  K. Koh,  
 D. Kosenkov,  L. Koulias,  T. Kowalczyk,  C. M. Krauter,  A. Kunitsa,  
 Ka Un Lao,  A. Laurent,  K. V. Lawler,  Joonho Lee,  D. Lefrancois,  
 S. Lehtola,  D. S. Levine,  Yi-Pei Li,  You-Sheng Lin,  Fenglai Liu,  
 Kuan-Yu Liu,  E. Livshits,  M. Loipersberger,  A. Luenser,  P. Manohar,  
 E. Mansoor,  S. F. Manzer,  Shan-Ping Mao,  Yuezhi Mao,  N. Mardirossian,  
 A. V. Marenich,  T. Markovich,  L. A. Martinez-Martinez,  S. A. Maurer,  
 N. J. Mayhall,  S. C. McKenzie,  J.-M. Mewes,  P. Morgante,  A. F. Morrison,  
 J. W. Mullinax,  K. Nanda,  T. S. Nguyen-Beck,  R. Olivares-Amaya,  
 K. J. Oosterbaan,  J. A. Parkhill,  S. K. Paul,  F. Pavosevic,  Zheng Pei,  
 T. M. Perrine,  F. Plasser,  P. Pokhilko,  S. Prager,  A. Prociuk,  
 E. Ramos,  B. Rana,  D. R. Rehn,  F. Rob,  M. Scheurer,  M. Schneider,  
 N. Sergueev,  S. M. Sharada,  S. Sharma,  D. W. Small,  T. Stauch,  
 C. J. Stein,  T. Stein,  Yu-Chuan Su,  S. P. Veccham,  Zhen Tao,  
 A. J. W. Thom,  A. Tkatchenko,  T. Tsuchimochi,  N. M. Tubman,  L. Vogt,  
 M. L. Vidal,  O. Vydrov,  M. A. Watson,  J. Wenzel,  M. de Wergifosse,  
 T. A. Wesolowski,  A. White,  J. Witte,  A. Yamada,  Jun Yang,  K. Yao,  
 S. Yeganeh,  S. R. Yost,  Zhi-Qiang You,  A. Zech,  Igor Ying Zhang,  
 Xing Zhang,  Yan Zhao,  Ying Zhu,  B. R. Brooks,  G. K. L. Chan,  
 C. J. Cramer,  M. S. Gordon,  W. J. Hehre,  A. Klamt,  M. W. Schmidt,  
 C. D. Sherrill,  D. G. Truhlar,  A. Aspuru-Guzik,  R. Baer,  A. T. Bell,  
 N. A. Besley,  Jeng-Da Chai,  A. E. DePrince, III,  R. A. DiStasio Jr.,  
 A. Dreuw,  B. D. Dunietz,  T. R. Furlani,  Chao-Ping Hsu,  Yousung Jung,  
 Jing Kong,  D. S. Lambrecht,  WanZhen Liang,  C. Ochsenfeld,  
 V. A. Rassolov,  L. V. Slipchenko,  J. E. Subotnik,  T. Van Voorhis,  
 J. M. Herbert,  A. I. Krylov,  P. M. W. Gill,  M. Head-Gordon

 Contributors to earlier versions of Q-Chem not listed above: 
 R. D. Adamson,  B. Austin,  J. Baker,  G. J. O. Beran,  K. Brandhorst,  
 S. T. Brown,  E. F. C. Byrd,  A. K. Chakraborty,  C.-L. Cheng,  
 Siu Hung Chien,  D. M. Chipman,  D. L. Crittenden,  H. Dachsel,  
 R. J. Doerksen,  A. D. Dutoi,  L. Fusti-Molnar,  W. A. Goddard III,  
 A. Golubeva-Zadorozhnaya,  S. R. Gwaltney,  G. Hawkins,  A. Heyden,  
 S. Hirata,  G. Kedziora,  F. J. Keil,  C. Kelley,  Jihan Kim,  R. A. King,  
 R. Z. Khaliullin,  P. P. Korambath,  W. Kurlancheek,  A. M. Lee,  M. S. Lee,  
 S. V. Levchenko,  Ching Yeh Lin,  D. Liotard,  R. C. Lochan,  I. Lotan,  
 P. E. Maslen,  N. Nair,  D. P. O'Neill,  D. Neuhauser,  E. Neuscamman,  
 C. M. Oana,  R. Olson,  B. Peters,  R. Peverati,  P. A. Pieniazek,  
 Y. M. Rhee,  J. Ritchie,  M. A. Rohrdanz,  E. Rosta,  N. J. Russ,  
 H. F. Schaefer III,  N. E. Schultz,  N. Shenvi,  A. C. Simmonett,  A. Sodt,  
 D. Stuck,  K. S. Thanthiriwatte,  V. Vanovschi,  Tao Wang,  A. Warshel,  
 C. F. Williams,  Q. Wu,  X. Xu,  W. Zhang

 Please cite Q-Chem as follows:
 Y. Shao et al., Mol. Phys. 113, 184-215 (2015)
 DOI: 10.1080/00268976.2014.952696

 Q-Chem 5.3.0 for Intel X86 EM64T Linux

 Parts of Q-Chem use Armadillo 9.800.1 (Horizon Scraper).
 http://arma.sourceforge.net/

 Q-Chem begins on Mon Jul 27 14:26:06 2020  

Host: centos77-c7
0

     Scratch files written to /tmp/29924.centos77-h1/qchem104808//
Processing $rem in /opt/qchem-5.3.0-intel2020u1//config/preferences:
Processing $rem in /home/shihchengli/.qchemrc:

Checking the input file for inconsistencies... 	...done.

--------------------------------------------------------------
User input:
--------------------------------------------------------------
$rem
   JOBTYPE  sp
   EXCHANGE   omegaB97X-D
   BASIS   6-311+G(2df,2pd)
   UNRESTRICTED   False
   max_scf_cycles   250
   geom_opt_max_cycles   1500
   basis2 6-31G*
   scf_algorithm rca_diis
   SYM_IGNORE  TRUE
   print_input   true
   geom_opt_dmax   80
   pop_mulliken false
   XC_GRID 000075000302
$end

$molecule
0 1
C       -5.4822256499     0.2296852560     -0.0007331328
C       -4.0699083771     0.9248406233     0.0418880610
H       -5.9259020467     -0.0680171055     -0.9512191162
H       -5.9861910815     1.1521031490     0.3127800397
H       -5.7198427024     -0.5263067465     0.7464796729
O       -2.6523166046     0.7790073157     -0.1172228868
H       -4.2282010599     1.2982677701     1.0615158954
H       -4.2360422012     1.8000699451     -0.5859753007
H       -2.3021802766     0.0275697928     0.3627967676
$end
--------------------------------------------------------------
 ----------------------------------------------------------------
             Standard Nuclear Orientation (Angstroms)
    I     Atom           X                Y                Z
 ----------------------------------------------------------------
    1      C      -5.4822256499     0.2296852560    -0.0007331328
    2      C      -4.0699083771     0.9248406233     0.0418880610
    3      H      -5.9259020467    -0.0680171055    -0.9512191162
    4      H      -5.9861910815     1.1521031490     0.3127800397
    5      H      -5.7198427024    -0.5263067465     0.7464796729
    6      O      -2.6523166046     0.7790073157    -0.1172228868
    7      H      -4.2282010599     1.2982677701     1.0615158954
    8      H      -4.2360422012     1.8000699451    -0.5859753007
    9      H      -2.3021802766     0.0275697928     0.3627967676
 ----------------------------------------------------------------
 Nuclear Repulsion Energy =          78.95618314 hartrees
 There are       13 alpha and       13 beta electrons
 Requested basis set is 6-311+G(2df,2pd)
 There are 60 shells and 186 basis functions

 Total QAlloc Memory Limit   2000 MB
 Mega-Array Size       188 MB
 MEM_STATIC part       192 MB

                       Distance Matrix (Angstroms)
             C (  1)   C (  2)   H (  3)   H (  4)   H (  5)   O (  6)
   C (  2)  1.574706
   H (  3)  1.090366  2.327389
   H (  4)  1.096871  1.948633  1.757846
   H (  5)  1.089180  2.307501  1.770500  1.753880
   O (  6)  2.885084  1.433928  3.482723  3.382133  3.443769
   H (  7)  1.960311  1.097336  2.966484  1.916376  2.377670  2.035305
   H (  8)  2.088442  1.089880  2.545344  2.071387  3.064169  1.941774
   H (  9)  3.207132  2.008218  3.855792  3.852144  3.483448  0.957952
             H (  7)   H (  8)
   H (  8)  1.722235
   H (  9)  2.410900  2.789578
 
 A cutoff of  1.0D-09 yielded   1741 shell pairs
 There are     16781 function pairs (     20804 Cartesian)
 Smallest overlap matrix eigenvalue = 1.33E-04

 Scale SEOQF with 1.000000e-02/1.000000e-01/1.000000e-01

 Standard Electronic Orientation quadrupole field applied
 Nucleus-field energy     =     0.0000000026 hartrees
 Requested basis set is 6-31G(d)
 There are 24 shells and 54 basis functions
 A cutoff of  1.0D-09 yielded    293 shell pairs
 There are      1537 function pairs (      1719 Cartesian)
 Smallest overlap matrix eigenvalue = 8.95E-03
 Guess from superposition of atomic densities
 Warning:  Energy on first SCF cycle will be non-variational
 SAD guess density has 26.000000 electrons
 Long-range K will be added via erf
 Coulomb attenuation parameter = 0.2 bohr**(-1)
 A restricted hybrid HF-DFT SCF calculation will be
 performed using Relaxed Constraint Minimization + Pulay DIIS
 Exchange:     0.2220 Hartree-Fock + 1.0000 wB97X-D + LR-HF
 Correlation:  1.0000 wB97X-D
 Using Euler-Maclaurin-Lebedev (75,302) quadrature formula
 Dispersion:   Grimme D
 SCF converges when DIIS error is below 1.0E-04
 using 6 threads for integral computing
 -------------------------------------------------------
 OpenMP Integral computing Module                
 Release: version 1.0, May 2013, Q-Chem Inc. Pittsburgh 
 -------------------------------------------------------
 using 6 threads for integral computing
 -------------------------------------------------------
 OpenMP Integral computing Module                
 Release: version 1.0, May 2013, Q-Chem Inc. Pittsburgh 
 -------------------------------------------------------
 ---------------------------------------
  Cycle       Energy         DIIS Error
 ---------------------------------------
    1    -155.3682703077      1.03E-01
    2    -154.8826952008      1.29E-02
    3    -154.9082075898      3.04E-03
    4    -154.9324364260      2.44E-03
    5    -154.9331896904      2.59E-04 Done RCA. Switching to DIIS
    6    -154.9340659903      1.41E-04
    7    -154.9340724836      1.00E-05 Convergence criterion met
 ---------------------------------------
 SCF time:  CPU 13.88 s  wall 2.33 s
 SCF   energy in the small basis set = -154.93407248
 Total energy in the small basis set = -154.93407248
 ----------------------------------------------------
  Cycle       Energy    
 ----------------------------------------------------
    1     -18.7156883251     -1.87E+01
 Long-range K will be added via erf
 Coulomb attenuation parameter = 0.2 bohr**(-1)
 A restricted hybrid HF-DFT SCF calculation will be
 performed using Relaxed Constraint Minimization + Pulay DIIS
 Exchange:     0.2220 Hartree-Fock + 1.0000 wB97X-D + LR-HF
 Correlation:  1.0000 wB97X-D
 Using Euler-Maclaurin-Lebedev (75,302) quadrature formula
 Dispersion:   Grimme D
 SCF converges when DIIS error is below 1.0E-05
 Basis2 calculation detected. Using small basis as guess for larger.
 SCFMinFind is unable to tell whether the solution found is close.
 Resetting ReadMinima to 0 and attempting to follow guess.
 SCFMinFind following SCF Guess.
 using 6 threads for integral computing
 -------------------------------------------------------
 OpenMP Integral computing Module                
 Release: version 1.0, May 2013, Q-Chem Inc. Pittsburgh 
 -------------------------------------------------------
 using 6 threads for integral computing
 -------------------------------------------------------
 OpenMP Integral computing Module                
 Release: version 1.0, May 2013, Q-Chem Inc. Pittsburgh 
 -------------------------------------------------------
 ---------------------------------------
  Cycle       Energy         DIIS Error
 ---------------------------------------
    1    -154.9659614739      5.71E-03
    2    -154.9805550002      2.89E-03
    3    -154.9903369679      3.88E-04 Done RCA. Switching to DIIS
    4    -155.0023180795      3.03E-04
    5    -155.0025852346      3.97E-05
    6    -155.0025937143      5.89E-06 Convergence criterion met
 ---------------------------------------
 SCF time:  CPU 37.89 s  wall 6.34 s
 SCF   energy in the final basis set = -155.00259371
 Total energy in the final basis set = -155.00259371
 
 --------------------------------------------------------------
 
                    Orbital Energies (a.u.)
 --------------------------------------------------------------
 
 Alpha MOs
 -- Occupied --
-19.2547 -10.3338 -10.2896  -1.1209  -0.8595  -0.7234  -0.5961  -0.5432
 -0.5095  -0.4712  -0.4507  -0.4120  -0.3542
 -- Virtual --
  0.0603   0.0847   0.0928   0.1028   0.1231   0.1358   0.1431   0.1857
  0.1988   0.2061   0.2147   0.2438   0.2485   0.2646   0.2791   0.2997
  0.3349   0.3486   0.3654   0.3939   0.4545   0.4742   0.5099   0.5358
  0.5436   0.5728   0.5847   0.5935   0.6184   0.6639   0.6737   0.6801
  0.6884   0.6962   0.7741   0.7991   0.8444   0.8585   0.9144   0.9247
  0.9706   1.0196   1.0534   1.0819   1.1301   1.1723   1.1947   1.2031
  1.2205   1.2475   1.2799   1.2935   1.3357   1.3514   1.3790   1.4154
  1.4293   1.4386   1.4627   1.4772   1.5061   1.5766   1.5907   1.6081
  1.6389   1.7486   1.9154   2.1163   2.1414   2.2486   2.2703   2.4047
  2.5257   2.5380   2.5486   2.5948   2.6670   2.7804   2.8209   2.8736
  2.9236   2.9395   2.9695   3.0199   3.0259   3.0420   3.0540   3.0803
  3.1296   3.1463   3.1908   3.2361   3.2526   3.2763   3.2908   3.2996
  3.3416   3.3641   3.4069   3.4438   3.4806   3.5200   3.5378   3.5651
  3.5721   3.6075   3.6306   3.6676   3.6990   3.7398   3.7640   3.7932
  3.8553   3.8902   3.9091   3.9237   3.9818   4.0154   4.0283   4.0494
  4.0941   4.1449   4.1572   4.1906   4.2283   4.2631   4.2795   4.3332
  4.3477   4.4274   4.4745   4.5432   4.5805   4.6654   4.7682   4.8147
  4.8423   4.8801   4.9369   4.9689   5.0608   5.0871   5.1662   5.2038
  5.2192   5.2378   5.2466   5.2625   5.3582   5.3586   5.3860   5.4097
  5.5088   5.5406   5.6113   5.7725   5.9221   6.0875   6.3805   6.4025
  6.4132   6.6428   6.8193   6.8700   7.0769   7.3015   7.3777   7.5471
  7.7504   8.1016  25.1188  25.3657  50.4547
 --------------------------------------------------------------
 
 -----------------------------------------------------------------
                    Cartesian Multipole Moments
 -----------------------------------------------------------------
    Charge (ESU x 10^10)
                 0.0000
    Dipole Moment (Debye)
         X      -1.1295      Y      -0.9518      Z       0.9962
       Tot       1.7817
    Quadrupole Moments (Debye-Ang)
        XX     -11.1631     XY       0.5699     YY     -20.7014
        XZ      -2.3013     YZ      -0.2385     ZZ     -20.1455
    Octopole Moments (Debye-Ang^2)
       XXX     201.4132    XXY      -6.8986    XYY      83.6559
       YYY     -39.1380    XXZ       5.2369    XYZ       0.9709
       YYZ      -0.6266    XZZ      83.9930    YZZ     -13.3102
       ZZZ      -0.3619
    Hexadecapole Moments (Debye-Ang^3)
      XXXX   -2068.4282   XXXY     101.2618   XXYY    -392.3788
      XYYY     144.9557   YYYY     -98.1110   XXXZ      -8.1945
      XXYZ      -3.4531   XYYZ       2.4040   YYYZ      -2.2608
      XXZZ    -389.8433   XYZZ      50.7870   YYZZ     -21.7339
      XZZZ       5.1666   YZZZ      -0.1257   ZZZZ     -35.1178
 -----------------------------------------------------------------
Archival summary:
1\1\centos77-c7\SP\ProcedureUnspecified\BasisUnspecified\126\shihchen\MonJul2714:26:172020MonJul2714:26:172020\0\\#,ProcedureUnspecified,BasisUnspecified,\\0,1\C\H,1,1.08988\H,1,1.09734,2,103.888\O,1,1.43393,2,99.6974,3,-109.585,0\H,4,0.957952,1,112.676,2,-178.993,0\C,1,1.57471,2,101.666,3,95.7065,0\H,6,1.08918,1,118.914,2,-163.412,0\H,6,1.09037,1,120.602,2,57.9046,0\H,6,1.09687,1,91.8969,2,-53.1217,0\\\@

 Total job time:  10.80s(wall), 55.67s(cpu) 
 Mon Jul 27 14:26:17 2020

        *************************************************************
        *                                                           *
        *  Thank you very much for using Q-Chem.  Have a nice day.  *
        *                                                           *
        *************************************************************


