                  Welcome to Q-Chem
     A Quantum Leap Into The Future Of Chemistry


 Q-Chem 5.3 (devel), Q-Chem, Inc., Pleasanton, CA (2020)

 Yihan Shao,  Zhengting Gan,  E. Epifanovsky,  A. T. B. Gilbert,  M. Wormit,  
 J. Kussmann,  A. W. Lange,  A. Behn,  Jia Deng,  Xintian Feng,  D. Ghosh,  
 M. Goldey,  P. R. Horn,  L. D. Jacobson,  I. Kaliman,  T. Kus,  A. Landau,  
 Jie Liu,  E. I. Proynov,  R. M. Richard,  R. P. Steele,  E. J. Sundstrom,  
 H. L. Woodcock III,  P. M. Zimmerman,  D. Zuev,  B. Alam,  B. Albrecht,  
 E. Alguire,  S. A. Baeppler,  D. Barton,  Z. Benda,  Y. A. Bernard,  
 E. J. Berquist,  K. B. Bravaya,  H. Burton,  K. Carter-Fenk,  D. Casanova,  
 Chun-Min Chang,  Yunqing Chen,  A. Chien,  K. D. Closser,  M. P. Coons,  
 S. Coriani,  S. Dasgupta,  A. L. Dempwolff,  M. Diedenhofen,  Hainam Do,  
 R. G. Edgar,  Po-Tung Fang,  S. Faraji,  S. Fatehi,  Qingguo Feng,  
 J. Fosso-Tande,  J. Gayvert,  Qinghui Ge,  A. Ghysels,  G. Gidofalvi,  
 J. Gomes,  J. Gonthier,  A. Gunina,  D. Hait,  M. W. D. Hanson-Heine,  
 P. H. P. Harbach,  A. W. Hauser,  M. F. Herbst,  J. E. Herr,  
 E. G. Hohenstein,  Z. C. Holden,  Kerwin Hui,  B. C. Huynh,  T.-C. Jagau,  
 Hyunjun Ji,  B. Kaduk,  K. Khistyaev,  Jaehoon Kim,  P. Klunzinger,  K. Koh,  
 D. Kosenkov,  L. Koulias,  T. Kowalczyk,  C. M. Krauter,  A. Kunitsa,  
 Ka Un Lao,  A. Laurent,  K. V. Lawler,  Joonho Lee,  D. Lefrancois,  
 S. Lehtola,  D. S. Levine,  Yi-Pei Li,  You-Sheng Lin,  Fenglai Liu,  
 Kuan-Yu Liu,  E. Livshits,  M. Loipersberger,  A. Luenser,  P. Manohar,  
 E. Mansoor,  S. F. Manzer,  Shan-Ping Mao,  Yuezhi Mao,  N. Mardirossian,  
 A. V. Marenich,  T. Markovich,  L. A. Martinez-Martinez,  S. A. Maurer,  
 N. J. Mayhall,  S. C. McKenzie,  J.-M. Mewes,  P. Morgante,  A. F. Morrison,  
 J. W. Mullinax,  K. Nanda,  T. S. Nguyen-Beck,  R. Olivares-Amaya,  
 K. J. Oosterbaan,  J. A. Parkhill,  S. K. Paul,  F. Pavosevic,  Zheng Pei,  
 T. M. Perrine,  F. Plasser,  P. Pokhilko,  S. Prager,  A. Prociuk,  
 E. Ramos,  B. Rana,  D. R. Rehn,  F. Rob,  M. Scheurer,  M. Schneider,  
 N. Sergueev,  S. M. Sharada,  S. Sharma,  D. W. Small,  T. Stauch,  
 C. J. Stein,  T. Stein,  Yu-Chuan Su,  S. P. Veccham,  Zhen Tao,  
 A. J. W. Thom,  A. Tkatchenko,  T. Tsuchimochi,  N. M. Tubman,  L. Vogt,  
 M. L. Vidal,  O. Vydrov,  M. A. Watson,  J. Wenzel,  M. de Wergifosse,  
 T. A. Wesolowski,  A. White,  J. Witte,  A. Yamada,  Jun Yang,  K. Yao,  
 S. Yeganeh,  S. R. Yost,  Zhi-Qiang You,  A. Zech,  Igor Ying Zhang,  
 Xing Zhang,  Yan Zhao,  Ying Zhu,  B. R. Brooks,  G. K. L. Chan,  
 C. J. Cramer,  M. S. Gordon,  W. J. Hehre,  A. Klamt,  M. W. Schmidt,  
 C. D. Sherrill,  D. G. Truhlar,  A. Aspuru-Guzik,  R. Baer,  A. T. Bell,  
 N. A. Besley,  Jeng-Da Chai,  A. E. DePrince, III,  R. A. DiStasio Jr.,  
 A. Dreuw,  B. D. Dunietz,  T. R. Furlani,  Chao-Ping Hsu,  Yousung Jung,  
 Jing Kong,  D. S. Lambrecht,  WanZhen Liang,  C. Ochsenfeld,  
 V. A. Rassolov,  L. V. Slipchenko,  J. E. Subotnik,  T. Van Voorhis,  
 J. M. Herbert,  A. I. Krylov,  P. M. W. Gill,  M. Head-Gordon

 Contributors to earlier versions of Q-Chem not listed above: 
 R. D. Adamson,  B. Austin,  J. Baker,  G. J. O. Beran,  K. Brandhorst,  
 S. T. Brown,  E. F. C. Byrd,  A. K. Chakraborty,  C.-L. Cheng,  
 Siu Hung Chien,  D. M. Chipman,  D. L. Crittenden,  H. Dachsel,  
 R. J. Doerksen,  A. D. Dutoi,  L. Fusti-Molnar,  W. A. Goddard III,  
 A. Golubeva-Zadorozhnaya,  S. R. Gwaltney,  G. Hawkins,  A. Heyden,  
 S. Hirata,  G. Kedziora,  F. J. Keil,  C. Kelley,  Jihan Kim,  R. A. King,  
 R. Z. Khaliullin,  P. P. Korambath,  W. Kurlancheek,  A. M. Lee,  M. S. Lee,  
 S. V. Levchenko,  Ching Yeh Lin,  D. Liotard,  R. C. Lochan,  I. Lotan,  
 P. E. Maslen,  N. Nair,  D. P. O'Neill,  D. Neuhauser,  E. Neuscamman,  
 C. M. Oana,  R. Olson,  B. Peters,  R. Peverati,  P. A. Pieniazek,  
 Y. M. Rhee,  J. Ritchie,  M. A. Rohrdanz,  E. Rosta,  N. J. Russ,  
 H. F. Schaefer III,  N. E. Schultz,  N. Shenvi,  A. C. Simmonett,  A. Sodt,  
 D. Stuck,  K. S. Thanthiriwatte,  V. Vanovschi,  Tao Wang,  A. Warshel,  
 C. F. Williams,  Q. Wu,  X. Xu,  W. Zhang

 Please cite Q-Chem as follows:
 Y. Shao et al., Mol. Phys. 113, 184-215 (2015)
 DOI: 10.1080/00268976.2014.952696

 Q-Chem 5.3.0 for Intel X86 EM64T Linux

 Parts of Q-Chem use Armadillo 9.800.1 (Horizon Scraper).
 http://arma.sourceforge.net/

 Q-Chem begins on Mon Jul 27 14:29:19 2020  

Host: centos77-c7
0

     Scratch files written to /tmp/29924.centos77-h1/qchem105621//
Processing $rem in /opt/qchem-5.3.0-intel2020u1//config/preferences:
Processing $rem in /home/shihchengli/.qchemrc:

Checking the input file for inconsistencies... 	...done.

--------------------------------------------------------------
User input:
--------------------------------------------------------------
$rem
   JOBTYPE  sp
   EXCHANGE   omegaB97X-D
   BASIS   6-311+G(2df,2pd)
   UNRESTRICTED   False
   max_scf_cycles   250
   geom_opt_max_cycles   1500
   basis2 6-31G*
   scf_algorithm rca_diis
   SYM_IGNORE  TRUE
   print_input   true
   geom_opt_dmax   80
   pop_mulliken false
   XC_GRID 000075000302
$end

$molecule
0 1
C       -5.3756711064     0.2832106051     0.1288107034
C       -4.1351923142     1.1504718576     0.2021222605
H       -5.3523875743     0.1116560933     -0.9498928377
H       -6.2583534877     0.9036415191     0.2903568092
H       -5.4975577419     -0.6711578914     0.6388240650
O       -2.9883675921     0.4671863255     -0.2625111033
H       -3.9470252260     1.7516704420     1.0956285621
H       -4.3283641874     1.8324800404     -0.6288189451
H       -2.7198907698     -0.2119389917     0.3557904859
$end
--------------------------------------------------------------
 ----------------------------------------------------------------
             Standard Nuclear Orientation (Angstroms)
    I     Atom           X                Y                Z
 ----------------------------------------------------------------
    1      C      -5.3756711064     0.2832106051     0.1288107034
    2      C      -4.1351923142     1.1504718576     0.2021222605
    3      H      -5.3523875743     0.1116560933    -0.9498928377
    4      H      -6.2583534877     0.9036415191     0.2903568092
    5      H      -5.4975577419    -0.6711578914     0.6388240650
    6      O      -2.9883675921     0.4671863255    -0.2625111033
    7      H      -3.9470252260     1.7516704420     1.0956285621
    8      H      -4.3283641874     1.8324800404    -0.6288189451
    9      H      -2.7198907698    -0.2119389917     0.3557904859
 ----------------------------------------------------------------
 Nuclear Repulsion Energy =          82.15820223 hartrees
 There are       13 alpha and       13 beta electrons
 Requested basis set is 6-311+G(2df,2pd)
 There are 60 shells and 186 basis functions

 Total QAlloc Memory Limit   2000 MB
 Mega-Array Size       188 MB
 MEM_STATIC part       192 MB

                       Distance Matrix (Angstroms)
             C (  1)   C (  2)   H (  3)   H (  4)   H (  5)   O (  6)
   C (  2)  1.515356
   H (  3)  1.092508  1.971761
   H (  4)  1.090944  2.139281  1.728072
   H (  5)  1.088939  2.316265  1.777046  1.783321
   O (  6)  2.426149  1.413496  2.487466  3.344991  2.899012
   H (  7)  2.265423  1.093252  2.974701  2.590339  2.912545  2.100825
   H (  8)  2.017694  1.092206  2.028040  2.330769  3.040088  1.947768
   H (  9)  2.711063  1.970496  2.956275  3.710730  2.829562  0.956864
             H (  7)   H (  8)
   H (  8)  1.767956
   H (  9)  2.430840  2.781419
 
 A cutoff of  1.0D-09 yielded   1789 shell pairs
 There are     17329 function pairs (     21516 Cartesian)
 Smallest overlap matrix eigenvalue = 1.36E-04

 Scale SEOQF with 1.000000e-02/1.000000e-01/1.000000e-01

 Standard Electronic Orientation quadrupole field applied
 Nucleus-field energy     =     0.0000000026 hartrees
 Requested basis set is 6-31G(d)
 There are 24 shells and 54 basis functions
 A cutoff of  1.0D-09 yielded    298 shell pairs
 There are      1549 function pairs (      1732 Cartesian)
 Smallest overlap matrix eigenvalue = 6.62E-03
 Guess from superposition of atomic densities
 Warning:  Energy on first SCF cycle will be non-variational
 SAD guess density has 26.000000 electrons
 Long-range K will be added via erf
 Coulomb attenuation parameter = 0.2 bohr**(-1)
 A restricted hybrid HF-DFT SCF calculation will be
 performed using Relaxed Constraint Minimization + Pulay DIIS
 Exchange:     0.2220 Hartree-Fock + 1.0000 wB97X-D + LR-HF
 Correlation:  1.0000 wB97X-D
 Using Euler-Maclaurin-Lebedev (75,302) quadrature formula
 Dispersion:   Grimme D
 SCF converges when DIIS error is below 1.0E-04
 using 6 threads for integral computing
 -------------------------------------------------------
 OpenMP Integral computing Module                
 Release: version 1.0, May 2013, Q-Chem Inc. Pittsburgh 
 -------------------------------------------------------
 using 6 threads for integral computing
 -------------------------------------------------------
 OpenMP Integral computing Module                
 Release: version 1.0, May 2013, Q-Chem Inc. Pittsburgh 
 -------------------------------------------------------
 ---------------------------------------
  Cycle       Energy         DIIS Error
 ---------------------------------------
    1    -155.4577133565      1.07E-01
    2    -154.9123803566      1.36E-02
    3    -154.9406775372      3.04E-03
    4    -154.9668702825      2.40E-03
    5    -154.9675905686      2.27E-04 Done RCA. Switching to DIIS
    6    -154.9683984415      1.00E-04
    7    -154.9684016128      7.43E-06 Convergence criterion met
 ---------------------------------------
 SCF time:  CPU 14.30 s  wall 2.40 s
 SCF   energy in the small basis set = -154.96840161
 Total energy in the small basis set = -154.96840161
 ----------------------------------------------------
  Cycle       Energy    
 ----------------------------------------------------
    1     -18.7555919937     -1.88E+01
 Long-range K will be added via erf
 Coulomb attenuation parameter = 0.2 bohr**(-1)
 A restricted hybrid HF-DFT SCF calculation will be
 performed using Relaxed Constraint Minimization + Pulay DIIS
 Exchange:     0.2220 Hartree-Fock + 1.0000 wB97X-D + LR-HF
 Correlation:  1.0000 wB97X-D
 Using Euler-Maclaurin-Lebedev (75,302) quadrature formula
 Dispersion:   Grimme D
 SCF converges when DIIS error is below 1.0E-05
 Basis2 calculation detected. Using small basis as guess for larger.
 SCFMinFind is unable to tell whether the solution found is close.
 Resetting ReadMinima to 0 and attempting to follow guess.
 SCFMinFind following SCF Guess.
 using 6 threads for integral computing
 -------------------------------------------------------
 OpenMP Integral computing Module                
 Release: version 1.0, May 2013, Q-Chem Inc. Pittsburgh 
 -------------------------------------------------------
 using 6 threads for integral computing
 -------------------------------------------------------
 OpenMP Integral computing Module                
 Release: version 1.0, May 2013, Q-Chem Inc. Pittsburgh 
 -------------------------------------------------------
 ---------------------------------------
  Cycle       Energy         DIIS Error
 ---------------------------------------
    1    -155.0001434437      5.72E-03
    2    -155.0155490466      2.86E-03
    3    -155.0252550257      3.48E-04 Done RCA. Switching to DIIS
    4    -155.0369030929      2.52E-04
    5    -155.0370923500      3.94E-05
    6    -155.0371002052      5.71E-06 Convergence criterion met
 ---------------------------------------
 SCF time:  CPU 39.17 s  wall 6.55 s
 SCF   energy in the final basis set = -155.03710021
 Total energy in the final basis set = -155.03710021
 
 --------------------------------------------------------------
 
                    Orbital Energies (a.u.)
 --------------------------------------------------------------
 
 Alpha MOs
 -- Occupied --
-19.2460 -10.3283 -10.2725  -1.1261  -0.8543  -0.7210  -0.5976  -0.5489
 -0.5271  -0.4603  -0.4527  -0.4050  -0.3656
 -- Virtual --
  0.0671   0.0861   0.0888   0.1003   0.1265   0.1337   0.1363   0.1825
  0.1936   0.2273   0.2352   0.2472   0.2616   0.2791   0.2899   0.3090
  0.3165   0.3356   0.3539   0.3783   0.4652   0.4883   0.5048   0.5309
  0.5568   0.5819   0.5931   0.6034   0.6190   0.6333   0.6718   0.6784
  0.7013   0.7148   0.7507   0.8174   0.8476   0.8900   0.9293   0.9403
  0.9972   1.0496   1.0792   1.0947   1.1360   1.1586   1.1913   1.1947
  1.2334   1.2704   1.2867   1.2988   1.3446   1.3665   1.3790   1.3987
  1.4345   1.4566   1.4823   1.4989   1.5210   1.5344   1.5838   1.6242
  1.6509   1.7815   1.9315   2.0295   2.1352   2.2603   2.2958   2.4477
  2.4832   2.5190   2.5978   2.6490   2.6911   2.7987   2.8722   2.9047
  2.9251   2.9622   2.9741   3.0300   3.0460   3.0569   3.0719   3.1045
  3.1667   3.1966   3.2154   3.2611   3.2739   3.3029   3.3075   3.3183
  3.3455   3.3962   3.4213   3.4553   3.5084   3.5213   3.5518   3.5826
  3.5918   3.6116   3.6232   3.6910   3.7472   3.7919   3.8051   3.8237
  3.8506   3.8727   3.9651   3.9776   3.9974   4.0339   4.0622   4.0837
  4.1206   4.1336   4.1707   4.1874   4.2418   4.2582   4.3004   4.3094
  4.3513   4.4246   4.4785   4.5308   4.5690   4.6452   4.7340   4.7963
  4.8577   4.9032   4.9365   4.9904   5.0324   5.0634   5.1288   5.2098
  5.2241   5.2554   5.2715   5.3065   5.3279   5.3902   5.4301   5.4995
  5.5697   5.5884   5.6876   5.8295   5.9020   6.1454   6.3973   6.4070
  6.4209   6.6571   6.7281   6.8294   7.1212   7.3201   7.4655   7.5516
  7.7238   8.1497  25.1641  25.4284  50.4881
 --------------------------------------------------------------
 
 -----------------------------------------------------------------
                    Cartesian Multipole Moments
 -----------------------------------------------------------------
    Charge (ESU x 10^10)
                -0.0000
    Dipole Moment (Debye)
         X      -0.8904      Y      -0.3262      Z       1.2826
       Tot       1.5951
    Quadrupole Moments (Debye-Ang)
        XX     -13.7178     XY      -0.8476     YY     -19.0148
        XZ      -3.1931     YZ      -0.2739     ZZ     -20.0633
    Octopole Moments (Debye-Ang^2)
       XXX     223.3231    XXY      -3.2119    XYY      80.4519
       YYY     -36.8613    XXZ       6.7851    XYZ       1.7409
       YYZ      -0.2546    XZZ      85.8322    YZZ     -12.0944
       ZZZ      -2.3655
    Hexadecapole Moments (Debye-Ang^3)
      XXXX   -2192.7244   XXXY      97.8494   XXYY    -383.9647
      XYYY     151.2918   YYYY    -103.6507   XXXZ      -1.6927
      XXYZ     -10.6893   XYYZ       3.6868   YYYZ      -3.4796
      XXZZ    -400.3599   XYZZ      49.9566   YYZZ     -21.8937
      XZZZ      18.6553   YZZZ      -3.4052   ZZZZ     -38.0570
 -----------------------------------------------------------------
Archival summary:
1\1\centos77-c7\SP\ProcedureUnspecified\BasisUnspecified\126\shihchen\MonJul2714:29:302020MonJul2714:29:302020\0\\#,ProcedureUnspecified,BasisUnspecified,\\0,1\C\H,1,1.09221\H,1,1.09325,2,107.99\O,1,1.4135,2,101.26,3,-119.205,0\H,4,0.956864,1,110.998,2,-177.092,0\C,1,1.51536,2,100.124,3,125.932,0\H,6,1.08894,1,124.789,2,165.722,0\H,6,1.09094,1,109.25,2,-61.4964,0\H,6,1.09251,1,96.9031,2,46.6808,0\\\@

 Total job time:  11.09s(wall), 57.35s(cpu) 
 Mon Jul 27 14:29:30 2020

        *************************************************************
        *                                                           *
        *  Thank you very much for using Q-Chem.  Have a nice day.  *
        *                                                           *
        *************************************************************


