                  Welcome to Q-Chem
     A Quantum Leap Into The Future Of Chemistry


 Q-Chem 5.3 (devel), Q-Chem, Inc., Pleasanton, CA (2020)

 Yihan Shao,  Zhengting Gan,  E. Epifanovsky,  A. T. B. Gilbert,  M. Wormit,  
 J. Kussmann,  A. W. Lange,  A. Behn,  Jia Deng,  Xintian Feng,  D. Ghosh,  
 M. Goldey,  P. R. Horn,  L. D. Jacobson,  I. Kaliman,  T. Kus,  A. Landau,  
 Jie Liu,  E. I. Proynov,  R. M. Richard,  R. P. Steele,  E. J. Sundstrom,  
 H. L. Woodcock III,  P. M. Zimmerman,  D. Zuev,  B. Alam,  B. Albrecht,  
 E. Alguire,  S. A. Baeppler,  D. Barton,  Z. Benda,  Y. A. Bernard,  
 E. J. Berquist,  K. B. Bravaya,  H. Burton,  K. Carter-Fenk,  D. Casanova,  
 Chun-Min Chang,  Yunqing Chen,  A. Chien,  K. D. Closser,  M. P. Coons,  
 S. Coriani,  S. Dasgupta,  A. L. Dempwolff,  M. Diedenhofen,  Hainam Do,  
 R. G. Edgar,  Po-Tung Fang,  S. Faraji,  S. Fatehi,  Qingguo Feng,  
 J. Fosso-Tande,  J. Gayvert,  Qinghui Ge,  A. Ghysels,  G. Gidofalvi,  
 J. Gomes,  J. Gonthier,  A. Gunina,  D. Hait,  M. W. D. Hanson-Heine,  
 P. H. P. Harbach,  A. W. Hauser,  M. F. Herbst,  J. E. Herr,  
 E. G. Hohenstein,  Z. C. Holden,  Kerwin Hui,  B. C. Huynh,  T.-C. Jagau,  
 Hyunjun Ji,  B. Kaduk,  K. Khistyaev,  Jaehoon Kim,  P. Klunzinger,  K. Koh,  
 D. Kosenkov,  L. Koulias,  T. Kowalczyk,  C. M. Krauter,  A. Kunitsa,  
 Ka Un Lao,  A. Laurent,  K. V. Lawler,  Joonho Lee,  D. Lefrancois,  
 S. Lehtola,  D. S. Levine,  Yi-Pei Li,  You-Sheng Lin,  Fenglai Liu,  
 Kuan-Yu Liu,  E. Livshits,  M. Loipersberger,  A. Luenser,  P. Manohar,  
 E. Mansoor,  S. F. Manzer,  Shan-Ping Mao,  Yuezhi Mao,  N. Mardirossian,  
 A. V. Marenich,  T. Markovich,  L. A. Martinez-Martinez,  S. A. Maurer,  
 N. J. Mayhall,  S. C. McKenzie,  J.-M. Mewes,  P. Morgante,  A. F. Morrison,  
 J. W. Mullinax,  K. Nanda,  T. S. Nguyen-Beck,  R. Olivares-Amaya,  
 K. J. Oosterbaan,  J. A. Parkhill,  S. K. Paul,  F. Pavosevic,  Zheng Pei,  
 T. M. Perrine,  F. Plasser,  P. Pokhilko,  S. Prager,  A. Prociuk,  
 E. Ramos,  B. Rana,  D. R. Rehn,  F. Rob,  M. Scheurer,  M. Schneider,  
 N. Sergueev,  S. M. Sharada,  S. Sharma,  D. W. Small,  T. Stauch,  
 C. J. Stein,  T. Stein,  Yu-Chuan Su,  S. P. Veccham,  Zhen Tao,  
 A. J. W. Thom,  A. Tkatchenko,  T. Tsuchimochi,  N. M. Tubman,  L. Vogt,  
 M. L. Vidal,  O. Vydrov,  M. A. Watson,  J. Wenzel,  M. de Wergifosse,  
 T. A. Wesolowski,  A. White,  J. Witte,  A. Yamada,  Jun Yang,  K. Yao,  
 S. Yeganeh,  S. R. Yost,  Zhi-Qiang You,  A. Zech,  Igor Ying Zhang,  
 Xing Zhang,  Yan Zhao,  Ying Zhu,  B. R. Brooks,  G. K. L. Chan,  
 C. J. Cramer,  M. S. Gordon,  W. J. Hehre,  A. Klamt,  M. W. Schmidt,  
 C. D. Sherrill,  D. G. Truhlar,  A. Aspuru-Guzik,  R. Baer,  A. T. Bell,  
 N. A. Besley,  Jeng-Da Chai,  A. E. DePrince, III,  R. A. DiStasio Jr.,  
 A. Dreuw,  B. D. Dunietz,  T. R. Furlani,  Chao-Ping Hsu,  Yousung Jung,  
 Jing Kong,  D. S. Lambrecht,  WanZhen Liang,  C. Ochsenfeld,  
 V. A. Rassolov,  L. V. Slipchenko,  J. E. Subotnik,  T. Van Voorhis,  
 J. M. Herbert,  A. I. Krylov,  P. M. W. Gill,  M. Head-Gordon

 Contributors to earlier versions of Q-Chem not listed above: 
 R. D. Adamson,  B. Austin,  J. Baker,  G. J. O. Beran,  K. Brandhorst,  
 S. T. Brown,  E. F. C. Byrd,  A. K. Chakraborty,  C.-L. Cheng,  
 Siu Hung Chien,  D. M. Chipman,  D. L. Crittenden,  H. Dachsel,  
 R. J. Doerksen,  A. D. Dutoi,  L. Fusti-Molnar,  W. A. Goddard III,  
 A. Golubeva-Zadorozhnaya,  S. R. Gwaltney,  G. Hawkins,  A. Heyden,  
 S. Hirata,  G. Kedziora,  F. J. Keil,  C. Kelley,  Jihan Kim,  R. A. King,  
 R. Z. Khaliullin,  P. P. Korambath,  W. Kurlancheek,  A. M. Lee,  M. S. Lee,  
 S. V. Levchenko,  Ching Yeh Lin,  D. Liotard,  R. C. Lochan,  I. Lotan,  
 P. E. Maslen,  N. Nair,  D. P. O'Neill,  D. Neuhauser,  E. Neuscamman,  
 C. M. Oana,  R. Olson,  B. Peters,  R. Peverati,  P. A. Pieniazek,  
 Y. M. Rhee,  J. Ritchie,  M. A. Rohrdanz,  E. Rosta,  N. J. Russ,  
 H. F. Schaefer III,  N. E. Schultz,  N. Shenvi,  A. C. Simmonett,  A. Sodt,  
 D. Stuck,  K. S. Thanthiriwatte,  V. Vanovschi,  Tao Wang,  A. Warshel,  
 C. F. Williams,  Q. Wu,  X. Xu,  W. Zhang

 Please cite Q-Chem as follows:
 Y. Shao et al., Mol. Phys. 113, 184-215 (2015)
 DOI: 10.1080/00268976.2014.952696

 Q-Chem 5.3.0 for Intel X86 EM64T Linux

 Parts of Q-Chem use Armadillo 9.800.1 (Horizon Scraper).
 http://arma.sourceforge.net/

 Q-Chem begins on Mon Jul 27 14:31:24 2020  

Host: centos77-c7
0

     Scratch files written to /tmp/29924.centos77-h1/qchem106125//
Processing $rem in /opt/qchem-5.3.0-intel2020u1//config/preferences:
Processing $rem in /home/shihchengli/.qchemrc:

Checking the input file for inconsistencies... 	...done.

--------------------------------------------------------------
User input:
--------------------------------------------------------------
$rem
   JOBTYPE  sp
   EXCHANGE   omegaB97X-D
   BASIS   6-311+G(2df,2pd)
   UNRESTRICTED   False
   max_scf_cycles   250
   geom_opt_max_cycles   1500
   basis2 6-31G*
   scf_algorithm rca_diis
   SYM_IGNORE  TRUE
   print_input   true
   geom_opt_dmax   80
   pop_mulliken false
   XC_GRID 000075000302
$end

$molecule
0 1
C       -5.4399052143     0.3352947823     0.0535821920
C       -4.1197851399     1.2269830889     0.1313995516
H       -5.4623896584     -0.0817121675     -0.9545399463
H       -6.4116548377     0.7768093305     0.2738310636
H       -5.2941919763     -0.5194660787     0.7195966827
O       -2.9258662602     0.4586704902     -0.2586690439
H       -3.9603271205     1.6424071452     1.1299568827
H       -4.1474396651     2.0549629912     -0.5747184471
H       -2.8412501274     -0.2767295819     0.3498710648
$end
--------------------------------------------------------------
 ----------------------------------------------------------------
             Standard Nuclear Orientation (Angstroms)
    I     Atom           X                Y                Z
 ----------------------------------------------------------------
    1      C      -5.4399052143     0.3352947823     0.0535821920
    2      C      -4.1197851399     1.2269830889     0.1313995516
    3      H      -5.4623896584    -0.0817121675    -0.9545399463
    4      H      -6.4116548377     0.7768093305     0.2738310636
    5      H      -5.2941919763    -0.5194660787     0.7195966827
    6      O      -2.9258662602     0.4586704902    -0.2586690439
    7      H      -3.9603271205     1.6424071452     1.1299568827
    8      H      -4.1474396651     2.0549629912    -0.5747184471
    9      H      -2.8412501274    -0.2767295819     0.3498710648
 ----------------------------------------------------------------
 Nuclear Repulsion Energy =          79.76405412 hartrees
 There are       13 alpha and       13 beta electrons
 Requested basis set is 6-311+G(2df,2pd)
 There are 60 shells and 186 basis functions

 Total QAlloc Memory Limit   2000 MB
 Mega-Array Size       188 MB
 MEM_STATIC part       192 MB

                       Distance Matrix (Angstroms)
             C (  1)   C (  2)   H (  3)   H (  4)   H (  5)   O (  6)
   C (  2)  1.594955
   H (  3)  1.091197  2.166688
   H (  4)  1.089836  2.340002  1.773995
   H (  5)  1.093354  2.185244  1.738578  1.768547
   O (  6)  2.536358  1.472379  2.685182  3.540549  2.742758
   H (  7)  2.248617  1.093216  3.094173  2.737009  2.573186  2.097528
   H (  8)  2.241091  1.088539  2.537467  2.735029  3.101286  2.034767
   H (  9)  2.686144  1.985833  2.934262  3.723374  2.492497  0.958277
             H (  7)   H (  8)
   H (  8)  1.763840
   H (  9)  2.354560  2.828036
 
 A cutoff of  1.0D-09 yielded   1784 shell pairs
 There are     17300 function pairs (     21484 Cartesian)
 Smallest overlap matrix eigenvalue = 1.78E-04

 Scale SEOQF with 1.000000e-02/1.000000e-01/1.000000e-01

 Standard Electronic Orientation quadrupole field applied
 Nucleus-field energy     =     0.0000000027 hartrees
 Requested basis set is 6-31G(d)
 There are 24 shells and 54 basis functions
 A cutoff of  1.0D-09 yielded    298 shell pairs
 There are      1549 function pairs (      1732 Cartesian)
 Smallest overlap matrix eigenvalue = 8.82E-03
 Guess from superposition of atomic densities
 Warning:  Energy on first SCF cycle will be non-variational
 SAD guess density has 26.000000 electrons
 Long-range K will be added via erf
 Coulomb attenuation parameter = 0.2 bohr**(-1)
 A restricted hybrid HF-DFT SCF calculation will be
 performed using Relaxed Constraint Minimization + Pulay DIIS
 Exchange:     0.2220 Hartree-Fock + 1.0000 wB97X-D + LR-HF
 Correlation:  1.0000 wB97X-D
 Using Euler-Maclaurin-Lebedev (75,302) quadrature formula
 Dispersion:   Grimme D
 SCF converges when DIIS error is below 1.0E-04
 using 6 threads for integral computing
 -------------------------------------------------------
 OpenMP Integral computing Module                
 Release: version 1.0, May 2013, Q-Chem Inc. Pittsburgh 
 -------------------------------------------------------
 using 6 threads for integral computing
 -------------------------------------------------------
 OpenMP Integral computing Module                
 Release: version 1.0, May 2013, Q-Chem Inc. Pittsburgh 
 -------------------------------------------------------
 ---------------------------------------
  Cycle       Energy         DIIS Error
 ---------------------------------------
    1    -155.2523380221      9.92E-02
    2    -154.9202442372      1.35E-02
    3    -154.9473533386      2.90E-03
    4    -154.9744109798      2.10E-03
    5    -154.9749840454      2.52E-04 Done RCA. Switching to DIIS
    6    -154.9756461730      1.02E-04
    7    -154.9756500479      8.69E-06 Convergence criterion met
 ---------------------------------------
 SCF time:  CPU 14.18 s  wall 2.38 s
 SCF   energy in the small basis set = -154.97565005
 Total energy in the small basis set = -154.97565005
 ----------------------------------------------------
  Cycle       Energy    
 ----------------------------------------------------
    1     -18.6952359580     -1.87E+01
 Long-range K will be added via erf
 Coulomb attenuation parameter = 0.2 bohr**(-1)
 A restricted hybrid HF-DFT SCF calculation will be
 performed using Relaxed Constraint Minimization + Pulay DIIS
 Exchange:     0.2220 Hartree-Fock + 1.0000 wB97X-D + LR-HF
 Correlation:  1.0000 wB97X-D
 Using Euler-Maclaurin-Lebedev (75,302) quadrature formula
 Dispersion:   Grimme D
 SCF converges when DIIS error is below 1.0E-05
 Basis2 calculation detected. Using small basis as guess for larger.
 SCFMinFind is unable to tell whether the solution found is close.
 Resetting ReadMinima to 0 and attempting to follow guess.
 SCFMinFind following SCF Guess.
 using 6 threads for integral computing
 -------------------------------------------------------
 OpenMP Integral computing Module                
 Release: version 1.0, May 2013, Q-Chem Inc. Pittsburgh 
 -------------------------------------------------------
 using 6 threads for integral computing
 -------------------------------------------------------
 OpenMP Integral computing Module                
 Release: version 1.0, May 2013, Q-Chem Inc. Pittsburgh 
 -------------------------------------------------------
 ---------------------------------------
  Cycle       Energy         DIIS Error
 ---------------------------------------
    1    -155.0059440186      5.74E-03
    2    -155.0197613560      3.00E-03
    3    -155.0303101325      4.06E-04 Done RCA. Switching to DIIS
    4    -155.0432661910      3.28E-04
    5    -155.0435783555      3.97E-05
    6    -155.0435865121      5.65E-06 Convergence criterion met
 ---------------------------------------
 SCF time:  CPU 38.40 s  wall 6.42 s
 SCF   energy in the final basis set = -155.04358651
 Total energy in the final basis set = -155.04358651
 
 --------------------------------------------------------------
 
                    Orbital Energies (a.u.)
 --------------------------------------------------------------
 
 Alpha MOs
 -- Occupied --
-19.2484 -10.3384 -10.2823  -1.1107  -0.8382  -0.7268  -0.5858  -0.5344
 -0.5203  -0.4616  -0.4580  -0.4190  -0.3653
 -- Virtual --
  0.0655   0.0869   0.0883   0.1027   0.1234   0.1334   0.1371   0.1810
  0.1970   0.2134   0.2360   0.2455   0.2627   0.2729   0.2787   0.2990
  0.3033   0.3232   0.3403   0.3768   0.4549   0.4923   0.5039   0.5267
  0.5569   0.5726   0.5749   0.6051   0.6076   0.6226   0.6608   0.6768
  0.6794   0.7081   0.7334   0.8064   0.8489   0.8901   0.8966   0.9615
  0.9876   1.0436   1.0577   1.0904   1.1482   1.1684   1.1901   1.1981
  1.2056   1.2311   1.2566   1.3025   1.3043   1.3333   1.3565   1.3806
  1.4481   1.4667   1.4726   1.4774   1.5036   1.5441   1.5907   1.6285
  1.6458   1.7137   1.9253   2.0301   2.0774   2.2330   2.2803   2.4261
  2.4572   2.4876   2.5213   2.5646   2.6913   2.7850   2.8307   2.8658
  2.9141   2.9521   2.9823   3.0128   3.0409   3.0530   3.0700   3.0857
  3.1023   3.1710   3.2079   3.2408   3.2668   3.2790   3.3188   3.3278
  3.3418   3.3492   3.3873   3.4250   3.5030   3.5408   3.5602   3.5669
  3.5844   3.6158   3.6337   3.6728   3.6984   3.7158   3.7889   3.8195
  3.8703   3.8843   3.9069   3.9214   3.9655   3.9904   4.0145   4.0419
  4.0714   4.1119   4.1373   4.1627   4.1795   4.2323   4.2700   4.2995
  4.3295   4.3638   4.4142   4.4448   4.5205   4.6138   4.7111   4.7642
  4.8530   4.9104   4.9191   4.9699   5.0238   5.0432   5.0967   5.1708
  5.1933   5.2123   5.2624   5.2796   5.3070   5.3484   5.3917   5.4730
  5.5039   5.5348   5.6294   5.7054   5.8086   5.8776   6.3565   6.3686
  6.3961   6.5387   6.6499   6.7760   7.1182   7.3364   7.3740   7.5210
  7.6706   8.0827  25.0574  25.3725  50.4464
 --------------------------------------------------------------
 
 -----------------------------------------------------------------
                    Cartesian Multipole Moments
 -----------------------------------------------------------------
    Charge (ESU x 10^10)
                 0.0000
    Dipole Moment (Debye)
         X      -1.2925      Y      -0.3077      Z       1.2922
       Tot       1.8534
    Quadrupole Moments (Debye-Ang)
        XX     -11.0637     XY      -0.9084     YY     -18.7392
        XZ      -3.4493     YZ      -0.2943     ZZ     -20.0629
    Octopole Moments (Debye-Ang^2)
       XXX     206.7116    XXY      -3.3223    XYY      80.1330
       YYY     -37.0766    XXZ       8.8906    XYZ       1.0959
       YYZ      -0.4198    XZZ      85.5311    YZZ     -12.8525
       ZZZ      -0.0831
    Hexadecapole Moments (Debye-Ang^3)
      XXXX   -2085.9468   XXXY      99.5744   XXYY    -389.8980
      XYYY     152.5950   YYYY    -106.8968   XXXZ     -17.3293
      XXYZ      -4.1628   XYYZ       3.6654   YYYZ      -4.4210
      XXZZ    -399.6275   XYZZ      53.4274   YYZZ     -22.9133
      XZZZ       7.9551   YZZZ      -1.7335   ZZZZ     -37.0766
 -----------------------------------------------------------------
Archival summary:
1\1\centos77-c7\SP\ProcedureUnspecified\BasisUnspecified\126\shihchen\MonJul2714:31:352020MonJul2714:31:352020\0\\#,ProcedureUnspecified,BasisUnspecified,\\0,1\C\H,1,1.08854\H,1,1.09322,2,107.889\O,1,1.47238,2,104.221,3,-115.522,0\H,4,0.958277,1,107.687,2,178.628,0\C,1,1.59495,2,111.874,3,123.87,0\H,6,1.08984,1,120.109,2,-61.2113,0\H,6,1.0912,1,106.009,2,62.4999,0\H,6,1.09335,1,107.28,2,174.827,0\\\@

 Total job time:  10.90s(wall), 56.32s(cpu) 
 Mon Jul 27 14:31:35 2020

        *************************************************************
        *                                                           *
        *  Thank you very much for using Q-Chem.  Have a nice day.  *
        *                                                           *
        *************************************************************


