                  Welcome to Q-Chem
     A Quantum Leap Into The Future Of Chemistry


 Q-Chem 5.3 (devel), Q-Chem, Inc., Pleasanton, CA (2020)

 Yihan Shao,  Zhengting Gan,  E. Epifanovsky,  A. T. B. Gilbert,  M. Wormit,  
 J. Kussmann,  A. W. Lange,  A. Behn,  Jia Deng,  Xintian Feng,  D. Ghosh,  
 M. Goldey,  P. R. Horn,  L. D. Jacobson,  I. Kaliman,  T. Kus,  A. Landau,  
 Jie Liu,  E. I. Proynov,  R. M. Richard,  R. P. Steele,  E. J. Sundstrom,  
 H. L. Woodcock III,  P. M. Zimmerman,  D. Zuev,  B. Alam,  B. Albrecht,  
 E. Alguire,  S. A. Baeppler,  D. Barton,  Z. Benda,  Y. A. Bernard,  
 E. J. Berquist,  K. B. Bravaya,  H. Burton,  K. Carter-Fenk,  D. Casanova,  
 Chun-Min Chang,  Yunqing Chen,  A. Chien,  K. D. Closser,  M. P. Coons,  
 S. Coriani,  S. Dasgupta,  A. L. Dempwolff,  M. Diedenhofen,  Hainam Do,  
 R. G. Edgar,  Po-Tung Fang,  S. Faraji,  S. Fatehi,  Qingguo Feng,  
 J. Fosso-Tande,  J. Gayvert,  Qinghui Ge,  A. Ghysels,  G. Gidofalvi,  
 J. Gomes,  J. Gonthier,  A. Gunina,  D. Hait,  M. W. D. Hanson-Heine,  
 P. H. P. Harbach,  A. W. Hauser,  M. F. Herbst,  J. E. Herr,  
 E. G. Hohenstein,  Z. C. Holden,  Kerwin Hui,  B. C. Huynh,  T.-C. Jagau,  
 Hyunjun Ji,  B. Kaduk,  K. Khistyaev,  Jaehoon Kim,  P. Klunzinger,  K. Koh,  
 D. Kosenkov,  L. Koulias,  T. Kowalczyk,  C. M. Krauter,  A. Kunitsa,  
 Ka Un Lao,  A. Laurent,  K. V. Lawler,  Joonho Lee,  D. Lefrancois,  
 S. Lehtola,  D. S. Levine,  Yi-Pei Li,  You-Sheng Lin,  Fenglai Liu,  
 Kuan-Yu Liu,  E. Livshits,  M. Loipersberger,  A. Luenser,  P. Manohar,  
 E. Mansoor,  S. F. Manzer,  Shan-Ping Mao,  Yuezhi Mao,  N. Mardirossian,  
 A. V. Marenich,  T. Markovich,  L. A. Martinez-Martinez,  S. A. Maurer,  
 N. J. Mayhall,  S. C. McKenzie,  J.-M. Mewes,  P. Morgante,  A. F. Morrison,  
 J. W. Mullinax,  K. Nanda,  T. S. Nguyen-Beck,  R. Olivares-Amaya,  
 K. J. Oosterbaan,  J. A. Parkhill,  S. K. Paul,  F. Pavosevic,  Zheng Pei,  
 T. M. Perrine,  F. Plasser,  P. Pokhilko,  S. Prager,  A. Prociuk,  
 E. Ramos,  B. Rana,  D. R. Rehn,  F. Rob,  M. Scheurer,  M. Schneider,  
 N. Sergueev,  S. M. Sharada,  S. Sharma,  D. W. Small,  T. Stauch,  
 C. J. Stein,  T. Stein,  Yu-Chuan Su,  S. P. Veccham,  Zhen Tao,  
 A. J. W. Thom,  A. Tkatchenko,  T. Tsuchimochi,  N. M. Tubman,  L. Vogt,  
 M. L. Vidal,  O. Vydrov,  M. A. Watson,  J. Wenzel,  M. de Wergifosse,  
 T. A. Wesolowski,  A. White,  J. Witte,  A. Yamada,  Jun Yang,  K. Yao,  
 S. Yeganeh,  S. R. Yost,  Zhi-Qiang You,  A. Zech,  Igor Ying Zhang,  
 Xing Zhang,  Yan Zhao,  Ying Zhu,  B. R. Brooks,  G. K. L. Chan,  
 C. J. Cramer,  M. S. Gordon,  W. J. Hehre,  A. Klamt,  M. W. Schmidt,  
 C. D. Sherrill,  D. G. Truhlar,  A. Aspuru-Guzik,  R. Baer,  A. T. Bell,  
 N. A. Besley,  Jeng-Da Chai,  A. E. DePrince, III,  R. A. DiStasio Jr.,  
 A. Dreuw,  B. D. Dunietz,  T. R. Furlani,  Chao-Ping Hsu,  Yousung Jung,  
 Jing Kong,  D. S. Lambrecht,  WanZhen Liang,  C. Ochsenfeld,  
 V. A. Rassolov,  L. V. Slipchenko,  J. E. Subotnik,  T. Van Voorhis,  
 J. M. Herbert,  A. I. Krylov,  P. M. W. Gill,  M. Head-Gordon

 Contributors to earlier versions of Q-Chem not listed above: 
 R. D. Adamson,  B. Austin,  J. Baker,  G. J. O. Beran,  K. Brandhorst,  
 S. T. Brown,  E. F. C. Byrd,  A. K. Chakraborty,  C.-L. Cheng,  
 Siu Hung Chien,  D. M. Chipman,  D. L. Crittenden,  H. Dachsel,  
 R. J. Doerksen,  A. D. Dutoi,  L. Fusti-Molnar,  W. A. Goddard III,  
 A. Golubeva-Zadorozhnaya,  S. R. Gwaltney,  G. Hawkins,  A. Heyden,  
 S. Hirata,  G. Kedziora,  F. J. Keil,  C. Kelley,  Jihan Kim,  R. A. King,  
 R. Z. Khaliullin,  P. P. Korambath,  W. Kurlancheek,  A. M. Lee,  M. S. Lee,  
 S. V. Levchenko,  Ching Yeh Lin,  D. Liotard,  R. C. Lochan,  I. Lotan,  
 P. E. Maslen,  N. Nair,  D. P. O'Neill,  D. Neuhauser,  E. Neuscamman,  
 C. M. Oana,  R. Olson,  B. Peters,  R. Peverati,  P. A. Pieniazek,  
 Y. M. Rhee,  J. Ritchie,  M. A. Rohrdanz,  E. Rosta,  N. J. Russ,  
 H. F. Schaefer III,  N. E. Schultz,  N. Shenvi,  A. C. Simmonett,  A. Sodt,  
 D. Stuck,  K. S. Thanthiriwatte,  V. Vanovschi,  Tao Wang,  A. Warshel,  
 C. F. Williams,  Q. Wu,  X. Xu,  W. Zhang

 Please cite Q-Chem as follows:
 Y. Shao et al., Mol. Phys. 113, 184-215 (2015)
 DOI: 10.1080/00268976.2014.952696

 Q-Chem 5.3.0 for Intel X86 EM64T Linux

 Parts of Q-Chem use Armadillo 9.800.1 (Horizon Scraper).
 http://arma.sourceforge.net/

 Q-Chem begins on Mon Jul 27 14:54:09 2020  

Host: centos77-c7
0

     Scratch files written to /tmp/29924.centos77-h1/qchem111711//
Processing $rem in /opt/qchem-5.3.0-intel2020u1//config/preferences:
Processing $rem in /home/shihchengli/.qchemrc:

Checking the input file for inconsistencies... 	...done.

--------------------------------------------------------------
User input:
--------------------------------------------------------------
$rem
   JOBTYPE  sp
   EXCHANGE   omegaB97X-D
   BASIS   6-311+G(2df,2pd)
   UNRESTRICTED   False
   max_scf_cycles   250
   geom_opt_max_cycles   1500
   basis2 6-31G*
   scf_algorithm rca_diis
   SYM_IGNORE  TRUE
   print_input   true
   geom_opt_dmax   80
   pop_mulliken false
   XC_GRID 000075000302
$end

$molecule
0 1
C       -5.3821524329     0.3026687681     0.0385506870
C       -4.1379392653     1.1772264628     0.1236734637
H       -5.4905185570     -0.0763835975     -0.9212973929
H       -6.2238469691     0.8506634874     0.2764428107
H       -5.3212185035     -0.4809306548     0.6902443510
O       -2.9573774734     0.4886138274     -0.2435739460
H       -4.0409420217     1.5971194359     1.1244544924
H       -4.2150823549     2.0097790866     -0.5680290073
H       -2.8337324222     -0.2515368159     0.3498445415
$end
--------------------------------------------------------------
 ----------------------------------------------------------------
             Standard Nuclear Orientation (Angstroms)
    I     Atom           X                Y                Z
 ----------------------------------------------------------------
    1      C      -5.3821524329     0.3026687681     0.0385506870
    2      C      -4.1379392653     1.1772264628     0.1236734637
    3      H      -5.4905185570    -0.0763835975    -0.9212973929
    4      H      -6.2238469691     0.8506634874     0.2764428107
    5      H      -5.3212185035    -0.4809306548     0.6902443510
    6      O      -2.9573774734     0.4886138274    -0.2435739460
    7      H      -4.0409420217     1.5971194359     1.1244544924
    8      H      -4.2150823549     2.0097790866    -0.5680290073
    9      H      -2.8337324222    -0.2515368159     0.3498445415
 ----------------------------------------------------------------
 Nuclear Repulsion Energy =          82.60673799 hartrees
 There are       13 alpha and       13 beta electrons
 Requested basis set is 6-311+G(2df,2pd)
 There are 60 shells and 186 basis functions

 Total QAlloc Memory Limit   2000 MB
 Mega-Array Size       188 MB
 MEM_STATIC part       192 MB

                       Distance Matrix (Angstroms)
             C (  1)   C (  2)   H (  3)   H (  4)   H (  5)   O (  6)
   C (  2)  1.523208
   H (  3)  1.037657  2.119663
   H (  4)  1.032153  2.116836  1.682786
   H (  5)  1.021002  2.114388  1.670146  1.661058
   O (  6)  2.448204  1.415198  2.682412  3.327359  2.720253
   H (  7)  2.157229  1.089624  3.014463  2.457925  2.479100  2.067462
   H (  8)  2.155045  1.085148  2.470549  2.468161  3.001737  2.000259
   H (  9)  2.626498  1.947684  2.950423  3.565545  2.521127  0.956690
             H (  7)   H (  8)
   H (  8)  1.750746
   H (  9)  2.339852  2.804313
 
 A cutoff of  1.0D-09 yielded   1789 shell pairs
 There are     17319 function pairs (     21504 Cartesian)
 Smallest overlap matrix eigenvalue = 1.38E-04

 Scale SEOQF with 1.000000e-02/1.000000e-01/1.000000e-01

 Standard Electronic Orientation quadrupole field applied
 Nucleus-field energy     =     0.0000000027 hartrees
 Requested basis set is 6-31G(d)
 There are 24 shells and 54 basis functions
 A cutoff of  1.0D-09 yielded    298 shell pairs
 There are      1549 function pairs (      1732 Cartesian)
 Smallest overlap matrix eigenvalue = 7.00E-03
 Guess from superposition of atomic densities
 Warning:  Energy on first SCF cycle will be non-variational
 SAD guess density has 26.000000 electrons
 Long-range K will be added via erf
 Coulomb attenuation parameter = 0.2 bohr**(-1)
 A restricted hybrid HF-DFT SCF calculation will be
 performed using Relaxed Constraint Minimization + Pulay DIIS
 Exchange:     0.2220 Hartree-Fock + 1.0000 wB97X-D + LR-HF
 Correlation:  1.0000 wB97X-D
 Using Euler-Maclaurin-Lebedev (75,302) quadrature formula
 Dispersion:   Grimme D
 SCF converges when DIIS error is below 1.0E-04
 using 6 threads for integral computing
 -------------------------------------------------------
 OpenMP Integral computing Module                
 Release: version 1.0, May 2013, Q-Chem Inc. Pittsburgh 
 -------------------------------------------------------
 using 6 threads for integral computing
 -------------------------------------------------------
 OpenMP Integral computing Module                
 Release: version 1.0, May 2013, Q-Chem Inc. Pittsburgh 
 -------------------------------------------------------
 ---------------------------------------
  Cycle       Energy         DIIS Error
 ---------------------------------------
    1    -155.5355934214      1.10E-01
    2    -154.9131238830      1.40E-02
    3    -154.9443021973      3.28E-03
    4    -154.9713994686      2.83E-03
    5    -154.9723877702      2.33E-04 Done RCA. Switching to DIIS
    6    -154.9734926746      1.34E-04
    7    -154.9734977663      7.53E-06 Convergence criterion met
 ---------------------------------------
 SCF time:  CPU 14.41 s  wall 2.42 s
 SCF   energy in the small basis set = -154.97349777
 Total energy in the small basis set = -154.97349777
 ----------------------------------------------------
  Cycle       Energy    
 ----------------------------------------------------
    1     -18.8176374026     -1.88E+01
 Long-range K will be added via erf
 Coulomb attenuation parameter = 0.2 bohr**(-1)
 A restricted hybrid HF-DFT SCF calculation will be
 performed using Relaxed Constraint Minimization + Pulay DIIS
 Exchange:     0.2220 Hartree-Fock + 1.0000 wB97X-D + LR-HF
 Correlation:  1.0000 wB97X-D
 Using Euler-Maclaurin-Lebedev (75,302) quadrature formula
 Dispersion:   Grimme D
 SCF converges when DIIS error is below 1.0E-05
 Basis2 calculation detected. Using small basis as guess for larger.
 SCFMinFind is unable to tell whether the solution found is close.
 Resetting ReadMinima to 0 and attempting to follow guess.
 SCFMinFind following SCF Guess.
 using 6 threads for integral computing
 -------------------------------------------------------
 OpenMP Integral computing Module                
 Release: version 1.0, May 2013, Q-Chem Inc. Pittsburgh 
 -------------------------------------------------------
 using 6 threads for integral computing
 -------------------------------------------------------
 OpenMP Integral computing Module                
 Release: version 1.0, May 2013, Q-Chem Inc. Pittsburgh 
 -------------------------------------------------------
 ---------------------------------------
  Cycle       Energy         DIIS Error
 ---------------------------------------
    1    -155.0061917534      5.72E-03
    2    -155.0219005493      2.85E-03
    3    -155.0314803263      3.49E-04 Done RCA. Switching to DIIS
    4    -155.0429610916      2.47E-04
    5    -155.0431430025      3.75E-05
    6    -155.0431500990      5.54E-06 Convergence criterion met
 ---------------------------------------
 SCF time:  CPU 39.34 s  wall 6.58 s
 SCF   energy in the final basis set = -155.04315010
 Total energy in the final basis set = -155.04315010
 
 --------------------------------------------------------------
 
                    Orbital Energies (a.u.)
 --------------------------------------------------------------
 
 Alpha MOs
 -- Occupied --
-19.2452 -10.3248 -10.2537  -1.1252  -0.8568  -0.7304  -0.5971  -0.5493
 -0.5269  -0.4755  -0.4661  -0.4128  -0.3615
 -- Virtual --
  0.0655   0.0874   0.0892   0.1020   0.1273   0.1339   0.1383   0.1821
  0.2025   0.2249   0.2472   0.2525   0.2688   0.2894   0.2899   0.3105
  0.3172   0.3306   0.3434   0.3837   0.4549   0.4921   0.5025   0.5277
  0.5703   0.5932   0.5970   0.6131   0.6204   0.6363   0.6712   0.6854
  0.6973   0.7320   0.7483   0.8077   0.8524   0.9060   0.9330   0.9745
  0.9929   1.0582   1.0677   1.1258   1.1529   1.1807   1.1875   1.2271
  1.2412   1.2466   1.2848   1.3044   1.3299   1.3691   1.3823   1.4231
  1.4600   1.4807   1.4885   1.4995   1.5136   1.5549   1.6132   1.6397
  1.6979   1.7351   1.9401   2.0496   2.1154   2.2818   2.2859   2.4262
  2.4385   2.4967   2.5376   2.5814   2.7083   2.8445   2.8711   2.9006
  2.9547   2.9791   3.0297   3.0381   3.0426   3.0660   3.0939   3.1055
  3.1322   3.1819   3.2341   3.2612   3.2994   3.3169   3.3459   3.3657
  3.3994   3.4113   3.4136   3.4461   3.5154   3.5713   3.5930   3.6053
  3.6146   3.6533   3.6629   3.7156   3.7600   3.7871   3.7950   3.8423
  3.9089   3.9326   3.9655   3.9862   4.0141   4.0313   4.0581   4.0825
  4.1219   4.1414   4.1789   4.2173   4.2566   4.3009   4.3245   4.3479
  4.3879   4.4155   4.5284   4.5609   4.6228   4.6824   4.7398   4.8486
  4.8942   5.0013   5.0361   5.0952   5.1303   5.1522   5.2148   5.2511
  5.3468   5.3549   5.4061   5.4670   5.4824   5.5081   5.5333   5.5591
  5.5960   5.6272   5.7013   5.8599   5.9420   6.0438   6.4089   6.5095
  6.5302   6.6597   6.7145   6.8263   7.1298   7.3552   7.4314   7.5564
  7.7280   8.1146  25.1884  25.6221  50.4696
 --------------------------------------------------------------
 
 -----------------------------------------------------------------
                    Cartesian Multipole Moments
 -----------------------------------------------------------------
    Charge (ESU x 10^10)
                -0.0000
    Dipole Moment (Debye)
         X      -1.2211      Y      -0.4505      Z       1.2599
       Tot       1.8115
    Quadrupole Moments (Debye-Ang)
        XX     -11.4792     XY      -0.4675     YY     -18.8245
        XZ      -3.3531     YZ      -0.2994     ZZ     -19.7949
    Octopole Moments (Debye-Ang^2)
       XXX     209.3450    XXY      -4.4712    XYY      79.6412
       YYY     -36.9745    XXZ       8.4798    XYZ       1.1263
       YYZ      -0.4444    XZZ      83.9452    YZZ     -12.7180
       ZZZ       0.0231
    Hexadecapole Moments (Debye-Ang^3)
      XXXX   -2098.0109   XXXY     102.1175   XXYY    -381.0697
      XYYY     150.9313   YYYY    -103.4436   XXXZ     -15.0099
      XXYZ      -4.3357   XYYZ       3.4444   YYYZ      -4.1318
      XXZZ    -388.2182   XYZZ      52.4535   YYZZ     -22.2508
      XZZZ       6.4942   YZZZ      -1.7468   ZZZZ     -35.5167
 -----------------------------------------------------------------
Archival summary:
1\1\centos77-c7\SP\ProcedureUnspecified\BasisUnspecified\126\shihchen\MonJul2714:54:202020MonJul2714:54:202020\0\\#,ProcedureUnspecified,BasisUnspecified,\\0,1\C\H,1,1.08515\H,1,1.08962,2,107.225\O,1,1.4152,2,105.498,3,-117.902,0\H,4,0.95669,1,108.863,2,179.014,0\C,1,1.52321,2,110.293,3,120.005,0\H,6,1.021,1,110.869,2,-179.666,0\H,6,1.03215,1,110.389,2,-60.0271,0\H,6,1.03766,1,110.288,2,60.2127,0\\\@

 Total job time:  11.20s(wall), 57.70s(cpu) 
 Mon Jul 27 14:54:20 2020

        *************************************************************
        *                                                           *
        *  Thank you very much for using Q-Chem.  Have a nice day.  *
        *                                                           *
        *************************************************************


