                  Welcome to Q-Chem
     A Quantum Leap Into The Future Of Chemistry


 Q-Chem 5.3 (devel), Q-Chem, Inc., Pleasanton, CA (2020)

 Yihan Shao,  Zhengting Gan,  E. Epifanovsky,  A. T. B. Gilbert,  M. Wormit,  
 J. Kussmann,  A. W. Lange,  A. Behn,  Jia Deng,  Xintian Feng,  D. Ghosh,  
 M. Goldey,  P. R. Horn,  L. D. Jacobson,  I. Kaliman,  T. Kus,  A. Landau,  
 Jie Liu,  E. I. Proynov,  R. M. Richard,  R. P. Steele,  E. J. Sundstrom,  
 H. L. Woodcock III,  P. M. Zimmerman,  D. Zuev,  B. Alam,  B. Albrecht,  
 E. Alguire,  S. A. Baeppler,  D. Barton,  Z. Benda,  Y. A. Bernard,  
 E. J. Berquist,  K. B. Bravaya,  H. Burton,  K. Carter-Fenk,  D. Casanova,  
 Chun-Min Chang,  Yunqing Chen,  A. Chien,  K. D. Closser,  M. P. Coons,  
 S. Coriani,  S. Dasgupta,  A. L. Dempwolff,  M. Diedenhofen,  Hainam Do,  
 R. G. Edgar,  Po-Tung Fang,  S. Faraji,  S. Fatehi,  Qingguo Feng,  
 J. Fosso-Tande,  J. Gayvert,  Qinghui Ge,  A. Ghysels,  G. Gidofalvi,  
 J. Gomes,  J. Gonthier,  A. Gunina,  D. Hait,  M. W. D. Hanson-Heine,  
 P. H. P. Harbach,  A. W. Hauser,  M. F. Herbst,  J. E. Herr,  
 E. G. Hohenstein,  Z. C. Holden,  Kerwin Hui,  B. C. Huynh,  T.-C. Jagau,  
 Hyunjun Ji,  B. Kaduk,  K. Khistyaev,  Jaehoon Kim,  P. Klunzinger,  K. Koh,  
 D. Kosenkov,  L. Koulias,  T. Kowalczyk,  C. M. Krauter,  A. Kunitsa,  
 Ka Un Lao,  A. Laurent,  K. V. Lawler,  Joonho Lee,  D. Lefrancois,  
 S. Lehtola,  D. S. Levine,  Yi-Pei Li,  You-Sheng Lin,  Fenglai Liu,  
 Kuan-Yu Liu,  E. Livshits,  M. Loipersberger,  A. Luenser,  P. Manohar,  
 E. Mansoor,  S. F. Manzer,  Shan-Ping Mao,  Yuezhi Mao,  N. Mardirossian,  
 A. V. Marenich,  T. Markovich,  L. A. Martinez-Martinez,  S. A. Maurer,  
 N. J. Mayhall,  S. C. McKenzie,  J.-M. Mewes,  P. Morgante,  A. F. Morrison,  
 J. W. Mullinax,  K. Nanda,  T. S. Nguyen-Beck,  R. Olivares-Amaya,  
 K. J. Oosterbaan,  J. A. Parkhill,  S. K. Paul,  F. Pavosevic,  Zheng Pei,  
 T. M. Perrine,  F. Plasser,  P. Pokhilko,  S. Prager,  A. Prociuk,  
 E. Ramos,  B. Rana,  D. R. Rehn,  F. Rob,  M. Scheurer,  M. Schneider,  
 N. Sergueev,  S. M. Sharada,  S. Sharma,  D. W. Small,  T. Stauch,  
 C. J. Stein,  T. Stein,  Yu-Chuan Su,  S. P. Veccham,  Zhen Tao,  
 A. J. W. Thom,  A. Tkatchenko,  T. Tsuchimochi,  N. M. Tubman,  L. Vogt,  
 M. L. Vidal,  O. Vydrov,  M. A. Watson,  J. Wenzel,  M. de Wergifosse,  
 T. A. Wesolowski,  A. White,  J. Witte,  A. Yamada,  Jun Yang,  K. Yao,  
 S. Yeganeh,  S. R. Yost,  Zhi-Qiang You,  A. Zech,  Igor Ying Zhang,  
 Xing Zhang,  Yan Zhao,  Ying Zhu,  B. R. Brooks,  G. K. L. Chan,  
 C. J. Cramer,  M. S. Gordon,  W. J. Hehre,  A. Klamt,  M. W. Schmidt,  
 C. D. Sherrill,  D. G. Truhlar,  A. Aspuru-Guzik,  R. Baer,  A. T. Bell,  
 N. A. Besley,  Jeng-Da Chai,  A. E. DePrince, III,  R. A. DiStasio Jr.,  
 A. Dreuw,  B. D. Dunietz,  T. R. Furlani,  Chao-Ping Hsu,  Yousung Jung,  
 Jing Kong,  D. S. Lambrecht,  WanZhen Liang,  C. Ochsenfeld,  
 V. A. Rassolov,  L. V. Slipchenko,  J. E. Subotnik,  T. Van Voorhis,  
 J. M. Herbert,  A. I. Krylov,  P. M. W. Gill,  M. Head-Gordon

 Contributors to earlier versions of Q-Chem not listed above: 
 R. D. Adamson,  B. Austin,  J. Baker,  G. J. O. Beran,  K. Brandhorst,  
 S. T. Brown,  E. F. C. Byrd,  A. K. Chakraborty,  C.-L. Cheng,  
 Siu Hung Chien,  D. M. Chipman,  D. L. Crittenden,  H. Dachsel,  
 R. J. Doerksen,  A. D. Dutoi,  L. Fusti-Molnar,  W. A. Goddard III,  
 A. Golubeva-Zadorozhnaya,  S. R. Gwaltney,  G. Hawkins,  A. Heyden,  
 S. Hirata,  G. Kedziora,  F. J. Keil,  C. Kelley,  Jihan Kim,  R. A. King,  
 R. Z. Khaliullin,  P. P. Korambath,  W. Kurlancheek,  A. M. Lee,  M. S. Lee,  
 S. V. Levchenko,  Ching Yeh Lin,  D. Liotard,  R. C. Lochan,  I. Lotan,  
 P. E. Maslen,  N. Nair,  D. P. O'Neill,  D. Neuhauser,  E. Neuscamman,  
 C. M. Oana,  R. Olson,  B. Peters,  R. Peverati,  P. A. Pieniazek,  
 Y. M. Rhee,  J. Ritchie,  M. A. Rohrdanz,  E. Rosta,  N. J. Russ,  
 H. F. Schaefer III,  N. E. Schultz,  N. Shenvi,  A. C. Simmonett,  A. Sodt,  
 D. Stuck,  K. S. Thanthiriwatte,  V. Vanovschi,  Tao Wang,  A. Warshel,  
 C. F. Williams,  Q. Wu,  X. Xu,  W. Zhang

 Please cite Q-Chem as follows:
 Y. Shao et al., Mol. Phys. 113, 184-215 (2015)
 DOI: 10.1080/00268976.2014.952696

 Q-Chem 5.3.0 for Intel X86 EM64T Linux

 Parts of Q-Chem use Armadillo 9.800.1 (Horizon Scraper).
 http://arma.sourceforge.net/

 Q-Chem begins on Mon Jul 27 14:36:16 2020  

Host: centos77-c7
0

     Scratch files written to /tmp/29924.centos77-h1/qchem107352//
Processing $rem in /opt/qchem-5.3.0-intel2020u1//config/preferences:
Processing $rem in /home/shihchengli/.qchemrc:

Checking the input file for inconsistencies... 	...done.

--------------------------------------------------------------
User input:
--------------------------------------------------------------
$rem
   JOBTYPE  sp
   EXCHANGE   omegaB97X-D
   BASIS   6-311+G(2df,2pd)
   UNRESTRICTED   False
   max_scf_cycles   250
   geom_opt_max_cycles   1500
   basis2 6-31G*
   scf_algorithm rca_diis
   SYM_IGNORE  TRUE
   print_input   true
   geom_opt_dmax   80
   pop_mulliken false
   XC_GRID 000075000302
$end

$molecule
0 1
C       -5.2901613135     0.3382089588     0.0955724642
C       -4.2340982196     1.1611397758     0.0620414682
H       -5.3179616594     0.0110915073     -0.9423556893
H       -6.1789529851     0.9525196730     0.2424175100
H       -5.2787749322     -0.5163594309     0.7661818593
O       -2.8266178299     0.3914612137     -0.3014564150
H       -4.0152009665     1.4805857377     1.0776527675
H       -4.4644044419     2.0304129265     -0.5436337643
H       -2.9966376518     -0.2318403619     0.4138897996
$end
--------------------------------------------------------------
 ----------------------------------------------------------------
             Standard Nuclear Orientation (Angstroms)
    I     Atom           X                Y                Z
 ----------------------------------------------------------------
    1      C      -5.2901613135     0.3382089588     0.0955724642
    2      C      -4.2340982196     1.1611397758     0.0620414682
    3      H      -5.3179616594     0.0110915073    -0.9423556893
    4      H      -6.1789529851     0.9525196730     0.2424175100
    5      H      -5.2787749322    -0.5163594309     0.7661818593
    6      O      -2.8266178299     0.3914612137    -0.3014564150
    7      H      -4.0152009665     1.4805857377     1.0776527675
    8      H      -4.4644044419     2.0304129265    -0.5436337643
    9      H      -2.9966376518    -0.2318403619     0.4138897996
 ----------------------------------------------------------------
 Nuclear Repulsion Energy =          81.54016805 hartrees
 There are       13 alpha and       13 beta electrons
 Requested basis set is 6-311+G(2df,2pd)
 There are 60 shells and 186 basis functions

 Total QAlloc Memory Limit   2000 MB
 Mega-Array Size       188 MB
 MEM_STATIC part       192 MB

                       Distance Matrix (Angstroms)
             C (  1)   C (  2)   H (  3)   H (  4)   H (  5)   O (  6)
   C (  2)  1.339257
   H (  3)  1.088611  1.872481
   H (  4)  1.090363  1.964311  1.741057
   H (  5)  1.086340  2.097896  1.788530  1.800626
   O (  6)  2.495899  1.644852  2.600428  3.442199  2.824370
   H (  7)  1.973583  1.086935  2.817274  2.378717  2.383574  2.121524
   H (  8)  1.988470  1.084214  2.228272  2.172420  2.977392  2.329626
   H (  9)  2.384645  1.896180  2.699438  3.399889  2.326631  0.963915
             H (  7)   H (  8)
   H (  8)  1.769933
   H (  9)  2.100108  2.861640
 
 A cutoff of  1.0D-09 yielded   1793 shell pairs
 There are     17373 function pairs (     21571 Cartesian)
 Smallest overlap matrix eigenvalue = 7.54E-05

 Scale SEOQF with 1.000000e-02/1.000000e-01/1.000000e-01

 Standard Electronic Orientation quadrupole field applied
 Nucleus-field energy     =     0.0000000025 hartrees
 Requested basis set is 6-31G(d)
 There are 24 shells and 54 basis functions
 A cutoff of  1.0D-09 yielded    298 shell pairs
 There are      1549 function pairs (      1732 Cartesian)
 Smallest overlap matrix eigenvalue = 4.90E-03
 Guess from superposition of atomic densities
 Warning:  Energy on first SCF cycle will be non-variational
 SAD guess density has 26.000000 electrons
 Long-range K will be added via erf
 Coulomb attenuation parameter = 0.2 bohr**(-1)
 A restricted hybrid HF-DFT SCF calculation will be
 performed using Relaxed Constraint Minimization + Pulay DIIS
 Exchange:     0.2220 Hartree-Fock + 1.0000 wB97X-D + LR-HF
 Correlation:  1.0000 wB97X-D
 Using Euler-Maclaurin-Lebedev (75,302) quadrature formula
 Dispersion:   Grimme D
 SCF converges when DIIS error is below 1.0E-04
 using 6 threads for integral computing
 -------------------------------------------------------
 OpenMP Integral computing Module                
 Release: version 1.0, May 2013, Q-Chem Inc. Pittsburgh 
 -------------------------------------------------------
 using 6 threads for integral computing
 -------------------------------------------------------
 OpenMP Integral computing Module                
 Release: version 1.0, May 2013, Q-Chem Inc. Pittsburgh 
 -------------------------------------------------------
 ---------------------------------------
  Cycle       Energy         DIIS Error
 ---------------------------------------
    1    -155.4956139836      1.10E-01
    2    -154.8499070506      1.50E-02
    3    -154.8833460574      3.35E-03
    4    -154.9204673301      2.35E-03
    5    -154.9212507926      4.03E-04 Done RCA. Switching to DIIS
    6    -154.9222319770      2.08E-04
    7    -154.9222495447      1.78E-05 Convergence criterion met
 ---------------------------------------
 SCF time:  CPU 14.46 s  wall 2.43 s
 SCF   energy in the small basis set = -154.92224954
 Total energy in the small basis set = -154.92224954
 ----------------------------------------------------
  Cycle       Energy    
 ----------------------------------------------------
    1     -18.7616548676     -1.88E+01
 Long-range K will be added via erf
 Coulomb attenuation parameter = 0.2 bohr**(-1)
 A restricted hybrid HF-DFT SCF calculation will be
 performed using Relaxed Constraint Minimization + Pulay DIIS
 Exchange:     0.2220 Hartree-Fock + 1.0000 wB97X-D + LR-HF
 Correlation:  1.0000 wB97X-D
 Using Euler-Maclaurin-Lebedev (75,302) quadrature formula
 Dispersion:   Grimme D
 SCF converges when DIIS error is below 1.0E-05
 Basis2 calculation detected. Using small basis as guess for larger.
 SCFMinFind is unable to tell whether the solution found is close.
 Resetting ReadMinima to 0 and attempting to follow guess.
 SCFMinFind following SCF Guess.
 using 6 threads for integral computing
 -------------------------------------------------------
 OpenMP Integral computing Module                
 Release: version 1.0, May 2013, Q-Chem Inc. Pittsburgh 
 -------------------------------------------------------
 using 6 threads for integral computing
 -------------------------------------------------------
 OpenMP Integral computing Module                
 Release: version 1.0, May 2013, Q-Chem Inc. Pittsburgh 
 -------------------------------------------------------
 ---------------------------------------
  Cycle       Energy         DIIS Error
 ---------------------------------------
    1    -154.9529708093      5.80E-03
    2    -154.9592015214      3.55E-03
    3    -154.9735945579      6.53E-04 Done RCA. Switching to DIIS
    4    -154.9923733336      6.80E-04
    5    -154.9936930438      4.72E-05
    6    -154.9937053175      8.90E-06 Convergence criterion met
 ---------------------------------------
 SCF time:  CPU 40.10 s  wall 6.71 s
 SCF   energy in the final basis set = -154.99370532
 Total energy in the final basis set = -154.99370532
 
 --------------------------------------------------------------
 
                    Orbital Energies (a.u.)
 --------------------------------------------------------------
 
 Alpha MOs
 -- Occupied --
-19.2429 -10.3297 -10.2752  -1.0790  -0.9106  -0.7038  -0.5941  -0.5557
 -0.5338  -0.4784  -0.4452  -0.4146  -0.3623
 -- Virtual --
  0.0615   0.0824   0.0882   0.0965   0.1113   0.1295   0.1346   0.1686
  0.1828   0.1998   0.2185   0.2399   0.2511   0.2634   0.2847   0.3051
  0.3145   0.3327   0.3578   0.3916   0.4582   0.4709   0.4808   0.5113
  0.5546   0.5631   0.5686   0.6122   0.6180   0.6505   0.6609   0.6882
  0.6989   0.7234   0.7468   0.8177   0.8791   0.9145   0.9445   0.9621
  0.9871   1.0400   1.0785   1.0874   1.1348   1.1893   1.2028   1.2337
  1.2438   1.2670   1.2897   1.3189   1.3393   1.3483   1.4050   1.4127
  1.4282   1.4633   1.4809   1.4886   1.5173   1.5240   1.6074   1.6239
  1.6471   1.7041   1.9087   1.9691   2.0668   2.1099   2.2931   2.4707
  2.5290   2.5698   2.5924   2.6232   2.7075   2.7606   2.8472   2.8910
  2.9332   2.9485   2.9848   2.9996   3.0123   3.0511   3.0547   3.0905
  3.1298   3.1607   3.1885   3.2407   3.3008   3.3123   3.3268   3.3533
  3.3792   3.3957   3.4430   3.4664   3.5153   3.5353   3.5687   3.5749
  3.5885   3.6067   3.6628   3.6770   3.7913   3.8192   3.8295   3.8789
  3.8987   3.9404   3.9671   3.9925   4.0217   4.0302   4.0543   4.1040
  4.1437   4.1603   4.1870   4.2059   4.2737   4.3082   4.3222   4.4199
  4.4270   4.4560   4.5235   4.6141   4.6388   4.7330   4.7992   4.8324
  4.8947   4.9627   4.9801   5.0194   5.0475   5.1372   5.1622   5.2205
  5.2500   5.2728   5.3192   5.3609   5.3855   5.4261   5.4793   5.5415
  5.5788   5.6305   5.6576   5.7269   5.8020   6.0584   6.2341   6.3615
  6.3870   6.4470   6.6395   6.6860   7.0882   7.2765   7.3569   7.4501
  7.4986   8.0291  25.1014  25.7121  50.4433
 --------------------------------------------------------------
 
 -----------------------------------------------------------------
                    Cartesian Multipole Moments
 -----------------------------------------------------------------
    Charge (ESU x 10^10)
                 0.0000
    Dipole Moment (Debye)
         X      -2.4550      Y       0.0782      Z       1.4144
       Tot       2.8343
    Quadrupole Moments (Debye-Ang)
        XX      -2.8204     XY      -3.0938     YY     -18.4325
        XZ      -3.9509     YZ      -0.7469     ZZ     -19.7345
    Octopole Moments (Debye-Ang^2)
       XXX     159.3447    XXY       9.9533    XYY      75.6468
       YYY     -34.6078    XXZ      11.2982    XYZ       3.2911
       YYZ      -0.4384    XZZ      82.7258    YZZ     -12.1881
       ZZZ       1.2784
    Hexadecapole Moments (Debye-Ang^3)
      XXXX   -1817.6270   XXXY      24.0592   XXYY    -353.1565
      XYYY     142.9124   YYYY     -96.9110   XXXZ     -28.3868
      XXYZ     -14.8343   XYYZ       4.6328   YYYZ      -3.7303
      XXZZ    -380.2126   XYZZ      51.5930   YYZZ     -22.0102
      XZZZ       3.9967   YZZZ      -0.6181   ZZZZ     -36.6060
 -----------------------------------------------------------------
Archival summary:
1\1\centos77-c7\SP\ProcedureUnspecified\BasisUnspecified\126\shihchen\MonJul2714:36:272020MonJul2714:36:272020\0\\#,ProcedureUnspecified,BasisUnspecified,\\0,1\C\H,1,1.08421\H,1,1.08694,2,109.215\C,1,1.33926,2,109.824,3,118.775,0\H,4,1.08634,1,119.378,2,-171.812,0\H,4,1.08861,1,100.423,2,67.2037,0\H,4,1.09036,1,107.455,2,-43.4645,0\O,1,1.64485,2,115.688,3,-111.679,0\H,8,0.963915,1,89.2922,2,178.82,0\\\@

 Total job time:  11.37s(wall), 58.43s(cpu) 
 Mon Jul 27 14:36:27 2020

        *************************************************************
        *                                                           *
        *  Thank you very much for using Q-Chem.  Have a nice day.  *
        *                                                           *
        *************************************************************


