                  Welcome to Q-Chem
     A Quantum Leap Into The Future Of Chemistry


 Q-Chem 5.3 (devel), Q-Chem, Inc., Pleasanton, CA (2020)

 Yihan Shao,  Zhengting Gan,  E. Epifanovsky,  A. T. B. Gilbert,  M. Wormit,  
 J. Kussmann,  A. W. Lange,  A. Behn,  Jia Deng,  Xintian Feng,  D. Ghosh,  
 M. Goldey,  P. R. Horn,  L. D. Jacobson,  I. Kaliman,  T. Kus,  A. Landau,  
 Jie Liu,  E. I. Proynov,  R. M. Richard,  R. P. Steele,  E. J. Sundstrom,  
 H. L. Woodcock III,  P. M. Zimmerman,  D. Zuev,  B. Alam,  B. Albrecht,  
 E. Alguire,  S. A. Baeppler,  D. Barton,  Z. Benda,  Y. A. Bernard,  
 E. J. Berquist,  K. B. Bravaya,  H. Burton,  K. Carter-Fenk,  D. Casanova,  
 Chun-Min Chang,  Yunqing Chen,  A. Chien,  K. D. Closser,  M. P. Coons,  
 S. Coriani,  S. Dasgupta,  A. L. Dempwolff,  M. Diedenhofen,  Hainam Do,  
 R. G. Edgar,  Po-Tung Fang,  S. Faraji,  S. Fatehi,  Qingguo Feng,  
 J. Fosso-Tande,  J. Gayvert,  Qinghui Ge,  A. Ghysels,  G. Gidofalvi,  
 J. Gomes,  J. Gonthier,  A. Gunina,  D. Hait,  M. W. D. Hanson-Heine,  
 P. H. P. Harbach,  A. W. Hauser,  M. F. Herbst,  J. E. Herr,  
 E. G. Hohenstein,  Z. C. Holden,  Kerwin Hui,  B. C. Huynh,  T.-C. Jagau,  
 Hyunjun Ji,  B. Kaduk,  K. Khistyaev,  Jaehoon Kim,  P. Klunzinger,  K. Koh,  
 D. Kosenkov,  L. Koulias,  T. Kowalczyk,  C. M. Krauter,  A. Kunitsa,  
 Ka Un Lao,  A. Laurent,  K. V. Lawler,  Joonho Lee,  D. Lefrancois,  
 S. Lehtola,  D. S. Levine,  Yi-Pei Li,  You-Sheng Lin,  Fenglai Liu,  
 Kuan-Yu Liu,  E. Livshits,  M. Loipersberger,  A. Luenser,  P. Manohar,  
 E. Mansoor,  S. F. Manzer,  Shan-Ping Mao,  Yuezhi Mao,  N. Mardirossian,  
 A. V. Marenich,  T. Markovich,  L. A. Martinez-Martinez,  S. A. Maurer,  
 N. J. Mayhall,  S. C. McKenzie,  J.-M. Mewes,  P. Morgante,  A. F. Morrison,  
 J. W. Mullinax,  K. Nanda,  T. S. Nguyen-Beck,  R. Olivares-Amaya,  
 K. J. Oosterbaan,  J. A. Parkhill,  S. K. Paul,  F. Pavosevic,  Zheng Pei,  
 T. M. Perrine,  F. Plasser,  P. Pokhilko,  S. Prager,  A. Prociuk,  
 E. Ramos,  B. Rana,  D. R. Rehn,  F. Rob,  M. Scheurer,  M. Schneider,  
 N. Sergueev,  S. M. Sharada,  S. Sharma,  D. W. Small,  T. Stauch,  
 C. J. Stein,  T. Stein,  Yu-Chuan Su,  S. P. Veccham,  Zhen Tao,  
 A. J. W. Thom,  A. Tkatchenko,  T. Tsuchimochi,  N. M. Tubman,  L. Vogt,  
 M. L. Vidal,  O. Vydrov,  M. A. Watson,  J. Wenzel,  M. de Wergifosse,  
 T. A. Wesolowski,  A. White,  J. Witte,  A. Yamada,  Jun Yang,  K. Yao,  
 S. Yeganeh,  S. R. Yost,  Zhi-Qiang You,  A. Zech,  Igor Ying Zhang,  
 Xing Zhang,  Yan Zhao,  Ying Zhu,  B. R. Brooks,  G. K. L. Chan,  
 C. J. Cramer,  M. S. Gordon,  W. J. Hehre,  A. Klamt,  M. W. Schmidt,  
 C. D. Sherrill,  D. G. Truhlar,  A. Aspuru-Guzik,  R. Baer,  A. T. Bell,  
 N. A. Besley,  Jeng-Da Chai,  A. E. DePrince, III,  R. A. DiStasio Jr.,  
 A. Dreuw,  B. D. Dunietz,  T. R. Furlani,  Chao-Ping Hsu,  Yousung Jung,  
 Jing Kong,  D. S. Lambrecht,  WanZhen Liang,  C. Ochsenfeld,  
 V. A. Rassolov,  L. V. Slipchenko,  J. E. Subotnik,  T. Van Voorhis,  
 J. M. Herbert,  A. I. Krylov,  P. M. W. Gill,  M. Head-Gordon

 Contributors to earlier versions of Q-Chem not listed above: 
 R. D. Adamson,  B. Austin,  J. Baker,  G. J. O. Beran,  K. Brandhorst,  
 S. T. Brown,  E. F. C. Byrd,  A. K. Chakraborty,  C.-L. Cheng,  
 Siu Hung Chien,  D. M. Chipman,  D. L. Crittenden,  H. Dachsel,  
 R. J. Doerksen,  A. D. Dutoi,  L. Fusti-Molnar,  W. A. Goddard III,  
 A. Golubeva-Zadorozhnaya,  S. R. Gwaltney,  G. Hawkins,  A. Heyden,  
 S. Hirata,  G. Kedziora,  F. J. Keil,  C. Kelley,  Jihan Kim,  R. A. King,  
 R. Z. Khaliullin,  P. P. Korambath,  W. Kurlancheek,  A. M. Lee,  M. S. Lee,  
 S. V. Levchenko,  Ching Yeh Lin,  D. Liotard,  R. C. Lochan,  I. Lotan,  
 P. E. Maslen,  N. Nair,  D. P. O'Neill,  D. Neuhauser,  E. Neuscamman,  
 C. M. Oana,  R. Olson,  B. Peters,  R. Peverati,  P. A. Pieniazek,  
 Y. M. Rhee,  J. Ritchie,  M. A. Rohrdanz,  E. Rosta,  N. J. Russ,  
 H. F. Schaefer III,  N. E. Schultz,  N. Shenvi,  A. C. Simmonett,  A. Sodt,  
 D. Stuck,  K. S. Thanthiriwatte,  V. Vanovschi,  Tao Wang,  A. Warshel,  
 C. F. Williams,  Q. Wu,  X. Xu,  W. Zhang

 Please cite Q-Chem as follows:
 Y. Shao et al., Mol. Phys. 113, 184-215 (2015)
 DOI: 10.1080/00268976.2014.952696

 Q-Chem 5.3.0 for Intel X86 EM64T Linux

 Parts of Q-Chem use Armadillo 9.800.1 (Horizon Scraper).
 http://arma.sourceforge.net/

 Q-Chem begins on Mon Jul 27 14:29:52 2020  

Host: centos77-c7
0

     Scratch files written to /tmp/29924.centos77-h1/qchem105788//
Processing $rem in /opt/qchem-5.3.0-intel2020u1//config/preferences:
Processing $rem in /home/shihchengli/.qchemrc:

Checking the input file for inconsistencies... 	...done.

--------------------------------------------------------------
User input:
--------------------------------------------------------------
$rem
   JOBTYPE  sp
   EXCHANGE   omegaB97X-D
   BASIS   6-311+G(2df,2pd)
   UNRESTRICTED   False
   max_scf_cycles   250
   geom_opt_max_cycles   1500
   basis2 6-31G*
   scf_algorithm rca_diis
   SYM_IGNORE  TRUE
   print_input   true
   geom_opt_dmax   80
   pop_mulliken false
   XC_GRID 000075000302
$end

$molecule
0 1
C       -5.3700566287     0.2461479425     0.2074748301
C       -4.1439260164     1.1295455306     0.2830142895
H       -5.2042097075     0.2986755217     -0.8737751679
H       -6.2284453289     0.9157401901     0.2761000109
H       -5.6574990856     -0.7519103768     0.5233556512
O       -3.0401527422     0.4463956673     -0.2723132497
H       -3.8824265844     1.8748440578     1.0347724449
H       -4.4429295060     1.6260592878     -0.6456301292
H       -2.6331644002     -0.1682778212     0.3373113203
$end
--------------------------------------------------------------
 ----------------------------------------------------------------
             Standard Nuclear Orientation (Angstroms)
    I     Atom           X                Y                Z
 ----------------------------------------------------------------
    1      C      -5.3700566287     0.2461479425     0.2074748301
    2      C      -4.1439260164     1.1295455306     0.2830142895
    3      H      -5.2042097075     0.2986755217    -0.8737751679
    4      H      -6.2284453289     0.9157401901     0.2761000109
    5      H      -5.6574990856    -0.7519103768     0.5233556512
    6      O      -3.0401527422     0.4463956673    -0.2723132497
    7      H      -3.8824265844     1.8748440578     1.0347724449
    8      H      -4.4429295060     1.6260592878    -0.6456301292
    9      H      -2.6331644002    -0.1682778212     0.3373113203
 ----------------------------------------------------------------
 Nuclear Repulsion Energy =          82.88317158 hartrees
 There are       13 alpha and       13 beta electrons
 Requested basis set is 6-311+G(2df,2pd)
 There are 60 shells and 186 basis functions

 Total QAlloc Memory Limit   2000 MB
 Mega-Array Size       188 MB
 MEM_STATIC part       192 MB

                       Distance Matrix (Angstroms)
             C (  1)   C (  2)   H (  3)   H (  4)   H (  5)   O (  6)
   C (  2)  1.513107
   H (  3)  1.095156  1.775587
   H (  4)  1.090823  2.095467  1.658927
   H (  5)  1.085599  2.426632  1.805873  1.779936
   O (  6)  2.387205  1.411877  2.250938  3.268983  2.986558
   H (  7)  2.355868  1.090409  2.806060  2.645613  3.211272  2.111484
   H (  8)  1.868558  1.094673  1.547109  2.131245  2.914867  1.870496
   H (  9)  2.771134  1.992409  2.880113  3.755647  3.085748  0.956611
             H (  7)   H (  8)
   H (  8)  1.788801
   H (  9)  2.494284  2.731496
 
 A cutoff of  1.0D-09 yielded   1785 shell pairs
 There are     17309 function pairs (     21502 Cartesian)
 Smallest overlap matrix eigenvalue = 1.43E-04

 Scale SEOQF with 1.000000e-02/1.000000e-01/1.000000e-01

 Standard Electronic Orientation quadrupole field applied
 Nucleus-field energy     =     0.0000000026 hartrees
 Requested basis set is 6-31G(d)
 There are 24 shells and 54 basis functions
 A cutoff of  1.0D-09 yielded    298 shell pairs
 There are      1549 function pairs (      1732 Cartesian)
 Smallest overlap matrix eigenvalue = 5.46E-03
 Guess from superposition of atomic densities
 Warning:  Energy on first SCF cycle will be non-variational
 SAD guess density has 26.000000 electrons
 Long-range K will be added via erf
 Coulomb attenuation parameter = 0.2 bohr**(-1)
 A restricted hybrid HF-DFT SCF calculation will be
 performed using Relaxed Constraint Minimization + Pulay DIIS
 Exchange:     0.2220 Hartree-Fock + 1.0000 wB97X-D + LR-HF
 Correlation:  1.0000 wB97X-D
 Using Euler-Maclaurin-Lebedev (75,302) quadrature formula
 Dispersion:   Grimme D
 SCF converges when DIIS error is below 1.0E-04
 using 6 threads for integral computing
 -------------------------------------------------------
 OpenMP Integral computing Module                
 Release: version 1.0, May 2013, Q-Chem Inc. Pittsburgh 
 -------------------------------------------------------
 using 6 threads for integral computing
 -------------------------------------------------------
 OpenMP Integral computing Module                
 Release: version 1.0, May 2013, Q-Chem Inc. Pittsburgh 
 -------------------------------------------------------
 ---------------------------------------
  Cycle       Energy         DIIS Error
 ---------------------------------------
    1    -155.5378458145      1.09E-01
    2    -154.8620089405      1.37E-02
    3    -154.8910703353      3.09E-03
    4    -154.9181508780      2.41E-03
    5    -154.9188807819      2.34E-04 Done RCA. Switching to DIIS
    6    -154.9197013124      9.48E-05 Convergence criterion met
 ---------------------------------------
 SCF time:  CPU 13.07 s  wall 2.19 s
 SCF   energy in the small basis set = -154.91970131
 Total energy in the small basis set = -154.91970131
 ----------------------------------------------------
  Cycle       Energy    
 ----------------------------------------------------
    1     -18.7677196517     -1.88E+01
 Long-range K will be added via erf
 Coulomb attenuation parameter = 0.2 bohr**(-1)
 A restricted hybrid HF-DFT SCF calculation will be
 performed using Relaxed Constraint Minimization + Pulay DIIS
 Exchange:     0.2220 Hartree-Fock + 1.0000 wB97X-D + LR-HF
 Correlation:  1.0000 wB97X-D
 Using Euler-Maclaurin-Lebedev (75,302) quadrature formula
 Dispersion:   Grimme D
 SCF converges when DIIS error is below 1.0E-05
 Basis2 calculation detected. Using small basis as guess for larger.
 SCFMinFind is unable to tell whether the solution found is close.
 Resetting ReadMinima to 0 and attempting to follow guess.
 SCFMinFind following SCF Guess.
 using 6 threads for integral computing
 -------------------------------------------------------
 OpenMP Integral computing Module                
 Release: version 1.0, May 2013, Q-Chem Inc. Pittsburgh 
 -------------------------------------------------------
 using 6 threads for integral computing
 -------------------------------------------------------
 OpenMP Integral computing Module                
 Release: version 1.0, May 2013, Q-Chem Inc. Pittsburgh 
 -------------------------------------------------------
 ---------------------------------------
  Cycle       Energy         DIIS Error
 ---------------------------------------
    1    -154.9533878021      5.73E-03
    2    -154.9685742853      2.89E-03
    3    -154.9784710708      3.52E-04 Done RCA. Switching to DIIS
    4    -154.9903593648      2.55E-04
    5    -154.9905537318      4.03E-05
    6    -154.9905619751      6.22E-06 Convergence criterion met
 ---------------------------------------
 SCF time:  CPU 39.47 s  wall 6.60 s
 SCF   energy in the final basis set = -154.99056198
 Total energy in the final basis set = -154.99056198
 
 --------------------------------------------------------------
 
                    Orbital Energies (a.u.)
 --------------------------------------------------------------
 
 Alpha MOs
 -- Occupied --
-19.2454 -10.3326 -10.2724  -1.1283  -0.8691  -0.7184  -0.6032  -0.5619
 -0.5265  -0.4572  -0.4396  -0.3862  -0.3678
 -- Virtual --
  0.0674   0.0838   0.0888   0.0985   0.1250   0.1316   0.1379   0.1826
  0.1877   0.2243   0.2323   0.2503   0.2589   0.2649   0.2969   0.3085
  0.3233   0.3326   0.3690   0.3747   0.4672   0.4888   0.5149   0.5349
  0.5452   0.5754   0.5881   0.6226   0.6248   0.6435   0.6645   0.6790
  0.7012   0.7288   0.7678   0.8077   0.8693   0.9138   0.9312   0.9426
  0.9719   1.0210   1.0907   1.1062   1.1190   1.1668   1.1947   1.2060
  1.2550   1.2578   1.2987   1.3273   1.3487   1.3854   1.3881   1.4081
  1.4500   1.4708   1.4760   1.5109   1.5417   1.5590   1.5878   1.6223
  1.6384   1.8433   1.9275   1.9993   2.1647   2.2283   2.3264   2.4149
  2.4550   2.5372   2.6240   2.6552   2.7450   2.7704   2.8238   2.9077
  2.9287   2.9460   3.0041   3.0289   3.0740   3.0905   3.1089   3.1332
  3.1410   3.1989   3.2181   3.2443   3.2677   3.3170   3.3327   3.3750
  3.3899   3.4060   3.4461   3.4649   3.4908   3.5279   3.5483   3.5784
  3.5867   3.6016   3.6479   3.6670   3.7307   3.7599   3.7874   3.8124
  3.8549   3.9116   3.9483   3.9971   4.0144   4.0313   4.0614   4.0926
  4.1328   4.1652   4.2098   4.2384   4.2656   4.2939   4.3115   4.3703
  4.4090   4.4468   4.4932   4.5336   4.6882   4.7242   4.7738   4.8115
  4.8798   4.8859   4.9653   5.0790   5.1026   5.1353   5.1616   5.1821
  5.2273   5.2502   5.3163   5.3584   5.3900   5.4368   5.4995   5.5146
  5.6079   5.6847   5.7170   5.8069   5.9665   6.2556   6.4191   6.4716
  6.5126   6.6655   6.7431   6.8361   7.1094   7.2904   7.4860   7.5814
  7.7633   8.1786  25.1756  25.4097  50.5069
 --------------------------------------------------------------
 
 -----------------------------------------------------------------
                    Cartesian Multipole Moments
 -----------------------------------------------------------------
    Charge (ESU x 10^10)
                -0.0000
    Dipole Moment (Debye)
         X      -0.5885      Y      -0.1981      Z       1.2363
       Tot       1.3835
    Quadrupole Moments (Debye-Ang)
        XX     -15.4494     XY      -1.0137     YY     -19.0235
        XZ      -2.7999     YZ      -0.1263     ZZ     -20.4194
    Octopole Moments (Debye-Ang^2)
       XXX     232.1011    XXY      -3.9433    XYY      80.7038
       YYY     -36.1215    XXZ       3.7733    XYZ       1.6861
       YYZ      -0.2885    XZZ      88.0541    YZZ     -11.5815
       ZZZ      -4.6785
    Hexadecapole Moments (Debye-Ang^3)
      XXXX   -2239.5413   XXXY     108.3463   XXYY    -384.2544
      XYYY     149.4609   YYYY    -100.7493   XXXZ      20.8050
      XXYZ     -13.5562   XYYZ       4.9276   YYYZ      -2.7971
      XXZZ    -412.8569   XYZZ      47.6352   YYZZ     -21.6855
      XZZZ      29.7511   YZZZ      -5.3465   ZZZZ     -39.3367
 -----------------------------------------------------------------
Archival summary:
1\1\centos77-c7\SP\ProcedureUnspecified\BasisUnspecified\126\shihchen\MonJul2714:30:042020MonJul2714:30:042020\0\\#,ProcedureUnspecified,BasisUnspecified,\\0,1\C\H,1,1.09041\H,1,1.09467,2,109.898\O,1,1.41188,2,114.482,3,106.313,0\H,4,0.956611,1,113.132,2,71.5405,0\C,1,1.51311,2,128.888,3,-107.066,0\H,6,1.0856,1,137.458,2,-93.1288,0\H,6,1.09082,1,106.031,2,53.2522,0\H,6,1.09516,1,84.1786,2,150.693,0\\\@

 Total job time:  11.02s(wall), 56.40s(cpu) 
 Mon Jul 27 14:30:04 2020

        *************************************************************
        *                                                           *
        *  Thank you very much for using Q-Chem.  Have a nice day.  *
        *                                                           *
        *************************************************************


