                  Welcome to Q-Chem
     A Quantum Leap Into The Future Of Chemistry


 Q-Chem 5.3 (devel), Q-Chem, Inc., Pleasanton, CA (2020)

 Yihan Shao,  Zhengting Gan,  E. Epifanovsky,  A. T. B. Gilbert,  M. Wormit,  
 J. Kussmann,  A. W. Lange,  A. Behn,  Jia Deng,  Xintian Feng,  D. Ghosh,  
 M. Goldey,  P. R. Horn,  L. D. Jacobson,  I. Kaliman,  T. Kus,  A. Landau,  
 Jie Liu,  E. I. Proynov,  R. M. Richard,  R. P. Steele,  E. J. Sundstrom,  
 H. L. Woodcock III,  P. M. Zimmerman,  D. Zuev,  B. Alam,  B. Albrecht,  
 E. Alguire,  S. A. Baeppler,  D. Barton,  Z. Benda,  Y. A. Bernard,  
 E. J. Berquist,  K. B. Bravaya,  H. Burton,  K. Carter-Fenk,  D. Casanova,  
 Chun-Min Chang,  Yunqing Chen,  A. Chien,  K. D. Closser,  M. P. Coons,  
 S. Coriani,  S. Dasgupta,  A. L. Dempwolff,  M. Diedenhofen,  Hainam Do,  
 R. G. Edgar,  Po-Tung Fang,  S. Faraji,  S. Fatehi,  Qingguo Feng,  
 J. Fosso-Tande,  J. Gayvert,  Qinghui Ge,  A. Ghysels,  G. Gidofalvi,  
 J. Gomes,  J. Gonthier,  A. Gunina,  D. Hait,  M. W. D. Hanson-Heine,  
 P. H. P. Harbach,  A. W. Hauser,  M. F. Herbst,  J. E. Herr,  
 E. G. Hohenstein,  Z. C. Holden,  Kerwin Hui,  B. C. Huynh,  T.-C. Jagau,  
 Hyunjun Ji,  B. Kaduk,  K. Khistyaev,  Jaehoon Kim,  P. Klunzinger,  K. Koh,  
 D. Kosenkov,  L. Koulias,  T. Kowalczyk,  C. M. Krauter,  A. Kunitsa,  
 Ka Un Lao,  A. Laurent,  K. V. Lawler,  Joonho Lee,  D. Lefrancois,  
 S. Lehtola,  D. S. Levine,  Yi-Pei Li,  You-Sheng Lin,  Fenglai Liu,  
 Kuan-Yu Liu,  E. Livshits,  M. Loipersberger,  A. Luenser,  P. Manohar,  
 E. Mansoor,  S. F. Manzer,  Shan-Ping Mao,  Yuezhi Mao,  N. Mardirossian,  
 A. V. Marenich,  T. Markovich,  L. A. Martinez-Martinez,  S. A. Maurer,  
 N. J. Mayhall,  S. C. McKenzie,  J.-M. Mewes,  P. Morgante,  A. F. Morrison,  
 J. W. Mullinax,  K. Nanda,  T. S. Nguyen-Beck,  R. Olivares-Amaya,  
 K. J. Oosterbaan,  J. A. Parkhill,  S. K. Paul,  F. Pavosevic,  Zheng Pei,  
 T. M. Perrine,  F. Plasser,  P. Pokhilko,  S. Prager,  A. Prociuk,  
 E. Ramos,  B. Rana,  D. R. Rehn,  F. Rob,  M. Scheurer,  M. Schneider,  
 N. Sergueev,  S. M. Sharada,  S. Sharma,  D. W. Small,  T. Stauch,  
 C. J. Stein,  T. Stein,  Yu-Chuan Su,  S. P. Veccham,  Zhen Tao,  
 A. J. W. Thom,  A. Tkatchenko,  T. Tsuchimochi,  N. M. Tubman,  L. Vogt,  
 M. L. Vidal,  O. Vydrov,  M. A. Watson,  J. Wenzel,  M. de Wergifosse,  
 T. A. Wesolowski,  A. White,  J. Witte,  A. Yamada,  Jun Yang,  K. Yao,  
 S. Yeganeh,  S. R. Yost,  Zhi-Qiang You,  A. Zech,  Igor Ying Zhang,  
 Xing Zhang,  Yan Zhao,  Ying Zhu,  B. R. Brooks,  G. K. L. Chan,  
 C. J. Cramer,  M. S. Gordon,  W. J. Hehre,  A. Klamt,  M. W. Schmidt,  
 C. D. Sherrill,  D. G. Truhlar,  A. Aspuru-Guzik,  R. Baer,  A. T. Bell,  
 N. A. Besley,  Jeng-Da Chai,  A. E. DePrince, III,  R. A. DiStasio Jr.,  
 A. Dreuw,  B. D. Dunietz,  T. R. Furlani,  Chao-Ping Hsu,  Yousung Jung,  
 Jing Kong,  D. S. Lambrecht,  WanZhen Liang,  C. Ochsenfeld,  
 V. A. Rassolov,  L. V. Slipchenko,  J. E. Subotnik,  T. Van Voorhis,  
 J. M. Herbert,  A. I. Krylov,  P. M. W. Gill,  M. Head-Gordon

 Contributors to earlier versions of Q-Chem not listed above: 
 R. D. Adamson,  B. Austin,  J. Baker,  G. J. O. Beran,  K. Brandhorst,  
 S. T. Brown,  E. F. C. Byrd,  A. K. Chakraborty,  C.-L. Cheng,  
 Siu Hung Chien,  D. M. Chipman,  D. L. Crittenden,  H. Dachsel,  
 R. J. Doerksen,  A. D. Dutoi,  L. Fusti-Molnar,  W. A. Goddard III,  
 A. Golubeva-Zadorozhnaya,  S. R. Gwaltney,  G. Hawkins,  A. Heyden,  
 S. Hirata,  G. Kedziora,  F. J. Keil,  C. Kelley,  Jihan Kim,  R. A. King,  
 R. Z. Khaliullin,  P. P. Korambath,  W. Kurlancheek,  A. M. Lee,  M. S. Lee,  
 S. V. Levchenko,  Ching Yeh Lin,  D. Liotard,  R. C. Lochan,  I. Lotan,  
 P. E. Maslen,  N. Nair,  D. P. O'Neill,  D. Neuhauser,  E. Neuscamman,  
 C. M. Oana,  R. Olson,  B. Peters,  R. Peverati,  P. A. Pieniazek,  
 Y. M. Rhee,  J. Ritchie,  M. A. Rohrdanz,  E. Rosta,  N. J. Russ,  
 H. F. Schaefer III,  N. E. Schultz,  N. Shenvi,  A. C. Simmonett,  A. Sodt,  
 D. Stuck,  K. S. Thanthiriwatte,  V. Vanovschi,  Tao Wang,  A. Warshel,  
 C. F. Williams,  Q. Wu,  X. Xu,  W. Zhang

 Please cite Q-Chem as follows:
 Y. Shao et al., Mol. Phys. 113, 184-215 (2015)
 DOI: 10.1080/00268976.2014.952696

 Q-Chem 5.3.0 for Intel X86 EM64T Linux

 Parts of Q-Chem use Armadillo 9.800.1 (Horizon Scraper).
 http://arma.sourceforge.net/

 Q-Chem begins on Mon Jul 27 14:45:18 2020  

Host: centos77-c7
0

     Scratch files written to /tmp/29924.centos77-h1/qchem109575//
Processing $rem in /opt/qchem-5.3.0-intel2020u1//config/preferences:
Processing $rem in /home/shihchengli/.qchemrc:

Checking the input file for inconsistencies... 	...done.

--------------------------------------------------------------
User input:
--------------------------------------------------------------
$rem
   JOBTYPE  sp
   EXCHANGE   omegaB97X-D
   BASIS   6-311+G(2df,2pd)
   UNRESTRICTED   False
   max_scf_cycles   250
   geom_opt_max_cycles   1500
   basis2 6-31G*
   scf_algorithm rca_diis
   SYM_IGNORE  TRUE
   print_input   true
   geom_opt_dmax   80
   pop_mulliken false
   XC_GRID 000075000302
$end

$molecule
0 1
C       -5.4845851011     0.3216099329     0.0497890686
C       -4.0473596944     1.1449347891     0.0854356786
H       -5.3590429670     -0.0639349414     -0.9626542540
H       -6.1749549338     1.1373821764     0.2537330231
H       -5.2013198016     -0.4617318180     0.7512476804
O       -2.9389068453     0.4154121428     -0.1977245761
H       -4.2278652664     1.5331144204     1.0967535607
H       -4.5078756218     1.9407522150     -0.5031975188
H       -2.6608997685     -0.3503189171     0.2969273376
$end
--------------------------------------------------------------
 ----------------------------------------------------------------
             Standard Nuclear Orientation (Angstroms)
    I     Atom           X                Y                Z
 ----------------------------------------------------------------
    1      C      -5.4845851011     0.3216099329     0.0497890686
    2      C      -4.0473596944     1.1449347891     0.0854356786
    3      H      -5.3590429670    -0.0639349414    -0.9626542540
    4      H      -6.1749549338     1.1373821764     0.2537330231
    5      H      -5.2013198016    -0.4617318180     0.7512476804
    6      O      -2.9389068453     0.4154121428    -0.1977245761
    7      H      -4.2278652664     1.5331144204     1.0967535607
    8      H      -4.5078756218     1.9407522150    -0.5031975188
    9      H      -2.6608997685    -0.3503189171     0.2969273376
 ----------------------------------------------------------------
 Nuclear Repulsion Energy =          81.32866619 hartrees
 There are       13 alpha and       13 beta electrons
 Requested basis set is 6-311+G(2df,2pd)
 There are 60 shells and 186 basis functions

 Total QAlloc Memory Limit   2000 MB
 Mega-Array Size       188 MB
 MEM_STATIC part       192 MB

                       Distance Matrix (Angstroms)
             C (  1)   C (  2)   H (  3)   H (  4)   H (  5)   O (  6)
   C (  2)  1.656729
   H (  3)  1.090618  2.068906
   H (  4)  1.087974  2.134255  1.894327
   H (  5)  1.088994  2.087177  1.766516  1.937176
   O (  6)  2.559402  1.356853  2.583012  3.346201  2.605464
   H (  7)  2.035491  1.098194  2.841002  2.158343  2.246419  2.141576
   H (  8)  1.970121  1.091737  2.225838  1.999375  2.797575  2.209443
   H (  9)  2.913034  2.050069  2.991411  3.816242  2.583129  0.953054
             H (  7)   H (  8)
   H (  8)  1.674640
   H (  9)  2.577290  3.049676
 
 A cutoff of  1.0D-09 yielded   1790 shell pairs
 There are     17345 function pairs (     21536 Cartesian)
 Smallest overlap matrix eigenvalue = 2.10E-04

 Scale SEOQF with 1.000000e-02/1.000000e-01/1.000000e-01

 Standard Electronic Orientation quadrupole field applied
 Nucleus-field energy     =     0.0000000026 hartrees
 Requested basis set is 6-31G(d)
 There are 24 shells and 54 basis functions
 A cutoff of  1.0D-09 yielded    298 shell pairs
 There are      1549 function pairs (      1732 Cartesian)
 Smallest overlap matrix eigenvalue = 7.85E-03
 Guess from superposition of atomic densities
 Warning:  Energy on first SCF cycle will be non-variational
 SAD guess density has 26.000000 electrons
 Long-range K will be added via erf
 Coulomb attenuation parameter = 0.2 bohr**(-1)
 A restricted hybrid HF-DFT SCF calculation will be
 performed using Relaxed Constraint Minimization + Pulay DIIS
 Exchange:     0.2220 Hartree-Fock + 1.0000 wB97X-D + LR-HF
 Correlation:  1.0000 wB97X-D
 Using Euler-Maclaurin-Lebedev (75,302) quadrature formula
 Dispersion:   Grimme D
 SCF converges when DIIS error is below 1.0E-04
 using 6 threads for integral computing
 -------------------------------------------------------
 OpenMP Integral computing Module                
 Release: version 1.0, May 2013, Q-Chem Inc. Pittsburgh 
 -------------------------------------------------------
 using 6 threads for integral computing
 -------------------------------------------------------
 OpenMP Integral computing Module                
 Release: version 1.0, May 2013, Q-Chem Inc. Pittsburgh 
 -------------------------------------------------------
 ---------------------------------------
  Cycle       Energy         DIIS Error
 ---------------------------------------
    1    -155.4081517272      1.05E-01
    2    -154.8667335514      1.28E-02
    3    -154.8937354306      3.29E-03
    4    -154.9156836284      2.85E-03
    5    -154.9166959546      2.02E-04 Done RCA. Switching to DIIS
    6    -154.9177893405      9.84E-05 Convergence criterion met
 ---------------------------------------
 SCF time:  CPU 12.83 s  wall 2.15 s
 SCF   energy in the small basis set = -154.91778934
 Total energy in the small basis set = -154.91778934
 ----------------------------------------------------
  Cycle       Energy    
 ----------------------------------------------------
    1     -18.7265575045     -1.87E+01
 Long-range K will be added via erf
 Coulomb attenuation parameter = 0.2 bohr**(-1)
 A restricted hybrid HF-DFT SCF calculation will be
 performed using Relaxed Constraint Minimization + Pulay DIIS
 Exchange:     0.2220 Hartree-Fock + 1.0000 wB97X-D + LR-HF
 Correlation:  1.0000 wB97X-D
 Using Euler-Maclaurin-Lebedev (75,302) quadrature formula
 Dispersion:   Grimme D
 SCF converges when DIIS error is below 1.0E-05
 Basis2 calculation detected. Using small basis as guess for larger.
 SCFMinFind is unable to tell whether the solution found is close.
 Resetting ReadMinima to 0 and attempting to follow guess.
 SCFMinFind following SCF Guess.
 using 6 threads for integral computing
 -------------------------------------------------------
 OpenMP Integral computing Module                
 Release: version 1.0, May 2013, Q-Chem Inc. Pittsburgh 
 -------------------------------------------------------
 using 6 threads for integral computing
 -------------------------------------------------------
 OpenMP Integral computing Module                
 Release: version 1.0, May 2013, Q-Chem Inc. Pittsburgh 
 -------------------------------------------------------
 ---------------------------------------
  Cycle       Energy         DIIS Error
 ---------------------------------------
    1    -154.9526592807      5.71E-03
    2    -154.9697371771      2.74E-03
    3    -154.9786924985      3.09E-04 Done RCA. Switching to DIIS
    4    -154.9891950642      1.86E-04
    5    -154.9893103068      4.00E-05
    6    -154.9893190617      7.02E-06 Convergence criterion met
 ---------------------------------------
 SCF time:  CPU 39.30 s  wall 6.57 s
 SCF   energy in the final basis set = -154.98931906
 Total energy in the final basis set = -154.98931906
 
 --------------------------------------------------------------
 
                    Orbital Energies (a.u.)
 --------------------------------------------------------------
 
 Alpha MOs
 -- Occupied --
-19.2623 -10.3329 -10.2730  -1.1472  -0.8484  -0.7241  -0.6248  -0.5586
 -0.5191  -0.4716  -0.4589  -0.3872  -0.3362
 -- Virtual --
  0.0649   0.0800   0.0931   0.0996   0.1228   0.1337   0.1394   0.1824
  0.1893   0.2013   0.2301   0.2329   0.2627   0.2724   0.2813   0.2988
  0.3179   0.3296   0.3419   0.3754   0.4673   0.4908   0.4958   0.5259
  0.5536   0.5703   0.5894   0.5974   0.6204   0.6468   0.6608   0.6883
  0.6995   0.7021   0.7569   0.7906   0.8371   0.8947   0.9259   0.9659
  1.0021   1.0038   1.0392   1.0687   1.1135   1.1544   1.1827   1.1963
  1.2412   1.2781   1.3065   1.3139   1.3289   1.3389   1.3449   1.3799
  1.4136   1.4423   1.4556   1.4596   1.4723   1.5089   1.5342   1.6056
  1.6964   1.7782   1.9159   2.0398   2.1166   2.2548   2.3408   2.4765
  2.5711   2.5859   2.6187   2.6734   2.7005   2.7276   2.8255   2.8512
  2.8912   2.8979   2.9457   2.9755   3.0323   3.0554   3.0605   3.0982
  3.1296   3.1772   3.1930   3.2409   3.2729   3.2867   3.3091   3.3339
  3.3653   3.4075   3.4232   3.4461   3.4704   3.5061   3.5427   3.5555
  3.5696   3.5795   3.6325   3.6589   3.7038   3.7389   3.7923   3.8035
  3.8222   3.8949   3.9218   3.9353   3.9710   3.9959   4.0410   4.0602
  4.0812   4.1133   4.1627   4.2131   4.2329   4.2655   4.3048   4.3231
  4.3810   4.4143   4.4650   4.4750   4.5590   4.6274   4.7140   4.7911
  4.8329   4.8367   4.8776   4.9462   4.9926   5.0295   5.0692   5.1014
  5.1417   5.2154   5.2328   5.2486   5.3257   5.3893   5.4988   5.5896
  5.6501   5.7012   5.7426   5.9271   5.9695   6.2539   6.2808   6.4016
  6.5446   6.7052   6.8803   7.0111   7.0875   7.2523   7.4118   7.5130
  7.8090   8.1770  25.1737  25.3628  50.4876
 --------------------------------------------------------------
 
 -----------------------------------------------------------------
                    Cartesian Multipole Moments
 -----------------------------------------------------------------
    Charge (ESU x 10^10)
                -0.0000
    Dipole Moment (Debye)
         X      -0.3672      Y      -0.4968      Z       1.0565
       Tot       1.2238
    Quadrupole Moments (Debye-Ang)
        XX     -18.8360     XY      -1.9178     YY     -19.2549
        XZ      -2.6600     YZ      -0.3782     ZZ     -20.4637
    Octopole Moments (Debye-Ang^2)
       XXX     264.2157    XXY       9.9455    XYY      80.1427
       YYY     -37.5018    XXZ       6.3421    XYZ       1.0869
       YYZ      -0.4115    XZZ      87.3767    YZZ     -13.1294
       ZZZ      -0.7113
    Hexadecapole Moments (Debye-Ang^3)
      XXXX   -2508.7541   XXXY       1.0638   XXYY    -376.3704
      XYYY     151.8181   YYYY    -106.6298   XXXZ      -9.5901
      XXYZ      -2.8258   XYYZ       3.0154   YYYZ      -3.7764
      XXZZ    -408.6481   XYZZ      54.7317   YYZZ     -23.6771
      XZZZ       8.6269   YZZZ      -2.1061   ZZZZ     -36.6602
 -----------------------------------------------------------------
Archival summary:
1\1\centos77-c7\SP\ProcedureUnspecified\BasisUnspecified\126\shihchen\MonJul2714:45:282020MonJul2714:45:282020\0\\#,ProcedureUnspecified,BasisUnspecified,\\0,1\C\H,1,1.09174\H,1,1.09819,2,99.7602\O,1,1.35685,2,128.609,3,-143.905,0\H,4,0.953054,1,124.192,2,-170.712,0\C,1,1.65673,2,89.1247,3,92.9257,0\H,6,1.08797,1,100.01,2,-43.8152,0\H,6,1.08899,1,96.7745,2,-171.973,0\H,6,1.09062,1,95.497,2,78.8296,0\\\@

 Total job time:  10.88s(wall), 55.97s(cpu) 
 Mon Jul 27 14:45:28 2020

        *************************************************************
        *                                                           *
        *  Thank you very much for using Q-Chem.  Have a nice day.  *
        *                                                           *
        *************************************************************


