                  Welcome to Q-Chem
     A Quantum Leap Into The Future Of Chemistry


 Q-Chem 5.3 (devel), Q-Chem, Inc., Pleasanton, CA (2020)

 Yihan Shao,  Zhengting Gan,  E. Epifanovsky,  A. T. B. Gilbert,  M. Wormit,  
 J. Kussmann,  A. W. Lange,  A. Behn,  Jia Deng,  Xintian Feng,  D. Ghosh,  
 M. Goldey,  P. R. Horn,  L. D. Jacobson,  I. Kaliman,  T. Kus,  A. Landau,  
 Jie Liu,  E. I. Proynov,  R. M. Richard,  R. P. Steele,  E. J. Sundstrom,  
 H. L. Woodcock III,  P. M. Zimmerman,  D. Zuev,  B. Alam,  B. Albrecht,  
 E. Alguire,  S. A. Baeppler,  D. Barton,  Z. Benda,  Y. A. Bernard,  
 E. J. Berquist,  K. B. Bravaya,  H. Burton,  K. Carter-Fenk,  D. Casanova,  
 Chun-Min Chang,  Yunqing Chen,  A. Chien,  K. D. Closser,  M. P. Coons,  
 S. Coriani,  S. Dasgupta,  A. L. Dempwolff,  M. Diedenhofen,  Hainam Do,  
 R. G. Edgar,  Po-Tung Fang,  S. Faraji,  S. Fatehi,  Qingguo Feng,  
 J. Fosso-Tande,  J. Gayvert,  Qinghui Ge,  A. Ghysels,  G. Gidofalvi,  
 J. Gomes,  J. Gonthier,  A. Gunina,  D. Hait,  M. W. D. Hanson-Heine,  
 P. H. P. Harbach,  A. W. Hauser,  M. F. Herbst,  J. E. Herr,  
 E. G. Hohenstein,  Z. C. Holden,  Kerwin Hui,  B. C. Huynh,  T.-C. Jagau,  
 Hyunjun Ji,  B. Kaduk,  K. Khistyaev,  Jaehoon Kim,  P. Klunzinger,  K. Koh,  
 D. Kosenkov,  L. Koulias,  T. Kowalczyk,  C. M. Krauter,  A. Kunitsa,  
 Ka Un Lao,  A. Laurent,  K. V. Lawler,  Joonho Lee,  D. Lefrancois,  
 S. Lehtola,  D. S. Levine,  Yi-Pei Li,  You-Sheng Lin,  Fenglai Liu,  
 Kuan-Yu Liu,  E. Livshits,  M. Loipersberger,  A. Luenser,  P. Manohar,  
 E. Mansoor,  S. F. Manzer,  Shan-Ping Mao,  Yuezhi Mao,  N. Mardirossian,  
 A. V. Marenich,  T. Markovich,  L. A. Martinez-Martinez,  S. A. Maurer,  
 N. J. Mayhall,  S. C. McKenzie,  J.-M. Mewes,  P. Morgante,  A. F. Morrison,  
 J. W. Mullinax,  K. Nanda,  T. S. Nguyen-Beck,  R. Olivares-Amaya,  
 K. J. Oosterbaan,  J. A. Parkhill,  S. K. Paul,  F. Pavosevic,  Zheng Pei,  
 T. M. Perrine,  F. Plasser,  P. Pokhilko,  S. Prager,  A. Prociuk,  
 E. Ramos,  B. Rana,  D. R. Rehn,  F. Rob,  M. Scheurer,  M. Schneider,  
 N. Sergueev,  S. M. Sharada,  S. Sharma,  D. W. Small,  T. Stauch,  
 C. J. Stein,  T. Stein,  Yu-Chuan Su,  S. P. Veccham,  Zhen Tao,  
 A. J. W. Thom,  A. Tkatchenko,  T. Tsuchimochi,  N. M. Tubman,  L. Vogt,  
 M. L. Vidal,  O. Vydrov,  M. A. Watson,  J. Wenzel,  M. de Wergifosse,  
 T. A. Wesolowski,  A. White,  J. Witte,  A. Yamada,  Jun Yang,  K. Yao,  
 S. Yeganeh,  S. R. Yost,  Zhi-Qiang You,  A. Zech,  Igor Ying Zhang,  
 Xing Zhang,  Yan Zhao,  Ying Zhu,  B. R. Brooks,  G. K. L. Chan,  
 C. J. Cramer,  M. S. Gordon,  W. J. Hehre,  A. Klamt,  M. W. Schmidt,  
 C. D. Sherrill,  D. G. Truhlar,  A. Aspuru-Guzik,  R. Baer,  A. T. Bell,  
 N. A. Besley,  Jeng-Da Chai,  A. E. DePrince, III,  R. A. DiStasio Jr.,  
 A. Dreuw,  B. D. Dunietz,  T. R. Furlani,  Chao-Ping Hsu,  Yousung Jung,  
 Jing Kong,  D. S. Lambrecht,  WanZhen Liang,  C. Ochsenfeld,  
 V. A. Rassolov,  L. V. Slipchenko,  J. E. Subotnik,  T. Van Voorhis,  
 J. M. Herbert,  A. I. Krylov,  P. M. W. Gill,  M. Head-Gordon

 Contributors to earlier versions of Q-Chem not listed above: 
 R. D. Adamson,  B. Austin,  J. Baker,  G. J. O. Beran,  K. Brandhorst,  
 S. T. Brown,  E. F. C. Byrd,  A. K. Chakraborty,  C.-L. Cheng,  
 Siu Hung Chien,  D. M. Chipman,  D. L. Crittenden,  H. Dachsel,  
 R. J. Doerksen,  A. D. Dutoi,  L. Fusti-Molnar,  W. A. Goddard III,  
 A. Golubeva-Zadorozhnaya,  S. R. Gwaltney,  G. Hawkins,  A. Heyden,  
 S. Hirata,  G. Kedziora,  F. J. Keil,  C. Kelley,  Jihan Kim,  R. A. King,  
 R. Z. Khaliullin,  P. P. Korambath,  W. Kurlancheek,  A. M. Lee,  M. S. Lee,  
 S. V. Levchenko,  Ching Yeh Lin,  D. Liotard,  R. C. Lochan,  I. Lotan,  
 P. E. Maslen,  N. Nair,  D. P. O'Neill,  D. Neuhauser,  E. Neuscamman,  
 C. M. Oana,  R. Olson,  B. Peters,  R. Peverati,  P. A. Pieniazek,  
 Y. M. Rhee,  J. Ritchie,  M. A. Rohrdanz,  E. Rosta,  N. J. Russ,  
 H. F. Schaefer III,  N. E. Schultz,  N. Shenvi,  A. C. Simmonett,  A. Sodt,  
 D. Stuck,  K. S. Thanthiriwatte,  V. Vanovschi,  Tao Wang,  A. Warshel,  
 C. F. Williams,  Q. Wu,  X. Xu,  W. Zhang

 Please cite Q-Chem as follows:
 Y. Shao et al., Mol. Phys. 113, 184-215 (2015)
 DOI: 10.1080/00268976.2014.952696

 Q-Chem 5.3.0 for Intel X86 EM64T Linux

 Parts of Q-Chem use Armadillo 9.800.1 (Horizon Scraper).
 http://arma.sourceforge.net/

 Q-Chem begins on Mon Jul 27 14:39:27 2020  

Host: centos77-c7
0

     Scratch files written to /tmp/29924.centos77-h1/qchem108168//
Processing $rem in /opt/qchem-5.3.0-intel2020u1//config/preferences:
Processing $rem in /home/shihchengli/.qchemrc:

Checking the input file for inconsistencies... 	...done.

--------------------------------------------------------------
User input:
--------------------------------------------------------------
$rem
   JOBTYPE  sp
   EXCHANGE   omegaB97X-D
   BASIS   6-311+G(2df,2pd)
   UNRESTRICTED   False
   max_scf_cycles   250
   geom_opt_max_cycles   1500
   basis2 6-31G*
   scf_algorithm rca_diis
   SYM_IGNORE  TRUE
   print_input   true
   geom_opt_dmax   80
   pop_mulliken false
   XC_GRID 000075000302
$end

$molecule
0 1
C       -5.3712966691     0.2477823997     0.2002228531
C       -4.2046339979     1.2231084543     0.0722091838
H       -5.4346401081     -0.0074979905     -0.8600024220
H       -6.2439730044     0.9061558687     0.1956639140
H       -5.4637572821     -0.6250607653     0.8380244130
O       -2.9981562986     0.4972945909     -0.2199514389
H       -4.3115194675     1.6127540970     1.0955285285
H       -3.9623481039     2.0594043872     -0.5860660006
H       -2.6124850683     -0.2967210420     0.1346809691
$end
--------------------------------------------------------------
 ----------------------------------------------------------------
             Standard Nuclear Orientation (Angstroms)
    I     Atom           X                Y                Z
 ----------------------------------------------------------------
    1      C      -5.3712966691     0.2477823997     0.2002228531
    2      C      -4.2046339979     1.2231084543     0.0722091838
    3      H      -5.4346401081    -0.0074979905    -0.8600024220
    4      H      -6.2439730044     0.9061558687     0.1956639140
    5      H      -5.4637572821    -0.6250607653     0.8380244130
    6      O      -2.9981562986     0.4972945909    -0.2199514389
    7      H      -4.3115194675     1.6127540970     1.0955285285
    8      H      -3.9623481039     2.0594043872    -0.5860660006
    9      H      -2.6124850683    -0.2967210420     0.1346809691
 ----------------------------------------------------------------
 Nuclear Repulsion Energy =          81.49048791 hartrees
 There are       13 alpha and       13 beta electrons
 Requested basis set is 6-311+G(2df,2pd)
 There are 60 shells and 186 basis functions

 Total QAlloc Memory Limit   2000 MB
 Mega-Array Size       188 MB
 MEM_STATIC part       192 MB

                       Distance Matrix (Angstroms)
             C (  1)   C (  2)   H (  3)   H (  4)   H (  5)   O (  6)
   C (  2)  1.526024
   H (  3)  1.092364  1.973911
   H (  4)  1.093179  2.067511  1.613758
   H (  5)  1.084986  2.363809  1.807077  1.834663
   O (  6)  2.422932  1.437968  2.569228  3.297761  2.908295
   H (  7)  1.946239  1.100196  2.776818  2.245755  2.530173  2.167870
   H (  8)  2.425976  1.091522  2.552405  2.673368  3.389486  1.871869
   H (  9)  2.812796  2.201982  3.006261  3.826008  2.955038  0.951298
             H (  7)   H (  8)
   H (  8)  1.774592
   H (  9)  2.730575  2.809436
 
 A cutoff of  1.0D-09 yielded   1782 shell pairs
 There are     17283 function pairs (     21462 Cartesian)
 Smallest overlap matrix eigenvalue = 1.78E-04

 Scale SEOQF with 1.000000e-02/1.000000e-01/1.000000e-01

 Standard Electronic Orientation quadrupole field applied
 Nucleus-field energy     =     0.0000000027 hartrees
 Requested basis set is 6-31G(d)
 There are 24 shells and 54 basis functions
 A cutoff of  1.0D-09 yielded    298 shell pairs
 There are      1549 function pairs (      1732 Cartesian)
 Smallest overlap matrix eigenvalue = 7.34E-03
 Guess from superposition of atomic densities
 Warning:  Energy on first SCF cycle will be non-variational
 SAD guess density has 26.000000 electrons
 Long-range K will be added via erf
 Coulomb attenuation parameter = 0.2 bohr**(-1)
 A restricted hybrid HF-DFT SCF calculation will be
 performed using Relaxed Constraint Minimization + Pulay DIIS
 Exchange:     0.2220 Hartree-Fock + 1.0000 wB97X-D + LR-HF
 Correlation:  1.0000 wB97X-D
 Using Euler-Maclaurin-Lebedev (75,302) quadrature formula
 Dispersion:   Grimme D
 SCF converges when DIIS error is below 1.0E-04
 using 6 threads for integral computing
 -------------------------------------------------------
 OpenMP Integral computing Module                
 Release: version 1.0, May 2013, Q-Chem Inc. Pittsburgh 
 -------------------------------------------------------
 using 6 threads for integral computing
 -------------------------------------------------------
 OpenMP Integral computing Module                
 Release: version 1.0, May 2013, Q-Chem Inc. Pittsburgh 
 -------------------------------------------------------
 ---------------------------------------
  Cycle       Energy         DIIS Error
 ---------------------------------------
    1    -155.4017826669      1.04E-01
    2    -154.8585863809      1.43E-02
    3    -154.8882790156      2.93E-03
    4    -154.9176489055      2.04E-03
    5    -154.9181928053      2.24E-04 Done RCA. Switching to DIIS
    6    -154.9188059732      7.01E-05 Convergence criterion met
 ---------------------------------------
 SCF time:  CPU 13.16 s  wall 2.21 s
 SCF   energy in the small basis set = -154.91880597
 Total energy in the small basis set = -154.91880597
 ----------------------------------------------------
  Cycle       Energy    
 ----------------------------------------------------
    1     -18.7382691838     -1.87E+01
 Long-range K will be added via erf
 Coulomb attenuation parameter = 0.2 bohr**(-1)
 A restricted hybrid HF-DFT SCF calculation will be
 performed using Relaxed Constraint Minimization + Pulay DIIS
 Exchange:     0.2220 Hartree-Fock + 1.0000 wB97X-D + LR-HF
 Correlation:  1.0000 wB97X-D
 Using Euler-Maclaurin-Lebedev (75,302) quadrature formula
 Dispersion:   Grimme D
 SCF converges when DIIS error is below 1.0E-05
 Basis2 calculation detected. Using small basis as guess for larger.
 SCFMinFind is unable to tell whether the solution found is close.
 Resetting ReadMinima to 0 and attempting to follow guess.
 SCFMinFind following SCF Guess.
 using 6 threads for integral computing
 -------------------------------------------------------
 OpenMP Integral computing Module                
 Release: version 1.0, May 2013, Q-Chem Inc. Pittsburgh 
 -------------------------------------------------------
 using 6 threads for integral computing
 -------------------------------------------------------
 OpenMP Integral computing Module                
 Release: version 1.0, May 2013, Q-Chem Inc. Pittsburgh 
 -------------------------------------------------------
 ---------------------------------------
  Cycle       Energy         DIIS Error
 ---------------------------------------
    1    -154.9491088592      5.83E-03
    2    -154.9621844945      3.32E-03
    3    -154.9750561750      4.29E-04 Done RCA. Switching to DIIS
    4    -154.9908295035      3.44E-04
    5    -154.9911720874      4.35E-05
    6    -154.9911819145      7.36E-06 Convergence criterion met
 ---------------------------------------
 SCF time:  CPU 38.69 s  wall 6.47 s
 SCF   energy in the final basis set = -154.99118191
 Total energy in the final basis set = -154.99118191
 
 --------------------------------------------------------------
 
                    Orbital Energies (a.u.)
 --------------------------------------------------------------
 
 Alpha MOs
 -- Occupied --
-19.2306 -10.3382 -10.2761  -1.1045  -0.8579  -0.7349  -0.6008  -0.5473
 -0.5262  -0.4724  -0.4273  -0.3903  -0.3417
 -- Virtual --
  0.0684   0.0867   0.0869   0.0993   0.1225   0.1305   0.1397   0.1802
  0.1878   0.1970   0.2307   0.2527   0.2648   0.2873   0.2890   0.2993
  0.3163   0.3262   0.3613   0.3721   0.4653   0.4820   0.5046   0.5477
  0.5633   0.5748   0.5946   0.5985   0.6210   0.6416   0.6545   0.6918
  0.7064   0.7350   0.7516   0.8238   0.8448   0.8676   0.9269   0.9468
  0.9842   1.0263   1.0813   1.1092   1.1281   1.1487   1.1758   1.2138
  1.2302   1.2811   1.2937   1.3070   1.3397   1.3605   1.3849   1.4237
  1.4368   1.4611   1.4728   1.4964   1.5305   1.5545   1.5963   1.6219
  1.6697   1.6890   1.9134   1.9702   2.0666   2.2502   2.2766   2.4198
  2.4443   2.5005   2.5569   2.6238   2.7014   2.7526   2.8511   2.8785
  2.9177   2.9541   3.0098   3.0474   3.0624   3.0907   3.1277   3.1378
  3.1560   3.1795   3.2307   3.2856   3.3103   3.3190   3.3443   3.3504
  3.4088   3.4230   3.4389   3.4517   3.4825   3.4889   3.5254   3.5394
  3.5791   3.5977   3.6383   3.6594   3.6951   3.7220   3.7411   3.7690
  3.8319   3.8444   3.9220   3.9477   4.0094   4.0418   4.0530   4.0660
  4.0902   4.1461   4.1574   4.2231   4.2259   4.2782   4.3098   4.3159
  4.3692   4.4281   4.4731   4.5473   4.6115   4.6810   4.7395   4.7890
  4.8660   4.9548   4.9711   4.9944   5.0220   5.0752   5.1019   5.1828
  5.2269   5.2553   5.3084   5.3170   5.3302   5.3680   5.4232   5.4465
  5.4628   5.5947   5.6503   5.7705   5.9571   6.0024   6.3643   6.4105
  6.4492   6.5204   6.7502   6.9735   7.0882   7.1611   7.4069   7.4574
  7.8401   8.2665  25.1173  25.4203  50.4821
 --------------------------------------------------------------
 
 -----------------------------------------------------------------
                    Cartesian Multipole Moments
 -----------------------------------------------------------------
    Charge (ESU x 10^10)
                 0.0000
    Dipole Moment (Debye)
         X      -0.9155      Y      -0.5306      Z       0.9271
       Tot       1.4068
    Quadrupole Moments (Debye-Ang)
        XX     -13.3233     XY      -0.3897     YY     -18.4052
        XZ      -2.9019     YZ      -0.9454     ZZ     -20.5925
    Octopole Moments (Debye-Ang^2)
       XXX     222.3002    XXY      -5.0699    XYY      78.8069
       YYY     -36.3504    XXZ       9.3280    XYZ       4.2897
       YYZ      -1.8021    XZZ      87.4115    YZZ     -13.3298
       ZZZ      -1.9085
    Hexadecapole Moments (Debye-Ang^3)
      XXXX   -2210.0745   XXXY     110.1666   XXYY    -381.9069
      XYYY     150.5486   YYYY    -106.0196   XXXZ     -20.5671
      XXYZ     -20.6519   XYYZ       8.9812   YYYZ      -6.0614
      XXZZ    -405.2175   XYZZ      55.1852   YYZZ     -24.1864
      XZZZ      18.2054   YZZZ      -1.8345   ZZZZ     -37.9113
 -----------------------------------------------------------------
Archival summary:
1\1\centos77-c7\SP\ProcedureUnspecified\BasisUnspecified\126\shihchen\MonJul2714:39:382020MonJul2714:39:382020\0\\#,ProcedureUnspecified,BasisUnspecified,\\0,1\C\H,1,1.09152\H,1,1.1002,2,108.129\O,1,1.43797,2,94.4712,3,-119.984,0\H,4,0.951298,1,133.291,2,173.414,0\C,1,1.52602,2,135.233,3,116.151,0\H,6,1.08499,1,128.949,2,172.907,0\H,6,1.09236,1,96.4465,2,47.4595,0\H,6,1.09318,1,103.005,2,-49.4021,0\\\@

 Total job time:  10.82s(wall), 55.67s(cpu) 
 Mon Jul 27 14:39:38 2020

        *************************************************************
        *                                                           *
        *  Thank you very much for using Q-Chem.  Have a nice day.  *
        *                                                           *
        *************************************************************


