                  Welcome to Q-Chem
     A Quantum Leap Into The Future Of Chemistry


 Q-Chem 5.3 (devel), Q-Chem, Inc., Pleasanton, CA (2020)

 Yihan Shao,  Zhengting Gan,  E. Epifanovsky,  A. T. B. Gilbert,  M. Wormit,  
 J. Kussmann,  A. W. Lange,  A. Behn,  Jia Deng,  Xintian Feng,  D. Ghosh,  
 M. Goldey,  P. R. Horn,  L. D. Jacobson,  I. Kaliman,  T. Kus,  A. Landau,  
 Jie Liu,  E. I. Proynov,  R. M. Richard,  R. P. Steele,  E. J. Sundstrom,  
 H. L. Woodcock III,  P. M. Zimmerman,  D. Zuev,  B. Alam,  B. Albrecht,  
 E. Alguire,  S. A. Baeppler,  D. Barton,  Z. Benda,  Y. A. Bernard,  
 E. J. Berquist,  K. B. Bravaya,  H. Burton,  K. Carter-Fenk,  D. Casanova,  
 Chun-Min Chang,  Yunqing Chen,  A. Chien,  K. D. Closser,  M. P. Coons,  
 S. Coriani,  S. Dasgupta,  A. L. Dempwolff,  M. Diedenhofen,  Hainam Do,  
 R. G. Edgar,  Po-Tung Fang,  S. Faraji,  S. Fatehi,  Qingguo Feng,  
 J. Fosso-Tande,  J. Gayvert,  Qinghui Ge,  A. Ghysels,  G. Gidofalvi,  
 J. Gomes,  J. Gonthier,  A. Gunina,  D. Hait,  M. W. D. Hanson-Heine,  
 P. H. P. Harbach,  A. W. Hauser,  M. F. Herbst,  J. E. Herr,  
 E. G. Hohenstein,  Z. C. Holden,  Kerwin Hui,  B. C. Huynh,  T.-C. Jagau,  
 Hyunjun Ji,  B. Kaduk,  K. Khistyaev,  Jaehoon Kim,  P. Klunzinger,  K. Koh,  
 D. Kosenkov,  L. Koulias,  T. Kowalczyk,  C. M. Krauter,  A. Kunitsa,  
 Ka Un Lao,  A. Laurent,  K. V. Lawler,  Joonho Lee,  D. Lefrancois,  
 S. Lehtola,  D. S. Levine,  Yi-Pei Li,  You-Sheng Lin,  Fenglai Liu,  
 Kuan-Yu Liu,  E. Livshits,  M. Loipersberger,  A. Luenser,  P. Manohar,  
 E. Mansoor,  S. F. Manzer,  Shan-Ping Mao,  Yuezhi Mao,  N. Mardirossian,  
 A. V. Marenich,  T. Markovich,  L. A. Martinez-Martinez,  S. A. Maurer,  
 N. J. Mayhall,  S. C. McKenzie,  J.-M. Mewes,  P. Morgante,  A. F. Morrison,  
 J. W. Mullinax,  K. Nanda,  T. S. Nguyen-Beck,  R. Olivares-Amaya,  
 K. J. Oosterbaan,  J. A. Parkhill,  S. K. Paul,  F. Pavosevic,  Zheng Pei,  
 T. M. Perrine,  F. Plasser,  P. Pokhilko,  S. Prager,  A. Prociuk,  
 E. Ramos,  B. Rana,  D. R. Rehn,  F. Rob,  M. Scheurer,  M. Schneider,  
 N. Sergueev,  S. M. Sharada,  S. Sharma,  D. W. Small,  T. Stauch,  
 C. J. Stein,  T. Stein,  Yu-Chuan Su,  S. P. Veccham,  Zhen Tao,  
 A. J. W. Thom,  A. Tkatchenko,  T. Tsuchimochi,  N. M. Tubman,  L. Vogt,  
 M. L. Vidal,  O. Vydrov,  M. A. Watson,  J. Wenzel,  M. de Wergifosse,  
 T. A. Wesolowski,  A. White,  J. Witte,  A. Yamada,  Jun Yang,  K. Yao,  
 S. Yeganeh,  S. R. Yost,  Zhi-Qiang You,  A. Zech,  Igor Ying Zhang,  
 Xing Zhang,  Yan Zhao,  Ying Zhu,  B. R. Brooks,  G. K. L. Chan,  
 C. J. Cramer,  M. S. Gordon,  W. J. Hehre,  A. Klamt,  M. W. Schmidt,  
 C. D. Sherrill,  D. G. Truhlar,  A. Aspuru-Guzik,  R. Baer,  A. T. Bell,  
 N. A. Besley,  Jeng-Da Chai,  A. E. DePrince, III,  R. A. DiStasio Jr.,  
 A. Dreuw,  B. D. Dunietz,  T. R. Furlani,  Chao-Ping Hsu,  Yousung Jung,  
 Jing Kong,  D. S. Lambrecht,  WanZhen Liang,  C. Ochsenfeld,  
 V. A. Rassolov,  L. V. Slipchenko,  J. E. Subotnik,  T. Van Voorhis,  
 J. M. Herbert,  A. I. Krylov,  P. M. W. Gill,  M. Head-Gordon

 Contributors to earlier versions of Q-Chem not listed above: 
 R. D. Adamson,  B. Austin,  J. Baker,  G. J. O. Beran,  K. Brandhorst,  
 S. T. Brown,  E. F. C. Byrd,  A. K. Chakraborty,  C.-L. Cheng,  
 Siu Hung Chien,  D. M. Chipman,  D. L. Crittenden,  H. Dachsel,  
 R. J. Doerksen,  A. D. Dutoi,  L. Fusti-Molnar,  W. A. Goddard III,  
 A. Golubeva-Zadorozhnaya,  S. R. Gwaltney,  G. Hawkins,  A. Heyden,  
 S. Hirata,  G. Kedziora,  F. J. Keil,  C. Kelley,  Jihan Kim,  R. A. King,  
 R. Z. Khaliullin,  P. P. Korambath,  W. Kurlancheek,  A. M. Lee,  M. S. Lee,  
 S. V. Levchenko,  Ching Yeh Lin,  D. Liotard,  R. C. Lochan,  I. Lotan,  
 P. E. Maslen,  N. Nair,  D. P. O'Neill,  D. Neuhauser,  E. Neuscamman,  
 C. M. Oana,  R. Olson,  B. Peters,  R. Peverati,  P. A. Pieniazek,  
 Y. M. Rhee,  J. Ritchie,  M. A. Rohrdanz,  E. Rosta,  N. J. Russ,  
 H. F. Schaefer III,  N. E. Schultz,  N. Shenvi,  A. C. Simmonett,  A. Sodt,  
 D. Stuck,  K. S. Thanthiriwatte,  V. Vanovschi,  Tao Wang,  A. Warshel,  
 C. F. Williams,  Q. Wu,  X. Xu,  W. Zhang

 Please cite Q-Chem as follows:
 Y. Shao et al., Mol. Phys. 113, 184-215 (2015)
 DOI: 10.1080/00268976.2014.952696

 Q-Chem 5.3.0 for Intel X86 EM64T Linux

 Parts of Q-Chem use Armadillo 9.800.1 (Horizon Scraper).
 http://arma.sourceforge.net/

 Q-Chem begins on Mon Jul 27 14:56:59 2020  

Host: centos77-c7
0

     Scratch files written to /tmp/29924.centos77-h1/qchem112408//
Processing $rem in /opt/qchem-5.3.0-intel2020u1//config/preferences:
Processing $rem in /home/shihchengli/.qchemrc:

Checking the input file for inconsistencies... 	...done.

--------------------------------------------------------------
User input:
--------------------------------------------------------------
$rem
   JOBTYPE  sp
   EXCHANGE   omegaB97X-D
   BASIS   6-311+G(2df,2pd)
   UNRESTRICTED   False
   max_scf_cycles   250
   geom_opt_max_cycles   1500
   basis2 6-31G*
   scf_algorithm rca_diis
   SYM_IGNORE  TRUE
   print_input   true
   geom_opt_dmax   80
   pop_mulliken false
   XC_GRID 000075000302
$end

$molecule
0 1
C       -5.3853030573     0.3302161530     0.0297475575
C       -4.1375337741     1.1929068973     0.1121965695
H       -5.5002141943     -0.0772878203     -0.9798111974
H       -6.2189661650     0.8716376368     0.2660066154
H       -5.3203950138     -0.5530475561     0.7624268709
O       -2.9590078361     0.4959338669     -0.2495000638
H       -4.0358236501     1.6181386299     1.1301133505
H       -4.2069261939     1.9831924987     -0.5445261349
H       -2.8386401154     -0.2444703062     0.3436564325
$end
--------------------------------------------------------------
 ----------------------------------------------------------------
             Standard Nuclear Orientation (Angstroms)
    I     Atom           X                Y                Z
 ----------------------------------------------------------------
    1      C      -5.3853030573     0.3302161530     0.0297475575
    2      C      -4.1375337741     1.1929068973     0.1121965695
    3      H      -5.5002141943    -0.0772878203    -0.9798111974
    4      H      -6.2189661650     0.8716376368     0.2660066154
    5      H      -5.3203950138    -0.5530475561     0.7624268709
    6      O      -2.9590078361     0.4959338669    -0.2495000638
    7      H      -4.0358236501     1.6181386299     1.1301133505
    8      H      -4.2069261939     1.9831924987    -0.5445261349
    9      H      -2.8386401154    -0.2444703062     0.3436564325
 ----------------------------------------------------------------
 Nuclear Repulsion Energy =          82.12829887 hartrees
 There are       13 alpha and       13 beta electrons
 Requested basis set is 6-311+G(2df,2pd)
 There are 60 shells and 186 basis functions

 Total QAlloc Memory Limit   2000 MB
 Mega-Array Size       188 MB
 MEM_STATIC part       192 MB

                       Distance Matrix (Angstroms)
             C (  1)   C (  2)   H (  3)   H (  4)   H (  5)   O (  6)
   C (  2)  1.519198
   H (  3)  1.094748  2.159346
   H (  4)  1.021739  2.111689  1.723115
   H (  5)  1.149429  2.206879  1.814959  1.756016
   O (  6)  2.447928  1.416164  2.705488  3.321781  2.774979
   H (  7)  2.165789  1.107845  3.077449  2.463748  2.549385  2.078992
   H (  8)  2.109667  1.029879  2.471365  2.437380  3.062752  1.963741
   H (  9)  2.629505  1.951090  2.977162  3.560664  2.535685  0.956306
             H (  7)   H (  8)
   H (  8)  1.722486
   H (  9)  2.349697  2.761079
 
 A cutoff of  1.0D-09 yielded   1785 shell pairs
 There are     17304 function pairs (     21488 Cartesian)
 Smallest overlap matrix eigenvalue = 1.36E-04

 Scale SEOQF with 1.000000e-02/1.000000e-01/1.000000e-01

 Standard Electronic Orientation quadrupole field applied
 Nucleus-field energy     =     0.0000000027 hartrees
 Requested basis set is 6-31G(d)
 There are 24 shells and 54 basis functions
 A cutoff of  1.0D-09 yielded    298 shell pairs
 There are      1549 function pairs (      1732 Cartesian)
 Smallest overlap matrix eigenvalue = 7.04E-03
 Guess from superposition of atomic densities
 Warning:  Energy on first SCF cycle will be non-variational
 SAD guess density has 26.000000 electrons
 Long-range K will be added via erf
 Coulomb attenuation parameter = 0.2 bohr**(-1)
 A restricted hybrid HF-DFT SCF calculation will be
 performed using Relaxed Constraint Minimization + Pulay DIIS
 Exchange:     0.2220 Hartree-Fock + 1.0000 wB97X-D + LR-HF
 Correlation:  1.0000 wB97X-D
 Using Euler-Maclaurin-Lebedev (75,302) quadrature formula
 Dispersion:   Grimme D
 SCF converges when DIIS error is below 1.0E-04
 using 6 threads for integral computing
 -------------------------------------------------------
 OpenMP Integral computing Module                
 Release: version 1.0, May 2013, Q-Chem Inc. Pittsburgh 
 -------------------------------------------------------
 using 6 threads for integral computing
 -------------------------------------------------------
 OpenMP Integral computing Module                
 Release: version 1.0, May 2013, Q-Chem Inc. Pittsburgh 
 -------------------------------------------------------
 ---------------------------------------
  Cycle       Energy         DIIS Error
 ---------------------------------------
    1    -155.4609217895      1.07E-01
    2    -154.9184982940      1.35E-02
    3    -154.9470018488      3.09E-03
    4    -154.9728373953      2.52E-03
    5    -154.9736249660      2.28E-04 Done RCA. Switching to DIIS
    6    -154.9745072369      1.10E-04
    7    -154.9745109037      7.29E-06 Convergence criterion met
 ---------------------------------------
 SCF time:  CPU 14.35 s  wall 2.41 s
 SCF   energy in the small basis set = -154.97451090
 Total energy in the small basis set = -154.97451090
 ----------------------------------------------------
  Cycle       Energy    
 ----------------------------------------------------
    1     -18.7723548612     -1.88E+01
 Long-range K will be added via erf
 Coulomb attenuation parameter = 0.2 bohr**(-1)
 A restricted hybrid HF-DFT SCF calculation will be
 performed using Relaxed Constraint Minimization + Pulay DIIS
 Exchange:     0.2220 Hartree-Fock + 1.0000 wB97X-D + LR-HF
 Correlation:  1.0000 wB97X-D
 Using Euler-Maclaurin-Lebedev (75,302) quadrature formula
 Dispersion:   Grimme D
 SCF converges when DIIS error is below 1.0E-05
 Basis2 calculation detected. Using small basis as guess for larger.
 SCFMinFind is unable to tell whether the solution found is close.
 Resetting ReadMinima to 0 and attempting to follow guess.
 SCFMinFind following SCF Guess.
 using 6 threads for integral computing
 -------------------------------------------------------
 OpenMP Integral computing Module                
 Release: version 1.0, May 2013, Q-Chem Inc. Pittsburgh 
 -------------------------------------------------------
 using 6 threads for integral computing
 -------------------------------------------------------
 OpenMP Integral computing Module                
 Release: version 1.0, May 2013, Q-Chem Inc. Pittsburgh 
 -------------------------------------------------------
 ---------------------------------------
  Cycle       Energy         DIIS Error
 ---------------------------------------
    1    -155.0065508604      5.72E-03
    2    -155.0221342132      2.84E-03
    3    -155.0316938461      3.47E-04 Done RCA. Switching to DIIS
    4    -155.0431585576      2.49E-04
    5    -155.0433430608      3.88E-05
    6    -155.0433506908      5.51E-06 Convergence criterion met
 ---------------------------------------
 SCF time:  CPU 38.80 s  wall 6.49 s
 SCF   energy in the final basis set = -155.04335069
 Total energy in the final basis set = -155.04335069
 
 --------------------------------------------------------------
 
                    Orbital Energies (a.u.)
 --------------------------------------------------------------
 
 Alpha MOs
 -- Occupied --
-19.2451 -10.3223 -10.2732  -1.1249  -0.8526  -0.7275  -0.5943  -0.5491
 -0.5268  -0.4710  -0.4568  -0.4140  -0.3617
 -- Virtual --
  0.0658   0.0867   0.0891   0.1018   0.1266   0.1342   0.1367   0.1819
  0.2005   0.2102   0.2433   0.2486   0.2701   0.2833   0.2901   0.3050
  0.3170   0.3305   0.3440   0.3823   0.4596   0.4901   0.5021   0.5262
  0.5674   0.5719   0.5870   0.6128   0.6134   0.6325   0.6767   0.6834
  0.6980   0.7171   0.7385   0.8051   0.8488   0.8965   0.9308   0.9502
  0.9912   1.0521   1.0666   1.1176   1.1430   1.1799   1.1853   1.2111
  1.2282   1.2370   1.2812   1.3053   1.3238   1.3605   1.3754   1.4199
  1.4477   1.4649   1.4793   1.4919   1.5067   1.5409   1.6176   1.6409
  1.6573   1.7126   1.9439   2.0511   2.1217   2.2763   2.2825   2.4230
  2.4516   2.5062   2.5527   2.6210   2.7013   2.8424   2.8513   2.8867
  2.9154   2.9602   3.0183   3.0314   3.0388   3.0602   3.0653   3.0984
  3.1075   3.1890   3.2230   3.2566   3.2860   3.2975   3.3142   3.3391
  3.3729   3.3965   3.4290   3.4354   3.5130   3.5579   3.5710   3.5746
  3.6263   3.6311   3.6567   3.7072   3.7398   3.7636   3.7826   3.8417
  3.8713   3.9271   3.9648   3.9825   4.0011   4.0173   4.0524   4.0868
  4.0965   4.1154   4.1579   4.1882   4.2280   4.2356   4.3029   4.3163
  4.3435   4.4042   4.4812   4.5143   4.5554   4.6612   4.7353   4.8021
  4.8454   4.9101   4.9717   5.0208   5.0542   5.1199   5.1916   5.2084
  5.2398   5.2473   5.3467   5.3619   5.3939   5.4338   5.4703   5.5121
  5.5817   5.6071   5.6829   5.8403   5.9494   6.0260   6.2896   6.4464
  6.4731   6.6608   6.7245   6.8368   7.1288   7.3543   7.4263   7.5538
  7.7309   8.1145  25.2258  25.4218  50.4690
 --------------------------------------------------------------
 
 -----------------------------------------------------------------
                    Cartesian Multipole Moments
 -----------------------------------------------------------------
    Charge (ESU x 10^10)
                -0.0000
    Dipole Moment (Debye)
         X      -1.2189      Y      -0.3242      Z       1.1966
       Tot       1.7386
    Quadrupole Moments (Debye-Ang)
        XX     -11.6304     XY      -1.1068     YY     -18.7892
        XZ      -3.0383     YZ      -0.3364     ZZ     -19.9294
    Octopole Moments (Debye-Ang^2)
       XXX     211.6717    XXY      -1.2178    XYY      79.5892
       YYY     -36.9027    XXZ       6.9418    XYZ       1.3134
       YYZ      -0.3995    XZZ      84.6558    YZZ     -12.8914
       ZZZ       0.0241
    Hexadecapole Moments (Debye-Ang^3)
      XXXX   -2123.2071   XXXY      85.0787   XXYY    -381.6484
      XYYY     150.4413   YYYY    -104.5311   XXXZ      -7.5140
      XXYZ      -5.1270   XYYZ       3.1862   YYYZ      -4.0573
      XXZZ    -392.3842   XYZZ      53.2537   YYZZ     -22.8129
      XZZZ       6.6602   YZZZ      -1.5996   ZZZZ     -37.1867
 -----------------------------------------------------------------
Archival summary:
1\1\centos77-c7\SP\ProcedureUnspecified\BasisUnspecified\126\shihchen\MonJul2714:57:102020MonJul2714:57:102020\0\\#,ProcedureUnspecified,BasisUnspecified,\\0,1\C\H,1,1.02988\H,1,1.10785,2,107.311\O,1,1.41616,2,105.716,3,-117.741,0\H,4,0.956306,1,109.109,2,179.023,0\C,1,1.5192,2,110.231,3,119.869,0\H,6,1.02174,1,110.897,2,-60.0603,0\H,6,1.09475,1,110.343,2,60.7637,0\H,6,1.14943,1,110.817,2,-179.759,0\\\@

 Total job time:  11.06s(wall), 56.99s(cpu) 
 Mon Jul 27 14:57:10 2020

        *************************************************************
        *                                                           *
        *  Thank you very much for using Q-Chem.  Have a nice day.  *
        *                                                           *
        *************************************************************


