                  Welcome to Q-Chem
     A Quantum Leap Into The Future Of Chemistry


 Q-Chem 5.3 (devel), Q-Chem, Inc., Pleasanton, CA (2020)

 Yihan Shao,  Zhengting Gan,  E. Epifanovsky,  A. T. B. Gilbert,  M. Wormit,  
 J. Kussmann,  A. W. Lange,  A. Behn,  Jia Deng,  Xintian Feng,  D. Ghosh,  
 M. Goldey,  P. R. Horn,  L. D. Jacobson,  I. Kaliman,  T. Kus,  A. Landau,  
 Jie Liu,  E. I. Proynov,  R. M. Richard,  R. P. Steele,  E. J. Sundstrom,  
 H. L. Woodcock III,  P. M. Zimmerman,  D. Zuev,  B. Alam,  B. Albrecht,  
 E. Alguire,  S. A. Baeppler,  D. Barton,  Z. Benda,  Y. A. Bernard,  
 E. J. Berquist,  K. B. Bravaya,  H. Burton,  K. Carter-Fenk,  D. Casanova,  
 Chun-Min Chang,  Yunqing Chen,  A. Chien,  K. D. Closser,  M. P. Coons,  
 S. Coriani,  S. Dasgupta,  A. L. Dempwolff,  M. Diedenhofen,  Hainam Do,  
 R. G. Edgar,  Po-Tung Fang,  S. Faraji,  S. Fatehi,  Qingguo Feng,  
 J. Fosso-Tande,  J. Gayvert,  Qinghui Ge,  A. Ghysels,  G. Gidofalvi,  
 J. Gomes,  J. Gonthier,  A. Gunina,  D. Hait,  M. W. D. Hanson-Heine,  
 P. H. P. Harbach,  A. W. Hauser,  M. F. Herbst,  J. E. Herr,  
 E. G. Hohenstein,  Z. C. Holden,  Kerwin Hui,  B. C. Huynh,  T.-C. Jagau,  
 Hyunjun Ji,  B. Kaduk,  K. Khistyaev,  Jaehoon Kim,  P. Klunzinger,  K. Koh,  
 D. Kosenkov,  L. Koulias,  T. Kowalczyk,  C. M. Krauter,  A. Kunitsa,  
 Ka Un Lao,  A. Laurent,  K. V. Lawler,  Joonho Lee,  D. Lefrancois,  
 S. Lehtola,  D. S. Levine,  Yi-Pei Li,  You-Sheng Lin,  Fenglai Liu,  
 Kuan-Yu Liu,  E. Livshits,  M. Loipersberger,  A. Luenser,  P. Manohar,  
 E. Mansoor,  S. F. Manzer,  Shan-Ping Mao,  Yuezhi Mao,  N. Mardirossian,  
 A. V. Marenich,  T. Markovich,  L. A. Martinez-Martinez,  S. A. Maurer,  
 N. J. Mayhall,  S. C. McKenzie,  J.-M. Mewes,  P. Morgante,  A. F. Morrison,  
 J. W. Mullinax,  K. Nanda,  T. S. Nguyen-Beck,  R. Olivares-Amaya,  
 K. J. Oosterbaan,  J. A. Parkhill,  S. K. Paul,  F. Pavosevic,  Zheng Pei,  
 T. M. Perrine,  F. Plasser,  P. Pokhilko,  S. Prager,  A. Prociuk,  
 E. Ramos,  B. Rana,  D. R. Rehn,  F. Rob,  M. Scheurer,  M. Schneider,  
 N. Sergueev,  S. M. Sharada,  S. Sharma,  D. W. Small,  T. Stauch,  
 C. J. Stein,  T. Stein,  Yu-Chuan Su,  S. P. Veccham,  Zhen Tao,  
 A. J. W. Thom,  A. Tkatchenko,  T. Tsuchimochi,  N. M. Tubman,  L. Vogt,  
 M. L. Vidal,  O. Vydrov,  M. A. Watson,  J. Wenzel,  M. de Wergifosse,  
 T. A. Wesolowski,  A. White,  J. Witte,  A. Yamada,  Jun Yang,  K. Yao,  
 S. Yeganeh,  S. R. Yost,  Zhi-Qiang You,  A. Zech,  Igor Ying Zhang,  
 Xing Zhang,  Yan Zhao,  Ying Zhu,  B. R. Brooks,  G. K. L. Chan,  
 C. J. Cramer,  M. S. Gordon,  W. J. Hehre,  A. Klamt,  M. W. Schmidt,  
 C. D. Sherrill,  D. G. Truhlar,  A. Aspuru-Guzik,  R. Baer,  A. T. Bell,  
 N. A. Besley,  Jeng-Da Chai,  A. E. DePrince, III,  R. A. DiStasio Jr.,  
 A. Dreuw,  B. D. Dunietz,  T. R. Furlani,  Chao-Ping Hsu,  Yousung Jung,  
 Jing Kong,  D. S. Lambrecht,  WanZhen Liang,  C. Ochsenfeld,  
 V. A. Rassolov,  L. V. Slipchenko,  J. E. Subotnik,  T. Van Voorhis,  
 J. M. Herbert,  A. I. Krylov,  P. M. W. Gill,  M. Head-Gordon

 Contributors to earlier versions of Q-Chem not listed above: 
 R. D. Adamson,  B. Austin,  J. Baker,  G. J. O. Beran,  K. Brandhorst,  
 S. T. Brown,  E. F. C. Byrd,  A. K. Chakraborty,  C.-L. Cheng,  
 Siu Hung Chien,  D. M. Chipman,  D. L. Crittenden,  H. Dachsel,  
 R. J. Doerksen,  A. D. Dutoi,  L. Fusti-Molnar,  W. A. Goddard III,  
 A. Golubeva-Zadorozhnaya,  S. R. Gwaltney,  G. Hawkins,  A. Heyden,  
 S. Hirata,  G. Kedziora,  F. J. Keil,  C. Kelley,  Jihan Kim,  R. A. King,  
 R. Z. Khaliullin,  P. P. Korambath,  W. Kurlancheek,  A. M. Lee,  M. S. Lee,  
 S. V. Levchenko,  Ching Yeh Lin,  D. Liotard,  R. C. Lochan,  I. Lotan,  
 P. E. Maslen,  N. Nair,  D. P. O'Neill,  D. Neuhauser,  E. Neuscamman,  
 C. M. Oana,  R. Olson,  B. Peters,  R. Peverati,  P. A. Pieniazek,  
 Y. M. Rhee,  J. Ritchie,  M. A. Rohrdanz,  E. Rosta,  N. J. Russ,  
 H. F. Schaefer III,  N. E. Schultz,  N. Shenvi,  A. C. Simmonett,  A. Sodt,  
 D. Stuck,  K. S. Thanthiriwatte,  V. Vanovschi,  Tao Wang,  A. Warshel,  
 C. F. Williams,  Q. Wu,  X. Xu,  W. Zhang

 Please cite Q-Chem as follows:
 Y. Shao et al., Mol. Phys. 113, 184-215 (2015)
 DOI: 10.1080/00268976.2014.952696

 Q-Chem 5.3.0 for Intel X86 EM64T Linux

 Parts of Q-Chem use Armadillo 9.800.1 (Horizon Scraper).
 http://arma.sourceforge.net/

 Q-Chem begins on Mon Jul 27 14:57:11 2020  

Host: centos77-c7
0

     Scratch files written to /tmp/29924.centos77-h1/qchem112457//
Processing $rem in /opt/qchem-5.3.0-intel2020u1//config/preferences:
Processing $rem in /home/shihchengli/.qchemrc:

Checking the input file for inconsistencies... 	...done.

--------------------------------------------------------------
User input:
--------------------------------------------------------------
$rem
   JOBTYPE  sp
   EXCHANGE   omegaB97X-D
   BASIS   6-311+G(2df,2pd)
   UNRESTRICTED   False
   max_scf_cycles   250
   geom_opt_max_cycles   1500
   basis2 6-31G*
   scf_algorithm rca_diis
   SYM_IGNORE  TRUE
   print_input   true
   geom_opt_dmax   80
   pop_mulliken false
   XC_GRID 000075000302
$end

$molecule
0 1
C       -5.3966468747     0.3501447289     0.0235101073
C       -4.1420186361     1.2060540531     0.1018047273
H       -5.5097754036     -0.0652235525     -0.9883534451
H       -6.1726695437     0.8560595939     0.2447016600
H       -5.3277453333     -0.5771092960     0.7924584822
O       -2.9652743776     0.5014751456     -0.2550346964
H       -4.0363621572     1.6342954521     1.1308533468
H       -4.2051177967     1.9500595479     -0.5173987509
H       -2.8471998771     -0.2385356728     0.3377685689
$end
--------------------------------------------------------------
 ----------------------------------------------------------------
             Standard Nuclear Orientation (Angstroms)
    I     Atom           X                Y                Z
 ----------------------------------------------------------------
    1      C      -5.3966468747     0.3501447289     0.0235101073
    2      C      -4.1420186361     1.2060540531     0.1018047273
    3      H      -5.5097754036    -0.0652235525    -0.9883534451
    4      H      -6.1726695437     0.8560595939     0.2447016600
    5      H      -5.3277453333    -0.5771092960     0.7924584822
    6      O      -2.9652743776     0.5014751456    -0.2550346964
    7      H      -4.0363621572     1.6342954521     1.1308533468
    8      H      -4.2051177967     1.9500595479    -0.5173987509
    9      H      -2.8471998771    -0.2385356728     0.3377685689
 ----------------------------------------------------------------
 Nuclear Repulsion Energy =          82.41882162 hartrees
 There are       13 alpha and       13 beta electrons
 Requested basis set is 6-311+G(2df,2pd)
 There are 60 shells and 186 basis functions

 Total QAlloc Memory Limit   2000 MB
 Mega-Array Size       188 MB
 MEM_STATIC part       192 MB

                       Distance Matrix (Angstroms)
             C (  1)   C (  2)   H (  3)   H (  4)   H (  5)   O (  6)
   C (  2)  1.520790
   H (  3)  1.099635  2.162256
   H (  4)  0.952411  2.065541  1.675893
   H (  5)  1.206577  2.250027  1.861841  1.751544
   O (  6)  2.451950  1.417213  2.708023  3.265402  2.800331
   H (  7)  2.173851  1.119596  3.090364  2.440231  2.583117  2.085952
   H (  8)  2.066894  0.970020  2.446486  2.376740  3.059837  1.924693
   H (  9)  2.635334  1.954245  2.979588  3.502221  2.544500  0.955496
             H (  7)   H (  8)
   H (  8)  1.686689
   H (  9)  2.355968  2.713890
 
 A cutoff of  1.0D-09 yielded   1787 shell pairs
 There are     17351 function pairs (     21560 Cartesian)
 Smallest overlap matrix eigenvalue = 1.38E-04

 Scale SEOQF with 1.000000e-02/1.000000e-01/1.000000e-01

 Standard Electronic Orientation quadrupole field applied
 Nucleus-field energy     =     0.0000000027 hartrees
 Requested basis set is 6-31G(d)
 There are 24 shells and 54 basis functions
 A cutoff of  1.0D-09 yielded    298 shell pairs
 There are      1549 function pairs (      1732 Cartesian)
 Smallest overlap matrix eigenvalue = 6.84E-03
 Guess from superposition of atomic densities
 Warning:  Energy on first SCF cycle will be non-variational
 SAD guess density has 26.000000 electrons
 Long-range K will be added via erf
 Coulomb attenuation parameter = 0.2 bohr**(-1)
 A restricted hybrid HF-DFT SCF calculation will be
 performed using Relaxed Constraint Minimization + Pulay DIIS
 Exchange:     0.2220 Hartree-Fock + 1.0000 wB97X-D + LR-HF
 Correlation:  1.0000 wB97X-D
 Using Euler-Maclaurin-Lebedev (75,302) quadrature formula
 Dispersion:   Grimme D
 SCF converges when DIIS error is below 1.0E-04
 using 6 threads for integral computing
 -------------------------------------------------------
 OpenMP Integral computing Module                
 Release: version 1.0, May 2013, Q-Chem Inc. Pittsburgh 
 -------------------------------------------------------
 using 6 threads for integral computing
 -------------------------------------------------------
 OpenMP Integral computing Module                
 Release: version 1.0, May 2013, Q-Chem Inc. Pittsburgh 
 -------------------------------------------------------
 ---------------------------------------
  Cycle       Energy         DIIS Error
 ---------------------------------------
    1    -155.4840362437      1.09E-01
    2    -154.8905472907      1.36E-02
    3    -154.9199461383      3.19E-03
    4    -154.9458164685      2.69E-03
    5    -154.9467096127      2.32E-04 Done RCA. Switching to DIIS
    6    -154.9477083246      1.22E-04
    7    -154.9477127020      7.43E-06 Convergence criterion met
 ---------------------------------------
 SCF time:  CPU 14.45 s  wall 2.43 s
 SCF   energy in the small basis set = -154.94771270
 Total energy in the small basis set = -154.94771270
 ----------------------------------------------------
  Cycle       Energy    
 ----------------------------------------------------
    1     -18.7995744048     -1.88E+01
 Long-range K will be added via erf
 Coulomb attenuation parameter = 0.2 bohr**(-1)
 A restricted hybrid HF-DFT SCF calculation will be
 performed using Relaxed Constraint Minimization + Pulay DIIS
 Exchange:     0.2220 Hartree-Fock + 1.0000 wB97X-D + LR-HF
 Correlation:  1.0000 wB97X-D
 Using Euler-Maclaurin-Lebedev (75,302) quadrature formula
 Dispersion:   Grimme D
 SCF converges when DIIS error is below 1.0E-05
 Basis2 calculation detected. Using small basis as guess for larger.
 SCFMinFind is unable to tell whether the solution found is close.
 Resetting ReadMinima to 0 and attempting to follow guess.
 SCFMinFind following SCF Guess.
 using 6 threads for integral computing
 -------------------------------------------------------
 OpenMP Integral computing Module                
 Release: version 1.0, May 2013, Q-Chem Inc. Pittsburgh 
 -------------------------------------------------------
 using 6 threads for integral computing
 -------------------------------------------------------
 OpenMP Integral computing Module                
 Release: version 1.0, May 2013, Q-Chem Inc. Pittsburgh 
 -------------------------------------------------------
 ---------------------------------------
  Cycle       Energy         DIIS Error
 ---------------------------------------
    1    -154.9812415655      5.72E-03
    2    -154.9968546976      2.84E-03
    3    -155.0063508589      3.46E-04 Done RCA. Switching to DIIS
    4    -155.0177328193      2.47E-04
    5    -155.0179146611      3.85E-05
    6    -155.0179221463      5.44E-06 Convergence criterion met
 ---------------------------------------
 SCF time:  CPU 38.88 s  wall 6.50 s
 SCF   energy in the final basis set = -155.01792215
 Total energy in the final basis set = -155.01792215
 
 --------------------------------------------------------------
 
                    Orbital Energies (a.u.)
 --------------------------------------------------------------
 
 Alpha MOs
 -- Occupied --
-19.2443 -10.3172 -10.2716  -1.1242  -0.8575  -0.7344  -0.5927  -0.5546
 -0.5318  -0.4727  -0.4531  -0.4157  -0.3610
 -- Virtual --
  0.0658   0.0858   0.0893   0.1016   0.1263   0.1347   0.1362   0.1817
  0.2012   0.2028   0.2448   0.2514   0.2736   0.2841   0.2923   0.3029
  0.3176   0.3324   0.3451   0.3827   0.4607   0.4875   0.5039   0.5267
  0.5577   0.5733   0.5937   0.6134   0.6161   0.6336   0.6829   0.6859
  0.7114   0.7274   0.7412   0.8077   0.8499   0.8959   0.9339   0.9481
  0.9962   1.0514   1.0716   1.1235   1.1433   1.1836   1.1885   1.2088
  1.2280   1.2378   1.2826   1.3132   1.3243   1.3601   1.3747   1.4157
  1.4450   1.4643   1.4770   1.4965   1.5113   1.5473   1.6234   1.6701
  1.6770   1.7234   1.9497   2.0517   2.1283   2.2689   2.2821   2.3761
  2.4233   2.5231   2.5616   2.6545   2.7003   2.8370   2.8552   2.8876
  2.9099   2.9446   3.0134   3.0237   3.0438   3.0627   3.0726   3.1191
  3.1319   3.1932   3.2324   3.2529   3.2752   3.2949   3.3146   3.3299
  3.3790   3.3955   3.4339   3.4524   3.5033   3.5453   3.5575   3.5783
  3.6335   3.6430   3.6703   3.6991   3.7443   3.7562   3.7999   3.8377
  3.8534   3.9300   3.9627   3.9914   4.0121   4.0219   4.0598   4.0938
  4.1030   4.1280   4.1896   4.1974   4.2277   4.2609   4.2982   4.3248
  4.3472   4.4140   4.4914   4.5053   4.5540   4.6676   4.7459   4.7944
  4.8255   4.8830   4.9493   5.0346   5.0693   5.1549   5.1945   5.2470
  5.2634   5.3108   5.4132   5.4598   5.4780   5.5391   5.5607   5.6162
  5.6814   5.7025   5.7258   5.8698   5.9781   6.0243   6.2194   6.4975
  6.5775   6.6675   6.7476   6.8562   7.1305   7.3564   7.4278   7.5528
  7.7354   8.1185  25.2460  25.3775  50.4708
 --------------------------------------------------------------
 
 -----------------------------------------------------------------
                    Cartesian Multipole Moments
 -----------------------------------------------------------------
    Charge (ESU x 10^10)
                -0.0000
    Dipole Moment (Debye)
         X      -1.2486      Y      -0.2411      Z       1.1473
       Tot       1.7128
    Quadrupole Moments (Debye-Ang)
        XX     -11.3047     XY      -1.5330     YY     -18.6464
        XZ      -2.7902     YZ      -0.3654     ZZ     -19.9202
    Octopole Moments (Debye-Ang^2)
       XXX     209.2214    XXY       0.9772    XYY      78.9595
       YYY     -36.7514    XXZ       5.6758    XYZ       1.4882
       YYZ      -0.3808    XZZ      84.6217    YZZ     -12.9475
       ZZZ       0.1138
    Hexadecapole Moments (Debye-Ang^3)
      XXXX   -2106.4557   XXXY      73.6459   XXYY    -378.6546
      XYYY     149.4965   YYYY    -104.2702   XXXZ      -0.8716
      XXYZ      -6.0756   XYYZ       3.1118   YYYZ      -3.9561
      XXZZ    -392.0976   XYZZ      53.4154   YYZZ     -22.9337
      XZZZ       6.2872   YZZZ      -1.5124   ZZZZ     -37.5264
 -----------------------------------------------------------------
Archival summary:
1\1\centos77-c7\SP\ProcedureUnspecified\BasisUnspecified\126\shihchen\MonJul2714:57:222020MonJul2714:57:222020\0\\#,ProcedureUnspecified,BasisUnspecified,\\0,1\C\H,1,0.97002\H,1,1.1196,2,107.426\O,1,1.41721,2,105.938,3,-117.63,0\H,4,0.955496,1,109.356,2,179.056,0\C,1,1.52079,2,110.191,3,119.71,0\H,6,0.952411,1,111.179,2,-60.0535,0\H,6,1.09963,1,110.172,2,61.277,0\H,6,1.20658,1,110.646,2,-179.89,0\\\@

 Total job time:  11.06s(wall), 57.15s(cpu) 
 Mon Jul 27 14:57:22 2020

        *************************************************************
        *                                                           *
        *  Thank you very much for using Q-Chem.  Have a nice day.  *
        *                                                           *
        *************************************************************


