                  Welcome to Q-Chem
     A Quantum Leap Into The Future Of Chemistry


 Q-Chem 5.3 (devel), Q-Chem, Inc., Pleasanton, CA (2020)

 Yihan Shao,  Zhengting Gan,  E. Epifanovsky,  A. T. B. Gilbert,  M. Wormit,  
 J. Kussmann,  A. W. Lange,  A. Behn,  Jia Deng,  Xintian Feng,  D. Ghosh,  
 M. Goldey,  P. R. Horn,  L. D. Jacobson,  I. Kaliman,  T. Kus,  A. Landau,  
 Jie Liu,  E. I. Proynov,  R. M. Richard,  R. P. Steele,  E. J. Sundstrom,  
 H. L. Woodcock III,  P. M. Zimmerman,  D. Zuev,  B. Alam,  B. Albrecht,  
 E. Alguire,  S. A. Baeppler,  D. Barton,  Z. Benda,  Y. A. Bernard,  
 E. J. Berquist,  K. B. Bravaya,  H. Burton,  K. Carter-Fenk,  D. Casanova,  
 Chun-Min Chang,  Yunqing Chen,  A. Chien,  K. D. Closser,  M. P. Coons,  
 S. Coriani,  S. Dasgupta,  A. L. Dempwolff,  M. Diedenhofen,  Hainam Do,  
 R. G. Edgar,  Po-Tung Fang,  S. Faraji,  S. Fatehi,  Qingguo Feng,  
 J. Fosso-Tande,  J. Gayvert,  Qinghui Ge,  A. Ghysels,  G. Gidofalvi,  
 J. Gomes,  J. Gonthier,  A. Gunina,  D. Hait,  M. W. D. Hanson-Heine,  
 P. H. P. Harbach,  A. W. Hauser,  M. F. Herbst,  J. E. Herr,  
 E. G. Hohenstein,  Z. C. Holden,  Kerwin Hui,  B. C. Huynh,  T.-C. Jagau,  
 Hyunjun Ji,  B. Kaduk,  K. Khistyaev,  Jaehoon Kim,  P. Klunzinger,  K. Koh,  
 D. Kosenkov,  L. Koulias,  T. Kowalczyk,  C. M. Krauter,  A. Kunitsa,  
 Ka Un Lao,  A. Laurent,  K. V. Lawler,  Joonho Lee,  D. Lefrancois,  
 S. Lehtola,  D. S. Levine,  Yi-Pei Li,  You-Sheng Lin,  Fenglai Liu,  
 Kuan-Yu Liu,  E. Livshits,  M. Loipersberger,  A. Luenser,  P. Manohar,  
 E. Mansoor,  S. F. Manzer,  Shan-Ping Mao,  Yuezhi Mao,  N. Mardirossian,  
 A. V. Marenich,  T. Markovich,  L. A. Martinez-Martinez,  S. A. Maurer,  
 N. J. Mayhall,  S. C. McKenzie,  J.-M. Mewes,  P. Morgante,  A. F. Morrison,  
 J. W. Mullinax,  K. Nanda,  T. S. Nguyen-Beck,  R. Olivares-Amaya,  
 K. J. Oosterbaan,  J. A. Parkhill,  S. K. Paul,  F. Pavosevic,  Zheng Pei,  
 T. M. Perrine,  F. Plasser,  P. Pokhilko,  S. Prager,  A. Prociuk,  
 E. Ramos,  B. Rana,  D. R. Rehn,  F. Rob,  M. Scheurer,  M. Schneider,  
 N. Sergueev,  S. M. Sharada,  S. Sharma,  D. W. Small,  T. Stauch,  
 C. J. Stein,  T. Stein,  Yu-Chuan Su,  S. P. Veccham,  Zhen Tao,  
 A. J. W. Thom,  A. Tkatchenko,  T. Tsuchimochi,  N. M. Tubman,  L. Vogt,  
 M. L. Vidal,  O. Vydrov,  M. A. Watson,  J. Wenzel,  M. de Wergifosse,  
 T. A. Wesolowski,  A. White,  J. Witte,  A. Yamada,  Jun Yang,  K. Yao,  
 S. Yeganeh,  S. R. Yost,  Zhi-Qiang You,  A. Zech,  Igor Ying Zhang,  
 Xing Zhang,  Yan Zhao,  Ying Zhu,  B. R. Brooks,  G. K. L. Chan,  
 C. J. Cramer,  M. S. Gordon,  W. J. Hehre,  A. Klamt,  M. W. Schmidt,  
 C. D. Sherrill,  D. G. Truhlar,  A. Aspuru-Guzik,  R. Baer,  A. T. Bell,  
 N. A. Besley,  Jeng-Da Chai,  A. E. DePrince, III,  R. A. DiStasio Jr.,  
 A. Dreuw,  B. D. Dunietz,  T. R. Furlani,  Chao-Ping Hsu,  Yousung Jung,  
 Jing Kong,  D. S. Lambrecht,  WanZhen Liang,  C. Ochsenfeld,  
 V. A. Rassolov,  L. V. Slipchenko,  J. E. Subotnik,  T. Van Voorhis,  
 J. M. Herbert,  A. I. Krylov,  P. M. W. Gill,  M. Head-Gordon

 Contributors to earlier versions of Q-Chem not listed above: 
 R. D. Adamson,  B. Austin,  J. Baker,  G. J. O. Beran,  K. Brandhorst,  
 S. T. Brown,  E. F. C. Byrd,  A. K. Chakraborty,  C.-L. Cheng,  
 Siu Hung Chien,  D. M. Chipman,  D. L. Crittenden,  H. Dachsel,  
 R. J. Doerksen,  A. D. Dutoi,  L. Fusti-Molnar,  W. A. Goddard III,  
 A. Golubeva-Zadorozhnaya,  S. R. Gwaltney,  G. Hawkins,  A. Heyden,  
 S. Hirata,  G. Kedziora,  F. J. Keil,  C. Kelley,  Jihan Kim,  R. A. King,  
 R. Z. Khaliullin,  P. P. Korambath,  W. Kurlancheek,  A. M. Lee,  M. S. Lee,  
 S. V. Levchenko,  Ching Yeh Lin,  D. Liotard,  R. C. Lochan,  I. Lotan,  
 P. E. Maslen,  N. Nair,  D. P. O'Neill,  D. Neuhauser,  E. Neuscamman,  
 C. M. Oana,  R. Olson,  B. Peters,  R. Peverati,  P. A. Pieniazek,  
 Y. M. Rhee,  J. Ritchie,  M. A. Rohrdanz,  E. Rosta,  N. J. Russ,  
 H. F. Schaefer III,  N. E. Schultz,  N. Shenvi,  A. C. Simmonett,  A. Sodt,  
 D. Stuck,  K. S. Thanthiriwatte,  V. Vanovschi,  Tao Wang,  A. Warshel,  
 C. F. Williams,  Q. Wu,  X. Xu,  W. Zhang

 Please cite Q-Chem as follows:
 Y. Shao et al., Mol. Phys. 113, 184-215 (2015)
 DOI: 10.1080/00268976.2014.952696

 Q-Chem 5.3.0 for Intel X86 EM64T Linux

 Parts of Q-Chem use Armadillo 9.800.1 (Horizon Scraper).
 http://arma.sourceforge.net/

 Q-Chem begins on Mon Jul 27 14:25:32 2020  

Host: centos77-c7
0

     Scratch files written to /tmp/29924.centos77-h1/qchem104681//
Processing $rem in /opt/qchem-5.3.0-intel2020u1//config/preferences:
Processing $rem in /home/shihchengli/.qchemrc:

Checking the input file for inconsistencies... 	...done.

--------------------------------------------------------------
User input:
--------------------------------------------------------------
$rem
   JOBTYPE  sp
   EXCHANGE   omegaB97X-D
   BASIS   6-311+G(2df,2pd)
   UNRESTRICTED   False
   max_scf_cycles   250
   geom_opt_max_cycles   1500
   basis2 6-31G*
   scf_algorithm rca_diis
   SYM_IGNORE  TRUE
   print_input   true
   geom_opt_dmax   80
   pop_mulliken false
   XC_GRID 000075000302
$end

$molecule
0 1
C       -5.4434287524     0.2589623807     0.0133045230
C       -4.0954017513     1.0284210884     0.0722552897
H       -5.7725361153     -0.0943528510     -0.9641116515
H       -6.1124144180     1.0737969393     0.3080221175
H       -5.5759251022     -0.5405527266     0.7427338905
O       -2.7339749414     0.6734891952     -0.1654560240
H       -4.1656895294     1.4189574482     1.0948331708
H       -4.2241606646     1.8895977953     -0.5831218628
H       -2.4792787253     -0.0910992696     0.3518505469
$end
--------------------------------------------------------------
 ----------------------------------------------------------------
             Standard Nuclear Orientation (Angstroms)
    I     Atom           X                Y                Z
 ----------------------------------------------------------------
    1      C      -5.4434287524     0.2589623807     0.0133045230
    2      C      -4.0954017513     1.0284210884     0.0722552897
    3      H      -5.7725361153    -0.0943528510    -0.9641116515
    4      H      -6.1124144180     1.0737969393     0.3080221175
    5      H      -5.5759251022    -0.5405527266     0.7427338905
    6      O      -2.7339749414     0.6734891952    -0.1654560240
    7      H      -4.1656895294     1.4189574482     1.0948331708
    8      H      -4.2241606646     1.8895977953    -0.5831218628
    9      H      -2.4792787253    -0.0910992696     0.3518505469
 ----------------------------------------------------------------
 Nuclear Repulsion Energy =          79.74471194 hartrees
 There are       13 alpha and       13 beta electrons
 Requested basis set is 6-311+G(2df,2pd)
 There are 60 shells and 186 basis functions

 Total QAlloc Memory Limit   2000 MB
 Mega-Array Size       188 MB
 MEM_STATIC part       192 MB

                       Distance Matrix (Angstroms)
             C (  1)   C (  2)   H (  3)   H (  4)   H (  5)   O (  6)
   C (  2)  1.553293
   H (  3)  1.090177  2.268801
   H (  4)  1.094694  2.031252  1.760232
   H (  5)  1.090343  2.259020  1.775126  1.755825
   O (  6)  2.746803  1.426873  3.234237  3.434863  3.221085
   H (  7)  2.036642  1.096870  3.018496  2.127897  2.439758  2.047891
   H (  8)  2.121629  1.089827  2.545325  2.241689  3.080713  1.968253
   H (  9)  3.003888  1.985788  3.546451  3.815571  3.153414  0.957639
             H (  7)   H (  8)
   H (  8)  1.743690
   H (  9)  2.382494  2.800348
 
 A cutoff of  1.0D-09 yielded   1753 shell pairs
 There are     16966 function pairs (     21062 Cartesian)
 Smallest overlap matrix eigenvalue = 1.38E-04

 Scale SEOQF with 1.000000e-02/1.000000e-01/1.000000e-01

 Standard Electronic Orientation quadrupole field applied
 Nucleus-field energy     =     0.0000000026 hartrees
 Requested basis set is 6-31G(d)
 There are 24 shells and 54 basis functions
 A cutoff of  1.0D-09 yielded    295 shell pairs
 There are      1543 function pairs (      1726 Cartesian)
 Smallest overlap matrix eigenvalue = 8.18E-03
 Guess from superposition of atomic densities
 Warning:  Energy on first SCF cycle will be non-variational
 SAD guess density has 26.000000 electrons
 Long-range K will be added via erf
 Coulomb attenuation parameter = 0.2 bohr**(-1)
 A restricted hybrid HF-DFT SCF calculation will be
 performed using Relaxed Constraint Minimization + Pulay DIIS
 Exchange:     0.2220 Hartree-Fock + 1.0000 wB97X-D + LR-HF
 Correlation:  1.0000 wB97X-D
 Using Euler-Maclaurin-Lebedev (75,302) quadrature formula
 Dispersion:   Grimme D
 SCF converges when DIIS error is below 1.0E-04
 using 6 threads for integral computing
 -------------------------------------------------------
 OpenMP Integral computing Module                
 Release: version 1.0, May 2013, Q-Chem Inc. Pittsburgh 
 -------------------------------------------------------
 using 6 threads for integral computing
 -------------------------------------------------------
 OpenMP Integral computing Module                
 Release: version 1.0, May 2013, Q-Chem Inc. Pittsburgh 
 -------------------------------------------------------
 ---------------------------------------
  Cycle       Energy         DIIS Error
 ---------------------------------------
    1    -155.3778969116      1.04E-01
    2    -154.9100212128      1.31E-02
    3    -154.9364688146      3.04E-03
    4    -154.9609873691      2.47E-03
    5    -154.9617513070      2.42E-04 Done RCA. Switching to DIIS
    6    -154.9626242574      1.29E-04
    7    -154.9626293403      7.77E-06 Convergence criterion met
 ---------------------------------------
 SCF time:  CPU 14.15 s  wall 2.37 s
 SCF   energy in the small basis set = -154.96262934
 Total energy in the small basis set = -154.96262934
 ----------------------------------------------------
  Cycle       Energy    
 ----------------------------------------------------
    1     -18.7268548377     -1.87E+01
 Long-range K will be added via erf
 Coulomb attenuation parameter = 0.2 bohr**(-1)
 A restricted hybrid HF-DFT SCF calculation will be
 performed using Relaxed Constraint Minimization + Pulay DIIS
 Exchange:     0.2220 Hartree-Fock + 1.0000 wB97X-D + LR-HF
 Correlation:  1.0000 wB97X-D
 Using Euler-Maclaurin-Lebedev (75,302) quadrature formula
 Dispersion:   Grimme D
 SCF converges when DIIS error is below 1.0E-05
 Basis2 calculation detected. Using small basis as guess for larger.
 SCFMinFind is unable to tell whether the solution found is close.
 Resetting ReadMinima to 0 and attempting to follow guess.
 SCFMinFind following SCF Guess.
 using 6 threads for integral computing
 -------------------------------------------------------
 OpenMP Integral computing Module                
 Release: version 1.0, May 2013, Q-Chem Inc. Pittsburgh 
 -------------------------------------------------------
 using 6 threads for integral computing
 -------------------------------------------------------
 OpenMP Integral computing Module                
 Release: version 1.0, May 2013, Q-Chem Inc. Pittsburgh 
 -------------------------------------------------------
 ---------------------------------------
  Cycle       Energy         DIIS Error
 ---------------------------------------
    1    -154.9942201449      5.71E-03
    2    -155.0093136464      2.87E-03
    3    -155.0189872663      3.68E-04 Done RCA. Switching to DIIS
    4    -155.0307164120      2.77E-04
    5    -155.0309413201      3.92E-05
    6    -155.0309493468      5.60E-06 Convergence criterion met
 ---------------------------------------
 SCF time:  CPU 37.93 s  wall 6.35 s
 SCF   energy in the final basis set = -155.03094935
 Total energy in the final basis set = -155.03094935
 
 --------------------------------------------------------------
 
                    Orbital Energies (a.u.)
 --------------------------------------------------------------
 
 Alpha MOs
 -- Occupied --
-19.2518 -10.3312 -10.2831  -1.1221  -0.8548  -0.7229  -0.5947  -0.5436
 -0.5139  -0.4719  -0.4562  -0.4134  -0.3585
 -- Virtual --
  0.0627   0.0863   0.0914   0.1024   0.1253   0.1352   0.1413   0.1842
  0.1970   0.2191   0.2351   0.2392   0.2537   0.2704   0.2770   0.3035
  0.3279   0.3351   0.3542   0.3839   0.4543   0.4837   0.5077   0.5310
  0.5440   0.5828   0.5848   0.5919   0.6144   0.6508   0.6745   0.6808
  0.6878   0.7024   0.7784   0.8115   0.8204   0.8577   0.9211   0.9363
  0.9656   1.0405   1.0557   1.1028   1.1318   1.1734   1.1925   1.2144
  1.2299   1.2388   1.2723   1.2882   1.3410   1.3657   1.3746   1.4204
  1.4319   1.4437   1.4564   1.4689   1.5068   1.5635   1.5874   1.6158
  1.6385   1.6839   1.9311   2.1195   2.1343   2.2463   2.2744   2.4155
  2.5066   2.5148   2.5509   2.5760   2.6995   2.8167   2.8326   2.9026
  2.9280   2.9451   2.9658   3.0150   3.0361   3.0478   3.0585   3.0628
  3.1294   3.1686   3.1933   3.2304   3.2685   3.2816   3.2968   3.3113
  3.3446   3.3531   3.4001   3.4502   3.4620   3.5408   3.5532   3.5781
  3.5912   3.6223   3.6506   3.6570   3.7244   3.7411   3.7750   3.8432
  3.8780   3.8995   3.9184   3.9452   3.9766   4.0053   4.0303   4.0442
  4.0952   4.1206   4.1719   4.1799   4.2044   4.2334   4.2904   4.2969
  4.3723   4.4377   4.4624   4.4808   4.5855   4.6387   4.7321   4.8188
  4.8529   4.8762   4.9291   4.9700   5.0319   5.0791   5.1474   5.1877
  5.2187   5.2310   5.2443   5.3044   5.3498   5.3557   5.3674   5.4426
  5.5106   5.5333   5.6586   5.7259   5.9223   6.0866   6.3738   6.3827
  6.4005   6.6460   6.7879   6.8249   7.0943   7.3164   7.3874   7.5399
  7.7319   8.1022  25.1313  25.3845  50.4510
 --------------------------------------------------------------
 
 -----------------------------------------------------------------
                    Cartesian Multipole Moments
 -----------------------------------------------------------------
    Charge (ESU x 10^10)
                 0.0000
    Dipole Moment (Debye)
         X      -1.2012      Y      -0.8029      Z       1.0785
       Tot       1.8030
    Quadrupole Moments (Debye-Ang)
        XX     -11.2643     XY       0.1718     YY     -20.0228
        XZ      -2.5999     YZ      -0.2741     ZZ     -20.0432
    Octopole Moments (Debye-Ang^2)
       XXX     205.5351    XXY      -5.5091    XYY      82.0975
       YYY     -38.5478    XXZ       5.9748    XYZ       0.9841
       YYZ      -0.6039    XZZ      83.9645    YZZ     -13.2082
       ZZZ      -0.2631
    Hexadecapole Moments (Debye-Ang^3)
      XXXX   -2095.5748   XXXY      97.6956   XXYY    -387.5125
      XYYY     148.4136   YYYY    -100.6336   XXXZ      -8.4743
      XXYZ      -3.0812   XYYZ       2.9831   YYYZ      -2.9929
      XXZZ    -389.4178   XYZZ      52.0369   YYZZ     -22.0471
      XZZZ       6.3122   YZZZ      -0.5255   ZZZZ     -35.7296
 -----------------------------------------------------------------
Archival summary:
1\1\centos77-c7\SP\ProcedureUnspecified\BasisUnspecified\126\shihchen\MonJul2714:25:432020MonJul2714:25:432020\0\\#,ProcedureUnspecified,BasisUnspecified,\\0,1\C\H,1,1.08983\H,1,1.09687,2,105.766\O,1,1.42687,2,102.07,3,-112.611,0\H,4,0.957639,1,111.246,2,-179.521,0\C,1,1.55329,2,105.431,3,104.256,0\H,6,1.09018,1,117.166,2,59.1161,0\H,6,1.09034,1,116.315,2,-169.438,0\H,6,1.09469,1,98.7087,2,-55.5672,0\\\@

 Total job time:  10.81s(wall), 55.84s(cpu) 
 Mon Jul 27 14:25:43 2020

        *************************************************************
        *                                                           *
        *  Thank you very much for using Q-Chem.  Have a nice day.  *
        *                                                           *
        *************************************************************


