                  Welcome to Q-Chem
     A Quantum Leap Into The Future Of Chemistry


 Q-Chem 5.3 (devel), Q-Chem, Inc., Pleasanton, CA (2020)

 Yihan Shao,  Zhengting Gan,  E. Epifanovsky,  A. T. B. Gilbert,  M. Wormit,  
 J. Kussmann,  A. W. Lange,  A. Behn,  Jia Deng,  Xintian Feng,  D. Ghosh,  
 M. Goldey,  P. R. Horn,  L. D. Jacobson,  I. Kaliman,  T. Kus,  A. Landau,  
 Jie Liu,  E. I. Proynov,  R. M. Richard,  R. P. Steele,  E. J. Sundstrom,  
 H. L. Woodcock III,  P. M. Zimmerman,  D. Zuev,  B. Alam,  B. Albrecht,  
 E. Alguire,  S. A. Baeppler,  D. Barton,  Z. Benda,  Y. A. Bernard,  
 E. J. Berquist,  K. B. Bravaya,  H. Burton,  K. Carter-Fenk,  D. Casanova,  
 Chun-Min Chang,  Yunqing Chen,  A. Chien,  K. D. Closser,  M. P. Coons,  
 S. Coriani,  S. Dasgupta,  A. L. Dempwolff,  M. Diedenhofen,  Hainam Do,  
 R. G. Edgar,  Po-Tung Fang,  S. Faraji,  S. Fatehi,  Qingguo Feng,  
 J. Fosso-Tande,  J. Gayvert,  Qinghui Ge,  A. Ghysels,  G. Gidofalvi,  
 J. Gomes,  J. Gonthier,  A. Gunina,  D. Hait,  M. W. D. Hanson-Heine,  
 P. H. P. Harbach,  A. W. Hauser,  M. F. Herbst,  J. E. Herr,  
 E. G. Hohenstein,  Z. C. Holden,  Kerwin Hui,  B. C. Huynh,  T.-C. Jagau,  
 Hyunjun Ji,  B. Kaduk,  K. Khistyaev,  Jaehoon Kim,  P. Klunzinger,  K. Koh,  
 D. Kosenkov,  L. Koulias,  T. Kowalczyk,  C. M. Krauter,  A. Kunitsa,  
 Ka Un Lao,  A. Laurent,  K. V. Lawler,  Joonho Lee,  D. Lefrancois,  
 S. Lehtola,  D. S. Levine,  Yi-Pei Li,  You-Sheng Lin,  Fenglai Liu,  
 Kuan-Yu Liu,  E. Livshits,  M. Loipersberger,  A. Luenser,  P. Manohar,  
 E. Mansoor,  S. F. Manzer,  Shan-Ping Mao,  Yuezhi Mao,  N. Mardirossian,  
 A. V. Marenich,  T. Markovich,  L. A. Martinez-Martinez,  S. A. Maurer,  
 N. J. Mayhall,  S. C. McKenzie,  J.-M. Mewes,  P. Morgante,  A. F. Morrison,  
 J. W. Mullinax,  K. Nanda,  T. S. Nguyen-Beck,  R. Olivares-Amaya,  
 K. J. Oosterbaan,  J. A. Parkhill,  S. K. Paul,  F. Pavosevic,  Zheng Pei,  
 T. M. Perrine,  F. Plasser,  P. Pokhilko,  S. Prager,  A. Prociuk,  
 E. Ramos,  B. Rana,  D. R. Rehn,  F. Rob,  M. Scheurer,  M. Schneider,  
 N. Sergueev,  S. M. Sharada,  S. Sharma,  D. W. Small,  T. Stauch,  
 C. J. Stein,  T. Stein,  Yu-Chuan Su,  S. P. Veccham,  Zhen Tao,  
 A. J. W. Thom,  A. Tkatchenko,  T. Tsuchimochi,  N. M. Tubman,  L. Vogt,  
 M. L. Vidal,  O. Vydrov,  M. A. Watson,  J. Wenzel,  M. de Wergifosse,  
 T. A. Wesolowski,  A. White,  J. Witte,  A. Yamada,  Jun Yang,  K. Yao,  
 S. Yeganeh,  S. R. Yost,  Zhi-Qiang You,  A. Zech,  Igor Ying Zhang,  
 Xing Zhang,  Yan Zhao,  Ying Zhu,  B. R. Brooks,  G. K. L. Chan,  
 C. J. Cramer,  M. S. Gordon,  W. J. Hehre,  A. Klamt,  M. W. Schmidt,  
 C. D. Sherrill,  D. G. Truhlar,  A. Aspuru-Guzik,  R. Baer,  A. T. Bell,  
 N. A. Besley,  Jeng-Da Chai,  A. E. DePrince, III,  R. A. DiStasio Jr.,  
 A. Dreuw,  B. D. Dunietz,  T. R. Furlani,  Chao-Ping Hsu,  Yousung Jung,  
 Jing Kong,  D. S. Lambrecht,  WanZhen Liang,  C. Ochsenfeld,  
 V. A. Rassolov,  L. V. Slipchenko,  J. E. Subotnik,  T. Van Voorhis,  
 J. M. Herbert,  A. I. Krylov,  P. M. W. Gill,  M. Head-Gordon

 Contributors to earlier versions of Q-Chem not listed above: 
 R. D. Adamson,  B. Austin,  J. Baker,  G. J. O. Beran,  K. Brandhorst,  
 S. T. Brown,  E. F. C. Byrd,  A. K. Chakraborty,  C.-L. Cheng,  
 Siu Hung Chien,  D. M. Chipman,  D. L. Crittenden,  H. Dachsel,  
 R. J. Doerksen,  A. D. Dutoi,  L. Fusti-Molnar,  W. A. Goddard III,  
 A. Golubeva-Zadorozhnaya,  S. R. Gwaltney,  G. Hawkins,  A. Heyden,  
 S. Hirata,  G. Kedziora,  F. J. Keil,  C. Kelley,  Jihan Kim,  R. A. King,  
 R. Z. Khaliullin,  P. P. Korambath,  W. Kurlancheek,  A. M. Lee,  M. S. Lee,  
 S. V. Levchenko,  Ching Yeh Lin,  D. Liotard,  R. C. Lochan,  I. Lotan,  
 P. E. Maslen,  N. Nair,  D. P. O'Neill,  D. Neuhauser,  E. Neuscamman,  
 C. M. Oana,  R. Olson,  B. Peters,  R. Peverati,  P. A. Pieniazek,  
 Y. M. Rhee,  J. Ritchie,  M. A. Rohrdanz,  E. Rosta,  N. J. Russ,  
 H. F. Schaefer III,  N. E. Schultz,  N. Shenvi,  A. C. Simmonett,  A. Sodt,  
 D. Stuck,  K. S. Thanthiriwatte,  V. Vanovschi,  Tao Wang,  A. Warshel,  
 C. F. Williams,  Q. Wu,  X. Xu,  W. Zhang

 Please cite Q-Chem as follows:
 Y. Shao et al., Mol. Phys. 113, 184-215 (2015)
 DOI: 10.1080/00268976.2014.952696

 Q-Chem 5.3.0 for Intel X86 EM64T Linux

 Parts of Q-Chem use Armadillo 9.800.1 (Horizon Scraper).
 http://arma.sourceforge.net/

 Q-Chem begins on Mon Jul 27 14:26:39 2020  

Host: centos77-c7
0

     Scratch files written to /tmp/29924.centos77-h1/qchem104926//
Processing $rem in /opt/qchem-5.3.0-intel2020u1//config/preferences:
Processing $rem in /home/shihchengli/.qchemrc:

Checking the input file for inconsistencies... 	...done.

--------------------------------------------------------------
User input:
--------------------------------------------------------------
$rem
   JOBTYPE  sp
   EXCHANGE   omegaB97X-D
   BASIS   6-311+G(2df,2pd)
   UNRESTRICTED   False
   max_scf_cycles   250
   geom_opt_max_cycles   1500
   basis2 6-31G*
   scf_algorithm rca_diis
   SYM_IGNORE  TRUE
   print_input   true
   geom_opt_dmax   80
   pop_mulliken false
   XC_GRID 000075000302
$end

$molecule
0 1
C       -5.3453121007     0.3302293332     0.0443047278
C       -4.1452608421     1.2304749411     0.1414410683
H       -5.3755950865     -0.0701671694     -0.9687535360
H       -6.3023144752     0.7970796473     0.2755143288
H       -5.2037915313     -0.5131501564     0.7250788252
O       -3.0674490934     0.4195568273     -0.2708592299
H       -3.9758483167     1.6642548581     1.1333477042
H       -4.2044449304     2.0574017309     -0.5657664574
H       -2.9827936235     -0.2984600120     0.3560025691
$end
--------------------------------------------------------------
 ----------------------------------------------------------------
             Standard Nuclear Orientation (Angstroms)
    I     Atom           X                Y                Z
 ----------------------------------------------------------------
    1      C      -5.3453121007     0.3302293332     0.0443047278
    2      C      -4.1452608421     1.2304749411     0.1414410683
    3      H      -5.3755950865    -0.0701671694    -0.9687535360
    4      H      -6.3023144752     0.7970796473     0.2755143288
    5      H      -5.2037915313    -0.5131501564     0.7250788252
    6      O      -3.0674490934     0.4195568273    -0.2708592299
    7      H      -3.9758483167     1.6642548581     1.1333477042
    8      H      -4.2044449304     2.0574017309    -0.5657664574
    9      H      -2.9827936235    -0.2984600120     0.3560025691
 ----------------------------------------------------------------
 Nuclear Repulsion Energy =          83.14552451 hartrees
 There are       13 alpha and       13 beta electrons
 Requested basis set is 6-311+G(2df,2pd)
 There are 60 shells and 186 basis functions

 Total QAlloc Memory Limit   2000 MB
 Mega-Array Size       188 MB
 MEM_STATIC part       192 MB

                       Distance Matrix (Angstroms)
             C (  1)   C (  2)   H (  3)   H (  4)   H (  5)   O (  6)
   C (  2)  1.503330
   H (  3)  1.089735  2.106638
   H (  4)  1.089615  2.204243  1.777394
   H (  5)  1.093056  2.121638  1.759210  1.767926
   O (  6)  2.301297  1.410411  2.460574  3.302333  2.534915
   H (  7)  2.200243  1.095785  3.063714  2.626845  2.532908  2.084768
   H (  8)  2.157983  1.089703  2.461817  2.587899  3.045113  2.015506
   H (  9)  2.464528  1.932617  2.744557  3.496556  2.261668  0.956907
             H (  7)   H (  8)
   H (  8)  1.758923
   H (  9)  2.332954  2.809301
 
 A cutoff of  1.0D-09 yielded   1797 shell pairs
 There are     17394 function pairs (     21587 Cartesian)
 Smallest overlap matrix eigenvalue = 1.29E-04

 Scale SEOQF with 1.000000e-02/1.000000e-01/1.000000e-01

 Standard Electronic Orientation quadrupole field applied
 Nucleus-field energy     =     0.0000000027 hartrees
 Requested basis set is 6-31G(d)
 There are 24 shells and 54 basis functions
 A cutoff of  1.0D-09 yielded    298 shell pairs
 There are      1549 function pairs (      1732 Cartesian)
 Smallest overlap matrix eigenvalue = 7.14E-03
 Guess from superposition of atomic densities
 Warning:  Energy on first SCF cycle will be non-variational
 SAD guess density has 26.000000 electrons
 Long-range K will be added via erf
 Coulomb attenuation parameter = 0.2 bohr**(-1)
 A restricted hybrid HF-DFT SCF calculation will be
 performed using Relaxed Constraint Minimization + Pulay DIIS
 Exchange:     0.2220 Hartree-Fock + 1.0000 wB97X-D + LR-HF
 Correlation:  1.0000 wB97X-D
 Using Euler-Maclaurin-Lebedev (75,302) quadrature formula
 Dispersion:   Grimme D
 SCF converges when DIIS error is below 1.0E-04
 using 6 threads for integral computing
 -------------------------------------------------------
 OpenMP Integral computing Module                
 Release: version 1.0, May 2013, Q-Chem Inc. Pittsburgh 
 -------------------------------------------------------
 using 6 threads for integral computing
 -------------------------------------------------------
 OpenMP Integral computing Module                
 Release: version 1.0, May 2013, Q-Chem Inc. Pittsburgh 
 -------------------------------------------------------
 ---------------------------------------
  Cycle       Energy         DIIS Error
 ---------------------------------------
    1    -155.4774992275      1.07E-01
    2    -154.9212105097      1.37E-02
    3    -154.9500528644      3.02E-03
    4    -154.9770070597      2.34E-03
    5    -154.9776941201      2.26E-04 Done RCA. Switching to DIIS
    6    -154.9784623083      9.20E-05 Convergence criterion met
 ---------------------------------------
 SCF time:  CPU 13.28 s  wall 2.23 s
 SCF   energy in the small basis set = -154.97846231
 Total energy in the small basis set = -154.97846231
 ----------------------------------------------------
  Cycle       Energy    
 ----------------------------------------------------
    1     -18.7646290368     -1.88E+01
 Long-range K will be added via erf
 Coulomb attenuation parameter = 0.2 bohr**(-1)
 A restricted hybrid HF-DFT SCF calculation will be
 performed using Relaxed Constraint Minimization + Pulay DIIS
 Exchange:     0.2220 Hartree-Fock + 1.0000 wB97X-D + LR-HF
 Correlation:  1.0000 wB97X-D
 Using Euler-Maclaurin-Lebedev (75,302) quadrature formula
 Dispersion:   Grimme D
 SCF converges when DIIS error is below 1.0E-05
 Basis2 calculation detected. Using small basis as guess for larger.
 SCFMinFind is unable to tell whether the solution found is close.
 Resetting ReadMinima to 0 and attempting to follow guess.
 SCFMinFind following SCF Guess.
 using 6 threads for integral computing
 -------------------------------------------------------
 OpenMP Integral computing Module                
 Release: version 1.0, May 2013, Q-Chem Inc. Pittsburgh 
 -------------------------------------------------------
 using 6 threads for integral computing
 -------------------------------------------------------
 OpenMP Integral computing Module                
 Release: version 1.0, May 2013, Q-Chem Inc. Pittsburgh 
 -------------------------------------------------------
 ---------------------------------------
  Cycle       Energy         DIIS Error
 ---------------------------------------
    1    -155.0100141259      5.71E-03
    2    -155.0255625373      2.83E-03
    3    -155.0350714499      3.41E-04 Done RCA. Switching to DIIS
    4    -155.0464671413      2.45E-04
    5    -155.0466469626      3.95E-05
    6    -155.0466547816      5.78E-06 Convergence criterion met
 ---------------------------------------
 SCF time:  CPU 40.00 s  wall 6.69 s
 SCF   energy in the final basis set = -155.04665478
 Total energy in the final basis set = -155.04665478
 
 --------------------------------------------------------------
 
                    Orbital Energies (a.u.)
 --------------------------------------------------------------
 
 Alpha MOs
 -- Occupied --
-19.2438 -10.3262 -10.2716  -1.1298  -0.8479  -0.7239  -0.5993  -0.5477
 -0.5254  -0.4667  -0.4563  -0.4119  -0.3619
 -- Virtual --
  0.0663   0.0871   0.0883   0.1016   0.1265   0.1335   0.1352   0.1808
  0.1985   0.2142   0.2422   0.2498   0.2670   0.2813   0.2977   0.3043
  0.3172   0.3286   0.3433   0.3862   0.4595   0.4945   0.4981   0.5303
  0.5705   0.5748   0.5832   0.6056   0.6193   0.6350   0.6630   0.6856
  0.7003   0.7152   0.7314   0.8065   0.8552   0.9140   0.9264   0.9659
  1.0033   1.0573   1.0687   1.1023   1.1446   1.1771   1.1922   1.2135
  1.2204   1.2412   1.2824   1.3101   1.3209   1.3686   1.3765   1.4071
  1.4475   1.4578   1.4812   1.4858   1.4997   1.5261   1.5988   1.6249
  1.6667   1.7914   1.9484   2.0482   2.1103   2.2818   2.2973   2.4633
  2.4784   2.5174   2.5654   2.6092   2.7190   2.8302   2.8530   2.8771
  2.9142   2.9701   3.0153   3.0271   3.0455   3.0614   3.0671   3.0782
  3.0946   3.1750   3.2282   3.2668   3.2862   3.3016   3.3210   3.3554
  3.3806   3.3939   3.4318   3.4615   3.5062   3.5635   3.5751   3.5846
  3.6055   3.6338   3.6639   3.7000   3.7205   3.7371   3.8124   3.8698
  3.8794   3.9421   3.9591   3.9800   3.9927   4.0170   4.0453   4.0931
  4.1220   4.1389   4.1552   4.1790   4.1931   4.2754   4.3010   4.3489
  4.3697   4.3999   4.4891   4.5134   4.5413   4.6430   4.7404   4.7662
  4.8557   4.9405   4.9598   5.0028   5.0583   5.0812   5.1096   5.2048
  5.2181   5.2661   5.2796   5.3338   5.3380   5.3606   5.4217   5.4870
  5.6052   5.6403   5.6988   5.8453   5.9398   6.0436   6.3705   6.4093
  6.4130   6.6637   6.7101   6.8290   7.1494   7.3728   7.4467   7.5713
  7.7228   8.1233  25.1849  25.4515  50.4920
 --------------------------------------------------------------
 
 -----------------------------------------------------------------
                    Cartesian Multipole Moments
 -----------------------------------------------------------------
    Charge (ESU x 10^10)
                 0.0000
    Dipole Moment (Debye)
         X      -1.0779      Y      -0.2456      Z       1.2944
       Tot       1.7022
    Quadrupole Moments (Debye-Ang)
        XX     -13.0094     XY      -0.9054     YY     -18.5651
        XZ      -3.4884     YZ      -0.3066     ZZ     -19.9017
    Octopole Moments (Debye-Ang^2)
       XXX     222.7884    XXY      -3.6544    XYY      79.8231
       YYY     -36.4333    XXZ       8.7222    XYZ       1.2192
       YYZ      -0.3125    XZZ      85.1998    YZZ     -12.6581
       ZZZ      -0.0787
    Hexadecapole Moments (Debye-Ang^3)
      XXXX   -2192.9198   XXXY     103.6981   XXYY    -385.6999
      XYYY     151.8181   YYYY    -106.5673   XXXZ     -14.0967
      XXYZ      -5.0930   XYYZ       3.1515   YYYZ      -4.4623
      XXZZ    -395.5671   XYZZ      53.2348   YYZZ     -23.0009
      XZZZ       7.2809   YZZZ      -2.2103   ZZZZ     -37.3030
 -----------------------------------------------------------------
Archival summary:
1\1\centos77-c7\SP\ProcedureUnspecified\BasisUnspecified\126\shihchen\MonJul2714:26:502020MonJul2714:26:502020\0\\#,ProcedureUnspecified,BasisUnspecified,\\0,1\C\H,1,1.0897\H,1,1.09578,2,107.185\O,1,1.41041,2,106.744,3,-120.128,0\H,4,0.956907,1,107.91,2,178.238,0\C,1,1.50333,2,111.663,3,126.491,0\H,6,1.08961,1,115.52,2,-61.968,0\H,6,1.08973,1,107.594,2,60.399,0\H,6,1.09306,1,108.569,2,176.346,0\\\@

 Total job time:  11.09s(wall), 57.15s(cpu) 
 Mon Jul 27 14:26:50 2020

        *************************************************************
        *                                                           *
        *  Thank you very much for using Q-Chem.  Have a nice day.  *
        *                                                           *
        *************************************************************


