                  Welcome to Q-Chem
     A Quantum Leap Into The Future Of Chemistry


 Q-Chem 5.3 (devel), Q-Chem, Inc., Pleasanton, CA (2020)

 Yihan Shao,  Zhengting Gan,  E. Epifanovsky,  A. T. B. Gilbert,  M. Wormit,  
 J. Kussmann,  A. W. Lange,  A. Behn,  Jia Deng,  Xintian Feng,  D. Ghosh,  
 M. Goldey,  P. R. Horn,  L. D. Jacobson,  I. Kaliman,  T. Kus,  A. Landau,  
 Jie Liu,  E. I. Proynov,  R. M. Richard,  R. P. Steele,  E. J. Sundstrom,  
 H. L. Woodcock III,  P. M. Zimmerman,  D. Zuev,  B. Alam,  B. Albrecht,  
 E. Alguire,  S. A. Baeppler,  D. Barton,  Z. Benda,  Y. A. Bernard,  
 E. J. Berquist,  K. B. Bravaya,  H. Burton,  K. Carter-Fenk,  D. Casanova,  
 Chun-Min Chang,  Yunqing Chen,  A. Chien,  K. D. Closser,  M. P. Coons,  
 S. Coriani,  S. Dasgupta,  A. L. Dempwolff,  M. Diedenhofen,  Hainam Do,  
 R. G. Edgar,  Po-Tung Fang,  S. Faraji,  S. Fatehi,  Qingguo Feng,  
 J. Fosso-Tande,  J. Gayvert,  Qinghui Ge,  A. Ghysels,  G. Gidofalvi,  
 J. Gomes,  J. Gonthier,  A. Gunina,  D. Hait,  M. W. D. Hanson-Heine,  
 P. H. P. Harbach,  A. W. Hauser,  M. F. Herbst,  J. E. Herr,  
 E. G. Hohenstein,  Z. C. Holden,  Kerwin Hui,  B. C. Huynh,  T.-C. Jagau,  
 Hyunjun Ji,  B. Kaduk,  K. Khistyaev,  Jaehoon Kim,  P. Klunzinger,  K. Koh,  
 D. Kosenkov,  L. Koulias,  T. Kowalczyk,  C. M. Krauter,  A. Kunitsa,  
 Ka Un Lao,  A. Laurent,  K. V. Lawler,  Joonho Lee,  D. Lefrancois,  
 S. Lehtola,  D. S. Levine,  Yi-Pei Li,  You-Sheng Lin,  Fenglai Liu,  
 Kuan-Yu Liu,  E. Livshits,  M. Loipersberger,  A. Luenser,  P. Manohar,  
 E. Mansoor,  S. F. Manzer,  Shan-Ping Mao,  Yuezhi Mao,  N. Mardirossian,  
 A. V. Marenich,  T. Markovich,  L. A. Martinez-Martinez,  S. A. Maurer,  
 N. J. Mayhall,  S. C. McKenzie,  J.-M. Mewes,  P. Morgante,  A. F. Morrison,  
 J. W. Mullinax,  K. Nanda,  T. S. Nguyen-Beck,  R. Olivares-Amaya,  
 K. J. Oosterbaan,  J. A. Parkhill,  S. K. Paul,  F. Pavosevic,  Zheng Pei,  
 T. M. Perrine,  F. Plasser,  P. Pokhilko,  S. Prager,  A. Prociuk,  
 E. Ramos,  B. Rana,  D. R. Rehn,  F. Rob,  M. Scheurer,  M. Schneider,  
 N. Sergueev,  S. M. Sharada,  S. Sharma,  D. W. Small,  T. Stauch,  
 C. J. Stein,  T. Stein,  Yu-Chuan Su,  S. P. Veccham,  Zhen Tao,  
 A. J. W. Thom,  A. Tkatchenko,  T. Tsuchimochi,  N. M. Tubman,  L. Vogt,  
 M. L. Vidal,  O. Vydrov,  M. A. Watson,  J. Wenzel,  M. de Wergifosse,  
 T. A. Wesolowski,  A. White,  J. Witte,  A. Yamada,  Jun Yang,  K. Yao,  
 S. Yeganeh,  S. R. Yost,  Zhi-Qiang You,  A. Zech,  Igor Ying Zhang,  
 Xing Zhang,  Yan Zhao,  Ying Zhu,  B. R. Brooks,  G. K. L. Chan,  
 C. J. Cramer,  M. S. Gordon,  W. J. Hehre,  A. Klamt,  M. W. Schmidt,  
 C. D. Sherrill,  D. G. Truhlar,  A. Aspuru-Guzik,  R. Baer,  A. T. Bell,  
 N. A. Besley,  Jeng-Da Chai,  A. E. DePrince, III,  R. A. DiStasio Jr.,  
 A. Dreuw,  B. D. Dunietz,  T. R. Furlani,  Chao-Ping Hsu,  Yousung Jung,  
 Jing Kong,  D. S. Lambrecht,  WanZhen Liang,  C. Ochsenfeld,  
 V. A. Rassolov,  L. V. Slipchenko,  J. E. Subotnik,  T. Van Voorhis,  
 J. M. Herbert,  A. I. Krylov,  P. M. W. Gill,  M. Head-Gordon

 Contributors to earlier versions of Q-Chem not listed above: 
 R. D. Adamson,  B. Austin,  J. Baker,  G. J. O. Beran,  K. Brandhorst,  
 S. T. Brown,  E. F. C. Byrd,  A. K. Chakraborty,  C.-L. Cheng,  
 Siu Hung Chien,  D. M. Chipman,  D. L. Crittenden,  H. Dachsel,  
 R. J. Doerksen,  A. D. Dutoi,  L. Fusti-Molnar,  W. A. Goddard III,  
 A. Golubeva-Zadorozhnaya,  S. R. Gwaltney,  G. Hawkins,  A. Heyden,  
 S. Hirata,  G. Kedziora,  F. J. Keil,  C. Kelley,  Jihan Kim,  R. A. King,  
 R. Z. Khaliullin,  P. P. Korambath,  W. Kurlancheek,  A. M. Lee,  M. S. Lee,  
 S. V. Levchenko,  Ching Yeh Lin,  D. Liotard,  R. C. Lochan,  I. Lotan,  
 P. E. Maslen,  N. Nair,  D. P. O'Neill,  D. Neuhauser,  E. Neuscamman,  
 C. M. Oana,  R. Olson,  B. Peters,  R. Peverati,  P. A. Pieniazek,  
 Y. M. Rhee,  J. Ritchie,  M. A. Rohrdanz,  E. Rosta,  N. J. Russ,  
 H. F. Schaefer III,  N. E. Schultz,  N. Shenvi,  A. C. Simmonett,  A. Sodt,  
 D. Stuck,  K. S. Thanthiriwatte,  V. Vanovschi,  Tao Wang,  A. Warshel,  
 C. F. Williams,  Q. Wu,  X. Xu,  W. Zhang

 Please cite Q-Chem as follows:
 Y. Shao et al., Mol. Phys. 113, 184-215 (2015)
 DOI: 10.1080/00268976.2014.952696

 Q-Chem 5.3.0 for Intel X86 EM64T Linux

 Parts of Q-Chem use Armadillo 9.800.1 (Horizon Scraper).
 http://arma.sourceforge.net/

 Q-Chem begins on Mon Jul 27 14:41:44 2020  

Host: centos77-c7
0

     Scratch files written to /tmp/29924.centos77-h1/qchem108710//
Processing $rem in /opt/qchem-5.3.0-intel2020u1//config/preferences:
Processing $rem in /home/shihchengli/.qchemrc:

Checking the input file for inconsistencies... 	...done.

--------------------------------------------------------------
User input:
--------------------------------------------------------------
$rem
   JOBTYPE  sp
   EXCHANGE   omegaB97X-D
   BASIS   6-311+G(2df,2pd)
   UNRESTRICTED   False
   max_scf_cycles   250
   geom_opt_max_cycles   1500
   basis2 6-31G*
   scf_algorithm rca_diis
   SYM_IGNORE  TRUE
   print_input   true
   geom_opt_dmax   80
   pop_mulliken false
   XC_GRID 000075000302
$end

$molecule
0 1
C       -5.4034761585     0.2806114378     0.0145908115
C       -4.1931090807     1.1880154803     0.1230805746
H       -5.4980806207     -0.0900900806     -1.0048019873
H       -6.2641813780     0.9114091355     0.2431458594
H       -5.3180542350     -0.5097890365     0.7580340161
O       -2.9837516271     0.4827865181     -0.1749147696
H       -3.9084291134     1.5814093497     1.1017022199
H       -4.2911479745     2.0436255629     -0.5488871501
H       -2.7425798120     -0.2707583672     0.3583604257
$end
--------------------------------------------------------------
 ----------------------------------------------------------------
             Standard Nuclear Orientation (Angstroms)
    I     Atom           X                Y                Z
 ----------------------------------------------------------------
    1      C      -5.4034761585     0.2806114378     0.0145908115
    2      C      -4.1931090807     1.1880154803     0.1230805746
    3      H      -5.4980806207    -0.0900900806    -1.0048019873
    4      H      -6.2641813780     0.9114091355     0.2431458594
    5      H      -5.3180542350    -0.5097890365     0.7580340161
    6      O      -2.9837516271     0.4827865181    -0.1749147696
    7      H      -3.9084291134     1.5814093497     1.1017022199
    8      H      -4.2911479745     2.0436255629    -0.5488871501
    9      H      -2.7425798120    -0.2707583672     0.3583604257
 ----------------------------------------------------------------
 Nuclear Repulsion Energy =          81.72480160 hartrees
 There are       13 alpha and       13 beta electrons
 Requested basis set is 6-311+G(2df,2pd)
 There are 60 shells and 186 basis functions

 Total QAlloc Memory Limit   2000 MB
 Mega-Array Size       188 MB
 MEM_STATIC part       192 MB

                       Distance Matrix (Angstroms)
             C (  1)   C (  2)   H (  3)   H (  4)   H (  5)   O (  6)
   C (  2)  1.516621
   H (  3)  1.088821  2.146771
   H (  4)  1.091310  2.092909  1.774059
   H (  5)  1.088457  2.133356  1.821029  1.783275
   O (  6)  2.435540  1.431326  2.709013  3.334623  2.702696
   H (  7)  2.260321  1.092475  3.123822  2.595301  2.545243  1.921393
   H (  8)  2.159398  1.092346  2.493449  2.408753  3.046720  2.070111
   H (  9)  2.739079  2.070607  3.079552  3.716513  2.617240  0.954136
             H (  7)   H (  8)
   H (  8)  1.756292
   H (  9)  2.311339  2.928743
 
 A cutoff of  1.0D-09 yielded   1782 shell pairs
 There are     17296 function pairs (     21481 Cartesian)
 Smallest overlap matrix eigenvalue = 1.37E-04

 Scale SEOQF with 1.000000e-02/1.000000e-01/1.000000e-01

 Standard Electronic Orientation quadrupole field applied
 Nucleus-field energy     =     0.0000000027 hartrees
 Requested basis set is 6-31G(d)
 There are 24 shells and 54 basis functions
 A cutoff of  1.0D-09 yielded    298 shell pairs
 There are      1549 function pairs (      1732 Cartesian)
 Smallest overlap matrix eigenvalue = 7.22E-03
 Guess from superposition of atomic densities
 Warning:  Energy on first SCF cycle will be non-variational
 SAD guess density has 26.000000 electrons
 Long-range K will be added via erf
 Coulomb attenuation parameter = 0.2 bohr**(-1)
 A restricted hybrid HF-DFT SCF calculation will be
 performed using Relaxed Constraint Minimization + Pulay DIIS
 Exchange:     0.2220 Hartree-Fock + 1.0000 wB97X-D + LR-HF
 Correlation:  1.0000 wB97X-D
 Using Euler-Maclaurin-Lebedev (75,302) quadrature formula
 Dispersion:   Grimme D
 SCF converges when DIIS error is below 1.0E-04
 using 6 threads for integral computing
 -------------------------------------------------------
 OpenMP Integral computing Module                
 Release: version 1.0, May 2013, Q-Chem Inc. Pittsburgh 
 -------------------------------------------------------
 using 6 threads for integral computing
 -------------------------------------------------------
 OpenMP Integral computing Module                
 Release: version 1.0, May 2013, Q-Chem Inc. Pittsburgh 
 -------------------------------------------------------
 ---------------------------------------
  Cycle       Energy         DIIS Error
 ---------------------------------------
    1    -155.4094455829      1.05E-01
    2    -154.9101146998      1.41E-02
    3    -154.9397791917      2.97E-03
    4    -154.9680341616      2.20E-03
    5    -154.9686529609      2.18E-04 Done RCA. Switching to DIIS
    6    -154.9693429893      7.50E-05 Convergence criterion met
 ---------------------------------------
 SCF time:  CPU 13.07 s  wall 2.20 s
 SCF   energy in the small basis set = -154.96934299
 Total energy in the small basis set = -154.96934299
 ----------------------------------------------------
  Cycle       Energy    
 ----------------------------------------------------
    1     -18.7505340765     -1.88E+01
 Long-range K will be added via erf
 Coulomb attenuation parameter = 0.2 bohr**(-1)
 A restricted hybrid HF-DFT SCF calculation will be
 performed using Relaxed Constraint Minimization + Pulay DIIS
 Exchange:     0.2220 Hartree-Fock + 1.0000 wB97X-D + LR-HF
 Correlation:  1.0000 wB97X-D
 Using Euler-Maclaurin-Lebedev (75,302) quadrature formula
 Dispersion:   Grimme D
 SCF converges when DIIS error is below 1.0E-05
 Basis2 calculation detected. Using small basis as guess for larger.
 SCFMinFind is unable to tell whether the solution found is close.
 Resetting ReadMinima to 0 and attempting to follow guess.
 SCFMinFind following SCF Guess.
 using 6 threads for integral computing
 -------------------------------------------------------
 OpenMP Integral computing Module                
 Release: version 1.0, May 2013, Q-Chem Inc. Pittsburgh 
 -------------------------------------------------------
 using 6 threads for integral computing
 -------------------------------------------------------
 OpenMP Integral computing Module                
 Release: version 1.0, May 2013, Q-Chem Inc. Pittsburgh 
 -------------------------------------------------------
 ---------------------------------------
  Cycle       Energy         DIIS Error
 ---------------------------------------
    1    -154.9995077094      5.79E-03
    2    -155.0137959880      3.13E-03
    3    -155.0252957706      3.85E-04 Done RCA. Switching to DIIS
    4    -155.0392012491      2.94E-04
    5    -155.0394548651      4.10E-05
    6    -155.0394634833      6.45E-06 Convergence criterion met
 ---------------------------------------
 SCF time:  CPU 39.08 s  wall 6.54 s
 SCF   energy in the final basis set = -155.03946348
 Total energy in the final basis set = -155.03946348
 
 --------------------------------------------------------------
 
                    Orbital Energies (a.u.)
 --------------------------------------------------------------
 
 Alpha MOs
 -- Occupied --
-19.2337 -10.3288 -10.2760  -1.1121  -0.8517  -0.7260  -0.5847  -0.5560
 -0.5169  -0.4761  -0.4604  -0.3919  -0.3549
 -- Virtual --
  0.0672   0.0862   0.0892   0.1029   0.1266   0.1334   0.1358   0.1823
  0.1934   0.2180   0.2348   0.2477   0.2550   0.2815   0.2889   0.3096
  0.3190   0.3345   0.3495   0.3781   0.4542   0.4911   0.5013   0.5324
  0.5698   0.5780   0.5810   0.5866   0.6186   0.6342   0.6736   0.6946
  0.7028   0.7353   0.7416   0.8058   0.8375   0.8858   0.9248   0.9448
  0.9865   1.0535   1.0557   1.1089   1.1272   1.1687   1.1900   1.2073
  1.2288   1.2350   1.2673   1.2999   1.3268   1.3654   1.4074   1.4211
  1.4442   1.4610   1.4710   1.4854   1.5212   1.5517   1.5944   1.6226
  1.6500   1.6949   1.9069   2.0154   2.0510   2.2813   2.2972   2.4455
  2.4934   2.5177   2.5522   2.6283   2.7166   2.8141   2.8416   2.8901
  2.9251   2.9797   2.9996   3.0058   3.0215   3.0460   3.0701   3.0891
  3.1183   3.1846   3.2438   3.2571   3.2785   3.2974   3.3099   3.3345
  3.3476   3.3769   3.4015   3.4692   3.4942   3.5538   3.5678   3.5820
  3.5934   3.6012   3.6498   3.7357   3.7547   3.7698   3.7829   3.8265
  3.8545   3.9171   3.9208   3.9822   4.0074   4.0286   4.0581   4.0768
  4.0851   4.1081   4.1235   4.1497   4.2008   4.2177   4.2618   4.3084
  4.3768   4.3960   4.4548   4.5108   4.5557   4.6563   4.7516   4.8206
  4.8344   4.9147   4.9443   4.9563   4.9906   5.0909   5.1208   5.1909
  5.2353   5.2742   5.2969   5.3092   5.3553   5.3863   5.4259   5.4659
  5.5022   5.5844   5.7346   5.7826   5.8948   6.0099   6.3285   6.3713
  6.4070   6.6762   6.6977   6.8693   7.1309   7.2823   7.4195   7.5033
  7.7945   8.1368  25.1593  25.4335  50.4665
 --------------------------------------------------------------
 
 -----------------------------------------------------------------
                    Cartesian Multipole Moments
 -----------------------------------------------------------------
    Charge (ESU x 10^10)
                 0.0000
    Dipole Moment (Debye)
         X      -1.1163      Y      -0.3909      Z       1.1525
       Tot       1.6514
    Quadrupole Moments (Debye-Ang)
        XX     -12.2850     XY      -0.9562     YY     -18.7464
        XZ      -2.5847     YZ      -0.4252     ZZ     -19.8534
    Octopole Moments (Debye-Ang^2)
       XXX     217.6242    XXY      -1.4773    XYY      79.9262
       YYY     -36.2087    XXZ       3.7478    XYZ       1.9687
       YYZ      -0.7441    XZZ      84.8441    YZZ     -12.9669
       ZZZ      -0.8546
    Hexadecapole Moments (Debye-Ang^3)
      XXXX   -2186.4502   XXXY      85.9125   XXYY    -385.3477
      XYYY     148.7144   YYYY    -103.7886   XXXZ      10.4510
      XXYZ      -9.2622   XYYZ       4.5817   YYYZ      -4.8105
      XXZZ    -395.2230   XYZZ      54.3664   YYZZ     -22.9670
      XZZZ       8.4620   YZZZ      -2.1978   ZZZZ     -35.7429
 -----------------------------------------------------------------
Archival summary:
1\1\centos77-c7\SP\ProcedureUnspecified\BasisUnspecified\126\shihchen\MonJul2714:41:552020MonJul2714:41:552020\0\\#,ProcedureUnspecified,BasisUnspecified,\\0,1\C\H,1,1.09235\H,1,1.09248,2,107.001\O,1,1.43133,2,109.493,3,-105.526,0\H,4,0.954136,1,119.1,2,177.373,0\C,1,1.51662,2,110.671,3,131.315,0\H,6,1.08846,1,108.843,2,-174.913,0\H,6,1.08882,1,109.878,2,60.2143,0\H,6,1.09131,1,105.582,2,-57.1003,0\\\@

 Total job time:  11.09s(wall), 56.87s(cpu) 
 Mon Jul 27 14:41:55 2020

        *************************************************************
        *                                                           *
        *  Thank you very much for using Q-Chem.  Have a nice day.  *
        *                                                           *
        *************************************************************


