                  Welcome to Q-Chem
     A Quantum Leap Into The Future Of Chemistry


 Q-Chem 5.3 (devel), Q-Chem, Inc., Pleasanton, CA (2020)

 Yihan Shao,  Zhengting Gan,  E. Epifanovsky,  A. T. B. Gilbert,  M. Wormit,  
 J. Kussmann,  A. W. Lange,  A. Behn,  Jia Deng,  Xintian Feng,  D. Ghosh,  
 M. Goldey,  P. R. Horn,  L. D. Jacobson,  I. Kaliman,  T. Kus,  A. Landau,  
 Jie Liu,  E. I. Proynov,  R. M. Richard,  R. P. Steele,  E. J. Sundstrom,  
 H. L. Woodcock III,  P. M. Zimmerman,  D. Zuev,  B. Alam,  B. Albrecht,  
 E. Alguire,  S. A. Baeppler,  D. Barton,  Z. Benda,  Y. A. Bernard,  
 E. J. Berquist,  K. B. Bravaya,  H. Burton,  K. Carter-Fenk,  D. Casanova,  
 Chun-Min Chang,  Yunqing Chen,  A. Chien,  K. D. Closser,  M. P. Coons,  
 S. Coriani,  S. Dasgupta,  A. L. Dempwolff,  M. Diedenhofen,  Hainam Do,  
 R. G. Edgar,  Po-Tung Fang,  S. Faraji,  S. Fatehi,  Qingguo Feng,  
 J. Fosso-Tande,  J. Gayvert,  Qinghui Ge,  A. Ghysels,  G. Gidofalvi,  
 J. Gomes,  J. Gonthier,  A. Gunina,  D. Hait,  M. W. D. Hanson-Heine,  
 P. H. P. Harbach,  A. W. Hauser,  M. F. Herbst,  J. E. Herr,  
 E. G. Hohenstein,  Z. C. Holden,  Kerwin Hui,  B. C. Huynh,  T.-C. Jagau,  
 Hyunjun Ji,  B. Kaduk,  K. Khistyaev,  Jaehoon Kim,  P. Klunzinger,  K. Koh,  
 D. Kosenkov,  L. Koulias,  T. Kowalczyk,  C. M. Krauter,  A. Kunitsa,  
 Ka Un Lao,  A. Laurent,  K. V. Lawler,  Joonho Lee,  D. Lefrancois,  
 S. Lehtola,  D. S. Levine,  Yi-Pei Li,  You-Sheng Lin,  Fenglai Liu,  
 Kuan-Yu Liu,  E. Livshits,  M. Loipersberger,  A. Luenser,  P. Manohar,  
 E. Mansoor,  S. F. Manzer,  Shan-Ping Mao,  Yuezhi Mao,  N. Mardirossian,  
 A. V. Marenich,  T. Markovich,  L. A. Martinez-Martinez,  S. A. Maurer,  
 N. J. Mayhall,  S. C. McKenzie,  J.-M. Mewes,  P. Morgante,  A. F. Morrison,  
 J. W. Mullinax,  K. Nanda,  T. S. Nguyen-Beck,  R. Olivares-Amaya,  
 K. J. Oosterbaan,  J. A. Parkhill,  S. K. Paul,  F. Pavosevic,  Zheng Pei,  
 T. M. Perrine,  F. Plasser,  P. Pokhilko,  S. Prager,  A. Prociuk,  
 E. Ramos,  B. Rana,  D. R. Rehn,  F. Rob,  M. Scheurer,  M. Schneider,  
 N. Sergueev,  S. M. Sharada,  S. Sharma,  D. W. Small,  T. Stauch,  
 C. J. Stein,  T. Stein,  Yu-Chuan Su,  S. P. Veccham,  Zhen Tao,  
 A. J. W. Thom,  A. Tkatchenko,  T. Tsuchimochi,  N. M. Tubman,  L. Vogt,  
 M. L. Vidal,  O. Vydrov,  M. A. Watson,  J. Wenzel,  M. de Wergifosse,  
 T. A. Wesolowski,  A. White,  J. Witte,  A. Yamada,  Jun Yang,  K. Yao,  
 S. Yeganeh,  S. R. Yost,  Zhi-Qiang You,  A. Zech,  Igor Ying Zhang,  
 Xing Zhang,  Yan Zhao,  Ying Zhu,  B. R. Brooks,  G. K. L. Chan,  
 C. J. Cramer,  M. S. Gordon,  W. J. Hehre,  A. Klamt,  M. W. Schmidt,  
 C. D. Sherrill,  D. G. Truhlar,  A. Aspuru-Guzik,  R. Baer,  A. T. Bell,  
 N. A. Besley,  Jeng-Da Chai,  A. E. DePrince, III,  R. A. DiStasio Jr.,  
 A. Dreuw,  B. D. Dunietz,  T. R. Furlani,  Chao-Ping Hsu,  Yousung Jung,  
 Jing Kong,  D. S. Lambrecht,  WanZhen Liang,  C. Ochsenfeld,  
 V. A. Rassolov,  L. V. Slipchenko,  J. E. Subotnik,  T. Van Voorhis,  
 J. M. Herbert,  A. I. Krylov,  P. M. W. Gill,  M. Head-Gordon

 Contributors to earlier versions of Q-Chem not listed above: 
 R. D. Adamson,  B. Austin,  J. Baker,  G. J. O. Beran,  K. Brandhorst,  
 S. T. Brown,  E. F. C. Byrd,  A. K. Chakraborty,  C.-L. Cheng,  
 Siu Hung Chien,  D. M. Chipman,  D. L. Crittenden,  H. Dachsel,  
 R. J. Doerksen,  A. D. Dutoi,  L. Fusti-Molnar,  W. A. Goddard III,  
 A. Golubeva-Zadorozhnaya,  S. R. Gwaltney,  G. Hawkins,  A. Heyden,  
 S. Hirata,  G. Kedziora,  F. J. Keil,  C. Kelley,  Jihan Kim,  R. A. King,  
 R. Z. Khaliullin,  P. P. Korambath,  W. Kurlancheek,  A. M. Lee,  M. S. Lee,  
 S. V. Levchenko,  Ching Yeh Lin,  D. Liotard,  R. C. Lochan,  I. Lotan,  
 P. E. Maslen,  N. Nair,  D. P. O'Neill,  D. Neuhauser,  E. Neuscamman,  
 C. M. Oana,  R. Olson,  B. Peters,  R. Peverati,  P. A. Pieniazek,  
 Y. M. Rhee,  J. Ritchie,  M. A. Rohrdanz,  E. Rosta,  N. J. Russ,  
 H. F. Schaefer III,  N. E. Schultz,  N. Shenvi,  A. C. Simmonett,  A. Sodt,  
 D. Stuck,  K. S. Thanthiriwatte,  V. Vanovschi,  Tao Wang,  A. Warshel,  
 C. F. Williams,  Q. Wu,  X. Xu,  W. Zhang

 Please cite Q-Chem as follows:
 Y. Shao et al., Mol. Phys. 113, 184-215 (2015)
 DOI: 10.1080/00268976.2014.952696

 Q-Chem 5.3.0 for Intel X86 EM64T Linux

 Parts of Q-Chem use Armadillo 9.800.1 (Horizon Scraper).
 http://arma.sourceforge.net/

 Q-Chem begins on Mon Jul 27 14:54:20 2020  

Host: centos77-c7
0

     Scratch files written to /tmp/29924.centos77-h1/qchem111750//
Processing $rem in /opt/qchem-5.3.0-intel2020u1//config/preferences:
Processing $rem in /home/shihchengli/.qchemrc:

Checking the input file for inconsistencies... 	...done.

--------------------------------------------------------------
User input:
--------------------------------------------------------------
$rem
   JOBTYPE  sp
   EXCHANGE   omegaB97X-D
   BASIS   6-311+G(2df,2pd)
   UNRESTRICTED   False
   max_scf_cycles   250
   geom_opt_max_cycles   1500
   basis2 6-31G*
   scf_algorithm rca_diis
   SYM_IGNORE  TRUE
   print_input   true
   geom_opt_dmax   80
   pop_mulliken false
   XC_GRID 000075000302
$end

$molecule
0 1
C       -5.3902863636     0.2950030719     0.0411358187
C       -4.1427804821     1.1747756676     0.1247661636
H       -5.4905674499     -0.0635178202     -0.8712920098
H       -6.1824182706     0.8139384767     0.2657026981
H       -5.3299137972     -0.4330230569     0.6480205224
O       -2.9618864369     0.4869488290     -0.2432066698
H       -4.0465944904     1.5923772134     1.1195421327
H       -4.2211229304     2.0032896541     -0.5644604200
H       -2.8372397788     -0.2525720357     0.3501017642
$end
--------------------------------------------------------------
 ----------------------------------------------------------------
             Standard Nuclear Orientation (Angstroms)
    I     Atom           X                Y                Z
 ----------------------------------------------------------------
    1      C      -5.3902863636     0.2950030719     0.0411358187
    2      C      -4.1427804821     1.1747756676     0.1247661636
    3      H      -5.4905674499    -0.0635178202    -0.8712920098
    4      H      -6.1824182706     0.8139384767     0.2657026981
    5      H      -5.3299137972    -0.4330230569     0.6480205224
    6      O      -2.9618864369     0.4869488290    -0.2432066698
    7      H      -4.0465944904     1.5923772134     1.1195421327
    8      H      -4.2211229304     2.0032896541    -0.5644604200
    9      H      -2.8372397788    -0.2525720357     0.3501017642
 ----------------------------------------------------------------
 Nuclear Repulsion Energy =          83.38051506 hartrees
 There are       13 alpha and       13 beta electrons
 Requested basis set is 6-311+G(2df,2pd)
 There are 60 shells and 186 basis functions

 Total QAlloc Memory Limit   2000 MB
 Mega-Array Size       188 MB
 MEM_STATIC part       192 MB

                       Distance Matrix (Angstroms)
             C (  1)   C (  2)   H (  3)   H (  4)   H (  5)   O (  6)
   C (  2)  1.528812
   H (  3)  0.985453  2.083754
   H (  4)  0.973241  2.076099  1.594159
   H (  5)  0.949724  2.065937  1.571832  1.558154
   O (  6)  2.452513  1.415281  2.663031  3.276849  2.692246
   H (  7)  2.156768  1.083154  2.964872  2.428323  2.443663  2.062922
   H (  8)  2.156834  1.080558  2.444857  2.439345  2.938562  1.997040
   H (  9)  2.629324  1.947443  2.927062  3.512092  2.516891  0.956265
             H (  7)   H (  8)
   H (  8)  1.742175
   H (  9)  2.336325  2.800084
 
 A cutoff of  1.0D-09 yielded   1793 shell pairs
 There are     17342 function pairs (     21528 Cartesian)
 Smallest overlap matrix eigenvalue = 1.41E-04

 Scale SEOQF with 1.000000e-02/1.000000e-01/1.000000e-01

 Standard Electronic Orientation quadrupole field applied
 Nucleus-field energy     =     0.0000000027 hartrees
 Requested basis set is 6-31G(d)
 There are 24 shells and 54 basis functions
 A cutoff of  1.0D-09 yielded    298 shell pairs
 There are      1549 function pairs (      1732 Cartesian)
 Smallest overlap matrix eigenvalue = 6.73E-03
 Guess from superposition of atomic densities
 Warning:  Energy on first SCF cycle will be non-variational
 SAD guess density has 26.000000 electrons
 Long-range K will be added via erf
 Coulomb attenuation parameter = 0.2 bohr**(-1)
 A restricted hybrid HF-DFT SCF calculation will be
 performed using Relaxed Constraint Minimization + Pulay DIIS
 Exchange:     0.2220 Hartree-Fock + 1.0000 wB97X-D + LR-HF
 Correlation:  1.0000 wB97X-D
 Using Euler-Maclaurin-Lebedev (75,302) quadrature formula
 Dispersion:   Grimme D
 SCF converges when DIIS error is below 1.0E-04
 using 6 threads for integral computing
 -------------------------------------------------------
 OpenMP Integral computing Module                
 Release: version 1.0, May 2013, Q-Chem Inc. Pittsburgh 
 -------------------------------------------------------
 using 6 threads for integral computing
 -------------------------------------------------------
 OpenMP Integral computing Module                
 Release: version 1.0, May 2013, Q-Chem Inc. Pittsburgh 
 -------------------------------------------------------
 ---------------------------------------
  Cycle       Energy         DIIS Error
 ---------------------------------------
    1    -155.6336716803      1.15E-01
    2    -154.8770656352      1.47E-02
    3    -154.9124032868      3.63E-03
    4    -154.9408592906      3.35E-03
    5    -154.9422350297      2.47E-04 Done RCA. Switching to DIIS
    6    -154.9437680616      1.68E-04
    7    -154.9437757932      7.67E-06 Convergence criterion met
 ---------------------------------------
 SCF time:  CPU 14.22 s  wall 2.39 s
 SCF   energy in the small basis set = -154.94377579
 Total energy in the small basis set = -154.94377579
 ----------------------------------------------------
  Cycle       Energy    
 ----------------------------------------------------
    1     -18.8904408659     -1.89E+01
 Long-range K will be added via erf
 Coulomb attenuation parameter = 0.2 bohr**(-1)
 A restricted hybrid HF-DFT SCF calculation will be
 performed using Relaxed Constraint Minimization + Pulay DIIS
 Exchange:     0.2220 Hartree-Fock + 1.0000 wB97X-D + LR-HF
 Correlation:  1.0000 wB97X-D
 Using Euler-Maclaurin-Lebedev (75,302) quadrature formula
 Dispersion:   Grimme D
 SCF converges when DIIS error is below 1.0E-05
 Basis2 calculation detected. Using small basis as guess for larger.
 SCFMinFind is unable to tell whether the solution found is close.
 Resetting ReadMinima to 0 and attempting to follow guess.
 SCFMinFind following SCF Guess.
 using 6 threads for integral computing
 -------------------------------------------------------
 OpenMP Integral computing Module                
 Release: version 1.0, May 2013, Q-Chem Inc. Pittsburgh 
 -------------------------------------------------------
 using 6 threads for integral computing
 -------------------------------------------------------
 OpenMP Integral computing Module                
 Release: version 1.0, May 2013, Q-Chem Inc. Pittsburgh 
 -------------------------------------------------------
 ---------------------------------------
  Cycle       Energy         DIIS Error
 ---------------------------------------
    1    -154.9785901066      5.73E-03
    2    -154.9944652232      2.84E-03
    3    -155.0040077892      3.51E-04 Done RCA. Switching to DIIS
    4    -155.0154284223      2.43E-04
    5    -155.0156045565      3.60E-05
    6    -155.0156110057      5.57E-06 Convergence criterion met
 ---------------------------------------
 SCF time:  CPU 39.33 s  wall 6.58 s
 SCF   energy in the final basis set = -155.01561101
 Total energy in the final basis set = -155.01561101
 
 --------------------------------------------------------------
 
                    Orbital Energies (a.u.)
 --------------------------------------------------------------
 
 Alpha MOs
 -- Occupied --
-19.2444 -10.3226 -10.2321  -1.1245  -0.8662  -0.7376  -0.5983  -0.5550
 -0.5311  -0.4811  -0.4735  -0.4134  -0.3604
 -- Virtual --
  0.0656   0.0871   0.0894   0.1021   0.1278   0.1339   0.1395   0.1827
  0.2063   0.2290   0.2550   0.2608   0.2737   0.2898   0.2924   0.3138
  0.3190   0.3327   0.3437   0.3859   0.4523   0.4915   0.5050   0.5302
  0.5726   0.6034   0.6156   0.6181   0.6346   0.6419   0.6750   0.6898
  0.7033   0.7345   0.7795   0.8130   0.8596   0.9150   0.9390   0.9916
  1.0044   1.0640   1.0764   1.1386   1.1617   1.1841   1.1941   1.2410
  1.2453   1.2629   1.2927   1.3098   1.3359   1.3789   1.3881   1.4281
  1.4671   1.4875   1.5012   1.5214   1.5302   1.5732   1.6311   1.6521
  1.7132   1.7971   1.9426   2.0511   2.1147   2.2815   2.2898   2.3900
  2.4034   2.4915   2.5207   2.5880   2.7218   2.8506   2.8854   2.9170
  2.9522   3.0059   3.0325   3.0418   3.0602   3.0778   3.1010   3.1467
  3.1785   3.1851   3.2439   3.2628   3.3035   3.3275   3.3598   3.3684
  3.4024   3.4312   3.4486   3.4765   3.5198   3.5744   3.6143   3.6241
  3.6275   3.6664   3.6788   3.7199   3.7715   3.7976   3.8310   3.8767
  3.9175   3.9362   3.9873   4.0012   4.0295   4.0497   4.0630   4.0986
  4.1396   4.1637   4.2164   4.2690   4.3194   4.3565   4.3725   4.3994
  4.4450   4.4697   4.6011   4.6218   4.6685   4.7343   4.7589   4.8943
  4.9371   5.0348   5.0907   5.1500   5.2177   5.2649   5.3113   5.3823
  5.4115   5.4702   5.5049   5.5731   5.6194   5.6223   5.6624   5.6974
  5.7000   5.8060   5.8305   5.9600   5.9885   6.0605   6.4248   6.6521
  6.6564   6.6910   6.7437   6.8326   7.1322   7.3579   7.4391   7.5580
  7.7312   8.1183  25.2002  25.7333  50.4723
 --------------------------------------------------------------
 
 -----------------------------------------------------------------
                    Cartesian Multipole Moments
 -----------------------------------------------------------------
    Charge (ESU x 10^10)
                -0.0000
    Dipole Moment (Debye)
         X      -1.2596      Y      -0.4796      Z       1.2738
       Tot       1.8545
    Quadrupole Moments (Debye-Ang)
        XX     -10.9282     XY      -0.3174     YY     -18.6874
        XZ      -3.4294     YZ      -0.2954     ZZ     -19.6483
    Octopole Moments (Debye-Ang^2)
       XXX     203.8764    XXY      -5.2379    XYY      78.9275
       YYY     -36.8182    XXZ       8.8572    XYZ       1.1252
       YYZ      -0.4734    XZZ      83.1695    YZZ     -12.6004
       ZZZ       0.1103
    Hexadecapole Moments (Debye-Ang^3)
      XXXX   -2050.1018   XXXY     106.2812   XXYY    -376.8306
      XYYY     150.1386   YYYY    -101.8847   XXXZ     -16.7431
      XXYZ      -4.5105   XYYZ       3.6206   YYYZ      -4.1370
      XXZZ    -383.5306   XYZZ      51.8140   YYZZ     -21.7985
      XZZZ       5.9396   YZZZ      -1.8272   ZZZZ     -34.1967
 -----------------------------------------------------------------
Archival summary:
1\1\centos77-c7\SP\ProcedureUnspecified\BasisUnspecified\126\shihchen\MonJul2714:54:322020MonJul2714:54:322020\0\\#,ProcedureUnspecified,BasisUnspecified,\\0,1\C\H,1,1.08056\H,1,1.08315,2,107.255\O,1,1.41528,2,105.503,3,-117.952,0\H,4,0.956265,1,108.862,2,179.038,0\C,1,1.52881,2,110.315,3,119.982,0\H,6,0.949724,1,110.751,2,-179.704,0\H,6,0.973241,1,110.163,2,-59.9872,0\H,6,0.985453,1,110.063,2,60.1759,0\\\@

 Total job time:  11.14s(wall), 57.37s(cpu) 
 Mon Jul 27 14:54:32 2020

        *************************************************************
        *                                                           *
        *  Thank you very much for using Q-Chem.  Have a nice day.  *
        *                                                           *
        *************************************************************


