                  Welcome to Q-Chem
     A Quantum Leap Into The Future Of Chemistry


 Q-Chem 5.3 (devel), Q-Chem, Inc., Pleasanton, CA (2020)

 Yihan Shao,  Zhengting Gan,  E. Epifanovsky,  A. T. B. Gilbert,  M. Wormit,  
 J. Kussmann,  A. W. Lange,  A. Behn,  Jia Deng,  Xintian Feng,  D. Ghosh,  
 M. Goldey,  P. R. Horn,  L. D. Jacobson,  I. Kaliman,  T. Kus,  A. Landau,  
 Jie Liu,  E. I. Proynov,  R. M. Richard,  R. P. Steele,  E. J. Sundstrom,  
 H. L. Woodcock III,  P. M. Zimmerman,  D. Zuev,  B. Alam,  B. Albrecht,  
 E. Alguire,  S. A. Baeppler,  D. Barton,  Z. Benda,  Y. A. Bernard,  
 E. J. Berquist,  K. B. Bravaya,  H. Burton,  K. Carter-Fenk,  D. Casanova,  
 Chun-Min Chang,  Yunqing Chen,  A. Chien,  K. D. Closser,  M. P. Coons,  
 S. Coriani,  S. Dasgupta,  A. L. Dempwolff,  M. Diedenhofen,  Hainam Do,  
 R. G. Edgar,  Po-Tung Fang,  S. Faraji,  S. Fatehi,  Qingguo Feng,  
 J. Fosso-Tande,  J. Gayvert,  Qinghui Ge,  A. Ghysels,  G. Gidofalvi,  
 J. Gomes,  J. Gonthier,  A. Gunina,  D. Hait,  M. W. D. Hanson-Heine,  
 P. H. P. Harbach,  A. W. Hauser,  M. F. Herbst,  J. E. Herr,  
 E. G. Hohenstein,  Z. C. Holden,  Kerwin Hui,  B. C. Huynh,  T.-C. Jagau,  
 Hyunjun Ji,  B. Kaduk,  K. Khistyaev,  Jaehoon Kim,  P. Klunzinger,  K. Koh,  
 D. Kosenkov,  L. Koulias,  T. Kowalczyk,  C. M. Krauter,  A. Kunitsa,  
 Ka Un Lao,  A. Laurent,  K. V. Lawler,  Joonho Lee,  D. Lefrancois,  
 S. Lehtola,  D. S. Levine,  Yi-Pei Li,  You-Sheng Lin,  Fenglai Liu,  
 Kuan-Yu Liu,  E. Livshits,  M. Loipersberger,  A. Luenser,  P. Manohar,  
 E. Mansoor,  S. F. Manzer,  Shan-Ping Mao,  Yuezhi Mao,  N. Mardirossian,  
 A. V. Marenich,  T. Markovich,  L. A. Martinez-Martinez,  S. A. Maurer,  
 N. J. Mayhall,  S. C. McKenzie,  J.-M. Mewes,  P. Morgante,  A. F. Morrison,  
 J. W. Mullinax,  K. Nanda,  T. S. Nguyen-Beck,  R. Olivares-Amaya,  
 K. J. Oosterbaan,  J. A. Parkhill,  S. K. Paul,  F. Pavosevic,  Zheng Pei,  
 T. M. Perrine,  F. Plasser,  P. Pokhilko,  S. Prager,  A. Prociuk,  
 E. Ramos,  B. Rana,  D. R. Rehn,  F. Rob,  M. Scheurer,  M. Schneider,  
 N. Sergueev,  S. M. Sharada,  S. Sharma,  D. W. Small,  T. Stauch,  
 C. J. Stein,  T. Stein,  Yu-Chuan Su,  S. P. Veccham,  Zhen Tao,  
 A. J. W. Thom,  A. Tkatchenko,  T. Tsuchimochi,  N. M. Tubman,  L. Vogt,  
 M. L. Vidal,  O. Vydrov,  M. A. Watson,  J. Wenzel,  M. de Wergifosse,  
 T. A. Wesolowski,  A. White,  J. Witte,  A. Yamada,  Jun Yang,  K. Yao,  
 S. Yeganeh,  S. R. Yost,  Zhi-Qiang You,  A. Zech,  Igor Ying Zhang,  
 Xing Zhang,  Yan Zhao,  Ying Zhu,  B. R. Brooks,  G. K. L. Chan,  
 C. J. Cramer,  M. S. Gordon,  W. J. Hehre,  A. Klamt,  M. W. Schmidt,  
 C. D. Sherrill,  D. G. Truhlar,  A. Aspuru-Guzik,  R. Baer,  A. T. Bell,  
 N. A. Besley,  Jeng-Da Chai,  A. E. DePrince, III,  R. A. DiStasio Jr.,  
 A. Dreuw,  B. D. Dunietz,  T. R. Furlani,  Chao-Ping Hsu,  Yousung Jung,  
 Jing Kong,  D. S. Lambrecht,  WanZhen Liang,  C. Ochsenfeld,  
 V. A. Rassolov,  L. V. Slipchenko,  J. E. Subotnik,  T. Van Voorhis,  
 J. M. Herbert,  A. I. Krylov,  P. M. W. Gill,  M. Head-Gordon

 Contributors to earlier versions of Q-Chem not listed above: 
 R. D. Adamson,  B. Austin,  J. Baker,  G. J. O. Beran,  K. Brandhorst,  
 S. T. Brown,  E. F. C. Byrd,  A. K. Chakraborty,  C.-L. Cheng,  
 Siu Hung Chien,  D. M. Chipman,  D. L. Crittenden,  H. Dachsel,  
 R. J. Doerksen,  A. D. Dutoi,  L. Fusti-Molnar,  W. A. Goddard III,  
 A. Golubeva-Zadorozhnaya,  S. R. Gwaltney,  G. Hawkins,  A. Heyden,  
 S. Hirata,  G. Kedziora,  F. J. Keil,  C. Kelley,  Jihan Kim,  R. A. King,  
 R. Z. Khaliullin,  P. P. Korambath,  W. Kurlancheek,  A. M. Lee,  M. S. Lee,  
 S. V. Levchenko,  Ching Yeh Lin,  D. Liotard,  R. C. Lochan,  I. Lotan,  
 P. E. Maslen,  N. Nair,  D. P. O'Neill,  D. Neuhauser,  E. Neuscamman,  
 C. M. Oana,  R. Olson,  B. Peters,  R. Peverati,  P. A. Pieniazek,  
 Y. M. Rhee,  J. Ritchie,  M. A. Rohrdanz,  E. Rosta,  N. J. Russ,  
 H. F. Schaefer III,  N. E. Schultz,  N. Shenvi,  A. C. Simmonett,  A. Sodt,  
 D. Stuck,  K. S. Thanthiriwatte,  V. Vanovschi,  Tao Wang,  A. Warshel,  
 C. F. Williams,  Q. Wu,  X. Xu,  W. Zhang

 Please cite Q-Chem as follows:
 Y. Shao et al., Mol. Phys. 113, 184-215 (2015)
 DOI: 10.1080/00268976.2014.952696

 Q-Chem 5.3.0 for Intel X86 EM64T Linux

 Parts of Q-Chem use Armadillo 9.800.1 (Horizon Scraper).
 http://arma.sourceforge.net/

 Q-Chem begins on Mon Jul 27 14:26:28 2020  

Host: centos77-c7
0

     Scratch files written to /tmp/29924.centos77-h1/qchem104887//
Processing $rem in /opt/qchem-5.3.0-intel2020u1//config/preferences:
Processing $rem in /home/shihchengli/.qchemrc:

Checking the input file for inconsistencies... 	...done.

--------------------------------------------------------------
User input:
--------------------------------------------------------------
$rem
   JOBTYPE  sp
   EXCHANGE   omegaB97X-D
   BASIS   6-311+G(2df,2pd)
   UNRESTRICTED   False
   max_scf_cycles   250
   geom_opt_max_cycles   1500
   basis2 6-31G*
   scf_algorithm rca_diis
   SYM_IGNORE  TRUE
   print_input   true
   geom_opt_dmax   80
   pop_mulliken false
   XC_GRID 000075000302
$end

$molecule
0 1
C       -5.3596139694     0.3204307969     0.0402310736
C       -4.1393544078     1.2058861697     0.1321398632
H       -5.4329637631     -0.0809314000     -0.9703070906
H       -6.2856412909     0.8430128882     0.2815272367
H       -5.2584641712     -0.5217090758     0.7290651915
O       -3.0083162220     0.4545540707     -0.2579242722
H       -4.0060213214     1.6340076704     1.1321491332
H       -4.2065244440     2.0376027133     -0.5687364003
H       -2.9059104102     -0.2756338333     0.3521652651
$end
--------------------------------------------------------------
 ----------------------------------------------------------------
             Standard Nuclear Orientation (Angstroms)
    I     Atom           X                Y                Z
 ----------------------------------------------------------------
    1      C      -5.3596139694     0.3204307969     0.0402310736
    2      C      -4.1393544078     1.2058861697     0.1321398632
    3      H      -5.4329637631    -0.0809314000    -0.9703070906
    4      H      -6.2856412909     0.8430128882     0.2815272367
    5      H      -5.2584641712    -0.5217090758     0.7290651915
    6      O      -3.0083162220     0.4545540707    -0.2579242722
    7      H      -4.0060213214     1.6340076704     1.1321491332
    8      H      -4.2065244440     2.0376027133    -0.5687364003
    9      H      -2.9059104102    -0.2756338333     0.3521652651
 ----------------------------------------------------------------
 Nuclear Repulsion Energy =          82.49521520 hartrees
 There are       13 alpha and       13 beta electrons
 Requested basis set is 6-311+G(2df,2pd)
 There are 60 shells and 186 basis functions

 Total QAlloc Memory Limit   2000 MB
 Mega-Array Size       188 MB
 MEM_STATIC part       192 MB

                       Distance Matrix (Angstroms)
             C (  1)   C (  2)   H (  3)   H (  4)   H (  5)   O (  6)
   C (  2)  1.510467
   H (  3)  1.089798  2.131833
   H (  4)  1.090341  2.181866  1.774210
   H (  5)  1.092668  2.143201  1.764257  1.765743
   O (  6)  2.373918  1.412762  2.583244  3.344065  2.643937
   H (  7)  2.179445  1.095940  3.065535  2.558495  2.525511  2.078180
   H (  8)  2.156186  1.089721  2.480645  2.544154  3.056296  2.009565
   H (  9)  2.544260  1.940283  2.858818  3.560750  2.395228  0.957011
             H (  7)   H (  8)
   H (  8)  1.759574
   H (  9)  2.337809  2.809043
 
 A cutoff of  1.0D-09 yielded   1792 shell pairs
 There are     17360 function pairs (     21552 Cartesian)
 Smallest overlap matrix eigenvalue = 1.32E-04

 Scale SEOQF with 1.000000e-02/1.000000e-01/1.000000e-01

 Standard Electronic Orientation quadrupole field applied
 Nucleus-field energy     =     0.0000000027 hartrees
 Requested basis set is 6-31G(d)
 There are 24 shells and 54 basis functions
 A cutoff of  1.0D-09 yielded    298 shell pairs
 There are      1549 function pairs (      1732 Cartesian)
 Smallest overlap matrix eigenvalue = 7.15E-03
 Guess from superposition of atomic densities
 Warning:  Energy on first SCF cycle will be non-variational
 SAD guess density has 26.000000 electrons
 Long-range K will be added via erf
 Coulomb attenuation parameter = 0.2 bohr**(-1)
 A restricted hybrid HF-DFT SCF calculation will be
 performed using Relaxed Constraint Minimization + Pulay DIIS
 Exchange:     0.2220 Hartree-Fock + 1.0000 wB97X-D + LR-HF
 Correlation:  1.0000 wB97X-D
 Using Euler-Maclaurin-Lebedev (75,302) quadrature formula
 Dispersion:   Grimme D
 SCF converges when DIIS error is below 1.0E-04
 using 6 threads for integral computing
 -------------------------------------------------------
 OpenMP Integral computing Module                
 Release: version 1.0, May 2013, Q-Chem Inc. Pittsburgh 
 -------------------------------------------------------
 using 6 threads for integral computing
 -------------------------------------------------------
 OpenMP Integral computing Module                
 Release: version 1.0, May 2013, Q-Chem Inc. Pittsburgh 
 -------------------------------------------------------
 ---------------------------------------
  Cycle       Energy         DIIS Error
 ---------------------------------------
    1    -155.4531519457      1.07E-01
    2    -154.9251601585      1.36E-02
    3    -154.9537112010      3.03E-03
    4    -154.9802198996      2.38E-03
    5    -154.9809275399      2.26E-04 Done RCA. Switching to DIIS
    6    -154.9817198150      9.72E-05 Convergence criterion met
 ---------------------------------------
 SCF time:  CPU 13.00 s  wall 2.18 s
 SCF   energy in the small basis set = -154.98171982
 Total energy in the small basis set = -154.98171982
 ----------------------------------------------------
  Cycle       Energy    
 ----------------------------------------------------
    1     -18.7574249949     -1.88E+01
 Long-range K will be added via erf
 Coulomb attenuation parameter = 0.2 bohr**(-1)
 A restricted hybrid HF-DFT SCF calculation will be
 performed using Relaxed Constraint Minimization + Pulay DIIS
 Exchange:     0.2220 Hartree-Fock + 1.0000 wB97X-D + LR-HF
 Correlation:  1.0000 wB97X-D
 Using Euler-Maclaurin-Lebedev (75,302) quadrature formula
 Dispersion:   Grimme D
 SCF converges when DIIS error is below 1.0E-05
 Basis2 calculation detected. Using small basis as guess for larger.
 SCFMinFind is unable to tell whether the solution found is close.
 Resetting ReadMinima to 0 and attempting to follow guess.
 SCFMinFind following SCF Guess.
 using 6 threads for integral computing
 -------------------------------------------------------
 OpenMP Integral computing Module                
 Release: version 1.0, May 2013, Q-Chem Inc. Pittsburgh 
 -------------------------------------------------------
 using 6 threads for integral computing
 -------------------------------------------------------
 OpenMP Integral computing Module                
 Release: version 1.0, May 2013, Q-Chem Inc. Pittsburgh 
 -------------------------------------------------------
 ---------------------------------------
  Cycle       Energy         DIIS Error
 ---------------------------------------
    1    -155.0131648479      5.72E-03
    2    -155.0286986176      2.84E-03
    3    -155.0382679833      3.44E-04 Done RCA. Switching to DIIS
    4    -155.0497428923      2.48E-04
    5    -155.0499263721      3.94E-05
    6    -155.0499341901      5.71E-06 Convergence criterion met
 ---------------------------------------
 SCF time:  CPU 39.53 s  wall 6.61 s
 SCF   energy in the final basis set = -155.04993419
 Total energy in the final basis set = -155.04993419
 
 --------------------------------------------------------------
 
                    Orbital Energies (a.u.)
 --------------------------------------------------------------
 
 Alpha MOs
 -- Occupied --
-19.2450 -10.3267 -10.2730  -1.1277  -0.8489  -0.7233  -0.5975  -0.5461
 -0.5248  -0.4684  -0.4575  -0.4118  -0.3626
 -- Virtual --
  0.0658   0.0875   0.0885   0.1018   0.1266   0.1336   0.1360   0.1810
  0.1981   0.2154   0.2411   0.2470   0.2661   0.2832   0.2936   0.3055
  0.3168   0.3287   0.3429   0.3837   0.4588   0.4934   0.4992   0.5270
  0.5703   0.5766   0.5803   0.6077   0.6157   0.6332   0.6654   0.6836
  0.6941   0.7143   0.7326   0.8046   0.8505   0.9077   0.9276   0.9579
  0.9949   1.0573   1.0638   1.1042   1.1438   1.1784   1.1977   1.2029
  1.2215   1.2366   1.2800   1.3098   1.3175   1.3651   1.3748   1.4107
  1.4488   1.4656   1.4784   1.4815   1.4997   1.5320   1.5972   1.6282
  1.6601   1.7511   1.9416   2.0438   2.1123   2.2827   2.2906   2.4606
  2.4742   2.5082   2.5536   2.6045   2.7119   2.8345   2.8532   2.8781
  2.9147   2.9728   3.0164   3.0288   3.0475   3.0563   3.0622   3.0739
  3.0912   3.1783   3.2239   3.2669   3.2860   3.2955   3.3107   3.3538
  3.3760   3.3921   3.4212   3.4423   3.5106   3.5661   3.5725   3.5837
  3.6108   3.6265   3.6470   3.7008   3.7358   3.7379   3.8008   3.8541
  3.8814   3.9385   3.9568   3.9810   3.9980   4.0179   4.0347   4.0873
  4.1010   4.1214   4.1433   4.1843   4.1905   4.2517   4.3047   4.3329
  4.3572   4.3916   4.4799   4.5110   4.5367   4.6455   4.7292   4.7764
  4.8563   4.9373   4.9503   5.0029   5.0342   5.0648   5.1113   5.2107
  5.2168   5.2643   5.2792   5.3269   5.3330   5.3599   5.4154   5.4816
  5.5724   5.6078   5.6834   5.8345   5.9324   6.0337   6.3615   6.3959
  6.4086   6.6591   6.7078   6.8239   7.1374   7.3630   7.4361   7.5621
  7.7229   8.1156  25.1808  25.4420  50.4779
 --------------------------------------------------------------
 
 -----------------------------------------------------------------
                    Cartesian Multipole Moments
 -----------------------------------------------------------------
    Charge (ESU x 10^10)
                 0.0000
    Dipole Moment (Debye)
         X      -1.1355      Y      -0.3298      Z       1.2711
       Tot       1.7361
    Quadrupole Moments (Debye-Ang)
        XX     -12.4748     XY      -0.7827     YY     -18.7513
        XZ      -3.3833     YZ      -0.3040     ZZ     -19.9173
    Octopole Moments (Debye-Ang^2)
       XXX     218.4173    XXY      -3.5452    XYY      80.0358
       YYY     -36.7729    XXZ       8.4052    XYZ       1.1629
       YYZ      -0.3615    XZZ      84.9251    YZZ     -12.7469
       ZZZ      -0.0676
    Hexadecapole Moments (Debye-Ang^3)
      XXXX   -2166.1896   XXXY      99.9746   XXYY    -385.2298
      XYYY     151.8017   YYYY    -105.8361   XXXZ     -13.6322
      XXYZ      -4.5410   XYYZ       3.2064   YYYZ      -4.3010
      XXZZ    -394.0272   XYZZ      53.1883   YYZZ     -22.8603
      XZZZ       7.2004   YZZZ      -1.9237   ZZZZ     -37.1210
 -----------------------------------------------------------------
Archival summary:
1\1\centos77-c7\SP\ProcedureUnspecified\BasisUnspecified\126\shihchen\MonJul2714:26:392020MonJul2714:26:392020\0\\#,ProcedureUnspecified,BasisUnspecified,\\0,1\C\H,1,1.08972\H,1,1.09594,2,107.231\O,1,1.41276,2,106.121,3,-118.978,0\H,4,0.957011,1,108.386,2,178.622,0\C,1,1.51047,2,111.007,3,123.259,0\H,6,1.0898,1,109.068,2,60.3437,0\H,6,1.09034,1,113.06,2,-61.0139,0\H,6,1.09267,1,109.795,2,178.351,0\\\@

 Total job time:  10.99s(wall), 56.39s(cpu) 
 Mon Jul 27 14:26:39 2020

        *************************************************************
        *                                                           *
        *  Thank you very much for using Q-Chem.  Have a nice day.  *
        *                                                           *
        *************************************************************


