                  Welcome to Q-Chem
     A Quantum Leap Into The Future Of Chemistry


 Q-Chem 5.3 (devel), Q-Chem, Inc., Pleasanton, CA (2020)

 Yihan Shao,  Zhengting Gan,  E. Epifanovsky,  A. T. B. Gilbert,  M. Wormit,  
 J. Kussmann,  A. W. Lange,  A. Behn,  Jia Deng,  Xintian Feng,  D. Ghosh,  
 M. Goldey,  P. R. Horn,  L. D. Jacobson,  I. Kaliman,  T. Kus,  A. Landau,  
 Jie Liu,  E. I. Proynov,  R. M. Richard,  R. P. Steele,  E. J. Sundstrom,  
 H. L. Woodcock III,  P. M. Zimmerman,  D. Zuev,  B. Alam,  B. Albrecht,  
 E. Alguire,  S. A. Baeppler,  D. Barton,  Z. Benda,  Y. A. Bernard,  
 E. J. Berquist,  K. B. Bravaya,  H. Burton,  K. Carter-Fenk,  D. Casanova,  
 Chun-Min Chang,  Yunqing Chen,  A. Chien,  K. D. Closser,  M. P. Coons,  
 S. Coriani,  S. Dasgupta,  A. L. Dempwolff,  M. Diedenhofen,  Hainam Do,  
 R. G. Edgar,  Po-Tung Fang,  S. Faraji,  S. Fatehi,  Qingguo Feng,  
 J. Fosso-Tande,  J. Gayvert,  Qinghui Ge,  A. Ghysels,  G. Gidofalvi,  
 J. Gomes,  J. Gonthier,  A. Gunina,  D. Hait,  M. W. D. Hanson-Heine,  
 P. H. P. Harbach,  A. W. Hauser,  M. F. Herbst,  J. E. Herr,  
 E. G. Hohenstein,  Z. C. Holden,  Kerwin Hui,  B. C. Huynh,  T.-C. Jagau,  
 Hyunjun Ji,  B. Kaduk,  K. Khistyaev,  Jaehoon Kim,  P. Klunzinger,  K. Koh,  
 D. Kosenkov,  L. Koulias,  T. Kowalczyk,  C. M. Krauter,  A. Kunitsa,  
 Ka Un Lao,  A. Laurent,  K. V. Lawler,  Joonho Lee,  D. Lefrancois,  
 S. Lehtola,  D. S. Levine,  Yi-Pei Li,  You-Sheng Lin,  Fenglai Liu,  
 Kuan-Yu Liu,  E. Livshits,  M. Loipersberger,  A. Luenser,  P. Manohar,  
 E. Mansoor,  S. F. Manzer,  Shan-Ping Mao,  Yuezhi Mao,  N. Mardirossian,  
 A. V. Marenich,  T. Markovich,  L. A. Martinez-Martinez,  S. A. Maurer,  
 N. J. Mayhall,  S. C. McKenzie,  J.-M. Mewes,  P. Morgante,  A. F. Morrison,  
 J. W. Mullinax,  K. Nanda,  T. S. Nguyen-Beck,  R. Olivares-Amaya,  
 K. J. Oosterbaan,  J. A. Parkhill,  S. K. Paul,  F. Pavosevic,  Zheng Pei,  
 T. M. Perrine,  F. Plasser,  P. Pokhilko,  S. Prager,  A. Prociuk,  
 E. Ramos,  B. Rana,  D. R. Rehn,  F. Rob,  M. Scheurer,  M. Schneider,  
 N. Sergueev,  S. M. Sharada,  S. Sharma,  D. W. Small,  T. Stauch,  
 C. J. Stein,  T. Stein,  Yu-Chuan Su,  S. P. Veccham,  Zhen Tao,  
 A. J. W. Thom,  A. Tkatchenko,  T. Tsuchimochi,  N. M. Tubman,  L. Vogt,  
 M. L. Vidal,  O. Vydrov,  M. A. Watson,  J. Wenzel,  M. de Wergifosse,  
 T. A. Wesolowski,  A. White,  J. Witte,  A. Yamada,  Jun Yang,  K. Yao,  
 S. Yeganeh,  S. R. Yost,  Zhi-Qiang You,  A. Zech,  Igor Ying Zhang,  
 Xing Zhang,  Yan Zhao,  Ying Zhu,  B. R. Brooks,  G. K. L. Chan,  
 C. J. Cramer,  M. S. Gordon,  W. J. Hehre,  A. Klamt,  M. W. Schmidt,  
 C. D. Sherrill,  D. G. Truhlar,  A. Aspuru-Guzik,  R. Baer,  A. T. Bell,  
 N. A. Besley,  Jeng-Da Chai,  A. E. DePrince, III,  R. A. DiStasio Jr.,  
 A. Dreuw,  B. D. Dunietz,  T. R. Furlani,  Chao-Ping Hsu,  Yousung Jung,  
 Jing Kong,  D. S. Lambrecht,  WanZhen Liang,  C. Ochsenfeld,  
 V. A. Rassolov,  L. V. Slipchenko,  J. E. Subotnik,  T. Van Voorhis,  
 J. M. Herbert,  A. I. Krylov,  P. M. W. Gill,  M. Head-Gordon

 Contributors to earlier versions of Q-Chem not listed above: 
 R. D. Adamson,  B. Austin,  J. Baker,  G. J. O. Beran,  K. Brandhorst,  
 S. T. Brown,  E. F. C. Byrd,  A. K. Chakraborty,  C.-L. Cheng,  
 Siu Hung Chien,  D. M. Chipman,  D. L. Crittenden,  H. Dachsel,  
 R. J. Doerksen,  A. D. Dutoi,  L. Fusti-Molnar,  W. A. Goddard III,  
 A. Golubeva-Zadorozhnaya,  S. R. Gwaltney,  G. Hawkins,  A. Heyden,  
 S. Hirata,  G. Kedziora,  F. J. Keil,  C. Kelley,  Jihan Kim,  R. A. King,  
 R. Z. Khaliullin,  P. P. Korambath,  W. Kurlancheek,  A. M. Lee,  M. S. Lee,  
 S. V. Levchenko,  Ching Yeh Lin,  D. Liotard,  R. C. Lochan,  I. Lotan,  
 P. E. Maslen,  N. Nair,  D. P. O'Neill,  D. Neuhauser,  E. Neuscamman,  
 C. M. Oana,  R. Olson,  B. Peters,  R. Peverati,  P. A. Pieniazek,  
 Y. M. Rhee,  J. Ritchie,  M. A. Rohrdanz,  E. Rosta,  N. J. Russ,  
 H. F. Schaefer III,  N. E. Schultz,  N. Shenvi,  A. C. Simmonett,  A. Sodt,  
 D. Stuck,  K. S. Thanthiriwatte,  V. Vanovschi,  Tao Wang,  A. Warshel,  
 C. F. Williams,  Q. Wu,  X. Xu,  W. Zhang

 Please cite Q-Chem as follows:
 Y. Shao et al., Mol. Phys. 113, 184-215 (2015)
 DOI: 10.1080/00268976.2014.952696

 Q-Chem 5.3.0 for Intel X86 EM64T Linux

 Parts of Q-Chem use Armadillo 9.800.1 (Horizon Scraper).
 http://arma.sourceforge.net/

 Q-Chem begins on Mon Jul 27 14:33:28 2020  

Host: centos77-c7
0

     Scratch files written to /tmp/29924.centos77-h1/qchem106616//
Processing $rem in /opt/qchem-5.3.0-intel2020u1//config/preferences:
Processing $rem in /home/shihchengli/.qchemrc:

Checking the input file for inconsistencies... 	...done.

--------------------------------------------------------------
User input:
--------------------------------------------------------------
$rem
   JOBTYPE  sp
   EXCHANGE   omegaB97X-D
   BASIS   6-311+G(2df,2pd)
   UNRESTRICTED   False
   max_scf_cycles   250
   geom_opt_max_cycles   1500
   basis2 6-31G*
   scf_algorithm rca_diis
   SYM_IGNORE  TRUE
   print_input   true
   geom_opt_dmax   80
   pop_mulliken false
   XC_GRID 000075000302
$end

$molecule
0 1
C       -5.3592057665     0.2746464985     0.0386079862
C       -4.1103708799     1.1935899628     0.1100945680
H       -5.5067729599     -0.1028107577     -0.9735296228
H       -6.2250736851     0.8965922943     0.2781950715
H       -5.3579820151     -0.5678201952     0.7332283583
O       -2.9381087170     0.4989948177     -0.2543294864
H       -3.9908231366     1.5989671760     1.1222234282
H       -4.2320911960     2.0443398204     -0.5604536068
H       -2.8823816439     -0.2192796168     0.3762733039
$end
--------------------------------------------------------------
 ----------------------------------------------------------------
             Standard Nuclear Orientation (Angstroms)
    I     Atom           X                Y                Z
 ----------------------------------------------------------------
    1      C      -5.3592057665     0.2746464985     0.0386079862
    2      C      -4.1103708799     1.1935899628     0.1100945680
    3      H      -5.5067729599    -0.1028107577    -0.9735296228
    4      H      -6.2250736851     0.8965922943     0.2781950715
    5      H      -5.3579820151    -0.5678201952     0.7332283583
    6      O      -2.9381087170     0.4989948177    -0.2543294864
    7      H      -3.9908231366     1.5989671760     1.1222234282
    8      H      -4.2320911960     2.0443398204    -0.5604536068
    9      H      -2.8823816439    -0.2192796168     0.3762733039
 ----------------------------------------------------------------
 Nuclear Repulsion Energy =          81.57454159 hartrees
 There are       13 alpha and       13 beta electrons
 Requested basis set is 6-311+G(2df,2pd)
 There are 60 shells and 186 basis functions

 Total QAlloc Memory Limit   2000 MB
 Mega-Array Size       188 MB
 MEM_STATIC part       192 MB

                       Distance Matrix (Angstroms)
             C (  1)   C (  2)   H (  3)   H (  4)   H (  5)   O (  6)
   C (  2)  1.552146
   H (  3)  1.090263  2.191993
   H (  4)  1.092678  2.142063  1.755442
   H (  5)  1.091902  2.246641  1.775217  1.761649
   O (  6)  2.449052  1.410484  2.734494  3.353477  2.822969
   H (  7)  2.191009  1.096826  3.096180  2.489496  2.591410  2.052570
   H (  8)  2.181989  1.090058  2.530949  2.447986  3.124840  2.038675
   H (  9)  2.548066  1.890769  2.953466  3.525391  2.525370  0.957436
             H (  7)   H (  8)
   H (  8)  1.757262
   H (  9)  2.256348  2.796989
 
 A cutoff of  1.0D-09 yielded   1783 shell pairs
 There are     17297 function pairs (     21480 Cartesian)
 Smallest overlap matrix eigenvalue = 1.52E-04

 Scale SEOQF with 1.000000e-02/1.000000e-01/1.000000e-01

 Standard Electronic Orientation quadrupole field applied
 Nucleus-field energy     =     0.0000000027 hartrees
 Requested basis set is 6-31G(d)
 There are 24 shells and 54 basis functions
 A cutoff of  1.0D-09 yielded    298 shell pairs
 There are      1549 function pairs (      1732 Cartesian)
 Smallest overlap matrix eigenvalue = 7.65E-03
 Guess from superposition of atomic densities
 Warning:  Energy on first SCF cycle will be non-variational
 SAD guess density has 26.000000 electrons
 Long-range K will be added via erf
 Coulomb attenuation parameter = 0.2 bohr**(-1)
 A restricted hybrid HF-DFT SCF calculation will be
 performed using Relaxed Constraint Minimization + Pulay DIIS
 Exchange:     0.2220 Hartree-Fock + 1.0000 wB97X-D + LR-HF
 Correlation:  1.0000 wB97X-D
 Using Euler-Maclaurin-Lebedev (75,302) quadrature formula
 Dispersion:   Grimme D
 SCF converges when DIIS error is below 1.0E-04
 using 6 threads for integral computing
 -------------------------------------------------------
 OpenMP Integral computing Module                
 Release: version 1.0, May 2013, Q-Chem Inc. Pittsburgh 
 -------------------------------------------------------
 using 6 threads for integral computing
 -------------------------------------------------------
 OpenMP Integral computing Module                
 Release: version 1.0, May 2013, Q-Chem Inc. Pittsburgh 
 -------------------------------------------------------
 ---------------------------------------
  Cycle       Energy         DIIS Error
 ---------------------------------------
    1    -155.4016335660      1.05E-01
    2    -154.9248604227      1.35E-02
    3    -154.9529329093      3.01E-03
    4    -154.9791698212      2.35E-03
    5    -154.9798620508      2.28E-04 Done RCA. Switching to DIIS
    6    -154.9806381011      9.44E-05 Convergence criterion met
 ---------------------------------------
 SCF time:  CPU 13.04 s  wall 2.19 s
 SCF   energy in the small basis set = -154.98063810
 Total energy in the small basis set = -154.98063810
 ----------------------------------------------------
  Cycle       Energy    
 ----------------------------------------------------
    1     -18.7403404719     -1.87E+01
 Long-range K will be added via erf
 Coulomb attenuation parameter = 0.2 bohr**(-1)
 A restricted hybrid HF-DFT SCF calculation will be
 performed using Relaxed Constraint Minimization + Pulay DIIS
 Exchange:     0.2220 Hartree-Fock + 1.0000 wB97X-D + LR-HF
 Correlation:  1.0000 wB97X-D
 Using Euler-Maclaurin-Lebedev (75,302) quadrature formula
 Dispersion:   Grimme D
 SCF converges when DIIS error is below 1.0E-05
 Basis2 calculation detected. Using small basis as guess for larger.
 SCFMinFind is unable to tell whether the solution found is close.
 Resetting ReadMinima to 0 and attempting to follow guess.
 SCFMinFind following SCF Guess.
 using 6 threads for integral computing
 -------------------------------------------------------
 OpenMP Integral computing Module                
 Release: version 1.0, May 2013, Q-Chem Inc. Pittsburgh 
 -------------------------------------------------------
 using 6 threads for integral computing
 -------------------------------------------------------
 OpenMP Integral computing Module                
 Release: version 1.0, May 2013, Q-Chem Inc. Pittsburgh 
 -------------------------------------------------------
 ---------------------------------------
  Cycle       Energy         DIIS Error
 ---------------------------------------
    1    -155.0121143380      5.71E-03
    2    -155.0278159958      2.81E-03
    3    -155.0371768415      3.41E-04 Done RCA. Switching to DIIS
    4    -155.0483895521      2.43E-04
    5    -155.0485665772      3.86E-05
    6    -155.0485742088      5.64E-06 Convergence criterion met
 ---------------------------------------
 SCF time:  CPU 38.85 s  wall 6.50 s
 SCF   energy in the final basis set = -155.04857421
 Total energy in the final basis set = -155.04857421
 
 --------------------------------------------------------------
 
                    Orbital Energies (a.u.)
 --------------------------------------------------------------
 
 Alpha MOs
 -- Occupied --
-19.2468 -10.3305 -10.2768  -1.1299  -0.8430  -0.7232  -0.5951  -0.5431
 -0.5219  -0.4709  -0.4619  -0.4153  -0.3598
 -- Virtual --
  0.0648   0.0870   0.0880   0.1022   0.1270   0.1332   0.1364   0.1804
  0.1973   0.2189   0.2377   0.2435   0.2640   0.2806   0.2905   0.3076
  0.3108   0.3279   0.3389   0.3814   0.4547   0.4891   0.5075   0.5282
  0.5643   0.5729   0.5799   0.6101   0.6156   0.6226   0.6617   0.6725
  0.6872   0.7123   0.7373   0.8053   0.8441   0.8922   0.9457   0.9494
  0.9908   1.0502   1.0589   1.1113   1.1358   1.1731   1.1793   1.2029
  1.2231   1.2403   1.2724   1.2996   1.3128   1.3576   1.3839   1.4189
  1.4514   1.4632   1.4746   1.4812   1.4986   1.5403   1.6012   1.6240
  1.6511   1.6984   1.9387   2.0440   2.1183   2.2759   2.2875   2.4466
  2.4688   2.5089   2.5510   2.5802   2.7014   2.8137   2.8458   2.8640
  2.9195   2.9664   2.9809   3.0269   3.0331   3.0561   3.0694   3.0860
  3.1001   3.1646   3.2278   3.2575   3.2745   3.2875   3.3177   3.3566
  3.3754   3.3973   3.4020   3.4386   3.5059   3.5601   3.5677   3.5763
  3.6033   3.6241   3.6536   3.7105   3.7210   3.7472   3.7819   3.8566
  3.8759   3.9117   3.9466   3.9648   3.9675   4.0044   4.0255   4.0552
  4.0799   4.1113   4.1436   4.1598   4.2165   4.2446   4.2781   4.3181
  4.3350   4.3845   4.4153   4.4727   4.5427   4.6407   4.7117   4.7949
  4.8732   4.9204   4.9389   4.9721   4.9972   5.0731   5.1168   5.2025
  5.2226   5.2403   5.2710   5.3009   5.3311   5.3528   5.3931   5.4586
  5.5299   5.5900   5.6740   5.7645   5.9851   6.0178   6.3536   6.3869
  6.4002   6.6529   6.6721   6.8198   7.1255   7.3887   7.4197   7.5862
  7.6859   8.0958  25.1568  25.4036  50.4689
 --------------------------------------------------------------
 
 -----------------------------------------------------------------
                    Cartesian Multipole Moments
 -----------------------------------------------------------------
    Charge (ESU x 10^10)
                 0.0000
    Dipole Moment (Debye)
         X      -1.2429      Y      -0.3482      Z       1.2643
       Tot       1.8068
    Quadrupole Moments (Debye-Ang)
        XX     -11.9114     XY      -0.6967     YY     -18.7889
        XZ      -3.2636     YZ      -0.3795     ZZ     -19.9152
    Octopole Moments (Debye-Ang^2)
       XXX     215.4925    XXY      -4.3031    XYY      79.3110
       YYY     -36.5100    XXZ       7.7003    XYZ       1.5987
       YYZ      -0.4016    XZZ      84.4386    YZZ     -12.8458
       ZZZ       0.1872
    Hexadecapole Moments (Debye-Ang^3)
      XXXX   -2154.8764   XXXY     103.3836   XXYY    -379.7945
      XYYY     147.4245   YYYY    -105.1997   XXXZ      -9.9993
      XXYZ      -6.7803   XYYZ       3.2741   YYYZ      -4.0804
      XXZZ    -390.8343   XYZZ      52.7258   YYZZ     -22.9703
      XZZZ       6.2091   YZZZ      -1.3777   ZZZZ     -36.8907
 -----------------------------------------------------------------
Archival summary:
1\1\centos77-c7\SP\ProcedureUnspecified\BasisUnspecified\126\shihchen\MonJul2714:33:392020MonJul2714:33:392020\0\\#,ProcedureUnspecified,BasisUnspecified,\\0,1\C\H,1,1.09006\H,1,1.09683,2,106.94\O,1,1.41048,2,108.555,3,-117.771,0\H,4,0.957436,1,104.338,2,179.053,0\C,1,1.55215,2,110.114,3,120.006,0\H,6,1.09026,1,110.893,2,60.0006,0\H,6,1.0919,1,115.252,2,-175.734,0\H,6,1.09268,1,106.887,2,-56.3613,0\\\@

 Total job time:  10.85s(wall), 55.70s(cpu) 
 Mon Jul 27 14:33:39 2020

        *************************************************************
        *                                                           *
        *  Thank you very much for using Q-Chem.  Have a nice day.  *
        *                                                           *
        *************************************************************


