                  Welcome to Q-Chem
     A Quantum Leap Into The Future Of Chemistry


 Q-Chem 5.3 (devel), Q-Chem, Inc., Pleasanton, CA (2020)

 Yihan Shao,  Zhengting Gan,  E. Epifanovsky,  A. T. B. Gilbert,  M. Wormit,  
 J. Kussmann,  A. W. Lange,  A. Behn,  Jia Deng,  Xintian Feng,  D. Ghosh,  
 M. Goldey,  P. R. Horn,  L. D. Jacobson,  I. Kaliman,  T. Kus,  A. Landau,  
 Jie Liu,  E. I. Proynov,  R. M. Richard,  R. P. Steele,  E. J. Sundstrom,  
 H. L. Woodcock III,  P. M. Zimmerman,  D. Zuev,  B. Alam,  B. Albrecht,  
 E. Alguire,  S. A. Baeppler,  D. Barton,  Z. Benda,  Y. A. Bernard,  
 E. J. Berquist,  K. B. Bravaya,  H. Burton,  K. Carter-Fenk,  D. Casanova,  
 Chun-Min Chang,  Yunqing Chen,  A. Chien,  K. D. Closser,  M. P. Coons,  
 S. Coriani,  S. Dasgupta,  A. L. Dempwolff,  M. Diedenhofen,  Hainam Do,  
 R. G. Edgar,  Po-Tung Fang,  S. Faraji,  S. Fatehi,  Qingguo Feng,  
 J. Fosso-Tande,  J. Gayvert,  Qinghui Ge,  A. Ghysels,  G. Gidofalvi,  
 J. Gomes,  J. Gonthier,  A. Gunina,  D. Hait,  M. W. D. Hanson-Heine,  
 P. H. P. Harbach,  A. W. Hauser,  M. F. Herbst,  J. E. Herr,  
 E. G. Hohenstein,  Z. C. Holden,  Kerwin Hui,  B. C. Huynh,  T.-C. Jagau,  
 Hyunjun Ji,  B. Kaduk,  K. Khistyaev,  Jaehoon Kim,  P. Klunzinger,  K. Koh,  
 D. Kosenkov,  L. Koulias,  T. Kowalczyk,  C. M. Krauter,  A. Kunitsa,  
 Ka Un Lao,  A. Laurent,  K. V. Lawler,  Joonho Lee,  D. Lefrancois,  
 S. Lehtola,  D. S. Levine,  Yi-Pei Li,  You-Sheng Lin,  Fenglai Liu,  
 Kuan-Yu Liu,  E. Livshits,  M. Loipersberger,  A. Luenser,  P. Manohar,  
 E. Mansoor,  S. F. Manzer,  Shan-Ping Mao,  Yuezhi Mao,  N. Mardirossian,  
 A. V. Marenich,  T. Markovich,  L. A. Martinez-Martinez,  S. A. Maurer,  
 N. J. Mayhall,  S. C. McKenzie,  J.-M. Mewes,  P. Morgante,  A. F. Morrison,  
 J. W. Mullinax,  K. Nanda,  T. S. Nguyen-Beck,  R. Olivares-Amaya,  
 K. J. Oosterbaan,  J. A. Parkhill,  S. K. Paul,  F. Pavosevic,  Zheng Pei,  
 T. M. Perrine,  F. Plasser,  P. Pokhilko,  S. Prager,  A. Prociuk,  
 E. Ramos,  B. Rana,  D. R. Rehn,  F. Rob,  M. Scheurer,  M. Schneider,  
 N. Sergueev,  S. M. Sharada,  S. Sharma,  D. W. Small,  T. Stauch,  
 C. J. Stein,  T. Stein,  Yu-Chuan Su,  S. P. Veccham,  Zhen Tao,  
 A. J. W. Thom,  A. Tkatchenko,  T. Tsuchimochi,  N. M. Tubman,  L. Vogt,  
 M. L. Vidal,  O. Vydrov,  M. A. Watson,  J. Wenzel,  M. de Wergifosse,  
 T. A. Wesolowski,  A. White,  J. Witte,  A. Yamada,  Jun Yang,  K. Yao,  
 S. Yeganeh,  S. R. Yost,  Zhi-Qiang You,  A. Zech,  Igor Ying Zhang,  
 Xing Zhang,  Yan Zhao,  Ying Zhu,  B. R. Brooks,  G. K. L. Chan,  
 C. J. Cramer,  M. S. Gordon,  W. J. Hehre,  A. Klamt,  M. W. Schmidt,  
 C. D. Sherrill,  D. G. Truhlar,  A. Aspuru-Guzik,  R. Baer,  A. T. Bell,  
 N. A. Besley,  Jeng-Da Chai,  A. E. DePrince, III,  R. A. DiStasio Jr.,  
 A. Dreuw,  B. D. Dunietz,  T. R. Furlani,  Chao-Ping Hsu,  Yousung Jung,  
 Jing Kong,  D. S. Lambrecht,  WanZhen Liang,  C. Ochsenfeld,  
 V. A. Rassolov,  L. V. Slipchenko,  J. E. Subotnik,  T. Van Voorhis,  
 J. M. Herbert,  A. I. Krylov,  P. M. W. Gill,  M. Head-Gordon

 Contributors to earlier versions of Q-Chem not listed above: 
 R. D. Adamson,  B. Austin,  J. Baker,  G. J. O. Beran,  K. Brandhorst,  
 S. T. Brown,  E. F. C. Byrd,  A. K. Chakraborty,  C.-L. Cheng,  
 Siu Hung Chien,  D. M. Chipman,  D. L. Crittenden,  H. Dachsel,  
 R. J. Doerksen,  A. D. Dutoi,  L. Fusti-Molnar,  W. A. Goddard III,  
 A. Golubeva-Zadorozhnaya,  S. R. Gwaltney,  G. Hawkins,  A. Heyden,  
 S. Hirata,  G. Kedziora,  F. J. Keil,  C. Kelley,  Jihan Kim,  R. A. King,  
 R. Z. Khaliullin,  P. P. Korambath,  W. Kurlancheek,  A. M. Lee,  M. S. Lee,  
 S. V. Levchenko,  Ching Yeh Lin,  D. Liotard,  R. C. Lochan,  I. Lotan,  
 P. E. Maslen,  N. Nair,  D. P. O'Neill,  D. Neuhauser,  E. Neuscamman,  
 C. M. Oana,  R. Olson,  B. Peters,  R. Peverati,  P. A. Pieniazek,  
 Y. M. Rhee,  J. Ritchie,  M. A. Rohrdanz,  E. Rosta,  N. J. Russ,  
 H. F. Schaefer III,  N. E. Schultz,  N. Shenvi,  A. C. Simmonett,  A. Sodt,  
 D. Stuck,  K. S. Thanthiriwatte,  V. Vanovschi,  Tao Wang,  A. Warshel,  
 C. F. Williams,  Q. Wu,  X. Xu,  W. Zhang

 Please cite Q-Chem as follows:
 Y. Shao et al., Mol. Phys. 113, 184-215 (2015)
 DOI: 10.1080/00268976.2014.952696

 Q-Chem 5.3.0 for Intel X86 EM64T Linux

 Parts of Q-Chem use Armadillo 9.800.1 (Horizon Scraper).
 http://arma.sourceforge.net/

 Q-Chem begins on Mon Jul 27 14:58:19 2020  

Host: centos77-c7
0

     Scratch files written to /tmp/29924.centos77-h1/qchem112733//
Processing $rem in /opt/qchem-5.3.0-intel2020u1//config/preferences:
Processing $rem in /home/shihchengli/.qchemrc:

Checking the input file for inconsistencies... 	...done.

--------------------------------------------------------------
User input:
--------------------------------------------------------------
$rem
   JOBTYPE  sp
   EXCHANGE   omegaB97X-D
   BASIS   6-311+G(2df,2pd)
   UNRESTRICTED   False
   max_scf_cycles   250
   geom_opt_max_cycles   1500
   basis2 6-31G*
   scf_algorithm rca_diis
   SYM_IGNORE  TRUE
   print_input   true
   geom_opt_dmax   80
   pop_mulliken false
   XC_GRID 000075000302
$end

$molecule
0 1
C       -5.3692280775     0.3046921727     0.0103224709
C       -4.1325814526     1.1799099305     0.1099573469
H       -5.4733186368     -0.0622412741     -0.9141035875
H       -6.2972763482     0.9027994885     0.2737723893
H       -5.3098550973     -0.5547291288     0.7309313342
O       -2.9489295202     0.4923582228     -0.2490723453
H       -4.0385991044     1.6054678028     1.1314494564
H       -4.2053838318     1.9980128693     -0.5664971032
H       -2.8276379311     -0.2490500836     0.3435500383
$end
--------------------------------------------------------------
 ----------------------------------------------------------------
             Standard Nuclear Orientation (Angstroms)
    I     Atom           X                Y                Z
 ----------------------------------------------------------------
    1      C      -5.3692280775     0.3046921727     0.0103224709
    2      C      -4.1325814526     1.1799099305     0.1099573469
    3      H      -5.4733186368    -0.0622412741    -0.9141035875
    4      H      -6.2972763482     0.9027994885     0.2737723893
    5      H      -5.3098550973    -0.5547291288     0.7309313342
    6      O      -2.9489295202     0.4923582228    -0.2490723453
    7      H      -4.0385991044     1.6054678028     1.1314494564
    8      H      -4.2053838318     1.9980128693    -0.5664971032
    9      H      -2.8276379311    -0.2490500836     0.3435500383
 ----------------------------------------------------------------
 Nuclear Repulsion Energy =          82.04369542 hartrees
 There are       13 alpha and       13 beta electrons
 Requested basis set is 6-311+G(2df,2pd)
 There are 60 shells and 186 basis functions

 Total QAlloc Memory Limit   2000 MB
 Mega-Array Size       188 MB
 MEM_STATIC part       192 MB

                       Distance Matrix (Angstroms)
             C (  1)   C (  2)   H (  3)   H (  4)   H (  5)   O (  6)
   C (  2)  1.518298
   H (  3)  1.000019  2.095046
   H (  4)  1.135082  2.188499  1.738177
   H (  5)  1.123124  2.186448  1.724936  1.818897
   O (  6)  2.441383  1.415154  2.668780  3.413686  2.762385
   H (  7)  2.172445  1.110576  3.003991  2.516143  2.538298  2.081402
   H (  8)  2.134148  1.064041  2.444000  2.506304  3.069148  1.986563
   H (  9)  2.622471  1.949197  2.935339  3.656503  2.530792  0.956869
             H (  7)   H (  8)
   H (  8)  1.750695
   H (  9)  2.350840  2.788487
 
 A cutoff of  1.0D-09 yielded   1787 shell pairs
 There are     17311 function pairs (     21496 Cartesian)
 Smallest overlap matrix eigenvalue = 1.36E-04

 Scale SEOQF with 1.000000e-02/1.000000e-01/1.000000e-01

 Standard Electronic Orientation quadrupole field applied
 Nucleus-field energy     =     0.0000000027 hartrees
 Requested basis set is 6-31G(d)
 There are 24 shells and 54 basis functions
 A cutoff of  1.0D-09 yielded    298 shell pairs
 There are      1549 function pairs (      1732 Cartesian)
 Smallest overlap matrix eigenvalue = 7.15E-03
 Guess from superposition of atomic densities
 Warning:  Energy on first SCF cycle will be non-variational
 SAD guess density has 26.000000 electrons
 Long-range K will be added via erf
 Coulomb attenuation parameter = 0.2 bohr**(-1)
 A restricted hybrid HF-DFT SCF calculation will be
 performed using Relaxed Constraint Minimization + Pulay DIIS
 Exchange:     0.2220 Hartree-Fock + 1.0000 wB97X-D + LR-HF
 Correlation:  1.0000 wB97X-D
 Using Euler-Maclaurin-Lebedev (75,302) quadrature formula
 Dispersion:   Grimme D
 SCF converges when DIIS error is below 1.0E-04
 using 6 threads for integral computing
 -------------------------------------------------------
 OpenMP Integral computing Module                
 Release: version 1.0, May 2013, Q-Chem Inc. Pittsburgh 
 -------------------------------------------------------
 using 6 threads for integral computing
 -------------------------------------------------------
 OpenMP Integral computing Module                
 Release: version 1.0, May 2013, Q-Chem Inc. Pittsburgh 
 -------------------------------------------------------
 ---------------------------------------
  Cycle       Energy         DIIS Error
 ---------------------------------------
    1    -155.4460694293      1.07E-01
    2    -154.9171067812      1.36E-02
    3    -154.9460464210      3.07E-03
    4    -154.9726599853      2.46E-03
    5    -154.9734115994      2.29E-04 Done RCA. Switching to DIIS
    6    -154.9742548643      1.06E-04
    7    -154.9742582943      7.59E-06 Convergence criterion met
 ---------------------------------------
 SCF time:  CPU 14.29 s  wall 2.40 s
 SCF   energy in the small basis set = -154.97425829
 Total energy in the small basis set = -154.97425829
 ----------------------------------------------------
  Cycle       Energy    
 ----------------------------------------------------
    1     -18.7629709587     -1.88E+01
 Long-range K will be added via erf
 Coulomb attenuation parameter = 0.2 bohr**(-1)
 A restricted hybrid HF-DFT SCF calculation will be
 performed using Relaxed Constraint Minimization + Pulay DIIS
 Exchange:     0.2220 Hartree-Fock + 1.0000 wB97X-D + LR-HF
 Correlation:  1.0000 wB97X-D
 Using Euler-Maclaurin-Lebedev (75,302) quadrature formula
 Dispersion:   Grimme D
 SCF converges when DIIS error is below 1.0E-05
 Basis2 calculation detected. Using small basis as guess for larger.
 SCFMinFind is unable to tell whether the solution found is close.
 Resetting ReadMinima to 0 and attempting to follow guess.
 SCFMinFind following SCF Guess.
 using 6 threads for integral computing
 -------------------------------------------------------
 OpenMP Integral computing Module                
 Release: version 1.0, May 2013, Q-Chem Inc. Pittsburgh 
 -------------------------------------------------------
 using 6 threads for integral computing
 -------------------------------------------------------
 OpenMP Integral computing Module                
 Release: version 1.0, May 2013, Q-Chem Inc. Pittsburgh 
 -------------------------------------------------------
 ---------------------------------------
  Cycle       Energy         DIIS Error
 ---------------------------------------
    1    -155.0060347250      5.72E-03
    2    -155.0214608719      2.86E-03
    3    -155.0311353316      3.50E-04 Done RCA. Switching to DIIS
    4    -155.0427592645      2.54E-04
    5    -155.0429511886      3.93E-05
    6    -155.0429590137      5.76E-06 Convergence criterion met
 ---------------------------------------
 SCF time:  CPU 38.96 s  wall 6.52 s
 SCF   energy in the final basis set = -155.04295901
 Total energy in the final basis set = -155.04295901
 
 --------------------------------------------------------------
 
                    Orbital Energies (a.u.)
 --------------------------------------------------------------
 
 Alpha MOs
 -- Occupied --
-19.2463 -10.3261 -10.2725  -1.1263  -0.8514  -0.7259  -0.5978  -0.5452
 -0.5207  -0.4798  -0.4536  -0.4131  -0.3623
 -- Virtual --
  0.0650   0.0882   0.0889   0.1016   0.1267   0.1335   0.1372   0.1805
  0.1961   0.2153   0.2385   0.2463   0.2676   0.2889   0.2897   0.3059
  0.3174   0.3293   0.3427   0.3822   0.4551   0.4913   0.5014   0.5245
  0.5682   0.5702   0.5887   0.6086   0.6156   0.6327   0.6697   0.6812
  0.6909   0.7257   0.7383   0.8034   0.8477   0.9012   0.9302   0.9492
  0.9852   1.0526   1.0612   1.1052   1.1500   1.1771   1.1838   1.2157
  1.2243   1.2442   1.2793   1.3017   1.3239   1.3510   1.3761   1.4196
  1.4501   1.4641   1.4690   1.4829   1.5037   1.5452   1.6164   1.6253
  1.6641   1.7155   1.9425   2.0492   2.1130   2.2825   2.2826   2.4382
  2.4912   2.4975   2.5479   2.5863   2.7026   2.8327   2.8493   2.8941
  2.9162   2.9763   3.0053   3.0259   3.0407   3.0538   3.0725   3.0899
  3.0920   3.1745   3.2339   3.2639   3.2867   3.2960   3.3087   3.3351
  3.3587   3.4046   3.4155   3.4274   3.5088   3.5549   3.5668   3.5901
  3.6078   3.6230   3.6556   3.7121   3.7406   3.7547   3.7848   3.8405
  3.8789   3.9307   3.9531   3.9707   4.0015   4.0224   4.0362   4.0782
  4.1006   4.1092   4.1485   4.1822   4.2113   4.2409   4.3019   4.3184
  4.3489   4.4032   4.4829   4.4978   4.5420   4.6632   4.7178   4.8029
  4.8493   4.9023   4.9160   4.9921   5.0281   5.0644   5.1294   5.1947
  5.2290   5.2760   5.3058   5.3580   5.3947   5.4277   5.4943   5.5277
  5.5560   5.6353   5.6777   5.8259   5.9406   6.0261   6.2916   6.4036
  6.4924   6.6563   6.7143   6.8273   7.1271   7.3531   7.4238   7.5537
  7.7277   8.1115  25.1872  25.4227  50.4676
 --------------------------------------------------------------
 
 -----------------------------------------------------------------
                    Cartesian Multipole Moments
 -----------------------------------------------------------------
    Charge (ESU x 10^10)
                 0.0000
    Dipole Moment (Debye)
         X      -1.1683      Y      -0.4251      Z       1.1557
       Tot       1.6975
    Quadrupole Moments (Debye-Ang)
        XX     -12.1669     XY      -0.5907     YY     -18.9167
        XZ      -2.8055     YZ      -0.3526     ZZ     -19.9642
    Octopole Moments (Debye-Ang^2)
       XXX     215.6513    XXY      -3.8653    XYY      80.1224
       YYY     -37.0587    XXZ       5.7102    XYZ       1.3762
       YYZ      -0.3952    XZZ      84.7989    YZZ     -12.8257
       ZZZ       0.1403
    Hexadecapole Moments (Debye-Ang^3)
      XXXX   -2150.4949   XXXY      98.8016   XXYY    -384.2264
      XYYY     151.6059   YYYY    -104.8172   XXXZ      -0.8922
      XXYZ      -5.2487   XYYZ       3.2635   YYYZ      -3.8142
      XXZZ    -393.2872   XYZZ      53.0816   YYZZ     -22.5881
      XZZZ       6.4212   YZZZ      -1.3902   ZZZZ     -36.1871
 -----------------------------------------------------------------
Archival summary:
1\1\centos77-c7\SP\ProcedureUnspecified\BasisUnspecified\126\shihchen\MonJul2714:58:302020MonJul2714:58:302020\0\\#,ProcedureUnspecified,BasisUnspecified,\\0,1\C\H,1,1.06404\H,1,1.11058,2,107.213\O,1,1.41515,2,105.634,3,-117.763,0\H,4,0.956869,1,108.986,2,178.986,0\C,1,1.5183,2,110.228,3,120.321,0\H,6,1.00002,1,110.913,2,60.1616,0\H,6,1.12312,1,110.851,2,-179.198,0\H,6,1.13508,1,110.301,2,-60.4896,0\\\@

 Total job time:  11.08s(wall), 57.15s(cpu) 
 Mon Jul 27 14:58:30 2020

        *************************************************************
        *                                                           *
        *  Thank you very much for using Q-Chem.  Have a nice day.  *
        *                                                           *
        *************************************************************


