                  Welcome to Q-Chem
     A Quantum Leap Into The Future Of Chemistry


 Q-Chem 5.3 (devel), Q-Chem, Inc., Pleasanton, CA (2020)

 Yihan Shao,  Zhengting Gan,  E. Epifanovsky,  A. T. B. Gilbert,  M. Wormit,  
 J. Kussmann,  A. W. Lange,  A. Behn,  Jia Deng,  Xintian Feng,  D. Ghosh,  
 M. Goldey,  P. R. Horn,  L. D. Jacobson,  I. Kaliman,  T. Kus,  A. Landau,  
 Jie Liu,  E. I. Proynov,  R. M. Richard,  R. P. Steele,  E. J. Sundstrom,  
 H. L. Woodcock III,  P. M. Zimmerman,  D. Zuev,  B. Alam,  B. Albrecht,  
 E. Alguire,  S. A. Baeppler,  D. Barton,  Z. Benda,  Y. A. Bernard,  
 E. J. Berquist,  K. B. Bravaya,  H. Burton,  K. Carter-Fenk,  D. Casanova,  
 Chun-Min Chang,  Yunqing Chen,  A. Chien,  K. D. Closser,  M. P. Coons,  
 S. Coriani,  S. Dasgupta,  A. L. Dempwolff,  M. Diedenhofen,  Hainam Do,  
 R. G. Edgar,  Po-Tung Fang,  S. Faraji,  S. Fatehi,  Qingguo Feng,  
 J. Fosso-Tande,  J. Gayvert,  Qinghui Ge,  A. Ghysels,  G. Gidofalvi,  
 J. Gomes,  J. Gonthier,  A. Gunina,  D. Hait,  M. W. D. Hanson-Heine,  
 P. H. P. Harbach,  A. W. Hauser,  M. F. Herbst,  J. E. Herr,  
 E. G. Hohenstein,  Z. C. Holden,  Kerwin Hui,  B. C. Huynh,  T.-C. Jagau,  
 Hyunjun Ji,  B. Kaduk,  K. Khistyaev,  Jaehoon Kim,  P. Klunzinger,  K. Koh,  
 D. Kosenkov,  L. Koulias,  T. Kowalczyk,  C. M. Krauter,  A. Kunitsa,  
 Ka Un Lao,  A. Laurent,  K. V. Lawler,  Joonho Lee,  D. Lefrancois,  
 S. Lehtola,  D. S. Levine,  Yi-Pei Li,  You-Sheng Lin,  Fenglai Liu,  
 Kuan-Yu Liu,  E. Livshits,  M. Loipersberger,  A. Luenser,  P. Manohar,  
 E. Mansoor,  S. F. Manzer,  Shan-Ping Mao,  Yuezhi Mao,  N. Mardirossian,  
 A. V. Marenich,  T. Markovich,  L. A. Martinez-Martinez,  S. A. Maurer,  
 N. J. Mayhall,  S. C. McKenzie,  J.-M. Mewes,  P. Morgante,  A. F. Morrison,  
 J. W. Mullinax,  K. Nanda,  T. S. Nguyen-Beck,  R. Olivares-Amaya,  
 K. J. Oosterbaan,  J. A. Parkhill,  S. K. Paul,  F. Pavosevic,  Zheng Pei,  
 T. M. Perrine,  F. Plasser,  P. Pokhilko,  S. Prager,  A. Prociuk,  
 E. Ramos,  B. Rana,  D. R. Rehn,  F. Rob,  M. Scheurer,  M. Schneider,  
 N. Sergueev,  S. M. Sharada,  S. Sharma,  D. W. Small,  T. Stauch,  
 C. J. Stein,  T. Stein,  Yu-Chuan Su,  S. P. Veccham,  Zhen Tao,  
 A. J. W. Thom,  A. Tkatchenko,  T. Tsuchimochi,  N. M. Tubman,  L. Vogt,  
 M. L. Vidal,  O. Vydrov,  M. A. Watson,  J. Wenzel,  M. de Wergifosse,  
 T. A. Wesolowski,  A. White,  J. Witte,  A. Yamada,  Jun Yang,  K. Yao,  
 S. Yeganeh,  S. R. Yost,  Zhi-Qiang You,  A. Zech,  Igor Ying Zhang,  
 Xing Zhang,  Yan Zhao,  Ying Zhu,  B. R. Brooks,  G. K. L. Chan,  
 C. J. Cramer,  M. S. Gordon,  W. J. Hehre,  A. Klamt,  M. W. Schmidt,  
 C. D. Sherrill,  D. G. Truhlar,  A. Aspuru-Guzik,  R. Baer,  A. T. Bell,  
 N. A. Besley,  Jeng-Da Chai,  A. E. DePrince, III,  R. A. DiStasio Jr.,  
 A. Dreuw,  B. D. Dunietz,  T. R. Furlani,  Chao-Ping Hsu,  Yousung Jung,  
 Jing Kong,  D. S. Lambrecht,  WanZhen Liang,  C. Ochsenfeld,  
 V. A. Rassolov,  L. V. Slipchenko,  J. E. Subotnik,  T. Van Voorhis,  
 J. M. Herbert,  A. I. Krylov,  P. M. W. Gill,  M. Head-Gordon

 Contributors to earlier versions of Q-Chem not listed above: 
 R. D. Adamson,  B. Austin,  J. Baker,  G. J. O. Beran,  K. Brandhorst,  
 S. T. Brown,  E. F. C. Byrd,  A. K. Chakraborty,  C.-L. Cheng,  
 Siu Hung Chien,  D. M. Chipman,  D. L. Crittenden,  H. Dachsel,  
 R. J. Doerksen,  A. D. Dutoi,  L. Fusti-Molnar,  W. A. Goddard III,  
 A. Golubeva-Zadorozhnaya,  S. R. Gwaltney,  G. Hawkins,  A. Heyden,  
 S. Hirata,  G. Kedziora,  F. J. Keil,  C. Kelley,  Jihan Kim,  R. A. King,  
 R. Z. Khaliullin,  P. P. Korambath,  W. Kurlancheek,  A. M. Lee,  M. S. Lee,  
 S. V. Levchenko,  Ching Yeh Lin,  D. Liotard,  R. C. Lochan,  I. Lotan,  
 P. E. Maslen,  N. Nair,  D. P. O'Neill,  D. Neuhauser,  E. Neuscamman,  
 C. M. Oana,  R. Olson,  B. Peters,  R. Peverati,  P. A. Pieniazek,  
 Y. M. Rhee,  J. Ritchie,  M. A. Rohrdanz,  E. Rosta,  N. J. Russ,  
 H. F. Schaefer III,  N. E. Schultz,  N. Shenvi,  A. C. Simmonett,  A. Sodt,  
 D. Stuck,  K. S. Thanthiriwatte,  V. Vanovschi,  Tao Wang,  A. Warshel,  
 C. F. Williams,  Q. Wu,  X. Xu,  W. Zhang

 Please cite Q-Chem as follows:
 Y. Shao et al., Mol. Phys. 113, 184-215 (2015)
 DOI: 10.1080/00268976.2014.952696

 Q-Chem 5.3.0 for Intel X86 EM64T Linux

 Parts of Q-Chem use Armadillo 9.800.1 (Horizon Scraper).
 http://arma.sourceforge.net/

 Q-Chem begins on Mon Jul 27 14:27:13 2020  

Host: centos77-c7
0

     Scratch files written to /tmp/29924.centos77-h1/qchem105092//
Processing $rem in /opt/qchem-5.3.0-intel2020u1//config/preferences:
Processing $rem in /home/shihchengli/.qchemrc:

Checking the input file for inconsistencies... 	...done.

--------------------------------------------------------------
User input:
--------------------------------------------------------------
$rem
   JOBTYPE  sp
   EXCHANGE   omegaB97X-D
   BASIS   6-311+G(2df,2pd)
   UNRESTRICTED   False
   max_scf_cycles   250
   geom_opt_max_cycles   1500
   basis2 6-31G*
   scf_algorithm rca_diis
   SYM_IGNORE  TRUE
   print_input   true
   geom_opt_dmax   80
   pop_mulliken false
   XC_GRID 000075000302
$end

$molecule
0 1
C       -5.3027488986     0.3574994643     0.0553290588
C       -4.1600015126     1.2943004054     0.1676269306
H       -5.2082447035     -0.0249935907     -0.9604840962
H       -6.3303831550     0.6514220493     0.2555758712
H       -5.0407869141     -0.4806717209     0.7081372582
O       -3.2638957601     0.3216239640     -0.3017353526
H       -3.8805056247     1.7429097275     1.1269792002
H       -4.2000829209     2.1077075158     -0.5563203775
H       -3.2161605104     -0.3525778147     0.3752015073
$end
--------------------------------------------------------------
 ----------------------------------------------------------------
             Standard Nuclear Orientation (Angstroms)
    I     Atom           X                Y                Z
 ----------------------------------------------------------------
    1      C      -5.3027488986     0.3574994643     0.0553290588
    2      C      -4.1600015126     1.2943004054     0.1676269306
    3      H      -5.2082447035    -0.0249935907    -0.9604840962
    4      H      -6.3303831550     0.6514220493     0.2555758712
    5      H      -5.0407869141    -0.4806717209     0.7081372582
    6      O      -3.2638957601     0.3216239640    -0.3017353526
    7      H      -3.8805056247     1.7429097275     1.1269792002
    8      H      -4.2000829209     2.1077075158    -0.5563203775
    9      H      -3.2161605104    -0.3525778147     0.3752015073
 ----------------------------------------------------------------
 Nuclear Repulsion Energy =          85.52526800 hartrees
 There are       13 alpha and       13 beta electrons
 Requested basis set is 6-311+G(2df,2pd)
 There are 60 shells and 186 basis functions

 Total QAlloc Memory Limit   2000 MB
 Mega-Array Size       188 MB
 MEM_STATIC part       192 MB

                       Distance Matrix (Angstroms)
             C (  1)   C (  2)   H (  3)   H (  4)   H (  5)   O (  6)
   C (  2)  1.481917
   H (  3)  1.089545  2.027803
   H (  4)  1.087438  2.265300  1.787606
   H (  5)  1.094218  2.053889  1.737810  1.774685
   O (  6)  2.070194  1.403355  2.081967  3.134120  2.195646
   H (  7)  2.256229  1.095320  3.040703  2.820034  2.542832  2.107483
   H (  8)  2.157131  1.089650  2.393356  2.705203  3.000890  2.032573
   H (  9)  2.227191  1.909484  2.420696  3.274249  1.859171  0.956593
             H (  7)   H (  8)
   H (  8)  1.751772
   H (  9)  2.323272  2.808708
 
 A cutoff of  1.0D-09 yielded   1808 shell pairs
 There are     17493 function pairs (     21724 Cartesian)
 Smallest overlap matrix eigenvalue = 1.18E-04

 Scale SEOQF with 1.000000e-02/1.000000e-01/1.000000e-01

 Standard Electronic Orientation quadrupole field applied
 Nucleus-field energy     =     0.0000000027 hartrees
 Requested basis set is 6-31G(d)
 There are 24 shells and 54 basis functions
 A cutoff of  1.0D-09 yielded    298 shell pairs
 There are      1549 function pairs (      1732 Cartesian)
 Smallest overlap matrix eigenvalue = 6.92E-03
 Guess from superposition of atomic densities
 Warning:  Energy on first SCF cycle will be non-variational
 SAD guess density has 26.000000 electrons
 Long-range K will be added via erf
 Coulomb attenuation parameter = 0.2 bohr**(-1)
 A restricted hybrid HF-DFT SCF calculation will be
 performed using Relaxed Constraint Minimization + Pulay DIIS
 Exchange:     0.2220 Hartree-Fock + 1.0000 wB97X-D + LR-HF
 Correlation:  1.0000 wB97X-D
 Using Euler-Maclaurin-Lebedev (75,302) quadrature formula
 Dispersion:   Grimme D
 SCF converges when DIIS error is below 1.0E-04
 using 6 threads for integral computing
 -------------------------------------------------------
 OpenMP Integral computing Module                
 Release: version 1.0, May 2013, Q-Chem Inc. Pittsburgh 
 -------------------------------------------------------
 using 6 threads for integral computing
 -------------------------------------------------------
 OpenMP Integral computing Module                
 Release: version 1.0, May 2013, Q-Chem Inc. Pittsburgh 
 -------------------------------------------------------
 ---------------------------------------
  Cycle       Energy         DIIS Error
 ---------------------------------------
    1    -155.5933721196      1.12E-01
    2    -154.8895562560      1.39E-02
    3    -154.9191590475      2.99E-03
    4    -154.9476159332      2.20E-03
    5    -154.9482257701      2.33E-04 Done RCA. Switching to DIIS
    6    -154.9489074335      7.81E-05 Convergence criterion met
 ---------------------------------------
 SCF time:  CPU 13.14 s  wall 2.20 s
 SCF   energy in the small basis set = -154.94890743
 Total energy in the small basis set = -154.94890743
 ----------------------------------------------------
  Cycle       Energy    
 ----------------------------------------------------
    1     -18.7960520312     -1.88E+01
 Long-range K will be added via erf
 Coulomb attenuation parameter = 0.2 bohr**(-1)
 A restricted hybrid HF-DFT SCF calculation will be
 performed using Relaxed Constraint Minimization + Pulay DIIS
 Exchange:     0.2220 Hartree-Fock + 1.0000 wB97X-D + LR-HF
 Correlation:  1.0000 wB97X-D
 Using Euler-Maclaurin-Lebedev (75,302) quadrature formula
 Dispersion:   Grimme D
 SCF converges when DIIS error is below 1.0E-05
 Basis2 calculation detected. Using small basis as guess for larger.
 SCFMinFind is unable to tell whether the solution found is close.
 Resetting ReadMinima to 0 and attempting to follow guess.
 SCFMinFind following SCF Guess.
 using 6 threads for integral computing
 -------------------------------------------------------
 OpenMP Integral computing Module                
 Release: version 1.0, May 2013, Q-Chem Inc. Pittsburgh 
 -------------------------------------------------------
 using 6 threads for integral computing
 -------------------------------------------------------
 OpenMP Integral computing Module                
 Release: version 1.0, May 2013, Q-Chem Inc. Pittsburgh 
 -------------------------------------------------------
 ---------------------------------------
  Cycle       Energy         DIIS Error
 ---------------------------------------
    1    -154.9810286241      5.71E-03
    2    -154.9963934988      2.82E-03
    3    -155.0058399074      3.41E-04 Done RCA. Switching to DIIS
    4    -155.0171977779      2.48E-04
    5    -155.0173830323      4.06E-05
    6    -155.0173913200      6.42E-06 Convergence criterion met
 ---------------------------------------
 SCF time:  CPU 41.02 s  wall 6.86 s
 SCF   energy in the final basis set = -155.01739132
 Total energy in the final basis set = -155.01739132
 
 --------------------------------------------------------------
 
                    Orbital Energies (a.u.)
 --------------------------------------------------------------
 
 Alpha MOs
 -- Occupied --
-19.2397 -10.3256 -10.2680  -1.1416  -0.8432  -0.7279  -0.6094  -0.5555
 -0.5229  -0.4632  -0.4467  -0.4165  -0.3519
 -- Virtual --
  0.0675   0.0853   0.0881   0.1012   0.1255   0.1331   0.1341   0.1811
  0.1965   0.2141   0.2453   0.2546   0.2697   0.2780   0.3016   0.3082
  0.3198   0.3322   0.3471   0.3926   0.4580   0.4963   0.5044   0.5434
  0.5564   0.5831   0.5901   0.6030   0.6244   0.6409   0.6629   0.6909
  0.7077   0.7215   0.7688   0.8189   0.8736   0.9077   0.9341   0.9854
  1.0167   1.0396   1.0619   1.1433   1.1470   1.1713   1.1913   1.2102
  1.2323   1.2743   1.2962   1.3002   1.3510   1.3661   1.3918   1.4123
  1.4379   1.4595   1.5004   1.5028   1.5190   1.5374   1.6028   1.6288
  1.6766   1.8579   1.9726   2.0854   2.1417   2.2817   2.3104   2.4575
  2.5056   2.5593   2.6089   2.6433   2.7074   2.8306   2.8383   2.8773
  2.9320   2.9771   2.9876   3.0050   3.0371   3.0602   3.0946   3.1283
  3.1468   3.1968   3.2480   3.2639   3.2891   3.3265   3.3484   3.3787
  3.3866   3.4040   3.4639   3.4814   3.5193   3.5284   3.5667   3.5777
  3.6224   3.6246   3.6712   3.7033   3.7366   3.7834   3.8453   3.8688
  3.9067   3.9410   3.9610   4.0066   4.0147   4.0710   4.0840   4.0952
  4.1187   4.1637   4.1937   4.2159   4.2463   4.3011   4.3366   4.3902
  4.4240   4.4694   4.5294   4.5461   4.5736   4.6677   4.7454   4.7854
  4.8737   4.9317   4.9710   4.9815   5.0546   5.1437   5.1634   5.2103
  5.2299   5.2743   5.2904   5.3646   5.3836   5.4165   5.4797   5.5289
  5.6924   5.7326   5.7805   5.9243   5.9934   6.1200   6.4026   6.4334
  6.4653   6.6721   6.7219   6.8494   7.1935   7.3917   7.4852   7.6211
  7.7332   8.1898  25.1955  25.4726  50.5420
 --------------------------------------------------------------
 
 -----------------------------------------------------------------
                    Cartesian Multipole Moments
 -----------------------------------------------------------------
    Charge (ESU x 10^10)
                -0.0000
    Dipole Moment (Debye)
         X      -0.7697      Y      -0.0151      Z       1.3197
       Tot       1.5278
    Quadrupole Moments (Debye-Ang)
        XX     -15.8412     XY      -1.1118     YY     -18.0378
        XZ      -3.6272     YZ      -0.3098     ZZ     -19.8547
    Octopole Moments (Debye-Ang^2)
       XXX     245.2600    XXY      -5.2184    XYY      79.2979
       YYY     -35.3442    XXZ       8.9011    XYZ       1.4239
       YYZ      -0.1785    XZZ      86.1899    YZZ     -12.4074
       ZZZ      -0.2713
    Hexadecapole Moments (Debye-Ang^3)
      XXXX   -2341.9634   XXXY     123.3220   XXYY    -388.0313
      XYYY     150.7942   YYYY    -108.0805   XXXZ     -11.8099
      XXYZ      -7.1965   XYYZ       2.9411   YYYZ      -4.7935
      XXZZ    -401.7561   XYZZ      53.2315   YYZZ     -23.3644
      XZZZ       7.7401   YZZZ      -3.0837   ZZZZ     -37.6285
 -----------------------------------------------------------------
Archival summary:
1\1\centos77-c7\SP\ProcedureUnspecified\BasisUnspecified\126\shihchen\MonJul2714:27:252020MonJul2714:27:252020\0\\#,ProcedureUnspecified,BasisUnspecified,\\0,1\O\H,1,0.956593\C,1,1.40336,2,106.48\H,3,1.08965,1,108.583,2,177.034,0\H,3,1.09532,1,114.449,2,58.1002,0\C,3,1.48192,1,91.6563,2,-67.8344,0\H,6,1.08744,3,122.95,1,-175.884,0\H,6,1.08955,3,103.043,1,-50.6793,0\H,6,1.09422,3,104.739,1,59.4329,0\\\@

 Total job time:  11.28s(wall), 58.02s(cpu) 
 Mon Jul 27 14:27:25 2020

        *************************************************************
        *                                                           *
        *  Thank you very much for using Q-Chem.  Have a nice day.  *
        *                                                           *
        *************************************************************


