                  Welcome to Q-Chem
     A Quantum Leap Into The Future Of Chemistry


 Q-Chem 5.3 (devel), Q-Chem, Inc., Pleasanton, CA (2020)

 Yihan Shao,  Zhengting Gan,  E. Epifanovsky,  A. T. B. Gilbert,  M. Wormit,  
 J. Kussmann,  A. W. Lange,  A. Behn,  Jia Deng,  Xintian Feng,  D. Ghosh,  
 M. Goldey,  P. R. Horn,  L. D. Jacobson,  I. Kaliman,  T. Kus,  A. Landau,  
 Jie Liu,  E. I. Proynov,  R. M. Richard,  R. P. Steele,  E. J. Sundstrom,  
 H. L. Woodcock III,  P. M. Zimmerman,  D. Zuev,  B. Alam,  B. Albrecht,  
 E. Alguire,  S. A. Baeppler,  D. Barton,  Z. Benda,  Y. A. Bernard,  
 E. J. Berquist,  K. B. Bravaya,  H. Burton,  K. Carter-Fenk,  D. Casanova,  
 Chun-Min Chang,  Yunqing Chen,  A. Chien,  K. D. Closser,  M. P. Coons,  
 S. Coriani,  S. Dasgupta,  A. L. Dempwolff,  M. Diedenhofen,  Hainam Do,  
 R. G. Edgar,  Po-Tung Fang,  S. Faraji,  S. Fatehi,  Qingguo Feng,  
 J. Fosso-Tande,  J. Gayvert,  Qinghui Ge,  A. Ghysels,  G. Gidofalvi,  
 J. Gomes,  J. Gonthier,  A. Gunina,  D. Hait,  M. W. D. Hanson-Heine,  
 P. H. P. Harbach,  A. W. Hauser,  M. F. Herbst,  J. E. Herr,  
 E. G. Hohenstein,  Z. C. Holden,  Kerwin Hui,  B. C. Huynh,  T.-C. Jagau,  
 Hyunjun Ji,  B. Kaduk,  K. Khistyaev,  Jaehoon Kim,  P. Klunzinger,  K. Koh,  
 D. Kosenkov,  L. Koulias,  T. Kowalczyk,  C. M. Krauter,  A. Kunitsa,  
 Ka Un Lao,  A. Laurent,  K. V. Lawler,  Joonho Lee,  D. Lefrancois,  
 S. Lehtola,  D. S. Levine,  Yi-Pei Li,  You-Sheng Lin,  Fenglai Liu,  
 Kuan-Yu Liu,  E. Livshits,  M. Loipersberger,  A. Luenser,  P. Manohar,  
 E. Mansoor,  S. F. Manzer,  Shan-Ping Mao,  Yuezhi Mao,  N. Mardirossian,  
 A. V. Marenich,  T. Markovich,  L. A. Martinez-Martinez,  S. A. Maurer,  
 N. J. Mayhall,  S. C. McKenzie,  J.-M. Mewes,  P. Morgante,  A. F. Morrison,  
 J. W. Mullinax,  K. Nanda,  T. S. Nguyen-Beck,  R. Olivares-Amaya,  
 K. J. Oosterbaan,  J. A. Parkhill,  S. K. Paul,  F. Pavosevic,  Zheng Pei,  
 T. M. Perrine,  F. Plasser,  P. Pokhilko,  S. Prager,  A. Prociuk,  
 E. Ramos,  B. Rana,  D. R. Rehn,  F. Rob,  M. Scheurer,  M. Schneider,  
 N. Sergueev,  S. M. Sharada,  S. Sharma,  D. W. Small,  T. Stauch,  
 C. J. Stein,  T. Stein,  Yu-Chuan Su,  S. P. Veccham,  Zhen Tao,  
 A. J. W. Thom,  A. Tkatchenko,  T. Tsuchimochi,  N. M. Tubman,  L. Vogt,  
 M. L. Vidal,  O. Vydrov,  M. A. Watson,  J. Wenzel,  M. de Wergifosse,  
 T. A. Wesolowski,  A. White,  J. Witte,  A. Yamada,  Jun Yang,  K. Yao,  
 S. Yeganeh,  S. R. Yost,  Zhi-Qiang You,  A. Zech,  Igor Ying Zhang,  
 Xing Zhang,  Yan Zhao,  Ying Zhu,  B. R. Brooks,  G. K. L. Chan,  
 C. J. Cramer,  M. S. Gordon,  W. J. Hehre,  A. Klamt,  M. W. Schmidt,  
 C. D. Sherrill,  D. G. Truhlar,  A. Aspuru-Guzik,  R. Baer,  A. T. Bell,  
 N. A. Besley,  Jeng-Da Chai,  A. E. DePrince, III,  R. A. DiStasio Jr.,  
 A. Dreuw,  B. D. Dunietz,  T. R. Furlani,  Chao-Ping Hsu,  Yousung Jung,  
 Jing Kong,  D. S. Lambrecht,  WanZhen Liang,  C. Ochsenfeld,  
 V. A. Rassolov,  L. V. Slipchenko,  J. E. Subotnik,  T. Van Voorhis,  
 J. M. Herbert,  A. I. Krylov,  P. M. W. Gill,  M. Head-Gordon

 Contributors to earlier versions of Q-Chem not listed above: 
 R. D. Adamson,  B. Austin,  J. Baker,  G. J. O. Beran,  K. Brandhorst,  
 S. T. Brown,  E. F. C. Byrd,  A. K. Chakraborty,  C.-L. Cheng,  
 Siu Hung Chien,  D. M. Chipman,  D. L. Crittenden,  H. Dachsel,  
 R. J. Doerksen,  A. D. Dutoi,  L. Fusti-Molnar,  W. A. Goddard III,  
 A. Golubeva-Zadorozhnaya,  S. R. Gwaltney,  G. Hawkins,  A. Heyden,  
 S. Hirata,  G. Kedziora,  F. J. Keil,  C. Kelley,  Jihan Kim,  R. A. King,  
 R. Z. Khaliullin,  P. P. Korambath,  W. Kurlancheek,  A. M. Lee,  M. S. Lee,  
 S. V. Levchenko,  Ching Yeh Lin,  D. Liotard,  R. C. Lochan,  I. Lotan,  
 P. E. Maslen,  N. Nair,  D. P. O'Neill,  D. Neuhauser,  E. Neuscamman,  
 C. M. Oana,  R. Olson,  B. Peters,  R. Peverati,  P. A. Pieniazek,  
 Y. M. Rhee,  J. Ritchie,  M. A. Rohrdanz,  E. Rosta,  N. J. Russ,  
 H. F. Schaefer III,  N. E. Schultz,  N. Shenvi,  A. C. Simmonett,  A. Sodt,  
 D. Stuck,  K. S. Thanthiriwatte,  V. Vanovschi,  Tao Wang,  A. Warshel,  
 C. F. Williams,  Q. Wu,  X. Xu,  W. Zhang

 Please cite Q-Chem as follows:
 Y. Shao et al., Mol. Phys. 113, 184-215 (2015)
 DOI: 10.1080/00268976.2014.952696

 Q-Chem 5.3.0 for Intel X86 EM64T Linux

 Parts of Q-Chem use Armadillo 9.800.1 (Horizon Scraper).
 http://arma.sourceforge.net/

 Q-Chem begins on Mon Jul 27 14:28:11 2020  

Host: centos77-c7
0

     Scratch files written to /tmp/29924.centos77-h1/qchem105337//
Processing $rem in /opt/qchem-5.3.0-intel2020u1//config/preferences:
Processing $rem in /home/shihchengli/.qchemrc:

Checking the input file for inconsistencies... 	...done.

--------------------------------------------------------------
User input:
--------------------------------------------------------------
$rem
   JOBTYPE  sp
   EXCHANGE   omegaB97X-D
   BASIS   6-311+G(2df,2pd)
   UNRESTRICTED   False
   max_scf_cycles   250
   geom_opt_max_cycles   1500
   basis2 6-31G*
   scf_algorithm rca_diis
   SYM_IGNORE  TRUE
   print_input   true
   geom_opt_dmax   80
   pop_mulliken false
   XC_GRID 000075000302
$end

$molecule
0 1
C       -5.3626653372     0.3228218913     -0.0598736907
C       -4.1364994470     1.2143260230     0.0482616770
H       -5.5998271945     -0.2809724523     -0.9323529693
H       -6.2461311761     0.8672237028     0.2774773260
H       -5.1263147978     -0.3354811591     0.7834302728
O       -2.9351578704     0.5108796958     -0.2145545383
H       -4.1398275468     1.4353066722     1.1247471304
H       -4.1006436870     2.1635551828     -0.4807349641
H       -2.9557429431     -0.2804395565     0.3239097563
$end
--------------------------------------------------------------
 ----------------------------------------------------------------
             Standard Nuclear Orientation (Angstroms)
    I     Atom           X                Y                Z
 ----------------------------------------------------------------
    1      C      -5.3626653372     0.3228218913    -0.0598736907
    2      C      -4.1364994470     1.2143260230     0.0482616770
    3      H      -5.5998271945    -0.2809724523    -0.9323529693
    4      H      -6.2461311761     0.8672237028     0.2774773260
    5      H      -5.1263147978    -0.3354811591     0.7834302728
    6      O      -2.9351578704     0.5108796958    -0.2145545383
    7      H      -4.1398275468     1.4353066722     1.1247471304
    8      H      -4.1006436870     2.1635551828    -0.4807349641
    9      H      -2.9557429431    -0.2804395565     0.3239097563
 ----------------------------------------------------------------
 Nuclear Repulsion Energy =          82.13164114 hartrees
 There are       13 alpha and       13 beta electrons
 Requested basis set is 6-311+G(2df,2pd)
 There are 60 shells and 186 basis functions

 Total QAlloc Memory Limit   2000 MB
 Mega-Array Size       188 MB
 MEM_STATIC part       192 MB

                       Distance Matrix (Angstroms)
             C (  1)   C (  2)   H (  3)   H (  4)   H (  5)   O (  6)
   C (  2)  1.519854
   H (  3)  1.087214  2.310595
   H (  4)  1.091188  2.150248  1.788785
   H (  5)  1.095621  1.980432  1.780758  1.719441
   O (  6)  2.439689  1.416732  2.871015  3.366247  2.552150
   H (  7)  2.033785  1.098938  3.051045  2.340320  2.055564  2.024728
   H (  8)  2.271150  1.087271  2.902968  2.618870  2.982499  2.039742
   H (  9)  2.510874  1.924706  2.927350  3.485103  2.219363  0.957368
             H (  7)   H (  8)
   H (  8)  1.763364
   H (  9)  2.233200  2.816267
 
 A cutoff of  1.0D-09 yielded   1789 shell pairs
 There are     17352 function pairs (     21550 Cartesian)
 Smallest overlap matrix eigenvalue = 1.49E-04

 Scale SEOQF with 1.000000e-02/1.000000e-01/1.000000e-01

 Standard Electronic Orientation quadrupole field applied
 Nucleus-field energy     =     0.0000000027 hartrees
 Requested basis set is 6-31G(d)
 There are 24 shells and 54 basis functions
 A cutoff of  1.0D-09 yielded    298 shell pairs
 There are      1549 function pairs (      1732 Cartesian)
 Smallest overlap matrix eigenvalue = 7.04E-03
 Guess from superposition of atomic densities
 Warning:  Energy on first SCF cycle will be non-variational
 SAD guess density has 26.000000 electrons
 Long-range K will be added via erf
 Coulomb attenuation parameter = 0.2 bohr**(-1)
 A restricted hybrid HF-DFT SCF calculation will be
 performed using Relaxed Constraint Minimization + Pulay DIIS
 Exchange:     0.2220 Hartree-Fock + 1.0000 wB97X-D + LR-HF
 Correlation:  1.0000 wB97X-D
 Using Euler-Maclaurin-Lebedev (75,302) quadrature formula
 Dispersion:   Grimme D
 SCF converges when DIIS error is below 1.0E-04
 using 6 threads for integral computing
 -------------------------------------------------------
 OpenMP Integral computing Module                
 Release: version 1.0, May 2013, Q-Chem Inc. Pittsburgh 
 -------------------------------------------------------
 using 6 threads for integral computing
 -------------------------------------------------------
 OpenMP Integral computing Module                
 Release: version 1.0, May 2013, Q-Chem Inc. Pittsburgh 
 -------------------------------------------------------
 ---------------------------------------
  Cycle       Energy         DIIS Error
 ---------------------------------------
    1    -155.4548010408      1.06E-01
    2    -154.9118506235      1.36E-02
    3    -154.9403813695      3.06E-03
    4    -154.9669277832      2.40E-03
    5    -154.9676519979      2.31E-04 Done RCA. Switching to DIIS
    6    -154.9684658498      1.00E-04
    7    -154.9684690924      7.59E-06 Convergence criterion met
 ---------------------------------------
 SCF time:  CPU 14.27 s  wall 2.39 s
 SCF   energy in the small basis set = -154.96846909
 Total energy in the small basis set = -154.96846909
 ----------------------------------------------------
  Cycle       Energy    
 ----------------------------------------------------
    1     -18.7522643383     -1.88E+01
 Long-range K will be added via erf
 Coulomb attenuation parameter = 0.2 bohr**(-1)
 A restricted hybrid HF-DFT SCF calculation will be
 performed using Relaxed Constraint Minimization + Pulay DIIS
 Exchange:     0.2220 Hartree-Fock + 1.0000 wB97X-D + LR-HF
 Correlation:  1.0000 wB97X-D
 Using Euler-Maclaurin-Lebedev (75,302) quadrature formula
 Dispersion:   Grimme D
 SCF converges when DIIS error is below 1.0E-05
 Basis2 calculation detected. Using small basis as guess for larger.
 SCFMinFind is unable to tell whether the solution found is close.
 Resetting ReadMinima to 0 and attempting to follow guess.
 SCFMinFind following SCF Guess.
 using 6 threads for integral computing
 -------------------------------------------------------
 OpenMP Integral computing Module                
 Release: version 1.0, May 2013, Q-Chem Inc. Pittsburgh 
 -------------------------------------------------------
 using 6 threads for integral computing
 -------------------------------------------------------
 OpenMP Integral computing Module                
 Release: version 1.0, May 2013, Q-Chem Inc. Pittsburgh 
 -------------------------------------------------------
 ---------------------------------------
  Cycle       Energy         DIIS Error
 ---------------------------------------
    1    -155.0003956848      5.72E-03
    2    -155.0158769574      2.86E-03
    3    -155.0255099603      3.50E-04 Done RCA. Switching to DIIS
    4    -155.0370863000      2.53E-04
    5    -155.0372773329      3.97E-05
    6    -155.0372854340      5.98E-06 Convergence criterion met
 ---------------------------------------
 SCF time:  CPU 39.59 s  wall 6.62 s
 SCF   energy in the final basis set = -155.03728543
 Total energy in the final basis set = -155.03728543
 
 --------------------------------------------------------------
 
                    Orbital Energies (a.u.)
 --------------------------------------------------------------
 
 Alpha MOs
 -- Occupied --
-19.2460 -10.3304 -10.2788  -1.1278  -0.8543  -0.7240  -0.5990  -0.5484
 -0.5187  -0.4824  -0.4531  -0.4134  -0.3587
 -- Virtual --
  0.0623   0.0870   0.0882   0.1013   0.1267   0.1329   0.1370   0.1821
  0.1970   0.2043   0.2379   0.2470   0.2644   0.2868   0.2881   0.3011
  0.3199   0.3242   0.3410   0.3807   0.4607   0.4889   0.5036   0.5213
  0.5667   0.5735   0.5899   0.6062   0.6100   0.6316   0.6575   0.6818
  0.6971   0.7066   0.7436   0.8010   0.8264   0.9066   0.9570   0.9676
  0.9961   1.0453   1.0635   1.0874   1.1479   1.1558   1.1797   1.1923
  1.2526   1.2648   1.2840   1.3018   1.3303   1.3585   1.3979   1.4141
  1.4566   1.4685   1.4780   1.4971   1.5150   1.5219   1.5958   1.6081
  1.6413   1.7034   1.9389   2.0333   2.1300   2.2767   2.3057   2.4604
  2.4740   2.5111   2.6028   2.6467   2.6596   2.8232   2.8446   2.8911
  2.9197   2.9640   3.0000   3.0212   3.0329   3.0541   3.0790   3.0956
  3.1418   3.1849   3.1980   3.2130   3.2579   3.2981   3.3224   3.3714
  3.3842   3.3936   3.4452   3.4804   3.5178   3.5339   3.5567   3.5728
  3.6054   3.6211   3.6357   3.6717   3.7151   3.7755   3.8000   3.8238
  3.8675   3.8734   3.9048   3.9883   4.0200   4.0459   4.0548   4.1030
  4.1169   4.1380   4.1617   4.1840   4.2377   4.2526   4.2797   4.3212
  4.4098   4.4290   4.4764   4.5084   4.5947   4.6169   4.7143   4.8063
  4.8537   4.8779   4.9365   4.9936   5.0284   5.1027   5.1263   5.1718
  5.2261   5.2375   5.2780   5.2999   5.3385   5.3789   5.5001   5.5175
  5.5676   5.6179   5.6970   5.8621   5.9579   6.0377   6.3798   6.3957
  6.4151   6.6536   6.6960   6.8264   7.1289   7.3793   7.4107   7.5731
  7.7303   8.0940  25.1554  25.4204  50.4767
 --------------------------------------------------------------
 
 -----------------------------------------------------------------
                    Cartesian Multipole Moments
 -----------------------------------------------------------------
    Charge (ESU x 10^10)
                 0.0000
    Dipole Moment (Debye)
         X      -1.4316      Y      -0.4686      Z       1.1438
       Tot       1.8914
    Quadrupole Moments (Debye-Ang)
        XX     -10.5563     XY      -0.2960     YY     -18.7805
        XZ      -3.1475     YZ      -0.2113     ZZ     -20.0672
    Octopole Moments (Debye-Ang^2)
       XXX     207.1469    XXY      -5.9477    XYY      79.9122
       YYY     -36.9922    XXZ       8.5688    XYZ       0.0266
       YYZ      -0.5536    XZZ      84.8941    YZZ     -13.6095
       ZZZ       1.9809
    Hexadecapole Moments (Debye-Ang^3)
      XXXX   -2100.0383   XXXY     112.8845   XXYY    -385.1458
      XYYY     151.4522   YYYY    -104.7750   XXXZ     -20.8425
      XXYZ       4.3435   XYYZ       2.8907   YYYZ      -4.1271
      XXZZ    -391.8017   XYZZ      56.1988   YYZZ     -24.0231
      XZZZ      -3.9354   YZZZ      -0.3377   ZZZZ     -35.8834
 -----------------------------------------------------------------
Archival summary:
1\1\centos77-c7\SP\ProcedureUnspecified\BasisUnspecified\126\shihchen\MonJul2714:28:222020MonJul2714:28:222020\0\\#,ProcedureUnspecified,BasisUnspecified,\\0,1\C\H,1,1.08727\H,1,1.09894,2,107.526\O,1,1.41673,2,108.377,3,-114.764,0\H,4,0.957368,1,106.729,2,174.889,0\C,1,1.51985,2,120.271,3,114.155,0\H,6,1.08721,1,123.976,2,75.4356,0\H,6,1.09119,1,109.788,2,-58.1276,0\H,6,1.09562,1,97.1022,2,-165.47,0\\\@

 Total job time:  11.20s(wall), 57.76s(cpu) 
 Mon Jul 27 14:28:22 2020

        *************************************************************
        *                                                           *
        *  Thank you very much for using Q-Chem.  Have a nice day.  *
        *                                                           *
        *************************************************************


