                  Welcome to Q-Chem
     A Quantum Leap Into The Future Of Chemistry


 Q-Chem 5.3 (devel), Q-Chem, Inc., Pleasanton, CA (2020)

 Yihan Shao,  Zhengting Gan,  E. Epifanovsky,  A. T. B. Gilbert,  M. Wormit,  
 J. Kussmann,  A. W. Lange,  A. Behn,  Jia Deng,  Xintian Feng,  D. Ghosh,  
 M. Goldey,  P. R. Horn,  L. D. Jacobson,  I. Kaliman,  T. Kus,  A. Landau,  
 Jie Liu,  E. I. Proynov,  R. M. Richard,  R. P. Steele,  E. J. Sundstrom,  
 H. L. Woodcock III,  P. M. Zimmerman,  D. Zuev,  B. Alam,  B. Albrecht,  
 E. Alguire,  S. A. Baeppler,  D. Barton,  Z. Benda,  Y. A. Bernard,  
 E. J. Berquist,  K. B. Bravaya,  H. Burton,  K. Carter-Fenk,  D. Casanova,  
 Chun-Min Chang,  Yunqing Chen,  A. Chien,  K. D. Closser,  M. P. Coons,  
 S. Coriani,  S. Dasgupta,  A. L. Dempwolff,  M. Diedenhofen,  Hainam Do,  
 R. G. Edgar,  Po-Tung Fang,  S. Faraji,  S. Fatehi,  Qingguo Feng,  
 J. Fosso-Tande,  J. Gayvert,  Qinghui Ge,  A. Ghysels,  G. Gidofalvi,  
 J. Gomes,  J. Gonthier,  A. Gunina,  D. Hait,  M. W. D. Hanson-Heine,  
 P. H. P. Harbach,  A. W. Hauser,  M. F. Herbst,  J. E. Herr,  
 E. G. Hohenstein,  Z. C. Holden,  Kerwin Hui,  B. C. Huynh,  T.-C. Jagau,  
 Hyunjun Ji,  B. Kaduk,  K. Khistyaev,  Jaehoon Kim,  P. Klunzinger,  K. Koh,  
 D. Kosenkov,  L. Koulias,  T. Kowalczyk,  C. M. Krauter,  A. Kunitsa,  
 Ka Un Lao,  A. Laurent,  K. V. Lawler,  Joonho Lee,  D. Lefrancois,  
 S. Lehtola,  D. S. Levine,  Yi-Pei Li,  You-Sheng Lin,  Fenglai Liu,  
 Kuan-Yu Liu,  E. Livshits,  M. Loipersberger,  A. Luenser,  P. Manohar,  
 E. Mansoor,  S. F. Manzer,  Shan-Ping Mao,  Yuezhi Mao,  N. Mardirossian,  
 A. V. Marenich,  T. Markovich,  L. A. Martinez-Martinez,  S. A. Maurer,  
 N. J. Mayhall,  S. C. McKenzie,  J.-M. Mewes,  P. Morgante,  A. F. Morrison,  
 J. W. Mullinax,  K. Nanda,  T. S. Nguyen-Beck,  R. Olivares-Amaya,  
 K. J. Oosterbaan,  J. A. Parkhill,  S. K. Paul,  F. Pavosevic,  Zheng Pei,  
 T. M. Perrine,  F. Plasser,  P. Pokhilko,  S. Prager,  A. Prociuk,  
 E. Ramos,  B. Rana,  D. R. Rehn,  F. Rob,  M. Scheurer,  M. Schneider,  
 N. Sergueev,  S. M. Sharada,  S. Sharma,  D. W. Small,  T. Stauch,  
 C. J. Stein,  T. Stein,  Yu-Chuan Su,  S. P. Veccham,  Zhen Tao,  
 A. J. W. Thom,  A. Tkatchenko,  T. Tsuchimochi,  N. M. Tubman,  L. Vogt,  
 M. L. Vidal,  O. Vydrov,  M. A. Watson,  J. Wenzel,  M. de Wergifosse,  
 T. A. Wesolowski,  A. White,  J. Witte,  A. Yamada,  Jun Yang,  K. Yao,  
 S. Yeganeh,  S. R. Yost,  Zhi-Qiang You,  A. Zech,  Igor Ying Zhang,  
 Xing Zhang,  Yan Zhao,  Ying Zhu,  B. R. Brooks,  G. K. L. Chan,  
 C. J. Cramer,  M. S. Gordon,  W. J. Hehre,  A. Klamt,  M. W. Schmidt,  
 C. D. Sherrill,  D. G. Truhlar,  A. Aspuru-Guzik,  R. Baer,  A. T. Bell,  
 N. A. Besley,  Jeng-Da Chai,  A. E. DePrince, III,  R. A. DiStasio Jr.,  
 A. Dreuw,  B. D. Dunietz,  T. R. Furlani,  Chao-Ping Hsu,  Yousung Jung,  
 Jing Kong,  D. S. Lambrecht,  WanZhen Liang,  C. Ochsenfeld,  
 V. A. Rassolov,  L. V. Slipchenko,  J. E. Subotnik,  T. Van Voorhis,  
 J. M. Herbert,  A. I. Krylov,  P. M. W. Gill,  M. Head-Gordon

 Contributors to earlier versions of Q-Chem not listed above: 
 R. D. Adamson,  B. Austin,  J. Baker,  G. J. O. Beran,  K. Brandhorst,  
 S. T. Brown,  E. F. C. Byrd,  A. K. Chakraborty,  C.-L. Cheng,  
 Siu Hung Chien,  D. M. Chipman,  D. L. Crittenden,  H. Dachsel,  
 R. J. Doerksen,  A. D. Dutoi,  L. Fusti-Molnar,  W. A. Goddard III,  
 A. Golubeva-Zadorozhnaya,  S. R. Gwaltney,  G. Hawkins,  A. Heyden,  
 S. Hirata,  G. Kedziora,  F. J. Keil,  C. Kelley,  Jihan Kim,  R. A. King,  
 R. Z. Khaliullin,  P. P. Korambath,  W. Kurlancheek,  A. M. Lee,  M. S. Lee,  
 S. V. Levchenko,  Ching Yeh Lin,  D. Liotard,  R. C. Lochan,  I. Lotan,  
 P. E. Maslen,  N. Nair,  D. P. O'Neill,  D. Neuhauser,  E. Neuscamman,  
 C. M. Oana,  R. Olson,  B. Peters,  R. Peverati,  P. A. Pieniazek,  
 Y. M. Rhee,  J. Ritchie,  M. A. Rohrdanz,  E. Rosta,  N. J. Russ,  
 H. F. Schaefer III,  N. E. Schultz,  N. Shenvi,  A. C. Simmonett,  A. Sodt,  
 D. Stuck,  K. S. Thanthiriwatte,  V. Vanovschi,  Tao Wang,  A. Warshel,  
 C. F. Williams,  Q. Wu,  X. Xu,  W. Zhang

 Please cite Q-Chem as follows:
 Y. Shao et al., Mol. Phys. 113, 184-215 (2015)
 DOI: 10.1080/00268976.2014.952696

 Q-Chem 5.3.0 for Intel X86 EM64T Linux

 Parts of Q-Chem use Armadillo 9.800.1 (Horizon Scraper).
 http://arma.sourceforge.net/

 Q-Chem begins on Mon Jul 27 14:27:25 2020  

Host: centos77-c7
0

     Scratch files written to /tmp/29924.centos77-h1/qchem105172//
Processing $rem in /opt/qchem-5.3.0-intel2020u1//config/preferences:
Processing $rem in /home/shihchengli/.qchemrc:

Checking the input file for inconsistencies... 	...done.

--------------------------------------------------------------
User input:
--------------------------------------------------------------
$rem
   JOBTYPE  sp
   EXCHANGE   omegaB97X-D
   BASIS   6-311+G(2df,2pd)
   UNRESTRICTED   False
   max_scf_cycles   250
   geom_opt_max_cycles   1500
   basis2 6-31G*
   scf_algorithm rca_diis
   SYM_IGNORE  TRUE
   print_input   true
   geom_opt_dmax   80
   pop_mulliken false
   XC_GRID 000075000302
$end

$molecule
0 1
C       -5.2888224050     0.3657003283     0.0585766649
C       -4.1638656119     1.3121224264     0.1757611124
H       -5.1549185715     -0.0061997035     -0.9566724598
H       -6.3325940687     0.6012184293     0.2483548159
H       -4.9874725567     -0.4680782954     0.7005761643
O       -3.3347506226     0.2920736874     -0.3088827171
H       -3.8476304675     1.7648720112     1.1214875605
H       -4.1991644859     2.1214193856     -0.5529989114
H       -3.2935912100     -0.3659082694     0.3841077703
$end
--------------------------------------------------------------
 ----------------------------------------------------------------
             Standard Nuclear Orientation (Angstroms)
    I     Atom           X                Y                Z
 ----------------------------------------------------------------
    1      C      -5.2888224050     0.3657003283     0.0585766649
    2      C      -4.1638656119     1.3121224264     0.1757611124
    3      H      -5.1549185715    -0.0061997035    -0.9566724598
    4      H      -6.3325940687     0.6012184293     0.2483548159
    5      H      -4.9874725567    -0.4680782954     0.7005761643
    6      O      -3.3347506226     0.2920736874    -0.3088827171
    7      H      -3.8476304675     1.7648720112     1.1214875605
    8      H      -4.1991644859     2.1214193856    -0.5529989114
    9      H      -3.2935912100    -0.3659082694     0.3841077703
 ----------------------------------------------------------------
 Nuclear Repulsion Energy =          86.48445322 hartrees
 There are       13 alpha and       13 beta electrons
 Requested basis set is 6-311+G(2df,2pd)
 There are 60 shells and 186 basis functions

 Total QAlloc Memory Limit   2000 MB
 Mega-Array Size       188 MB
 MEM_STATIC part       192 MB

                       Distance Matrix (Angstroms)
             C (  1)   C (  2)   H (  3)   H (  4)   H (  5)   O (  6)
   C (  2)  1.474780
   H (  3)  1.089482  2.000641
   H (  4)  1.086712  2.283427  1.791080
   H (  5)  1.094606  2.030486  1.728538  1.776866
   O (  6)  1.989684  1.401003  1.954894  3.064825  2.080463
   H (  7)  2.272553  1.095165  3.027284  2.879496  2.542140  2.116162
   H (  8)  2.154978  1.089632  2.367104  2.739471  2.983015  2.037967
   H (  9)  2.149923  1.901729  2.321987  3.192068  1.726217  0.956488
             H (  7)   H (  8)
   H (  8)  1.747743
   H (  9)  2.321834  2.808030
 
 A cutoff of  1.0D-09 yielded   1812 shell pairs
 There are     17531 function pairs (     21771 Cartesian)
 Smallest overlap matrix eigenvalue = 1.14E-04

 Scale SEOQF with 1.000000e-02/1.000000e-01/1.000000e-01

 Standard Electronic Orientation quadrupole field applied
 Nucleus-field energy     =     0.0000000028 hartrees
 Requested basis set is 6-31G(d)
 There are 24 shells and 54 basis functions
 A cutoff of  1.0D-09 yielded    299 shell pairs
 There are      1550 function pairs (      1733 Cartesian)
 Smallest overlap matrix eigenvalue = 6.65E-03
 Guess from superposition of atomic densities
 Warning:  Energy on first SCF cycle will be non-variational
 SAD guess density has 26.000000 electrons
 Long-range K will be added via erf
 Coulomb attenuation parameter = 0.2 bohr**(-1)
 A restricted hybrid HF-DFT SCF calculation will be
 performed using Relaxed Constraint Minimization + Pulay DIIS
 Exchange:     0.2220 Hartree-Fock + 1.0000 wB97X-D + LR-HF
 Correlation:  1.0000 wB97X-D
 Using Euler-Maclaurin-Lebedev (75,302) quadrature formula
 Dispersion:   Grimme D
 SCF converges when DIIS error is below 1.0E-04
 using 6 threads for integral computing
 -------------------------------------------------------
 OpenMP Integral computing Module                
 Release: version 1.0, May 2013, Q-Chem Inc. Pittsburgh 
 -------------------------------------------------------
 using 6 threads for integral computing
 -------------------------------------------------------
 OpenMP Integral computing Module                
 Release: version 1.0, May 2013, Q-Chem Inc. Pittsburgh 
 -------------------------------------------------------
 ---------------------------------------
  Cycle       Energy         DIIS Error
 ---------------------------------------
    1    -155.6536293707      1.14E-01
    2    -154.8686159280      1.40E-02
    3    -154.8985180834      2.99E-03
    4    -154.9276258279      2.15E-03
    5    -154.9282088074      2.38E-04 Done RCA. Switching to DIIS
    6    -154.9288619203      7.52E-05 Convergence criterion met
 ---------------------------------------
 SCF time:  CPU 13.25 s  wall 2.22 s
 SCF   energy in the small basis set = -154.92886192
 Total energy in the small basis set = -154.92886192
 ----------------------------------------------------
  Cycle       Energy    
 ----------------------------------------------------
    1     -18.8115235597     -1.88E+01
 Long-range K will be added via erf
 Coulomb attenuation parameter = 0.2 bohr**(-1)
 A restricted hybrid HF-DFT SCF calculation will be
 performed using Relaxed Constraint Minimization + Pulay DIIS
 Exchange:     0.2220 Hartree-Fock + 1.0000 wB97X-D + LR-HF
 Correlation:  1.0000 wB97X-D
 Using Euler-Maclaurin-Lebedev (75,302) quadrature formula
 Dispersion:   Grimme D
 SCF converges when DIIS error is below 1.0E-05
 Basis2 calculation detected. Using small basis as guess for larger.
 SCFMinFind is unable to tell whether the solution found is close.
 Resetting ReadMinima to 0 and attempting to follow guess.
 SCFMinFind following SCF Guess.
 using 6 threads for integral computing
 -------------------------------------------------------
 OpenMP Integral computing Module                
 Release: version 1.0, May 2013, Q-Chem Inc. Pittsburgh 
 -------------------------------------------------------
 using 6 threads for integral computing
 -------------------------------------------------------
 OpenMP Integral computing Module                
 Release: version 1.0, May 2013, Q-Chem Inc. Pittsburgh 
 -------------------------------------------------------
 ---------------------------------------
  Cycle       Energy         DIIS Error
 ---------------------------------------
    1    -154.9610611571      5.72E-03
    2    -154.9762221669      2.84E-03
    3    -154.9858411162      3.49E-04 Done RCA. Switching to DIIS
    4    -154.9974574666      2.58E-04
    5    -154.9976584527      4.16E-05
    6    -154.9976673838      6.99E-06 Convergence criterion met
 ---------------------------------------
 SCF time:  CPU 41.39 s  wall 6.92 s
 SCF   energy in the final basis set = -154.99766738
 Total energy in the final basis set = -154.99766738
 
 --------------------------------------------------------------
 
                    Orbital Energies (a.u.)
 --------------------------------------------------------------
 
 Alpha MOs
 -- Occupied --
-19.2385 -10.3258 -10.2668  -1.1488  -0.8409  -0.7306  -0.6153  -0.5589
 -0.5215  -0.4636  -0.4409  -0.4201  -0.3441
 -- Virtual --
  0.0676   0.0846   0.0882   0.1009   0.1250   0.1326   0.1344   0.1813
  0.1949   0.2147   0.2454   0.2544   0.2699   0.2779   0.3015   0.3116
  0.3210   0.3347   0.3482   0.3940   0.4567   0.4959   0.5070   0.5474
  0.5506   0.5888   0.5923   0.6072   0.6245   0.6415   0.6649   0.6930
  0.7070   0.7236   0.7903   0.8240   0.8735   0.9042   0.9383   0.9907
  1.0189   1.0458   1.0537   1.1425   1.1639   1.1728   1.1974   1.2167
  1.2232   1.2858   1.2942   1.3034   1.3628   1.3653   1.3869   1.4051
  1.4486   1.4730   1.5042   1.5159   1.5245   1.5586   1.6048   1.6415
  1.6772   1.8734   1.9744   2.0814   2.1539   2.2837   2.3155   2.4573
  2.5086   2.5740   2.6167   2.6843   2.7098   2.8221   2.8415   2.8815
  2.9389   2.9635   2.9885   3.0011   3.0369   3.0581   3.1079   3.1265
  3.1580   3.2228   3.2558   3.2617   3.3038   3.3455   3.3496   3.3849
  3.4057   3.4197   3.4536   3.4777   3.5044   3.5322   3.5623   3.5831
  3.6215   3.6454   3.6750   3.7037   3.7604   3.7953   3.8356   3.8745
  3.9172   3.9366   3.9590   4.0253   4.0394   4.0763   4.1006   4.1164
  4.1422   4.1687   4.2102   4.2276   4.2680   4.3049   4.3508   4.3914
  4.4443   4.4840   4.5418   4.5557   4.5993   4.6976   4.7556   4.8056
  4.8840   4.9112   4.9686   4.9954   5.0561   5.1405   5.1785   5.2081
  5.2286   5.2836   5.3091   5.3836   5.4047   5.4315   5.5328   5.5690
  5.7349   5.7666   5.8013   5.9647   6.0167   6.1494   6.4189   6.4449
  6.4803   6.6740   6.7270   6.8525   7.2084   7.4111   7.5173   7.6436
  7.7414   8.2282  25.2025  25.4853  50.5612
 --------------------------------------------------------------
 
 -----------------------------------------------------------------
                    Cartesian Multipole Moments
 -----------------------------------------------------------------
    Charge (ESU x 10^10)
                -0.0000
    Dipole Moment (Debye)
         X      -0.6039      Y       0.0523      Z       1.3089
       Tot       1.4424
    Quadrupole Moments (Debye-Ang)
        XX     -17.3984     XY      -1.1216     YY     -17.8646
        XZ      -3.5927     YZ      -0.3073     ZZ     -19.8452
    Octopole Moments (Debye-Ang^2)
       XXX     257.5550    XXY      -6.1799    XYY      79.1296
       YYY     -34.9373    XXZ       8.5933    XYZ       1.4943
       YYZ      -0.1402    XZZ      86.6105    YZZ     -12.3294
       ZZZ      -0.3930
    Hexadecapole Moments (Debye-Ang^3)
      XXXX   -2427.2778   XXXY     132.8550   XXYY    -389.0126
      XYYY     150.0235   YYYY    -108.2555   XXXZ      -9.2356
      XXYZ      -7.9918   XYYZ       2.8744   YYYZ      -4.8436
      XXZZ    -404.6072   XYZZ      53.1879   YYZZ     -23.4524
      XZZZ       7.9977   YZZZ      -3.3598   ZZZZ     -37.6809
 -----------------------------------------------------------------
Archival summary:
1\1\centos77-c7\SP\ProcedureUnspecified\BasisUnspecified\126\shihchen\MonJul2714:27:362020MonJul2714:27:362020\0\\#,ProcedureUnspecified,BasisUnspecified,\\0,1\O\H,1,0.956488\C,1,1.401,2,106.004\H,3,1.08963,1,109.182,2,176.629,0\H,3,1.09516,1,115.394,2,57.0811,0\C,3,1.47478,1,87.5182,2,-69.321,0\H,6,1.08671,3,125.429,1,-175.652,0\H,6,1.08948,3,101.499,1,-49.5631,0\H,6,1.09461,3,103.428,1,58.7186,0\\\@

 Total job time:  11.36s(wall), 58.49s(cpu) 
 Mon Jul 27 14:27:36 2020

        *************************************************************
        *                                                           *
        *  Thank you very much for using Q-Chem.  Have a nice day.  *
        *                                                           *
        *************************************************************


