                  Welcome to Q-Chem
     A Quantum Leap Into The Future Of Chemistry


 Q-Chem 5.3 (devel), Q-Chem, Inc., Pleasanton, CA (2020)

 Yihan Shao,  Zhengting Gan,  E. Epifanovsky,  A. T. B. Gilbert,  M. Wormit,  
 J. Kussmann,  A. W. Lange,  A. Behn,  Jia Deng,  Xintian Feng,  D. Ghosh,  
 M. Goldey,  P. R. Horn,  L. D. Jacobson,  I. Kaliman,  T. Kus,  A. Landau,  
 Jie Liu,  E. I. Proynov,  R. M. Richard,  R. P. Steele,  E. J. Sundstrom,  
 H. L. Woodcock III,  P. M. Zimmerman,  D. Zuev,  B. Alam,  B. Albrecht,  
 E. Alguire,  S. A. Baeppler,  D. Barton,  Z. Benda,  Y. A. Bernard,  
 E. J. Berquist,  K. B. Bravaya,  H. Burton,  K. Carter-Fenk,  D. Casanova,  
 Chun-Min Chang,  Yunqing Chen,  A. Chien,  K. D. Closser,  M. P. Coons,  
 S. Coriani,  S. Dasgupta,  A. L. Dempwolff,  M. Diedenhofen,  Hainam Do,  
 R. G. Edgar,  Po-Tung Fang,  S. Faraji,  S. Fatehi,  Qingguo Feng,  
 J. Fosso-Tande,  J. Gayvert,  Qinghui Ge,  A. Ghysels,  G. Gidofalvi,  
 J. Gomes,  J. Gonthier,  A. Gunina,  D. Hait,  M. W. D. Hanson-Heine,  
 P. H. P. Harbach,  A. W. Hauser,  M. F. Herbst,  J. E. Herr,  
 E. G. Hohenstein,  Z. C. Holden,  Kerwin Hui,  B. C. Huynh,  T.-C. Jagau,  
 Hyunjun Ji,  B. Kaduk,  K. Khistyaev,  Jaehoon Kim,  P. Klunzinger,  K. Koh,  
 D. Kosenkov,  L. Koulias,  T. Kowalczyk,  C. M. Krauter,  A. Kunitsa,  
 Ka Un Lao,  A. Laurent,  K. V. Lawler,  Joonho Lee,  D. Lefrancois,  
 S. Lehtola,  D. S. Levine,  Yi-Pei Li,  You-Sheng Lin,  Fenglai Liu,  
 Kuan-Yu Liu,  E. Livshits,  M. Loipersberger,  A. Luenser,  P. Manohar,  
 E. Mansoor,  S. F. Manzer,  Shan-Ping Mao,  Yuezhi Mao,  N. Mardirossian,  
 A. V. Marenich,  T. Markovich,  L. A. Martinez-Martinez,  S. A. Maurer,  
 N. J. Mayhall,  S. C. McKenzie,  J.-M. Mewes,  P. Morgante,  A. F. Morrison,  
 J. W. Mullinax,  K. Nanda,  T. S. Nguyen-Beck,  R. Olivares-Amaya,  
 K. J. Oosterbaan,  J. A. Parkhill,  S. K. Paul,  F. Pavosevic,  Zheng Pei,  
 T. M. Perrine,  F. Plasser,  P. Pokhilko,  S. Prager,  A. Prociuk,  
 E. Ramos,  B. Rana,  D. R. Rehn,  F. Rob,  M. Scheurer,  M. Schneider,  
 N. Sergueev,  S. M. Sharada,  S. Sharma,  D. W. Small,  T. Stauch,  
 C. J. Stein,  T. Stein,  Yu-Chuan Su,  S. P. Veccham,  Zhen Tao,  
 A. J. W. Thom,  A. Tkatchenko,  T. Tsuchimochi,  N. M. Tubman,  L. Vogt,  
 M. L. Vidal,  O. Vydrov,  M. A. Watson,  J. Wenzel,  M. de Wergifosse,  
 T. A. Wesolowski,  A. White,  J. Witte,  A. Yamada,  Jun Yang,  K. Yao,  
 S. Yeganeh,  S. R. Yost,  Zhi-Qiang You,  A. Zech,  Igor Ying Zhang,  
 Xing Zhang,  Yan Zhao,  Ying Zhu,  B. R. Brooks,  G. K. L. Chan,  
 C. J. Cramer,  M. S. Gordon,  W. J. Hehre,  A. Klamt,  M. W. Schmidt,  
 C. D. Sherrill,  D. G. Truhlar,  A. Aspuru-Guzik,  R. Baer,  A. T. Bell,  
 N. A. Besley,  Jeng-Da Chai,  A. E. DePrince, III,  R. A. DiStasio Jr.,  
 A. Dreuw,  B. D. Dunietz,  T. R. Furlani,  Chao-Ping Hsu,  Yousung Jung,  
 Jing Kong,  D. S. Lambrecht,  WanZhen Liang,  C. Ochsenfeld,  
 V. A. Rassolov,  L. V. Slipchenko,  J. E. Subotnik,  T. Van Voorhis,  
 J. M. Herbert,  A. I. Krylov,  P. M. W. Gill,  M. Head-Gordon

 Contributors to earlier versions of Q-Chem not listed above: 
 R. D. Adamson,  B. Austin,  J. Baker,  G. J. O. Beran,  K. Brandhorst,  
 S. T. Brown,  E. F. C. Byrd,  A. K. Chakraborty,  C.-L. Cheng,  
 Siu Hung Chien,  D. M. Chipman,  D. L. Crittenden,  H. Dachsel,  
 R. J. Doerksen,  A. D. Dutoi,  L. Fusti-Molnar,  W. A. Goddard III,  
 A. Golubeva-Zadorozhnaya,  S. R. Gwaltney,  G. Hawkins,  A. Heyden,  
 S. Hirata,  G. Kedziora,  F. J. Keil,  C. Kelley,  Jihan Kim,  R. A. King,  
 R. Z. Khaliullin,  P. P. Korambath,  W. Kurlancheek,  A. M. Lee,  M. S. Lee,  
 S. V. Levchenko,  Ching Yeh Lin,  D. Liotard,  R. C. Lochan,  I. Lotan,  
 P. E. Maslen,  N. Nair,  D. P. O'Neill,  D. Neuhauser,  E. Neuscamman,  
 C. M. Oana,  R. Olson,  B. Peters,  R. Peverati,  P. A. Pieniazek,  
 Y. M. Rhee,  J. Ritchie,  M. A. Rohrdanz,  E. Rosta,  N. J. Russ,  
 H. F. Schaefer III,  N. E. Schultz,  N. Shenvi,  A. C. Simmonett,  A. Sodt,  
 D. Stuck,  K. S. Thanthiriwatte,  V. Vanovschi,  Tao Wang,  A. Warshel,  
 C. F. Williams,  Q. Wu,  X. Xu,  W. Zhang

 Please cite Q-Chem as follows:
 Y. Shao et al., Mol. Phys. 113, 184-215 (2015)
 DOI: 10.1080/00268976.2014.952696

 Q-Chem 5.3.0 for Intel X86 EM64T Linux

 Parts of Q-Chem use Armadillo 9.800.1 (Horizon Scraper).
 http://arma.sourceforge.net/

 Q-Chem begins on Mon Jul 27 14:37:24 2020  

Host: centos77-c7
0

     Scratch files written to /tmp/29924.centos77-h1/qchem107596//
Processing $rem in /opt/qchem-5.3.0-intel2020u1//config/preferences:
Processing $rem in /home/shihchengli/.qchemrc:

Checking the input file for inconsistencies... 	...done.

--------------------------------------------------------------
User input:
--------------------------------------------------------------
$rem
   JOBTYPE  sp
   EXCHANGE   omegaB97X-D
   BASIS   6-311+G(2df,2pd)
   UNRESTRICTED   False
   max_scf_cycles   250
   geom_opt_max_cycles   1500
   basis2 6-31G*
   scf_algorithm rca_diis
   SYM_IGNORE  TRUE
   print_input   true
   geom_opt_dmax   80
   pop_mulliken false
   XC_GRID 000075000302
$end

$molecule
0 1
C       -5.4039126940     0.3976067516     0.1434301446
C       -4.1121338726     1.1261820112     0.0087182668
H       -5.2368111746     -0.0056141547     -0.8634865357
H       -6.4072066737     0.7953848701     0.2218775564
H       -5.2628482651     -0.5223026892     0.7163017737
O       -3.0441630591     0.5343018008     -0.2276191987
H       -3.8264411392     1.4279080805     1.0247224249
H       -4.2573055691     2.0459017449     -0.5582093632
H       -3.0519875525     -0.1821484152     0.4045749315
$end
--------------------------------------------------------------
 ----------------------------------------------------------------
             Standard Nuclear Orientation (Angstroms)
    I     Atom           X                Y                Z
 ----------------------------------------------------------------
    1      C      -5.4039126940     0.3976067516     0.1434301446
    2      C      -4.1121338726     1.1261820112     0.0087182668
    3      H      -5.2368111746    -0.0056141547    -0.8634865357
    4      H      -6.4072066737     0.7953848701     0.2218775564
    5      H      -5.2628482651    -0.5223026892     0.7163017737
    6      O      -3.0441630591     0.5343018008    -0.2276191987
    7      H      -3.8264411392     1.4279080805     1.0247224249
    8      H      -4.2573055691     2.0459017449    -0.5582093632
    9      H      -3.0519875525    -0.1821484152     0.4045749315
 ----------------------------------------------------------------
 Nuclear Repulsion Energy =          86.30268992 hartrees
 There are       13 alpha and       13 beta electrons
 Requested basis set is 6-311+G(2df,2pd)
 There are 60 shells and 186 basis functions

 Total QAlloc Memory Limit   2000 MB
 Mega-Array Size       188 MB
 MEM_STATIC part       192 MB

                       Distance Matrix (Angstroms)
             C (  1)   C (  2)   H (  3)   H (  4)   H (  5)   O (  6)
   C (  2)  1.489182
   H (  3)  1.097448  1.818407
   H (  4)  1.082118  2.328567  1.785900
   H (  5)  1.092847  2.131272  1.662341  1.813922
   O (  6)  2.392652  1.243680  2.345963  3.402980  2.632482
   H (  7)  2.080051  1.097690  2.758525  2.775787  2.441661  1.725935
   H (  8)  2.126942  1.090122  2.293762  2.606608  3.038284  1.966199
   H (  9)  2.436363  1.729838  2.532311  3.499492  2.258491  0.955527
             H (  7)   H (  8)
   H (  8)  1.753064
   H (  9)  1.891202  2.709973
 
 A cutoff of  1.0D-09 yielded   1796 shell pairs
 There are     17384 function pairs (     21576 Cartesian)
 Smallest overlap matrix eigenvalue = 1.31E-04

 Scale SEOQF with 1.000000e-02/1.000000e-01/1.000000e-01

 Standard Electronic Orientation quadrupole field applied
 Nucleus-field energy     =     0.0000000027 hartrees
 Requested basis set is 6-31G(d)
 There are 24 shells and 54 basis functions
 A cutoff of  1.0D-09 yielded    298 shell pairs
 There are      1549 function pairs (      1732 Cartesian)
 Smallest overlap matrix eigenvalue = 5.29E-03
 Guess from superposition of atomic densities
 Warning:  Energy on first SCF cycle will be non-variational
 SAD guess density has 26.000000 electrons
 Long-range K will be added via erf
 Coulomb attenuation parameter = 0.2 bohr**(-1)
 A restricted hybrid HF-DFT SCF calculation will be
 performed using Relaxed Constraint Minimization + Pulay DIIS
 Exchange:     0.2220 Hartree-Fock + 1.0000 wB97X-D + LR-HF
 Correlation:  1.0000 wB97X-D
 Using Euler-Maclaurin-Lebedev (75,302) quadrature formula
 Dispersion:   Grimme D
 SCF converges when DIIS error is below 1.0E-04
 using 6 threads for integral computing
 -------------------------------------------------------
 OpenMP Integral computing Module                
 Release: version 1.0, May 2013, Q-Chem Inc. Pittsburgh 
 -------------------------------------------------------
 using 6 threads for integral computing
 -------------------------------------------------------
 OpenMP Integral computing Module                
 Release: version 1.0, May 2013, Q-Chem Inc. Pittsburgh 
 -------------------------------------------------------
 ---------------------------------------
  Cycle       Energy         DIIS Error
 ---------------------------------------
    1    -155.8693538572      1.24E-01
    2    -154.8475468546      1.35E-02
    3    -154.8782785437      3.52E-03
    4    -154.9026417052      2.95E-03
    5    -154.9037263835      1.98E-04 Done RCA. Switching to DIIS
    6    -154.9048474608      8.91E-05 Convergence criterion met
 ---------------------------------------
 SCF time:  CPU 12.97 s  wall 2.17 s
 SCF   energy in the small basis set = -154.90484746
 Total energy in the small basis set = -154.90484746
 ----------------------------------------------------
  Cycle       Energy    
 ----------------------------------------------------
    1     -18.8684480706     -1.89E+01
 Long-range K will be added via erf
 Coulomb attenuation parameter = 0.2 bohr**(-1)
 A restricted hybrid HF-DFT SCF calculation will be
 performed using Relaxed Constraint Minimization + Pulay DIIS
 Exchange:     0.2220 Hartree-Fock + 1.0000 wB97X-D + LR-HF
 Correlation:  1.0000 wB97X-D
 Using Euler-Maclaurin-Lebedev (75,302) quadrature formula
 Dispersion:   Grimme D
 SCF converges when DIIS error is below 1.0E-05
 Basis2 calculation detected. Using small basis as guess for larger.
 SCFMinFind is unable to tell whether the solution found is close.
 Resetting ReadMinima to 0 and attempting to follow guess.
 SCFMinFind following SCF Guess.
 using 6 threads for integral computing
 -------------------------------------------------------
 OpenMP Integral computing Module                
 Release: version 1.0, May 2013, Q-Chem Inc. Pittsburgh 
 -------------------------------------------------------
 using 6 threads for integral computing
 -------------------------------------------------------
 OpenMP Integral computing Module                
 Release: version 1.0, May 2013, Q-Chem Inc. Pittsburgh 
 -------------------------------------------------------
 ---------------------------------------
  Cycle       Energy         DIIS Error
 ---------------------------------------
    1    -154.9408257774      5.67E-03
    2    -154.9598891974      2.50E-03
    3    -154.9674390163      2.50E-04 Done RCA. Switching to DIIS
    4    -154.9759886912      1.18E-04
    5    -154.9760435062      3.95E-05
    6    -154.9760523504      5.61E-06 Convergence criterion met
 ---------------------------------------
 SCF time:  CPU 40.44 s  wall 6.76 s
 SCF   energy in the final basis set = -154.97605235
 Total energy in the final basis set = -154.97605235
 
 --------------------------------------------------------------
 
                    Orbital Energies (a.u.)
 --------------------------------------------------------------
 
 Alpha MOs
 -- Occupied --
-19.2549 -10.3162 -10.2707  -1.2090  -0.8545  -0.7364  -0.6235  -0.5731
 -0.5693  -0.4804  -0.4473  -0.4135  -0.3248
 -- Virtual --
  0.0632   0.0856   0.0900   0.1003   0.1238   0.1345   0.1379   0.1852
  0.1883   0.2189   0.2296   0.2496   0.2581   0.2816   0.2915   0.3141
  0.3216   0.3629   0.3666   0.4116   0.4635   0.4771   0.5045   0.5257
  0.5686   0.5891   0.6008   0.6068   0.6470   0.6620   0.6758   0.6912
  0.7062   0.7212   0.7270   0.8106   0.8852   0.9179   0.9473   0.9683
  0.9910   1.0487   1.0760   1.0949   1.1294   1.1482   1.1886   1.2138
  1.2362   1.2727   1.3085   1.3494   1.3538   1.3742   1.4017   1.4327
  1.4567   1.4749   1.4853   1.5140   1.5352   1.5750   1.6069   1.6387
  1.6956   1.7225   1.9592   2.1179   2.1962   2.2589   2.3548   2.4659
  2.5160   2.5373   2.6052   2.6498   2.7580   2.8341   2.8749   2.9114
  2.9339   2.9697   3.0121   3.0310   3.0456   3.0718   3.0821   3.1164
  3.1803   3.2257   3.2330   3.2766   3.3067   3.3422   3.3507   3.3636
  3.4061   3.4238   3.4672   3.4865   3.5117   3.5519   3.5782   3.5914
  3.6225   3.6319   3.6629   3.6870   3.7444   3.7803   3.8078   3.8414
  3.9070   3.9495   3.9765   4.0106   4.0369   4.0860   4.0972   4.1039
  4.1177   4.1931   4.2243   4.2661   4.2794   4.3059   4.3572   4.3841
  4.4063   4.4671   4.4827   4.5675   4.6231   4.6443   4.7493   4.8116
  4.8655   4.9242   4.9872   5.0097   5.0873   5.1428   5.1791   5.1857
  5.2073   5.2785   5.3564   5.3629   5.3822   5.4360   5.5022   5.5842
  5.7028   5.8212   5.9022   5.9681   6.3436   6.3853   6.4541   6.4893
  6.6060   6.6786   6.8740   7.0955   7.1788   7.4757   7.5038   7.6850
  7.7597   8.2154  25.4299  25.5133  50.5901
 --------------------------------------------------------------
 
 -----------------------------------------------------------------
                    Cartesian Multipole Moments
 -----------------------------------------------------------------
    Charge (ESU x 10^10)
                 0.0000
    Dipole Moment (Debye)
         X      -0.8749      Y      -0.6624      Z       0.9315
       Tot       1.4394
    Quadrupole Moments (Debye-Ang)
        XX     -13.8007     XY       0.6929     YY     -20.0592
        XZ      -2.2750     YZ      -1.2882     ZZ     -20.6561
    Octopole Moments (Debye-Ang^2)
       XXX     220.8415    XXY      -8.5525    XYY      85.5928
       YYY     -40.0791    XXZ       5.5432    XYZ       5.4489
       YYZ      -2.0440    XZZ      89.3713    YZZ     -14.1378
       ZZZ      -0.9411
    Hexadecapole Moments (Debye-Ang^3)
      XXXX   -2133.2616   XXXY     109.0466   XXYY    -407.5394
      XYYY     165.0295   YYYY    -106.4225   XXXZ     -11.4929
      XXYZ     -22.8468   XYYZ      10.3578   YYYZ      -5.0594
      XXZZ    -418.6422   XYZZ      58.8240   YYZZ     -24.7440
      XZZZ      11.3448   YZZZ      -1.3707   ZZZZ     -37.9537
 -----------------------------------------------------------------
Archival summary:
1\1\centos77-c7\SP\ProcedureUnspecified\BasisUnspecified\126\shihchen\MonJul2714:37:352020MonJul2714:37:352020\0\\#,ProcedureUnspecified,BasisUnspecified,\\0,1\C\H,1,1.09012\H,1,1.09769,2,106.506\O,1,1.24368,2,114.648,3,-103.383,0\H,4,0.955527,1,102.949,2,174.802,0\C,1,1.48918,2,110.139,3,114.573,0\H,6,1.08212,1,129.122,2,-32.67,0\H,6,1.09285,1,110.321,2,-179.68,0\H,6,1.09745,1,87.9758,2,81.7438,0\\\@

 Total job time:  11.17s(wall), 57.38s(cpu) 
 Mon Jul 27 14:37:35 2020

        *************************************************************
        *                                                           *
        *  Thank you very much for using Q-Chem.  Have a nice day.  *
        *                                                           *
        *************************************************************


