                  Welcome to Q-Chem
     A Quantum Leap Into The Future Of Chemistry


 Q-Chem 5.3 (devel), Q-Chem, Inc., Pleasanton, CA (2020)

 Yihan Shao,  Zhengting Gan,  E. Epifanovsky,  A. T. B. Gilbert,  M. Wormit,  
 J. Kussmann,  A. W. Lange,  A. Behn,  Jia Deng,  Xintian Feng,  D. Ghosh,  
 M. Goldey,  P. R. Horn,  L. D. Jacobson,  I. Kaliman,  T. Kus,  A. Landau,  
 Jie Liu,  E. I. Proynov,  R. M. Richard,  R. P. Steele,  E. J. Sundstrom,  
 H. L. Woodcock III,  P. M. Zimmerman,  D. Zuev,  B. Alam,  B. Albrecht,  
 E. Alguire,  S. A. Baeppler,  D. Barton,  Z. Benda,  Y. A. Bernard,  
 E. J. Berquist,  K. B. Bravaya,  H. Burton,  K. Carter-Fenk,  D. Casanova,  
 Chun-Min Chang,  Yunqing Chen,  A. Chien,  K. D. Closser,  M. P. Coons,  
 S. Coriani,  S. Dasgupta,  A. L. Dempwolff,  M. Diedenhofen,  Hainam Do,  
 R. G. Edgar,  Po-Tung Fang,  S. Faraji,  S. Fatehi,  Qingguo Feng,  
 J. Fosso-Tande,  J. Gayvert,  Qinghui Ge,  A. Ghysels,  G. Gidofalvi,  
 J. Gomes,  J. Gonthier,  A. Gunina,  D. Hait,  M. W. D. Hanson-Heine,  
 P. H. P. Harbach,  A. W. Hauser,  M. F. Herbst,  J. E. Herr,  
 E. G. Hohenstein,  Z. C. Holden,  Kerwin Hui,  B. C. Huynh,  T.-C. Jagau,  
 Hyunjun Ji,  B. Kaduk,  K. Khistyaev,  Jaehoon Kim,  P. Klunzinger,  K. Koh,  
 D. Kosenkov,  L. Koulias,  T. Kowalczyk,  C. M. Krauter,  A. Kunitsa,  
 Ka Un Lao,  A. Laurent,  K. V. Lawler,  Joonho Lee,  D. Lefrancois,  
 S. Lehtola,  D. S. Levine,  Yi-Pei Li,  You-Sheng Lin,  Fenglai Liu,  
 Kuan-Yu Liu,  E. Livshits,  M. Loipersberger,  A. Luenser,  P. Manohar,  
 E. Mansoor,  S. F. Manzer,  Shan-Ping Mao,  Yuezhi Mao,  N. Mardirossian,  
 A. V. Marenich,  T. Markovich,  L. A. Martinez-Martinez,  S. A. Maurer,  
 N. J. Mayhall,  S. C. McKenzie,  J.-M. Mewes,  P. Morgante,  A. F. Morrison,  
 J. W. Mullinax,  K. Nanda,  T. S. Nguyen-Beck,  R. Olivares-Amaya,  
 K. J. Oosterbaan,  J. A. Parkhill,  S. K. Paul,  F. Pavosevic,  Zheng Pei,  
 T. M. Perrine,  F. Plasser,  P. Pokhilko,  S. Prager,  A. Prociuk,  
 E. Ramos,  B. Rana,  D. R. Rehn,  F. Rob,  M. Scheurer,  M. Schneider,  
 N. Sergueev,  S. M. Sharada,  S. Sharma,  D. W. Small,  T. Stauch,  
 C. J. Stein,  T. Stein,  Yu-Chuan Su,  S. P. Veccham,  Zhen Tao,  
 A. J. W. Thom,  A. Tkatchenko,  T. Tsuchimochi,  N. M. Tubman,  L. Vogt,  
 M. L. Vidal,  O. Vydrov,  M. A. Watson,  J. Wenzel,  M. de Wergifosse,  
 T. A. Wesolowski,  A. White,  J. Witte,  A. Yamada,  Jun Yang,  K. Yao,  
 S. Yeganeh,  S. R. Yost,  Zhi-Qiang You,  A. Zech,  Igor Ying Zhang,  
 Xing Zhang,  Yan Zhao,  Ying Zhu,  B. R. Brooks,  G. K. L. Chan,  
 C. J. Cramer,  M. S. Gordon,  W. J. Hehre,  A. Klamt,  M. W. Schmidt,  
 C. D. Sherrill,  D. G. Truhlar,  A. Aspuru-Guzik,  R. Baer,  A. T. Bell,  
 N. A. Besley,  Jeng-Da Chai,  A. E. DePrince, III,  R. A. DiStasio Jr.,  
 A. Dreuw,  B. D. Dunietz,  T. R. Furlani,  Chao-Ping Hsu,  Yousung Jung,  
 Jing Kong,  D. S. Lambrecht,  WanZhen Liang,  C. Ochsenfeld,  
 V. A. Rassolov,  L. V. Slipchenko,  J. E. Subotnik,  T. Van Voorhis,  
 J. M. Herbert,  A. I. Krylov,  P. M. W. Gill,  M. Head-Gordon

 Contributors to earlier versions of Q-Chem not listed above: 
 R. D. Adamson,  B. Austin,  J. Baker,  G. J. O. Beran,  K. Brandhorst,  
 S. T. Brown,  E. F. C. Byrd,  A. K. Chakraborty,  C.-L. Cheng,  
 Siu Hung Chien,  D. M. Chipman,  D. L. Crittenden,  H. Dachsel,  
 R. J. Doerksen,  A. D. Dutoi,  L. Fusti-Molnar,  W. A. Goddard III,  
 A. Golubeva-Zadorozhnaya,  S. R. Gwaltney,  G. Hawkins,  A. Heyden,  
 S. Hirata,  G. Kedziora,  F. J. Keil,  C. Kelley,  Jihan Kim,  R. A. King,  
 R. Z. Khaliullin,  P. P. Korambath,  W. Kurlancheek,  A. M. Lee,  M. S. Lee,  
 S. V. Levchenko,  Ching Yeh Lin,  D. Liotard,  R. C. Lochan,  I. Lotan,  
 P. E. Maslen,  N. Nair,  D. P. O'Neill,  D. Neuhauser,  E. Neuscamman,  
 C. M. Oana,  R. Olson,  B. Peters,  R. Peverati,  P. A. Pieniazek,  
 Y. M. Rhee,  J. Ritchie,  M. A. Rohrdanz,  E. Rosta,  N. J. Russ,  
 H. F. Schaefer III,  N. E. Schultz,  N. Shenvi,  A. C. Simmonett,  A. Sodt,  
 D. Stuck,  K. S. Thanthiriwatte,  V. Vanovschi,  Tao Wang,  A. Warshel,  
 C. F. Williams,  Q. Wu,  X. Xu,  W. Zhang

 Please cite Q-Chem as follows:
 Y. Shao et al., Mol. Phys. 113, 184-215 (2015)
 DOI: 10.1080/00268976.2014.952696

 Q-Chem 5.3.0 for Intel X86 EM64T Linux

 Parts of Q-Chem use Armadillo 9.800.1 (Horizon Scraper).
 http://arma.sourceforge.net/

 Q-Chem begins on Mon Jul 27 14:27:59 2020  

Host: centos77-c7
0

     Scratch files written to /tmp/29924.centos77-h1/qchem105297//
Processing $rem in /opt/qchem-5.3.0-intel2020u1//config/preferences:
Processing $rem in /home/shihchengli/.qchemrc:

Checking the input file for inconsistencies... 	...done.

--------------------------------------------------------------
User input:
--------------------------------------------------------------
$rem
   JOBTYPE  sp
   EXCHANGE   omegaB97X-D
   BASIS   6-311+G(2df,2pd)
   UNRESTRICTED   False
   max_scf_cycles   250
   geom_opt_max_cycles   1500
   basis2 6-31G*
   scf_algorithm rca_diis
   SYM_IGNORE  TRUE
   print_input   true
   geom_opt_dmax   80
   pop_mulliken false
   XC_GRID 000075000302
$end

$molecule
0 1
C       -5.3675644434     0.3205058710     -0.0283124197
C       -4.1346996826     1.2023312762     0.0722164997
H       -5.5674759102     -0.2197217705     -0.9514280936
H       -6.2554335919     0.8744032495     0.2806996784
H       -5.1873740774     -0.4042690949     0.7717999037
O       -2.9388693357     0.5045860047     -0.2256824792
H       -4.1040157893     1.4918859871     1.1308945154
H       -4.1348557397     2.1190549427     -0.5139284053
H       -2.9125214297     -0.2715564658     0.3340508008
$end
--------------------------------------------------------------
 ----------------------------------------------------------------
             Standard Nuclear Orientation (Angstroms)
    I     Atom           X                Y                Z
 ----------------------------------------------------------------
    1      C      -5.3675644434     0.3205058710    -0.0283124197
    2      C      -4.1346996826     1.2023312762     0.0722164997
    3      H      -5.5674759102    -0.2197217705    -0.9514280936
    4      H      -6.2554335919     0.8744032495     0.2806996784
    5      H      -5.1873740774    -0.4042690949     0.7717999037
    6      O      -2.9388693357     0.5045860047    -0.2256824792
    7      H      -4.1040157893     1.4918859871     1.1308945154
    8      H      -4.1348557397     2.1190549427    -0.5139284053
    9      H      -2.9125214297    -0.2715564658     0.3340508008
 ----------------------------------------------------------------
 Nuclear Repulsion Energy =          82.00344084 hartrees
 There are       13 alpha and       13 beta electrons
 Requested basis set is 6-311+G(2df,2pd)
 There are 60 shells and 186 basis functions

 Total QAlloc Memory Limit   2000 MB
 Mega-Array Size       188 MB
 MEM_STATIC part       192 MB

                       Distance Matrix (Angstroms)
             C (  1)   C (  2)   H (  3)   H (  4)   H (  5)   O (  6)
   C (  2)  1.519104
   H (  3)  1.088096  2.263389
   H (  4)  1.091147  2.156041  1.785647
   H (  5)  1.094508  2.044188  1.774274  1.736932
   O (  6)  2.443645  1.416193  2.821507  3.375320  2.622358
   H (  7)  2.076643  1.097990  3.067146  2.394309  2.213147  2.042701
   H (  8)  2.233869  1.088094  2.777352  2.584075  3.021267  2.029773
   H (  9)  2.551290  1.932517  2.950242  3.534280  2.320386  0.957284
             H (  7)   H (  8)
   H (  8)  1.760606
   H (  9)  2.272520  2.815705
 
 A cutoff of  1.0D-09 yielded   1786 shell pairs
 There are     17318 function pairs (     21505 Cartesian)
 Smallest overlap matrix eigenvalue = 1.43E-04

 Scale SEOQF with 1.000000e-02/1.000000e-01/1.000000e-01

 Standard Electronic Orientation quadrupole field applied
 Nucleus-field energy     =     0.0000000027 hartrees
 Requested basis set is 6-31G(d)
 There are 24 shells and 54 basis functions
 A cutoff of  1.0D-09 yielded    298 shell pairs
 There are      1549 function pairs (      1732 Cartesian)
 Smallest overlap matrix eigenvalue = 7.18E-03
 Guess from superposition of atomic densities
 Warning:  Energy on first SCF cycle will be non-variational
 SAD guess density has 26.000000 electrons
 Long-range K will be added via erf
 Coulomb attenuation parameter = 0.2 bohr**(-1)
 A restricted hybrid HF-DFT SCF calculation will be
 performed using Relaxed Constraint Minimization + Pulay DIIS
 Exchange:     0.2220 Hartree-Fock + 1.0000 wB97X-D + LR-HF
 Correlation:  1.0000 wB97X-D
 Using Euler-Maclaurin-Lebedev (75,302) quadrature formula
 Dispersion:   Grimme D
 SCF converges when DIIS error is below 1.0E-04
 using 6 threads for integral computing
 -------------------------------------------------------
 OpenMP Integral computing Module                
 Release: version 1.0, May 2013, Q-Chem Inc. Pittsburgh 
 -------------------------------------------------------
 using 6 threads for integral computing
 -------------------------------------------------------
 OpenMP Integral computing Module                
 Release: version 1.0, May 2013, Q-Chem Inc. Pittsburgh 
 -------------------------------------------------------
 ---------------------------------------
  Cycle       Energy         DIIS Error
 ---------------------------------------
    1    -155.4423303836      1.06E-01
    2    -154.9202314275      1.36E-02
    3    -154.9486203463      3.05E-03
    4    -154.9749453965      2.41E-03
    5    -154.9756704648      2.29E-04 Done RCA. Switching to DIIS
    6    -154.9764845847      1.01E-04
    7    -154.9764878399      7.54E-06 Convergence criterion met
 ---------------------------------------
 SCF time:  CPU 14.44 s  wall 2.42 s
 SCF   energy in the small basis set = -154.97648784
 Total energy in the small basis set = -154.97648784
 ----------------------------------------------------
  Cycle       Energy    
 ----------------------------------------------------
    1     -18.7512244192     -1.88E+01
 Long-range K will be added via erf
 Coulomb attenuation parameter = 0.2 bohr**(-1)
 A restricted hybrid HF-DFT SCF calculation will be
 performed using Relaxed Constraint Minimization + Pulay DIIS
 Exchange:     0.2220 Hartree-Fock + 1.0000 wB97X-D + LR-HF
 Correlation:  1.0000 wB97X-D
 Using Euler-Maclaurin-Lebedev (75,302) quadrature formula
 Dispersion:   Grimme D
 SCF converges when DIIS error is below 1.0E-05
 Basis2 calculation detected. Using small basis as guess for larger.
 SCFMinFind is unable to tell whether the solution found is close.
 Resetting ReadMinima to 0 and attempting to follow guess.
 SCFMinFind following SCF Guess.
 using 6 threads for integral computing
 -------------------------------------------------------
 OpenMP Integral computing Module                
 Release: version 1.0, May 2013, Q-Chem Inc. Pittsburgh 
 -------------------------------------------------------
 using 6 threads for integral computing
 -------------------------------------------------------
 OpenMP Integral computing Module                
 Release: version 1.0, May 2013, Q-Chem Inc. Pittsburgh 
 -------------------------------------------------------
 ---------------------------------------
  Cycle       Energy         DIIS Error
 ---------------------------------------
    1    -155.0081142138      5.72E-03
    2    -155.0236132638      2.85E-03
    3    -155.0332316889      3.49E-04 Done RCA. Switching to DIIS
    4    -155.0447846444      2.52E-04
    5    -155.0449742953      3.95E-05
    6    -155.0449822746      5.82E-06 Convergence criterion met
 ---------------------------------------
 SCF time:  CPU 39.49 s  wall 6.61 s
 SCF   energy in the final basis set = -155.04498227
 Total energy in the final basis set = -155.04498227
 
 --------------------------------------------------------------
 
                    Orbital Energies (a.u.)
 --------------------------------------------------------------
 
 Alpha MOs
 -- Occupied --
-19.2461 -10.3289 -10.2771  -1.1270  -0.8518  -0.7238  -0.5975  -0.5471
 -0.5200  -0.4785  -0.4554  -0.4135  -0.3602
 -- Virtual --
  0.0633   0.0875   0.0884   0.1017   0.1268   0.1332   0.1371   0.1819
  0.1974   0.2082   0.2399   0.2455   0.2662   0.2847   0.2888   0.3038
  0.3187   0.3233   0.3419   0.3813   0.4594   0.4918   0.5018   0.5221
  0.5708   0.5736   0.5847   0.6038   0.6112   0.6339   0.6622   0.6836
  0.6921   0.7089   0.7390   0.8005   0.8302   0.9096   0.9514   0.9630
  0.9863   1.0449   1.0698   1.0953   1.1452   1.1510   1.1826   1.1979
  1.2432   1.2599   1.2824   1.2979   1.3279   1.3575   1.3928   1.4169
  1.4562   1.4699   1.4744   1.4949   1.5043   1.5260   1.5954   1.6199
  1.6432   1.6973   1.9405   2.0408   2.1211   2.2783   2.2999   2.4548
  2.4828   2.5014   2.5997   2.6041   2.6753   2.8320   2.8542   2.8824
  2.9130   2.9790   2.9911   3.0232   3.0382   3.0529   3.0771   3.0914
  3.1313   3.1577   3.2071   3.2408   3.2592   3.2973   3.3240   3.3527
  3.3701   3.3842   3.4349   3.4842   3.5168   3.5436   3.5586   3.5849
  3.6105   3.6130   3.6505   3.6981   3.7189   3.7607   3.7952   3.8321
  3.8683   3.8901   3.9124   3.9850   4.0025   4.0251   4.0606   4.0945
  4.1039   4.1334   4.1515   4.1934   4.2207   4.2435   4.2849   4.3128
  4.3728   4.4057   4.4859   4.4939   4.5778   4.6366   4.7174   4.7963
  4.8550   4.9003   4.9552   4.9874   5.0040   5.0889   5.1115   5.1820
  5.2304   5.2430   5.2798   5.3051   5.3275   5.3743   5.4689   5.5062
  5.5440   5.6058   5.6867   5.8401   5.9746   6.0010   6.3638   6.3876
  6.4113   6.6544   6.6999   6.8220   7.1288   7.3775   7.4053   7.5667
  7.7306   8.0967  25.1635  25.4263  50.4693
 --------------------------------------------------------------
 
 -----------------------------------------------------------------
                    Cartesian Multipole Moments
 -----------------------------------------------------------------
    Charge (ESU x 10^10)
                 0.0000
    Dipole Moment (Debye)
         X      -1.3509      Y      -0.4553      Z       1.1812
       Tot       1.8513
    Quadrupole Moments (Debye-Ang)
        XX     -11.0409     XY      -0.4251     YY     -18.8469
        XZ      -3.1929     YZ      -0.2503     ZZ     -19.9967
    Octopole Moments (Debye-Ang^2)
       XXX     209.6527    XXY      -4.9576    XYY      80.0671
       YYY     -37.0570    XXZ       8.3766    XYZ       0.4102
       YYZ      -0.5212    XZZ      84.6803    YZZ     -13.3612
       ZZZ       1.3345
    Hexadecapole Moments (Debye-Ang^3)
      XXXX   -2114.8580   XXXY     106.0482   XXYY    -385.2583
      XYYY     151.5146   YYYY    -105.0123   XXXZ     -17.9377
      XXYZ       1.5375   XYYZ       3.0525   YYYZ      -4.2129
      XXZZ    -391.3857   XYZZ      55.2323   YYZZ     -23.5515
      XZZZ      -0.3644   YZZZ      -0.7130   ZZZZ     -36.2198
 -----------------------------------------------------------------
Archival summary:
1\1\centos77-c7\SP\ProcedureUnspecified\BasisUnspecified\126\shihchen\MonJul2714:28:102020MonJul2714:28:102020\0\\#,ProcedureUnspecified,BasisUnspecified,\\0,1\C\H,1,1.08809\H,1,1.09799,2,107.291\O,1,1.41619,2,107.572,3,-115.99,0\H,4,0.957284,1,107.44,2,176.262,0\C,1,1.5191,2,116.956,3,116.091,0\H,6,1.0881,1,119.568,2,70.2147,0\H,6,1.09115,1,110.302,2,-58.8436,0\H,6,1.09451,1,101.678,2,-170.122,0\\\@

 Total job time:  11.27s(wall), 58.04s(cpu) 
 Mon Jul 27 14:28:10 2020

        *************************************************************
        *                                                           *
        *  Thank you very much for using Q-Chem.  Have a nice day.  *
        *                                                           *
        *************************************************************


