                  Welcome to Q-Chem
     A Quantum Leap Into The Future Of Chemistry


 Q-Chem 5.3 (devel), Q-Chem, Inc., Pleasanton, CA (2020)

 Yihan Shao,  Zhengting Gan,  E. Epifanovsky,  A. T. B. Gilbert,  M. Wormit,  
 J. Kussmann,  A. W. Lange,  A. Behn,  Jia Deng,  Xintian Feng,  D. Ghosh,  
 M. Goldey,  P. R. Horn,  L. D. Jacobson,  I. Kaliman,  T. Kus,  A. Landau,  
 Jie Liu,  E. I. Proynov,  R. M. Richard,  R. P. Steele,  E. J. Sundstrom,  
 H. L. Woodcock III,  P. M. Zimmerman,  D. Zuev,  B. Alam,  B. Albrecht,  
 E. Alguire,  S. A. Baeppler,  D. Barton,  Z. Benda,  Y. A. Bernard,  
 E. J. Berquist,  K. B. Bravaya,  H. Burton,  K. Carter-Fenk,  D. Casanova,  
 Chun-Min Chang,  Yunqing Chen,  A. Chien,  K. D. Closser,  M. P. Coons,  
 S. Coriani,  S. Dasgupta,  A. L. Dempwolff,  M. Diedenhofen,  Hainam Do,  
 R. G. Edgar,  Po-Tung Fang,  S. Faraji,  S. Fatehi,  Qingguo Feng,  
 J. Fosso-Tande,  J. Gayvert,  Qinghui Ge,  A. Ghysels,  G. Gidofalvi,  
 J. Gomes,  J. Gonthier,  A. Gunina,  D. Hait,  M. W. D. Hanson-Heine,  
 P. H. P. Harbach,  A. W. Hauser,  M. F. Herbst,  J. E. Herr,  
 E. G. Hohenstein,  Z. C. Holden,  Kerwin Hui,  B. C. Huynh,  T.-C. Jagau,  
 Hyunjun Ji,  B. Kaduk,  K. Khistyaev,  Jaehoon Kim,  P. Klunzinger,  K. Koh,  
 D. Kosenkov,  L. Koulias,  T. Kowalczyk,  C. M. Krauter,  A. Kunitsa,  
 Ka Un Lao,  A. Laurent,  K. V. Lawler,  Joonho Lee,  D. Lefrancois,  
 S. Lehtola,  D. S. Levine,  Yi-Pei Li,  You-Sheng Lin,  Fenglai Liu,  
 Kuan-Yu Liu,  E. Livshits,  M. Loipersberger,  A. Luenser,  P. Manohar,  
 E. Mansoor,  S. F. Manzer,  Shan-Ping Mao,  Yuezhi Mao,  N. Mardirossian,  
 A. V. Marenich,  T. Markovich,  L. A. Martinez-Martinez,  S. A. Maurer,  
 N. J. Mayhall,  S. C. McKenzie,  J.-M. Mewes,  P. Morgante,  A. F. Morrison,  
 J. W. Mullinax,  K. Nanda,  T. S. Nguyen-Beck,  R. Olivares-Amaya,  
 K. J. Oosterbaan,  J. A. Parkhill,  S. K. Paul,  F. Pavosevic,  Zheng Pei,  
 T. M. Perrine,  F. Plasser,  P. Pokhilko,  S. Prager,  A. Prociuk,  
 E. Ramos,  B. Rana,  D. R. Rehn,  F. Rob,  M. Scheurer,  M. Schneider,  
 N. Sergueev,  S. M. Sharada,  S. Sharma,  D. W. Small,  T. Stauch,  
 C. J. Stein,  T. Stein,  Yu-Chuan Su,  S. P. Veccham,  Zhen Tao,  
 A. J. W. Thom,  A. Tkatchenko,  T. Tsuchimochi,  N. M. Tubman,  L. Vogt,  
 M. L. Vidal,  O. Vydrov,  M. A. Watson,  J. Wenzel,  M. de Wergifosse,  
 T. A. Wesolowski,  A. White,  J. Witte,  A. Yamada,  Jun Yang,  K. Yao,  
 S. Yeganeh,  S. R. Yost,  Zhi-Qiang You,  A. Zech,  Igor Ying Zhang,  
 Xing Zhang,  Yan Zhao,  Ying Zhu,  B. R. Brooks,  G. K. L. Chan,  
 C. J. Cramer,  M. S. Gordon,  W. J. Hehre,  A. Klamt,  M. W. Schmidt,  
 C. D. Sherrill,  D. G. Truhlar,  A. Aspuru-Guzik,  R. Baer,  A. T. Bell,  
 N. A. Besley,  Jeng-Da Chai,  A. E. DePrince, III,  R. A. DiStasio Jr.,  
 A. Dreuw,  B. D. Dunietz,  T. R. Furlani,  Chao-Ping Hsu,  Yousung Jung,  
 Jing Kong,  D. S. Lambrecht,  WanZhen Liang,  C. Ochsenfeld,  
 V. A. Rassolov,  L. V. Slipchenko,  J. E. Subotnik,  T. Van Voorhis,  
 J. M. Herbert,  A. I. Krylov,  P. M. W. Gill,  M. Head-Gordon

 Contributors to earlier versions of Q-Chem not listed above: 
 R. D. Adamson,  B. Austin,  J. Baker,  G. J. O. Beran,  K. Brandhorst,  
 S. T. Brown,  E. F. C. Byrd,  A. K. Chakraborty,  C.-L. Cheng,  
 Siu Hung Chien,  D. M. Chipman,  D. L. Crittenden,  H. Dachsel,  
 R. J. Doerksen,  A. D. Dutoi,  L. Fusti-Molnar,  W. A. Goddard III,  
 A. Golubeva-Zadorozhnaya,  S. R. Gwaltney,  G. Hawkins,  A. Heyden,  
 S. Hirata,  G. Kedziora,  F. J. Keil,  C. Kelley,  Jihan Kim,  R. A. King,  
 R. Z. Khaliullin,  P. P. Korambath,  W. Kurlancheek,  A. M. Lee,  M. S. Lee,  
 S. V. Levchenko,  Ching Yeh Lin,  D. Liotard,  R. C. Lochan,  I. Lotan,  
 P. E. Maslen,  N. Nair,  D. P. O'Neill,  D. Neuhauser,  E. Neuscamman,  
 C. M. Oana,  R. Olson,  B. Peters,  R. Peverati,  P. A. Pieniazek,  
 Y. M. Rhee,  J. Ritchie,  M. A. Rohrdanz,  E. Rosta,  N. J. Russ,  
 H. F. Schaefer III,  N. E. Schultz,  N. Shenvi,  A. C. Simmonett,  A. Sodt,  
 D. Stuck,  K. S. Thanthiriwatte,  V. Vanovschi,  Tao Wang,  A. Warshel,  
 C. F. Williams,  Q. Wu,  X. Xu,  W. Zhang

 Please cite Q-Chem as follows:
 Y. Shao et al., Mol. Phys. 113, 184-215 (2015)
 DOI: 10.1080/00268976.2014.952696

 Q-Chem 5.3.0 for Intel X86 EM64T Linux

 Parts of Q-Chem use Armadillo 9.800.1 (Horizon Scraper).
 http://arma.sourceforge.net/

 Q-Chem begins on Mon Jul 27 14:43:58 2020  

Host: centos77-c7
0

     Scratch files written to /tmp/29924.centos77-h1/qchem109249//
Processing $rem in /opt/qchem-5.3.0-intel2020u1//config/preferences:
Processing $rem in /home/shihchengli/.qchemrc:

Checking the input file for inconsistencies... 	...done.

--------------------------------------------------------------
User input:
--------------------------------------------------------------
$rem
   JOBTYPE  sp
   EXCHANGE   omegaB97X-D
   BASIS   6-311+G(2df,2pd)
   UNRESTRICTED   False
   max_scf_cycles   250
   geom_opt_max_cycles   1500
   basis2 6-31G*
   scf_algorithm rca_diis
   SYM_IGNORE  TRUE
   print_input   true
   geom_opt_dmax   80
   pop_mulliken false
   XC_GRID 000075000302
$end

$molecule
0 1
C       -5.4676405087     0.2192319016     0.0257476682
C       -4.2185601052     1.1379890226     0.1259840266
H       -5.3263668021     -0.0257674302     -1.0206840972
H       -6.1657183111     0.9795866574     0.3648912522
H       -5.1537405805     -0.5084604774     0.7719037368
O       -3.0169904628     0.4946078119     -0.2899842853
H       -4.1060094073     1.5779756842     1.1265612749
H       -4.1570020912     1.9574234354     -0.5893403948
H       -2.9907817311     -0.2153666055     0.3552308188
$end
--------------------------------------------------------------
 ----------------------------------------------------------------
             Standard Nuclear Orientation (Angstroms)
    I     Atom           X                Y                Z
 ----------------------------------------------------------------
    1      C      -5.4676405087     0.2192319016     0.0257476682
    2      C      -4.2185601052     1.1379890226     0.1259840266
    3      H      -5.3263668021    -0.0257674302    -1.0206840972
    4      H      -6.1657183111     0.9795866574     0.3648912522
    5      H      -5.1537405805    -0.5084604774     0.7719037368
    6      O      -3.0169904628     0.4946078119    -0.2899842853
    7      H      -4.1060094073     1.5779756842     1.1265612749
    8      H      -4.1570020912     1.9574234354    -0.5893403948
    9      H      -2.9907817311    -0.2153666055     0.3552308188
 ----------------------------------------------------------------
 Nuclear Repulsion Energy =          82.25913109 hartrees
 There are       13 alpha and       13 beta electrons
 Requested basis set is 6-311+G(2df,2pd)
 There are 60 shells and 186 basis functions

 Total QAlloc Memory Limit   2000 MB
 Mega-Array Size       188 MB
 MEM_STATIC part       192 MB

                       Distance Matrix (Angstroms)
             C (  1)   C (  2)   H (  3)   H (  4)   H (  5)   O (  6)
   C (  2)  1.553822
   H (  3)  1.083975  1.973933
   H (  4)  1.086495  1.968145  1.906585
   H (  5)  1.088494  2.000643  1.864447  1.845005
   O (  6)  2.486203  1.425040  2.477485  3.252469  2.588330
   H (  7)  2.216307  1.098822  2.944814  2.276096  2.361512  2.089557
   H (  8)  2.262171  1.089473  2.342332  2.429334  2.987818  1.878582
   H (  9)  2.536191  1.841620  2.717360  3.392378  2.222141  0.959715
             H (  7)   H (  8)
   H (  8)  1.758095
   H (  9)  2.248279  2.640701
 
 A cutoff of  1.0D-09 yielded   1801 shell pairs
 There are     17457 function pairs (     21685 Cartesian)
 Smallest overlap matrix eigenvalue = 1.64E-04

 Scale SEOQF with 1.000000e-02/1.000000e-01/1.000000e-01

 Standard Electronic Orientation quadrupole field applied
 Nucleus-field energy     =     0.0000000026 hartrees
 Requested basis set is 6-31G(d)
 There are 24 shells and 54 basis functions
 A cutoff of  1.0D-09 yielded    298 shell pairs
 There are      1549 function pairs (      1732 Cartesian)
 Smallest overlap matrix eigenvalue = 7.06E-03
 Guess from superposition of atomic densities
 Warning:  Energy on first SCF cycle will be non-variational
 SAD guess density has 26.000000 electrons
 Long-range K will be added via erf
 Coulomb attenuation parameter = 0.2 bohr**(-1)
 A restricted hybrid HF-DFT SCF calculation will be
 performed using Relaxed Constraint Minimization + Pulay DIIS
 Exchange:     0.2220 Hartree-Fock + 1.0000 wB97X-D + LR-HF
 Correlation:  1.0000 wB97X-D
 Using Euler-Maclaurin-Lebedev (75,302) quadrature formula
 Dispersion:   Grimme D
 SCF converges when DIIS error is below 1.0E-04
 using 6 threads for integral computing
 -------------------------------------------------------
 OpenMP Integral computing Module                
 Release: version 1.0, May 2013, Q-Chem Inc. Pittsburgh 
 -------------------------------------------------------
 using 6 threads for integral computing
 -------------------------------------------------------
 OpenMP Integral computing Module                
 Release: version 1.0, May 2013, Q-Chem Inc. Pittsburgh 
 -------------------------------------------------------
 ---------------------------------------
  Cycle       Energy         DIIS Error
 ---------------------------------------
    1    -155.4436972547      1.06E-01
    2    -154.8916689567      1.37E-02
    3    -154.9204615329      3.07E-03
    4    -154.9482337267      2.39E-03
    5    -154.9489611376      2.58E-04 Done RCA. Switching to DIIS
    6    -154.9497961196      1.20E-04
    7    -154.9498010253      8.99E-06 Convergence criterion met
 ---------------------------------------
 SCF time:  CPU 14.69 s  wall 2.46 s
 SCF   energy in the small basis set = -154.94980103
 Total energy in the small basis set = -154.94980103
 ----------------------------------------------------
  Cycle       Energy    
 ----------------------------------------------------
    1     -18.7452846545     -1.87E+01
 Long-range K will be added via erf
 Coulomb attenuation parameter = 0.2 bohr**(-1)
 A restricted hybrid HF-DFT SCF calculation will be
 performed using Relaxed Constraint Minimization + Pulay DIIS
 Exchange:     0.2220 Hartree-Fock + 1.0000 wB97X-D + LR-HF
 Correlation:  1.0000 wB97X-D
 Using Euler-Maclaurin-Lebedev (75,302) quadrature formula
 Dispersion:   Grimme D
 SCF converges when DIIS error is below 1.0E-05
 Basis2 calculation detected. Using small basis as guess for larger.
 SCFMinFind is unable to tell whether the solution found is close.
 Resetting ReadMinima to 0 and attempting to follow guess.
 SCFMinFind following SCF Guess.
 using 6 threads for integral computing
 -------------------------------------------------------
 OpenMP Integral computing Module                
 Release: version 1.0, May 2013, Q-Chem Inc. Pittsburgh 
 -------------------------------------------------------
 using 6 threads for integral computing
 -------------------------------------------------------
 OpenMP Integral computing Module                
 Release: version 1.0, May 2013, Q-Chem Inc. Pittsburgh 
 -------------------------------------------------------
 ---------------------------------------
  Cycle       Energy         DIIS Error
 ---------------------------------------
    1    -154.9813846079      5.73E-03
    2    -154.9959161388      2.94E-03
    3    -155.0061190618      3.85E-04 Done RCA. Switching to DIIS
    4    -155.0185502675      2.93E-04
    5    -155.0188061714      3.96E-05
    6    -155.0188145010      6.00E-06 Convergence criterion met
 ---------------------------------------
 SCF time:  CPU 40.63 s  wall 6.79 s
 SCF   energy in the final basis set = -155.01881450
 Total energy in the final basis set = -155.01881450
 
 --------------------------------------------------------------
 
                    Orbital Energies (a.u.)
 --------------------------------------------------------------
 
 Alpha MOs
 -- Occupied --
-19.2485 -10.3258 -10.2823  -1.1307  -0.8565  -0.7157  -0.6009  -0.5477
 -0.5212  -0.4699  -0.4604  -0.4174  -0.3584
 -- Virtual --
  0.0630   0.0869   0.0914   0.0978   0.1269   0.1285   0.1343   0.1822
  0.1952   0.2052   0.2280   0.2474   0.2673   0.2739   0.2876   0.2953
  0.3032   0.3279   0.3373   0.3801   0.4477   0.4750   0.4904   0.5210
  0.5664   0.5800   0.5876   0.6048   0.6212   0.6328   0.6496   0.6735
  0.6779   0.6994   0.7515   0.8331   0.8519   0.9018   0.9155   0.9373
  0.9969   1.0441   1.0674   1.0896   1.1261   1.1754   1.1823   1.1977
  1.2400   1.2776   1.2881   1.3036   1.3367   1.3671   1.3807   1.4211
  1.4272   1.4529   1.4575   1.4614   1.4897   1.5097   1.5568   1.6025
  1.6922   1.7100   1.9226   1.9882   2.1072   2.2385   2.2874   2.5269
  2.5405   2.5742   2.6193   2.7031   2.7502   2.8182   2.8352   2.8454
  2.8801   2.9093   2.9314   2.9725   3.0070   3.0229   3.0484   3.0951
  3.1439   3.1650   3.1733   3.2303   3.2636   3.2835   3.3305   3.3597
  3.3779   3.4120   3.4597   3.4678   3.4922   3.5360   3.5491   3.5681
  3.5946   3.6408   3.6603   3.6962   3.7056   3.7377   3.7749   3.8116
  3.8523   3.9020   3.9104   3.9281   3.9565   3.9726   4.0265   4.0575
  4.0995   4.1296   4.1500   4.1865   4.2362   4.2655   4.2951   4.3579
  4.4026   4.4649   4.4806   4.5569   4.5988   4.6955   4.7359   4.7752
  4.8542   4.8753   4.9427   4.9570   5.0041   5.0309   5.0614   5.0895
  5.1564   5.2182   5.2600   5.3111   5.4322   5.4831   5.5255   5.6152
  5.6745   5.7242   5.8137   5.9597   5.9964   6.0715   6.2940   6.3222
  6.4092   6.6225   6.6438   6.7961   7.1301   7.4093   7.4166   7.5804
  7.6190   8.0940  25.1322  25.4304  50.4815
 --------------------------------------------------------------
 
 -----------------------------------------------------------------
                    Cartesian Multipole Moments
 -----------------------------------------------------------------
    Charge (ESU x 10^10)
                -0.0000
    Dipole Moment (Debye)
         X      -1.0631      Y      -0.2162      Z       1.3321
       Tot       1.7180
    Quadrupole Moments (Debye-Ang)
        XX     -14.3078     XY      -1.6681     YY     -19.2481
        XZ      -3.9924     YZ      -0.2009     ZZ     -19.5898
    Octopole Moments (Debye-Ang^2)
       XXX     242.6395    XXY       3.8234    XYY      82.5281
       YYY     -35.7325    XXZ      12.8359    XYZ       0.3618
       YYZ       0.1603    XZZ      84.2263    YZZ     -12.1109
       ZZZ       0.4485
    Hexadecapole Moments (Debye-Ang^3)
      XXXX   -2411.2850   XXXY      44.6574   XXYY    -396.3057
      XYYY     146.7060   YYYY    -102.0866   XXXZ     -41.7656
      XXYZ       1.1940   XYYZ       0.4708   YYYZ      -2.8385
      XXZZ    -394.8023   XYZZ      50.0773   YYZZ     -22.2316
      XZZZ       5.9548   YZZZ      -1.4626   ZZZZ     -37.8558
 -----------------------------------------------------------------
Archival summary:
1\1\centos77-c7\SP\ProcedureUnspecified\BasisUnspecified\126\shihchen\MonJul2714:44:102020MonJul2714:44:102020\0\\#,ProcedureUnspecified,BasisUnspecified,\\0,1\C\H,1,1.08947\H,1,1.09882,2,106.913\O,1,1.42504,2,95.7553,3,-114.145,0\H,4,0.959715,1,99.2521,2,176.482,0\C,1,1.55382,2,116.602,3,126.439,0\H,6,1.08398,1,95.2297,2,54.8978,0\H,6,1.08649,1,94.7357,2,-68.8106,0\H,6,1.08849,1,96.8489,2,174.202,0\\\@

 Total job time:  11.51s(wall), 59.25s(cpu) 
 Mon Jul 27 14:44:10 2020

        *************************************************************
        *                                                           *
        *  Thank you very much for using Q-Chem.  Have a nice day.  *
        *                                                           *
        *************************************************************


