                  Welcome to Q-Chem
     A Quantum Leap Into The Future Of Chemistry


 Q-Chem 5.3 (devel), Q-Chem, Inc., Pleasanton, CA (2020)

 Yihan Shao,  Zhengting Gan,  E. Epifanovsky,  A. T. B. Gilbert,  M. Wormit,  
 J. Kussmann,  A. W. Lange,  A. Behn,  Jia Deng,  Xintian Feng,  D. Ghosh,  
 M. Goldey,  P. R. Horn,  L. D. Jacobson,  I. Kaliman,  T. Kus,  A. Landau,  
 Jie Liu,  E. I. Proynov,  R. M. Richard,  R. P. Steele,  E. J. Sundstrom,  
 H. L. Woodcock III,  P. M. Zimmerman,  D. Zuev,  B. Alam,  B. Albrecht,  
 E. Alguire,  S. A. Baeppler,  D. Barton,  Z. Benda,  Y. A. Bernard,  
 E. J. Berquist,  K. B. Bravaya,  H. Burton,  K. Carter-Fenk,  D. Casanova,  
 Chun-Min Chang,  Yunqing Chen,  A. Chien,  K. D. Closser,  M. P. Coons,  
 S. Coriani,  S. Dasgupta,  A. L. Dempwolff,  M. Diedenhofen,  Hainam Do,  
 R. G. Edgar,  Po-Tung Fang,  S. Faraji,  S. Fatehi,  Qingguo Feng,  
 J. Fosso-Tande,  J. Gayvert,  Qinghui Ge,  A. Ghysels,  G. Gidofalvi,  
 J. Gomes,  J. Gonthier,  A. Gunina,  D. Hait,  M. W. D. Hanson-Heine,  
 P. H. P. Harbach,  A. W. Hauser,  M. F. Herbst,  J. E. Herr,  
 E. G. Hohenstein,  Z. C. Holden,  Kerwin Hui,  B. C. Huynh,  T.-C. Jagau,  
 Hyunjun Ji,  B. Kaduk,  K. Khistyaev,  Jaehoon Kim,  P. Klunzinger,  K. Koh,  
 D. Kosenkov,  L. Koulias,  T. Kowalczyk,  C. M. Krauter,  A. Kunitsa,  
 Ka Un Lao,  A. Laurent,  K. V. Lawler,  Joonho Lee,  D. Lefrancois,  
 S. Lehtola,  D. S. Levine,  Yi-Pei Li,  You-Sheng Lin,  Fenglai Liu,  
 Kuan-Yu Liu,  E. Livshits,  M. Loipersberger,  A. Luenser,  P. Manohar,  
 E. Mansoor,  S. F. Manzer,  Shan-Ping Mao,  Yuezhi Mao,  N. Mardirossian,  
 A. V. Marenich,  T. Markovich,  L. A. Martinez-Martinez,  S. A. Maurer,  
 N. J. Mayhall,  S. C. McKenzie,  J.-M. Mewes,  P. Morgante,  A. F. Morrison,  
 J. W. Mullinax,  K. Nanda,  T. S. Nguyen-Beck,  R. Olivares-Amaya,  
 K. J. Oosterbaan,  J. A. Parkhill,  S. K. Paul,  F. Pavosevic,  Zheng Pei,  
 T. M. Perrine,  F. Plasser,  P. Pokhilko,  S. Prager,  A. Prociuk,  
 E. Ramos,  B. Rana,  D. R. Rehn,  F. Rob,  M. Scheurer,  M. Schneider,  
 N. Sergueev,  S. M. Sharada,  S. Sharma,  D. W. Small,  T. Stauch,  
 C. J. Stein,  T. Stein,  Yu-Chuan Su,  S. P. Veccham,  Zhen Tao,  
 A. J. W. Thom,  A. Tkatchenko,  T. Tsuchimochi,  N. M. Tubman,  L. Vogt,  
 M. L. Vidal,  O. Vydrov,  M. A. Watson,  J. Wenzel,  M. de Wergifosse,  
 T. A. Wesolowski,  A. White,  J. Witte,  A. Yamada,  Jun Yang,  K. Yao,  
 S. Yeganeh,  S. R. Yost,  Zhi-Qiang You,  A. Zech,  Igor Ying Zhang,  
 Xing Zhang,  Yan Zhao,  Ying Zhu,  B. R. Brooks,  G. K. L. Chan,  
 C. J. Cramer,  M. S. Gordon,  W. J. Hehre,  A. Klamt,  M. W. Schmidt,  
 C. D. Sherrill,  D. G. Truhlar,  A. Aspuru-Guzik,  R. Baer,  A. T. Bell,  
 N. A. Besley,  Jeng-Da Chai,  A. E. DePrince, III,  R. A. DiStasio Jr.,  
 A. Dreuw,  B. D. Dunietz,  T. R. Furlani,  Chao-Ping Hsu,  Yousung Jung,  
 Jing Kong,  D. S. Lambrecht,  WanZhen Liang,  C. Ochsenfeld,  
 V. A. Rassolov,  L. V. Slipchenko,  J. E. Subotnik,  T. Van Voorhis,  
 J. M. Herbert,  A. I. Krylov,  P. M. W. Gill,  M. Head-Gordon

 Contributors to earlier versions of Q-Chem not listed above: 
 R. D. Adamson,  B. Austin,  J. Baker,  G. J. O. Beran,  K. Brandhorst,  
 S. T. Brown,  E. F. C. Byrd,  A. K. Chakraborty,  C.-L. Cheng,  
 Siu Hung Chien,  D. M. Chipman,  D. L. Crittenden,  H. Dachsel,  
 R. J. Doerksen,  A. D. Dutoi,  L. Fusti-Molnar,  W. A. Goddard III,  
 A. Golubeva-Zadorozhnaya,  S. R. Gwaltney,  G. Hawkins,  A. Heyden,  
 S. Hirata,  G. Kedziora,  F. J. Keil,  C. Kelley,  Jihan Kim,  R. A. King,  
 R. Z. Khaliullin,  P. P. Korambath,  W. Kurlancheek,  A. M. Lee,  M. S. Lee,  
 S. V. Levchenko,  Ching Yeh Lin,  D. Liotard,  R. C. Lochan,  I. Lotan,  
 P. E. Maslen,  N. Nair,  D. P. O'Neill,  D. Neuhauser,  E. Neuscamman,  
 C. M. Oana,  R. Olson,  B. Peters,  R. Peverati,  P. A. Pieniazek,  
 Y. M. Rhee,  J. Ritchie,  M. A. Rohrdanz,  E. Rosta,  N. J. Russ,  
 H. F. Schaefer III,  N. E. Schultz,  N. Shenvi,  A. C. Simmonett,  A. Sodt,  
 D. Stuck,  K. S. Thanthiriwatte,  V. Vanovschi,  Tao Wang,  A. Warshel,  
 C. F. Williams,  Q. Wu,  X. Xu,  W. Zhang

 Please cite Q-Chem as follows:
 Y. Shao et al., Mol. Phys. 113, 184-215 (2015)
 DOI: 10.1080/00268976.2014.952696

 Q-Chem 5.3.0 for Intel X86 EM64T Linux

 Parts of Q-Chem use Armadillo 9.800.1 (Horizon Scraper).
 http://arma.sourceforge.net/

 Q-Chem begins on Mon Jul 27 14:59:50 2020  

Host: centos77-c7
0

     Scratch files written to /tmp/29924.centos77-h1/qchem113054//
Processing $rem in /opt/qchem-5.3.0-intel2020u1//config/preferences:
Processing $rem in /home/shihchengli/.qchemrc:

Checking the input file for inconsistencies... 	...done.

--------------------------------------------------------------
User input:
--------------------------------------------------------------
$rem
   JOBTYPE  sp
   EXCHANGE   omegaB97X-D
   BASIS   6-311+G(2df,2pd)
   UNRESTRICTED   False
   max_scf_cycles   250
   geom_opt_max_cycles   1500
   basis2 6-31G*
   scf_algorithm rca_diis
   SYM_IGNORE  TRUE
   print_input   true
   geom_opt_dmax   80
   pop_mulliken false
   XC_GRID 000075000302
$end

$molecule
0 1
C       -5.3741855271     0.3080259948     0.0377360050
C       -4.1287034847     1.1700807126     0.1288147034
H       -5.4871101215     -0.0949960719     -0.9685775032
H       -6.2638535637     0.8910932285     0.2812247055
H       -5.3223945993     -0.5291041291     0.7379728512
O       -2.9494568084     0.4680532333     -0.2245469335
H       -4.0344998420     1.5959937165     1.1342295349
H       -4.1952117721     2.0053673221     -0.5700934853
H       -2.8473942811     -0.1972940068     0.3135501221
$end
--------------------------------------------------------------
 ----------------------------------------------------------------
             Standard Nuclear Orientation (Angstroms)
    I     Atom           X                Y                Z
 ----------------------------------------------------------------
    1      C      -5.3741855271     0.3080259948     0.0377360050
    2      C      -4.1287034847     1.1700807126     0.1288147034
    3      H      -5.4871101215    -0.0949960719    -0.9685775032
    4      H      -6.2638535637     0.8910932285     0.2812247055
    5      H      -5.3223945993    -0.5291041291     0.7379728512
    6      O      -2.9494568084     0.4680532333    -0.2245469335
    7      H      -4.0344998420     1.5959937165     1.1342295349
    8      H      -4.1952117721     2.0053673221    -0.5700934853
    9      H      -2.8473942811    -0.1972940068     0.3135501221
 ----------------------------------------------------------------
 Nuclear Repulsion Energy =          82.44295062 hartrees
 There are       13 alpha and       13 beta electrons
 Requested basis set is 6-311+G(2df,2pd)
 There are 60 shells and 186 basis functions

 Total QAlloc Memory Limit   2000 MB
 Mega-Array Size       188 MB
 MEM_STATIC part       192 MB

                       Distance Matrix (Angstroms)
             C (  1)   C (  2)   H (  3)   H (  4)   H (  5)   O (  6)
   C (  2)  1.517452
   H (  3)  1.089883  2.156376
   H (  4)  1.091221  2.158687  1.771358
   H (  5)  1.092612  2.164071  1.768586  1.764065
   O (  6)  2.444118  1.417156  2.703755  3.379348  2.748018
   H (  7)  2.157757  1.095963  3.064526  2.488879  2.516294  2.072641
   H (  8)  2.154160  1.091146  2.497863  2.499126  3.066777  2.008642
   H (  9)  2.591543  1.882975  2.936395  3.585781  2.532955  0.861773
             H (  7)   H (  8)
   H (  8)  1.760151
   H (  9)  2.301872  2.729314
 
 A cutoff of  1.0D-09 yielded   1786 shell pairs
 There are     17308 function pairs (     21493 Cartesian)
 Smallest overlap matrix eigenvalue = 1.36E-04

 Scale SEOQF with 1.000000e-02/1.000000e-01/1.000000e-01

 Standard Electronic Orientation quadrupole field applied
 Nucleus-field energy     =     0.0000000026 hartrees
 Requested basis set is 6-31G(d)
 There are 24 shells and 54 basis functions
 A cutoff of  1.0D-09 yielded    298 shell pairs
 There are      1549 function pairs (      1732 Cartesian)
 Smallest overlap matrix eigenvalue = 7.19E-03
 Guess from superposition of atomic densities
 Warning:  Energy on first SCF cycle will be non-variational
 SAD guess density has 26.000000 electrons
 Long-range K will be added via erf
 Coulomb attenuation parameter = 0.2 bohr**(-1)
 A restricted hybrid HF-DFT SCF calculation will be
 performed using Relaxed Constraint Minimization + Pulay DIIS
 Exchange:     0.2220 Hartree-Fock + 1.0000 wB97X-D + LR-HF
 Correlation:  1.0000 wB97X-D
 Using Euler-Maclaurin-Lebedev (75,302) quadrature formula
 Dispersion:   Grimme D
 SCF converges when DIIS error is below 1.0E-04
 using 6 threads for integral computing
 -------------------------------------------------------
 OpenMP Integral computing Module                
 Release: version 1.0, May 2013, Q-Chem Inc. Pittsburgh 
 -------------------------------------------------------
 using 6 threads for integral computing
 -------------------------------------------------------
 OpenMP Integral computing Module                
 Release: version 1.0, May 2013, Q-Chem Inc. Pittsburgh 
 -------------------------------------------------------
 ---------------------------------------
  Cycle       Energy         DIIS Error
 ---------------------------------------
    1    -155.4966628858      1.09E-01
    2    -154.9120213827      1.40E-02
    3    -154.9416012416      2.99E-03
    4    -154.9685408418      2.34E-03
    5    -154.9692346515      2.06E-04 Done RCA. Switching to DIIS
    6    -154.9699911200      6.29E-05 Convergence criterion met
 ---------------------------------------
 SCF time:  CPU 13.05 s  wall 2.19 s
 SCF   energy in the small basis set = -154.96999112
 Total energy in the small basis set = -154.96999112
 ----------------------------------------------------
  Cycle       Energy    
 ----------------------------------------------------
    1     -18.7967223393     -1.88E+01
 Long-range K will be added via erf
 Coulomb attenuation parameter = 0.2 bohr**(-1)
 A restricted hybrid HF-DFT SCF calculation will be
 performed using Relaxed Constraint Minimization + Pulay DIIS
 Exchange:     0.2220 Hartree-Fock + 1.0000 wB97X-D + LR-HF
 Correlation:  1.0000 wB97X-D
 Using Euler-Maclaurin-Lebedev (75,302) quadrature formula
 Dispersion:   Grimme D
 SCF converges when DIIS error is below 1.0E-05
 Basis2 calculation detected. Using small basis as guess for larger.
 SCFMinFind is unable to tell whether the solution found is close.
 Resetting ReadMinima to 0 and attempting to follow guess.
 SCFMinFind following SCF Guess.
 using 6 threads for integral computing
 -------------------------------------------------------
 OpenMP Integral computing Module                
 Release: version 1.0, May 2013, Q-Chem Inc. Pittsburgh 
 -------------------------------------------------------
 using 6 threads for integral computing
 -------------------------------------------------------
 OpenMP Integral computing Module                
 Release: version 1.0, May 2013, Q-Chem Inc. Pittsburgh 
 -------------------------------------------------------
 ---------------------------------------
  Cycle       Energy         DIIS Error
 ---------------------------------------
    1    -155.0037198176      5.71E-03
    2    -155.0208957211      2.70E-03
    3    -155.0295359026      2.95E-04 Done RCA. Switching to DIIS
    4    -155.0395939213      1.77E-04
    5    -155.0396927363      3.77E-05
    6    -155.0396998659      5.23E-06 Convergence criterion met
 ---------------------------------------
 SCF time:  CPU 39.28 s  wall 6.57 s
 SCF   energy in the final basis set = -155.03969987
 Total energy in the final basis set = -155.03969987
 
 --------------------------------------------------------------
 
                    Orbital Energies (a.u.)
 --------------------------------------------------------------
 
 Alpha MOs
 -- Occupied --
-19.2373 -10.3286 -10.2751  -1.1468  -0.8546  -0.7306  -0.6038  -0.5477
 -0.5256  -0.4711  -0.4594  -0.4145  -0.3659
 -- Virtual --
  0.0663   0.0886   0.0905   0.1018   0.1270   0.1336   0.1369   0.1816
  0.2018   0.2179   0.2407   0.2451   0.2792   0.2840   0.2882   0.3063
  0.3154   0.3307   0.3425   0.3812   0.4584   0.4951   0.5011   0.5243
  0.5693   0.5785   0.5795   0.6085   0.6189   0.6542   0.6833   0.6908
  0.6940   0.7120   0.7447   0.8090   0.8492   0.8996   0.9319   0.9483
  0.9794   1.0526   1.0624   1.1099   1.1389   1.1737   1.1766   1.2165
  1.2296   1.2373   1.2809   1.3024   1.3234   1.3566   1.3877   1.4148
  1.4546   1.4639   1.4814   1.4878   1.5284   1.5505   1.6009   1.6491
  1.6562   1.7171   1.9643   2.0498   2.1221   2.2521   2.2810   2.4616
  2.4748   2.5151   2.5517   2.5890   2.7136   2.8445   2.8563   2.9112
  2.9324   2.9843   3.0101   3.0297   3.0502   3.0535   3.0633   3.0805
  3.1030   3.1808   3.2312   3.2637   3.2882   3.2915   3.3078   3.3500
  3.3651   3.4045   3.4236   3.4324   3.5248   3.5689   3.5759   3.5844
  3.6056   3.6157   3.6463   3.7199   3.7254   3.7724   3.8142   3.8183
  3.8968   3.9477   3.9618   3.9850   3.9992   4.0244   4.0444   4.1013
  4.1148   4.1199   4.1736   4.1972   4.2081   4.2400   4.3134   4.3396
  4.3786   4.4034   4.4735   4.5320   4.5786   4.6591   4.7601   4.8637
  4.9335   4.9443   4.9911   5.0059   5.0377   5.0874   5.1518   5.2171
  5.2276   5.2571   5.2882   5.3113   5.3297   5.3658   5.4166   5.4820
  5.5460   5.6298   5.7211   5.8355   5.9761   6.0470   6.3617   6.3857
  6.4095   6.7282   6.9387   7.1201   7.2281   7.3814   7.4185   7.6494
  7.7388   8.4777  25.1722  25.4302  50.7003
 --------------------------------------------------------------
 
 -----------------------------------------------------------------
                    Cartesian Multipole Moments
 -----------------------------------------------------------------
    Charge (ESU x 10^10)
                 0.0000
    Dipole Moment (Debye)
         X      -1.2277      Y      -0.3386      Z       1.2007
       Tot       1.7503
    Quadrupole Moments (Debye-Ang)
        XX     -11.6430     XY      -0.8323     YY     -18.8807
        XZ      -3.1712     YZ      -0.2532     ZZ     -19.8461
    Octopole Moments (Debye-Ang^2)
       XXX     212.2379    XXY      -2.9675    XYY      80.0434
       YYY     -36.5751    XXZ       7.7756    XYZ       0.9550
       YYZ      -0.5193    XZZ      84.3438    YZZ     -12.6286
       ZZZ      -0.4423
    Hexadecapole Moments (Debye-Ang^3)
      XXXX   -2129.7438   XXXY      94.2629   XXYY    -383.6262
      XYYY     149.6002   YYYY    -103.1137   XXXZ     -11.7321
      XXYZ      -3.6658   XYYZ       3.5636   YYYZ      -4.4277
      XXZZ    -391.2964   XYZZ      52.3451   YYZZ     -22.2918
      XZZZ       8.4049   YZZZ      -2.0203   ZZZZ     -36.3905
 -----------------------------------------------------------------
Archival summary:
1\1\centos77-c7\SP\ProcedureUnspecified\BasisUnspecified\126\shihchen\MonJul2715:00:012020MonJul2715:00:012020\0\\#,ProcedureUnspecified,BasisUnspecified,\\0,1\C\H,1,1.09115\H,1,1.09596,2,107.179\O,1,1.41716,2,105.678,3,-117.838,0\H,4,0.861773,1,108.985,2,179.003,0\C,1,1.51745,2,110.268,3,120.043,0\H,6,1.08988,1,110.52,2,60.2407,0\H,6,1.09122,1,110.624,2,-60.0874,0\H,6,1.09261,1,110.97,2,-179.644,0\\\@

 Total job time:  10.92s(wall), 56.14s(cpu) 
 Mon Jul 27 15:00:01 2020

        *************************************************************
        *                                                           *
        *  Thank you very much for using Q-Chem.  Have a nice day.  *
        *                                                           *
        *************************************************************


