                  Welcome to Q-Chem
     A Quantum Leap Into The Future Of Chemistry


 Q-Chem 5.3 (devel), Q-Chem, Inc., Pleasanton, CA (2020)

 Yihan Shao,  Zhengting Gan,  E. Epifanovsky,  A. T. B. Gilbert,  M. Wormit,  
 J. Kussmann,  A. W. Lange,  A. Behn,  Jia Deng,  Xintian Feng,  D. Ghosh,  
 M. Goldey,  P. R. Horn,  L. D. Jacobson,  I. Kaliman,  T. Kus,  A. Landau,  
 Jie Liu,  E. I. Proynov,  R. M. Richard,  R. P. Steele,  E. J. Sundstrom,  
 H. L. Woodcock III,  P. M. Zimmerman,  D. Zuev,  B. Alam,  B. Albrecht,  
 E. Alguire,  S. A. Baeppler,  D. Barton,  Z. Benda,  Y. A. Bernard,  
 E. J. Berquist,  K. B. Bravaya,  H. Burton,  K. Carter-Fenk,  D. Casanova,  
 Chun-Min Chang,  Yunqing Chen,  A. Chien,  K. D. Closser,  M. P. Coons,  
 S. Coriani,  S. Dasgupta,  A. L. Dempwolff,  M. Diedenhofen,  Hainam Do,  
 R. G. Edgar,  Po-Tung Fang,  S. Faraji,  S. Fatehi,  Qingguo Feng,  
 J. Fosso-Tande,  J. Gayvert,  Qinghui Ge,  A. Ghysels,  G. Gidofalvi,  
 J. Gomes,  J. Gonthier,  A. Gunina,  D. Hait,  M. W. D. Hanson-Heine,  
 P. H. P. Harbach,  A. W. Hauser,  M. F. Herbst,  J. E. Herr,  
 E. G. Hohenstein,  Z. C. Holden,  Kerwin Hui,  B. C. Huynh,  T.-C. Jagau,  
 Hyunjun Ji,  B. Kaduk,  K. Khistyaev,  Jaehoon Kim,  P. Klunzinger,  K. Koh,  
 D. Kosenkov,  L. Koulias,  T. Kowalczyk,  C. M. Krauter,  A. Kunitsa,  
 Ka Un Lao,  A. Laurent,  K. V. Lawler,  Joonho Lee,  D. Lefrancois,  
 S. Lehtola,  D. S. Levine,  Yi-Pei Li,  You-Sheng Lin,  Fenglai Liu,  
 Kuan-Yu Liu,  E. Livshits,  M. Loipersberger,  A. Luenser,  P. Manohar,  
 E. Mansoor,  S. F. Manzer,  Shan-Ping Mao,  Yuezhi Mao,  N. Mardirossian,  
 A. V. Marenich,  T. Markovich,  L. A. Martinez-Martinez,  S. A. Maurer,  
 N. J. Mayhall,  S. C. McKenzie,  J.-M. Mewes,  P. Morgante,  A. F. Morrison,  
 J. W. Mullinax,  K. Nanda,  T. S. Nguyen-Beck,  R. Olivares-Amaya,  
 K. J. Oosterbaan,  J. A. Parkhill,  S. K. Paul,  F. Pavosevic,  Zheng Pei,  
 T. M. Perrine,  F. Plasser,  P. Pokhilko,  S. Prager,  A. Prociuk,  
 E. Ramos,  B. Rana,  D. R. Rehn,  F. Rob,  M. Scheurer,  M. Schneider,  
 N. Sergueev,  S. M. Sharada,  S. Sharma,  D. W. Small,  T. Stauch,  
 C. J. Stein,  T. Stein,  Yu-Chuan Su,  S. P. Veccham,  Zhen Tao,  
 A. J. W. Thom,  A. Tkatchenko,  T. Tsuchimochi,  N. M. Tubman,  L. Vogt,  
 M. L. Vidal,  O. Vydrov,  M. A. Watson,  J. Wenzel,  M. de Wergifosse,  
 T. A. Wesolowski,  A. White,  J. Witte,  A. Yamada,  Jun Yang,  K. Yao,  
 S. Yeganeh,  S. R. Yost,  Zhi-Qiang You,  A. Zech,  Igor Ying Zhang,  
 Xing Zhang,  Yan Zhao,  Ying Zhu,  B. R. Brooks,  G. K. L. Chan,  
 C. J. Cramer,  M. S. Gordon,  W. J. Hehre,  A. Klamt,  M. W. Schmidt,  
 C. D. Sherrill,  D. G. Truhlar,  A. Aspuru-Guzik,  R. Baer,  A. T. Bell,  
 N. A. Besley,  Jeng-Da Chai,  A. E. DePrince, III,  R. A. DiStasio Jr.,  
 A. Dreuw,  B. D. Dunietz,  T. R. Furlani,  Chao-Ping Hsu,  Yousung Jung,  
 Jing Kong,  D. S. Lambrecht,  WanZhen Liang,  C. Ochsenfeld,  
 V. A. Rassolov,  L. V. Slipchenko,  J. E. Subotnik,  T. Van Voorhis,  
 J. M. Herbert,  A. I. Krylov,  P. M. W. Gill,  M. Head-Gordon

 Contributors to earlier versions of Q-Chem not listed above: 
 R. D. Adamson,  B. Austin,  J. Baker,  G. J. O. Beran,  K. Brandhorst,  
 S. T. Brown,  E. F. C. Byrd,  A. K. Chakraborty,  C.-L. Cheng,  
 Siu Hung Chien,  D. M. Chipman,  D. L. Crittenden,  H. Dachsel,  
 R. J. Doerksen,  A. D. Dutoi,  L. Fusti-Molnar,  W. A. Goddard III,  
 A. Golubeva-Zadorozhnaya,  S. R. Gwaltney,  G. Hawkins,  A. Heyden,  
 S. Hirata,  G. Kedziora,  F. J. Keil,  C. Kelley,  Jihan Kim,  R. A. King,  
 R. Z. Khaliullin,  P. P. Korambath,  W. Kurlancheek,  A. M. Lee,  M. S. Lee,  
 S. V. Levchenko,  Ching Yeh Lin,  D. Liotard,  R. C. Lochan,  I. Lotan,  
 P. E. Maslen,  N. Nair,  D. P. O'Neill,  D. Neuhauser,  E. Neuscamman,  
 C. M. Oana,  R. Olson,  B. Peters,  R. Peverati,  P. A. Pieniazek,  
 Y. M. Rhee,  J. Ritchie,  M. A. Rohrdanz,  E. Rosta,  N. J. Russ,  
 H. F. Schaefer III,  N. E. Schultz,  N. Shenvi,  A. C. Simmonett,  A. Sodt,  
 D. Stuck,  K. S. Thanthiriwatte,  V. Vanovschi,  Tao Wang,  A. Warshel,  
 C. F. Williams,  Q. Wu,  X. Xu,  W. Zhang

 Please cite Q-Chem as follows:
 Y. Shao et al., Mol. Phys. 113, 184-215 (2015)
 DOI: 10.1080/00268976.2014.952696

 Q-Chem 5.3.0 for Intel X86 EM64T Linux

 Parts of Q-Chem use Armadillo 9.800.1 (Horizon Scraper).
 http://arma.sourceforge.net/

 Q-Chem begins on Mon Jul 27 14:53:58 2020  

Host: centos77-c7
0

     Scratch files written to /tmp/29924.centos77-h1/qchem111671//
Processing $rem in /opt/qchem-5.3.0-intel2020u1//config/preferences:
Processing $rem in /home/shihchengli/.qchemrc:

Checking the input file for inconsistencies... 	...done.

--------------------------------------------------------------
User input:
--------------------------------------------------------------
$rem
   JOBTYPE  sp
   EXCHANGE   omegaB97X-D
   BASIS   6-311+G(2df,2pd)
   UNRESTRICTED   False
   max_scf_cycles   250
   geom_opt_max_cycles   1500
   basis2 6-31G*
   scf_algorithm rca_diis
   SYM_IGNORE  TRUE
   print_input   true
   geom_opt_dmax   80
   pop_mulliken false
   XC_GRID 000075000302
$end

$molecule
0 1
C       -5.3397349093     0.3416909364     0.0259242737
C       -4.1122320321     1.1904127913     0.1181557018
H       -5.4926860209     -0.1420050764     -1.1695691747
H       -6.4317715045     1.0310427622     0.3299458180
H       -5.2840627608     -0.7213967858     0.8999702578
O       -2.9333571778     0.4979205603     -0.2455904102
H       -4.0110289626     1.6217288485     1.1489601406
H       -4.1833008116     2.0431789690     -0.5858495116
H       -2.8146358204     -0.2453530055     0.3483629046
$end
--------------------------------------------------------------
 ----------------------------------------------------------------
             Standard Nuclear Orientation (Angstroms)
    I     Atom           X                Y                Z
 ----------------------------------------------------------------
    1      C      -5.3397349093     0.3416909364     0.0259242737
    2      C      -4.1122320321     1.1904127913     0.1181557018
    3      H      -5.4926860209    -0.1420050764    -1.1695691747
    4      H      -6.4317715045     1.0310427622     0.3299458180
    5      H      -5.2840627608    -0.7213967858     0.8999702578
    6      O      -2.9333571778     0.4979205603    -0.2455904102
    7      H      -4.0110289626     1.6217288485     1.1489601406
    8      H      -4.1833008116     2.0431789690    -0.5858495116
    9      H      -2.8146358204    -0.2453530055     0.3483629046
 ----------------------------------------------------------------
 Nuclear Repulsion Energy =          79.64924944 hartrees
 There are       13 alpha and       13 beta electrons
 Requested basis set is 6-311+G(2df,2pd)
 There are 60 shells and 186 basis functions

 Total QAlloc Memory Limit   2000 MB
 Mega-Array Size       188 MB
 MEM_STATIC part       192 MB

                       Distance Matrix (Angstroms)
             C (  1)   C (  2)   H (  3)   H (  4)   H (  5)   O (  6)
   C (  2)  1.495192
   H (  3)  1.298676  2.310677
   H (  4)  1.326717  2.334634  2.122844
   H (  5)  1.377393  2.374750  2.159216  2.170992
   O (  6)  2.426681  1.414780  2.795247  3.585298  2.885283
   H (  7)  2.159900  1.121977  3.268278  2.622916  2.678217  2.090237
   H (  8)  2.146315  1.108099  2.613474  2.630346  3.325991  2.016422
   H (  9)  2.612415  1.948891  3.080057  3.835778  2.574676  0.958817
             H (  7)   H (  8)
   H (  8)  1.793561
   H (  9)  2.357606  2.825487
 
 A cutoff of  1.0D-09 yielded   1772 shell pairs
 There are     17196 function pairs (     21361 Cartesian)
 Smallest overlap matrix eigenvalue = 1.27E-04

 Scale SEOQF with 1.000000e-02/1.000000e-01/1.000000e-01

 Standard Electronic Orientation quadrupole field applied
 Nucleus-field energy     =     0.0000000026 hartrees
 Requested basis set is 6-31G(d)
 There are 24 shells and 54 basis functions
 A cutoff of  1.0D-09 yielded    298 shell pairs
 There are      1549 function pairs (      1732 Cartesian)
 Smallest overlap matrix eigenvalue = 7.58E-03
 Guess from superposition of atomic densities
 Warning:  Energy on first SCF cycle will be non-variational
 SAD guess density has 26.000000 electrons
 Long-range K will be added via erf
 Coulomb attenuation parameter = 0.2 bohr**(-1)
 A restricted hybrid HF-DFT SCF calculation will be
 performed using Relaxed Constraint Minimization + Pulay DIIS
 Exchange:     0.2220 Hartree-Fock + 1.0000 wB97X-D + LR-HF
 Correlation:  1.0000 wB97X-D
 Using Euler-Maclaurin-Lebedev (75,302) quadrature formula
 Dispersion:   Grimme D
 SCF converges when DIIS error is below 1.0E-04
 using 6 threads for integral computing
 -------------------------------------------------------
 OpenMP Integral computing Module                
 Release: version 1.0, May 2013, Q-Chem Inc. Pittsburgh 
 -------------------------------------------------------
 using 6 threads for integral computing
 -------------------------------------------------------
 OpenMP Integral computing Module                
 Release: version 1.0, May 2013, Q-Chem Inc. Pittsburgh 
 -------------------------------------------------------
 ---------------------------------------
  Cycle       Energy         DIIS Error
 ---------------------------------------
    1    -155.0597888570      9.57E-02
    2    -154.8638587586      1.26E-02
    3    -154.8869434900      2.66E-03
    4    -154.9114008550      1.54E-03
    5    -154.9117116411      2.35E-04 Done RCA. Switching to DIIS
    6    -154.9120674403      5.95E-05 Convergence criterion met
 ---------------------------------------
 SCF time:  CPU 12.88 s  wall 2.16 s
 SCF   energy in the small basis set = -154.91206744
 Total energy in the small basis set = -154.91206744
 ----------------------------------------------------
  Cycle       Energy    
 ----------------------------------------------------
    1     -18.5372256058     -1.85E+01
 Long-range K will be added via erf
 Coulomb attenuation parameter = 0.2 bohr**(-1)
 A restricted hybrid HF-DFT SCF calculation will be
 performed using Relaxed Constraint Minimization + Pulay DIIS
 Exchange:     0.2220 Hartree-Fock + 1.0000 wB97X-D + LR-HF
 Correlation:  1.0000 wB97X-D
 Using Euler-Maclaurin-Lebedev (75,302) quadrature formula
 Dispersion:   Grimme D
 SCF converges when DIIS error is below 1.0E-05
 Basis2 calculation detected. Using small basis as guess for larger.
 SCFMinFind is unable to tell whether the solution found is close.
 Resetting ReadMinima to 0 and attempting to follow guess.
 SCFMinFind following SCF Guess.
 using 6 threads for integral computing
 -------------------------------------------------------
 OpenMP Integral computing Module                
 Release: version 1.0, May 2013, Q-Chem Inc. Pittsburgh 
 -------------------------------------------------------
 using 6 threads for integral computing
 -------------------------------------------------------
 OpenMP Integral computing Module                
 Release: version 1.0, May 2013, Q-Chem Inc. Pittsburgh 
 -------------------------------------------------------
 ---------------------------------------
  Cycle       Energy         DIIS Error
 ---------------------------------------
    1    -154.9419706550      5.70E-03
    2    -154.9564868763      2.90E-03
    3    -154.9663999497      3.55E-04 Done RCA. Switching to DIIS
    4    -154.9784290004      2.79E-04
    5    -154.9786576469      4.69E-05
    6    -154.9786691042      8.70E-06 Convergence criterion met
 ---------------------------------------
 SCF time:  CPU 38.04 s  wall 6.36 s
 SCF   energy in the final basis set = -154.97866910
 Total energy in the final basis set = -154.97866910
 
 --------------------------------------------------------------
 
                    Orbital Energies (a.u.)
 --------------------------------------------------------------
 
 Alpha MOs
 -- Occupied --
-19.2515 -10.3438 -10.3392  -1.1309  -0.8390  -0.6965  -0.5936  -0.5385
 -0.5144  -0.4513  -0.4262  -0.4039  -0.3678
 -- Virtual --
  0.0582   0.0841   0.0872   0.0995   0.1189   0.1296   0.1333   0.1565
  0.1624   0.1744   0.2198   0.2270   0.2465   0.2602   0.2860   0.3004
  0.3163   0.3248   0.3423   0.3752   0.4610   0.4936   0.5038   0.5070
  0.5278   0.5391   0.5640   0.5880   0.5947   0.6047   0.6316   0.6579
  0.6703   0.6869   0.7531   0.7909   0.8342   0.8423   0.8872   0.9207
  0.9691   1.0185   1.0409   1.0440   1.1029   1.1215   1.1527   1.1747
  1.1850   1.2007   1.2271   1.2486   1.2820   1.3236   1.3532   1.3817
  1.3984   1.4193   1.4380   1.4460   1.4562   1.4882   1.5141   1.5713
  1.6039   1.6881   1.9350   2.0504   2.1111   2.2655   2.2803   2.4790
  2.4932   2.5967   2.6154   2.6601   2.6897   2.7347   2.7637   2.8013
  2.8268   2.8415   2.8615   2.9312   2.9645   2.9720   2.9978   3.0461
  3.0751   3.1274   3.1302   3.1432   3.1638   3.1969   3.2216   3.2447
  3.2551   3.3277   3.3478   3.3789   3.4216   3.4752   3.5255   3.5632
  3.5683   3.6135   3.6295   3.6465   3.6673   3.6957   3.7073   3.7353
  3.7678   3.8100   3.8243   3.8904   3.9326   3.9616   3.9658   3.9741
  3.9872   4.0062   4.0408   4.0813   4.1136   4.1306   4.1627   4.1701
  4.2303   4.2585   4.2908   4.3124   4.3577   4.3627   4.4254   4.4521
  4.4864   4.6005   4.6500   4.7056   4.7436   4.7669   4.8072   4.8340
  4.9000   4.9436   5.0262   5.0576   5.1109   5.2149   5.2774   5.3121
  5.4644   5.5407   5.5797   5.6526   5.7440   5.7624   5.9018   6.0154
  6.3287   6.6417   6.6902   6.8039   7.1169   7.3410   7.4033   7.5464
  7.7107   8.0959  24.4210  25.1251  50.4550
 --------------------------------------------------------------
 
 -----------------------------------------------------------------
                    Cartesian Multipole Moments
 -----------------------------------------------------------------
    Charge (ESU x 10^10)
                 0.0000
    Dipole Moment (Debye)
         X      -0.9359      Y      -0.2108      Z       1.1439
       Tot       1.4930
    Quadrupole Moments (Debye-Ang)
        XX     -14.9005     XY      -1.5808     YY     -19.2763
        XZ      -2.7241     YZ      -0.2725     ZZ     -20.4155
    Octopole Moments (Debye-Ang^2)
       XXX     239.7581    XXY       0.8736    XYY      82.1547
       YYY     -37.3391    XXZ       5.3001    XYZ       0.8844
       YYZ      -0.2504    XZZ      87.2505    YZZ     -13.2917
       ZZZ      -0.6095
    Hexadecapole Moments (Debye-Ang^3)
      XXXX   -2345.1145   XXXY      74.0613   XXYY    -397.5460
      XYYY     153.3517   YYYY    -111.7684   XXXZ       0.2265
      XXYZ      -1.9336   XYYZ       2.2840   YYYZ      -3.9832
      XXZZ    -409.0535   XYZZ      55.8061   YYZZ     -24.7190
      XZZZ      10.4644   YZZZ      -1.0104   ZZZZ     -43.2630
 -----------------------------------------------------------------
Archival summary:
1\1\centos77-c7\SP\ProcedureUnspecified\BasisUnspecified\126\shihchen\MonJul2714:54:092020MonJul2714:54:092020\0\\#,ProcedureUnspecified,BasisUnspecified,\\0,1\C\H,1,1.1081\H,1,1.12198,2,107.076\O,1,1.41478,2,105.473,3,-117.651,0\H,4,0.958817,1,108.865,2,178.893,0\C,1,1.49519,2,110.181,3,120.12,0\H,6,1.29868,1,111.401,2,60.3995,0\H,6,1.32672,1,111.511,2,-60.2305,0\H,6,1.37739,1,111.456,2,-179.474,0\\\@

 Total job time:  10.74s(wall), 54.92s(cpu) 
 Mon Jul 27 14:54:09 2020

        *************************************************************
        *                                                           *
        *  Thank you very much for using Q-Chem.  Have a nice day.  *
        *                                                           *
        *************************************************************


