                  Welcome to Q-Chem
     A Quantum Leap Into The Future Of Chemistry


 Q-Chem 5.3 (devel), Q-Chem, Inc., Pleasanton, CA (2020)

 Yihan Shao,  Zhengting Gan,  E. Epifanovsky,  A. T. B. Gilbert,  M. Wormit,  
 J. Kussmann,  A. W. Lange,  A. Behn,  Jia Deng,  Xintian Feng,  D. Ghosh,  
 M. Goldey,  P. R. Horn,  L. D. Jacobson,  I. Kaliman,  T. Kus,  A. Landau,  
 Jie Liu,  E. I. Proynov,  R. M. Richard,  R. P. Steele,  E. J. Sundstrom,  
 H. L. Woodcock III,  P. M. Zimmerman,  D. Zuev,  B. Alam,  B. Albrecht,  
 E. Alguire,  S. A. Baeppler,  D. Barton,  Z. Benda,  Y. A. Bernard,  
 E. J. Berquist,  K. B. Bravaya,  H. Burton,  K. Carter-Fenk,  D. Casanova,  
 Chun-Min Chang,  Yunqing Chen,  A. Chien,  K. D. Closser,  M. P. Coons,  
 S. Coriani,  S. Dasgupta,  A. L. Dempwolff,  M. Diedenhofen,  Hainam Do,  
 R. G. Edgar,  Po-Tung Fang,  S. Faraji,  S. Fatehi,  Qingguo Feng,  
 J. Fosso-Tande,  J. Gayvert,  Qinghui Ge,  A. Ghysels,  G. Gidofalvi,  
 J. Gomes,  J. Gonthier,  A. Gunina,  D. Hait,  M. W. D. Hanson-Heine,  
 P. H. P. Harbach,  A. W. Hauser,  M. F. Herbst,  J. E. Herr,  
 E. G. Hohenstein,  Z. C. Holden,  Kerwin Hui,  B. C. Huynh,  T.-C. Jagau,  
 Hyunjun Ji,  B. Kaduk,  K. Khistyaev,  Jaehoon Kim,  P. Klunzinger,  K. Koh,  
 D. Kosenkov,  L. Koulias,  T. Kowalczyk,  C. M. Krauter,  A. Kunitsa,  
 Ka Un Lao,  A. Laurent,  K. V. Lawler,  Joonho Lee,  D. Lefrancois,  
 S. Lehtola,  D. S. Levine,  Yi-Pei Li,  You-Sheng Lin,  Fenglai Liu,  
 Kuan-Yu Liu,  E. Livshits,  M. Loipersberger,  A. Luenser,  P. Manohar,  
 E. Mansoor,  S. F. Manzer,  Shan-Ping Mao,  Yuezhi Mao,  N. Mardirossian,  
 A. V. Marenich,  T. Markovich,  L. A. Martinez-Martinez,  S. A. Maurer,  
 N. J. Mayhall,  S. C. McKenzie,  J.-M. Mewes,  P. Morgante,  A. F. Morrison,  
 J. W. Mullinax,  K. Nanda,  T. S. Nguyen-Beck,  R. Olivares-Amaya,  
 K. J. Oosterbaan,  J. A. Parkhill,  S. K. Paul,  F. Pavosevic,  Zheng Pei,  
 T. M. Perrine,  F. Plasser,  P. Pokhilko,  S. Prager,  A. Prociuk,  
 E. Ramos,  B. Rana,  D. R. Rehn,  F. Rob,  M. Scheurer,  M. Schneider,  
 N. Sergueev,  S. M. Sharada,  S. Sharma,  D. W. Small,  T. Stauch,  
 C. J. Stein,  T. Stein,  Yu-Chuan Su,  S. P. Veccham,  Zhen Tao,  
 A. J. W. Thom,  A. Tkatchenko,  T. Tsuchimochi,  N. M. Tubman,  L. Vogt,  
 M. L. Vidal,  O. Vydrov,  M. A. Watson,  J. Wenzel,  M. de Wergifosse,  
 T. A. Wesolowski,  A. White,  J. Witte,  A. Yamada,  Jun Yang,  K. Yao,  
 S. Yeganeh,  S. R. Yost,  Zhi-Qiang You,  A. Zech,  Igor Ying Zhang,  
 Xing Zhang,  Yan Zhao,  Ying Zhu,  B. R. Brooks,  G. K. L. Chan,  
 C. J. Cramer,  M. S. Gordon,  W. J. Hehre,  A. Klamt,  M. W. Schmidt,  
 C. D. Sherrill,  D. G. Truhlar,  A. Aspuru-Guzik,  R. Baer,  A. T. Bell,  
 N. A. Besley,  Jeng-Da Chai,  A. E. DePrince, III,  R. A. DiStasio Jr.,  
 A. Dreuw,  B. D. Dunietz,  T. R. Furlani,  Chao-Ping Hsu,  Yousung Jung,  
 Jing Kong,  D. S. Lambrecht,  WanZhen Liang,  C. Ochsenfeld,  
 V. A. Rassolov,  L. V. Slipchenko,  J. E. Subotnik,  T. Van Voorhis,  
 J. M. Herbert,  A. I. Krylov,  P. M. W. Gill,  M. Head-Gordon

 Contributors to earlier versions of Q-Chem not listed above: 
 R. D. Adamson,  B. Austin,  J. Baker,  G. J. O. Beran,  K. Brandhorst,  
 S. T. Brown,  E. F. C. Byrd,  A. K. Chakraborty,  C.-L. Cheng,  
 Siu Hung Chien,  D. M. Chipman,  D. L. Crittenden,  H. Dachsel,  
 R. J. Doerksen,  A. D. Dutoi,  L. Fusti-Molnar,  W. A. Goddard III,  
 A. Golubeva-Zadorozhnaya,  S. R. Gwaltney,  G. Hawkins,  A. Heyden,  
 S. Hirata,  G. Kedziora,  F. J. Keil,  C. Kelley,  Jihan Kim,  R. A. King,  
 R. Z. Khaliullin,  P. P. Korambath,  W. Kurlancheek,  A. M. Lee,  M. S. Lee,  
 S. V. Levchenko,  Ching Yeh Lin,  D. Liotard,  R. C. Lochan,  I. Lotan,  
 P. E. Maslen,  N. Nair,  D. P. O'Neill,  D. Neuhauser,  E. Neuscamman,  
 C. M. Oana,  R. Olson,  B. Peters,  R. Peverati,  P. A. Pieniazek,  
 Y. M. Rhee,  J. Ritchie,  M. A. Rohrdanz,  E. Rosta,  N. J. Russ,  
 H. F. Schaefer III,  N. E. Schultz,  N. Shenvi,  A. C. Simmonett,  A. Sodt,  
 D. Stuck,  K. S. Thanthiriwatte,  V. Vanovschi,  Tao Wang,  A. Warshel,  
 C. F. Williams,  Q. Wu,  X. Xu,  W. Zhang

 Please cite Q-Chem as follows:
 Y. Shao et al., Mol. Phys. 113, 184-215 (2015)
 DOI: 10.1080/00268976.2014.952696

 Q-Chem 5.3.0 for Intel X86 EM64T Linux

 Parts of Q-Chem use Armadillo 9.800.1 (Horizon Scraper).
 http://arma.sourceforge.net/

 Q-Chem begins on Mon Jul 27 14:50:58 2020  

Host: centos77-c7
0

     Scratch files written to /tmp/29924.centos77-h1/qchem110938//
Processing $rem in /opt/qchem-5.3.0-intel2020u1//config/preferences:
Processing $rem in /home/shihchengli/.qchemrc:

Checking the input file for inconsistencies... 	...done.

--------------------------------------------------------------
User input:
--------------------------------------------------------------
$rem
   JOBTYPE  sp
   EXCHANGE   omegaB97X-D
   BASIS   6-311+G(2df,2pd)
   UNRESTRICTED   False
   max_scf_cycles   250
   geom_opt_max_cycles   1500
   basis2 6-31G*
   scf_algorithm rca_diis
   SYM_IGNORE  TRUE
   print_input   true
   geom_opt_dmax   80
   pop_mulliken false
   XC_GRID 000075000302
$end

$molecule
0 1
C       -5.3956385907     0.3348589971     0.0423788600
C       -4.1648270628     1.2303089795     0.1413995246
H       -5.4922779885     -0.1270292501     -0.9411660996
H       -6.2695698630     0.9321212872     0.3047314758
H       -5.3335588519     -0.5504497856     0.6814623377
O       -2.9595809691     0.5546988669     -0.2271114607
H       -3.9903654212     1.4864270758     1.1854094147
H       -4.1749928380     1.9472740506     -0.6734688630
H       -2.8219984148     -0.1909902214     0.3566748107
$end
--------------------------------------------------------------
 ----------------------------------------------------------------
             Standard Nuclear Orientation (Angstroms)
    I     Atom           X                Y                Z
 ----------------------------------------------------------------
    1      C      -5.3956385907     0.3348589971     0.0423788600
    2      C      -4.1648270628     1.2303089795     0.1413995246
    3      H      -5.4922779885    -0.1270292501    -0.9411660996
    4      H      -6.2695698630     0.9321212872     0.3047314758
    5      H      -5.3335588519    -0.5504497856     0.6814623377
    6      O      -2.9595809691     0.5546988669    -0.2271114607
    7      H      -3.9903654212     1.4864270758     1.1854094147
    8      H      -4.1749928380     1.9472740506    -0.6734688630
    9      H      -2.8219984148    -0.1909902214     0.3566748107
 ----------------------------------------------------------------
 Nuclear Repulsion Energy =          81.75805892 hartrees
 There are       13 alpha and       13 beta electrons
 Requested basis set is 6-311+G(2df,2pd)
 There are 60 shells and 186 basis functions

 Total QAlloc Memory Limit   2000 MB
 Mega-Array Size       188 MB
 MEM_STATIC part       192 MB

                       Distance Matrix (Angstroms)
             C (  1)   C (  2)   H (  3)   H (  4)   H (  5)   O (  6)
   C (  2)  1.525298
   H (  3)  1.090890  2.185507
   H (  4)  1.090554  2.132026  1.810592
   H (  5)  1.093642  2.197431  1.684458  1.793338
   O (  6)  2.460758  1.429989  2.718305  3.373623  2.771756
   H (  7)  2.146490  1.089032  3.062892  2.505518  2.491385  1.981376
   H (  8)  2.145296  1.085427  2.471768  2.524810  3.068670  1.901506
   H (  9)  2.645548  1.967136  2.969659  3.626269  2.557857  0.956968
             H (  7)   H (  8)
   H (  8)  1.924031
   H (  9)  2.205813  2.732026
 
 A cutoff of  1.0D-09 yielded   1784 shell pairs
 There are     17300 function pairs (     21484 Cartesian)
 Smallest overlap matrix eigenvalue = 1.37E-04

 Scale SEOQF with 1.000000e-02/1.000000e-01/1.000000e-01

 Standard Electronic Orientation quadrupole field applied
 Nucleus-field energy     =     0.0000000027 hartrees
 Requested basis set is 6-31G(d)
 There are 24 shells and 54 basis functions
 A cutoff of  1.0D-09 yielded    298 shell pairs
 There are      1549 function pairs (      1732 Cartesian)
 Smallest overlap matrix eigenvalue = 6.73E-03
 Guess from superposition of atomic densities
 Warning:  Energy on first SCF cycle will be non-variational
 SAD guess density has 26.000000 electrons
 Long-range K will be added via erf
 Coulomb attenuation parameter = 0.2 bohr**(-1)
 A restricted hybrid HF-DFT SCF calculation will be
 performed using Relaxed Constraint Minimization + Pulay DIIS
 Exchange:     0.2220 Hartree-Fock + 1.0000 wB97X-D + LR-HF
 Correlation:  1.0000 wB97X-D
 Using Euler-Maclaurin-Lebedev (75,302) quadrature formula
 Dispersion:   Grimme D
 SCF converges when DIIS error is below 1.0E-04
 using 6 threads for integral computing
 -------------------------------------------------------
 OpenMP Integral computing Module                
 Release: version 1.0, May 2013, Q-Chem Inc. Pittsburgh 
 -------------------------------------------------------
 using 6 threads for integral computing
 -------------------------------------------------------
 OpenMP Integral computing Module                
 Release: version 1.0, May 2013, Q-Chem Inc. Pittsburgh 
 -------------------------------------------------------
 ---------------------------------------
  Cycle       Energy         DIIS Error
 ---------------------------------------
    1    -155.4164782174      1.05E-01
    2    -154.9107535043      1.40E-02
    3    -154.9405369219      2.99E-03
    4    -154.9689880081      2.28E-03
    5    -154.9696465210      2.35E-04 Done RCA. Switching to DIIS
    6    -154.9703926158      9.77E-05 Convergence criterion met
 ---------------------------------------
 SCF time:  CPU 13.25 s  wall 2.22 s
 SCF   energy in the small basis set = -154.97039262
 Total energy in the small basis set = -154.97039262
 ----------------------------------------------------
  Cycle       Energy    
 ----------------------------------------------------
    1     -18.7500334616     -1.88E+01
 Long-range K will be added via erf
 Coulomb attenuation parameter = 0.2 bohr**(-1)
 A restricted hybrid HF-DFT SCF calculation will be
 performed using Relaxed Constraint Minimization + Pulay DIIS
 Exchange:     0.2220 Hartree-Fock + 1.0000 wB97X-D + LR-HF
 Correlation:  1.0000 wB97X-D
 Using Euler-Maclaurin-Lebedev (75,302) quadrature formula
 Dispersion:   Grimme D
 SCF converges when DIIS error is below 1.0E-05
 Basis2 calculation detected. Using small basis as guess for larger.
 SCFMinFind is unable to tell whether the solution found is close.
 Resetting ReadMinima to 0 and attempting to follow guess.
 SCFMinFind following SCF Guess.
 using 6 threads for integral computing
 -------------------------------------------------------
 OpenMP Integral computing Module                
 Release: version 1.0, May 2013, Q-Chem Inc. Pittsburgh 
 -------------------------------------------------------
 using 6 threads for integral computing
 -------------------------------------------------------
 OpenMP Integral computing Module                
 Release: version 1.0, May 2013, Q-Chem Inc. Pittsburgh 
 -------------------------------------------------------
 ---------------------------------------
  Cycle       Energy         DIIS Error
 ---------------------------------------
    1    -155.0006614739      5.76E-03
    2    -155.0149703487      3.05E-03
    3    -155.0259020286      3.88E-04 Done RCA. Switching to DIIS
    4    -155.0391855452      3.01E-04
    5    -155.0394511656      4.06E-05
    6    -155.0394598291      5.55E-06 Convergence criterion met
 ---------------------------------------
 SCF time:  CPU 39.44 s  wall 6.60 s
 SCF   energy in the final basis set = -155.03945983
 Total energy in the final basis set = -155.03945983
 
 --------------------------------------------------------------
 
                    Orbital Energies (a.u.)
 --------------------------------------------------------------
 
 Alpha MOs
 -- Occupied --
-19.2397 -10.3286 -10.2750  -1.1200  -0.8488  -0.7228  -0.5998  -0.5439
 -0.5189  -0.4705  -0.4526  -0.4145  -0.3574
 -- Virtual --
  0.0652   0.0868   0.0909   0.1004   0.1240   0.1327   0.1373   0.1812
  0.1961   0.2125   0.2291   0.2454   0.2680   0.2759   0.2840   0.3101
  0.3183   0.3397   0.3417   0.3854   0.4575   0.4981   0.5008   0.5161
  0.5658   0.5733   0.5826   0.6061   0.6287   0.6332   0.6555   0.6726
  0.6870   0.7101   0.7451   0.8205   0.8492   0.8947   0.9280   0.9487
  0.9825   1.0279   1.0664   1.0965   1.1544   1.1589   1.1941   1.2112
  1.2304   1.2332   1.2681   1.3025   1.3320   1.3673   1.3903   1.4094
  1.4521   1.4626   1.4712   1.4801   1.5034   1.5392   1.5936   1.6188
  1.6493   1.7253   1.9219   2.0206   2.0573   2.2547   2.2924   2.4596
  2.4816   2.5338   2.5800   2.5888   2.7292   2.8327   2.8657   2.8978
  2.9046   2.9660   2.9707   3.0294   3.0409   3.0557   3.0694   3.0920
  3.1127   3.1885   3.2009   3.2243   3.2614   3.2716   3.3179   3.3463
  3.3858   3.4042   3.4280   3.4707   3.4995   3.5443   3.5646   3.5813
  3.5886   3.6261   3.6755   3.7094   3.7156   3.7443   3.8088   3.8345
  3.8400   3.8964   3.9356   3.9632   3.9896   3.9990   4.0157   4.0484
  4.0632   4.0818   4.1088   4.1619   4.2245   4.2623   4.2763   4.2872
  4.3159   4.3761   4.4911   4.5125   4.5539   4.6507   4.7007   4.7639
  4.8533   4.8959   4.9309   4.9670   5.0155   5.0562   5.1803   5.2029
  5.2484   5.2575   5.2748   5.3158   5.3667   5.4094   5.4861   5.5099
  5.5936   5.6790   5.6873   5.8602   5.8948   5.9653   6.3373   6.3570
  6.4013   6.6626   6.6944   6.8265   7.1316   7.3400   7.3962   7.5560
  7.7180   8.1171  25.1502  25.4229  50.4678
 --------------------------------------------------------------
 
 -----------------------------------------------------------------
                    Cartesian Multipole Moments
 -----------------------------------------------------------------
    Charge (ESU x 10^10)
                 0.0000
    Dipole Moment (Debye)
         X      -1.1927      Y      -0.5173      Z       1.2196
       Tot       1.7826
    Quadrupole Moments (Debye-Ang)
        XX     -12.1329     XY      -0.1890     YY     -19.3159
        XZ      -3.1445     YZ      -0.3061     ZZ     -19.7146
    Octopole Moments (Debye-Ang^2)
       XXX     217.5950    XXY      -6.3785    XYY      81.6213
       YYY     -40.3773    XXZ       7.4132    XYZ       1.0932
       YYZ      -1.1705    XZZ      84.4414    YZZ     -12.9585
       ZZZ      -0.4246
    Hexadecapole Moments (Debye-Ang^3)
      XXXX   -2181.4706   XXXY     115.1359   XXYY    -390.7454
      XYYY     164.8204   YYYY    -113.1055   XXXZ     -10.1079
      XXYZ      -3.3649   XYYZ       6.2261   YYYZ      -5.4820
      XXZZ    -395.2636   XYZZ      53.6936   YYZZ     -22.9008
      XZZZ       8.5777   YZZZ      -1.7145   ZZZZ     -36.8403
 -----------------------------------------------------------------
Archival summary:
1\1\centos77-c7\SP\ProcedureUnspecified\BasisUnspecified\126\shihchen\MonJul2714:51:092020MonJul2714:51:092020\0\\#,ProcedureUnspecified,BasisUnspecified,\\0,1\C\H,1,1.08543\H,1,1.08903,2,124.462\O,1,1.42999,2,97.2676,3,-111.122,0\H,4,0.956968,1,109.397,2,-174.939,0\C,1,1.5253,2,109.359,3,131.667,0\H,6,1.09055,1,108.03,2,-71.0555,0\H,6,1.09089,1,112.246,2,53.1655,0\H,6,1.09364,1,113.047,2,166.5,0\\\@

 Total job time:  10.98s(wall), 56.53s(cpu) 
 Mon Jul 27 14:51:09 2020

        *************************************************************
        *                                                           *
        *  Thank you very much for using Q-Chem.  Have a nice day.  *
        *                                                           *
        *************************************************************


