                  Welcome to Q-Chem
     A Quantum Leap Into The Future Of Chemistry


 Q-Chem 5.3 (devel), Q-Chem, Inc., Pleasanton, CA (2020)

 Yihan Shao,  Zhengting Gan,  E. Epifanovsky,  A. T. B. Gilbert,  M. Wormit,  
 J. Kussmann,  A. W. Lange,  A. Behn,  Jia Deng,  Xintian Feng,  D. Ghosh,  
 M. Goldey,  P. R. Horn,  L. D. Jacobson,  I. Kaliman,  T. Kus,  A. Landau,  
 Jie Liu,  E. I. Proynov,  R. M. Richard,  R. P. Steele,  E. J. Sundstrom,  
 H. L. Woodcock III,  P. M. Zimmerman,  D. Zuev,  B. Alam,  B. Albrecht,  
 E. Alguire,  S. A. Baeppler,  D. Barton,  Z. Benda,  Y. A. Bernard,  
 E. J. Berquist,  K. B. Bravaya,  H. Burton,  K. Carter-Fenk,  D. Casanova,  
 Chun-Min Chang,  Yunqing Chen,  A. Chien,  K. D. Closser,  M. P. Coons,  
 S. Coriani,  S. Dasgupta,  A. L. Dempwolff,  M. Diedenhofen,  Hainam Do,  
 R. G. Edgar,  Po-Tung Fang,  S. Faraji,  S. Fatehi,  Qingguo Feng,  
 J. Fosso-Tande,  J. Gayvert,  Qinghui Ge,  A. Ghysels,  G. Gidofalvi,  
 J. Gomes,  J. Gonthier,  A. Gunina,  D. Hait,  M. W. D. Hanson-Heine,  
 P. H. P. Harbach,  A. W. Hauser,  M. F. Herbst,  J. E. Herr,  
 E. G. Hohenstein,  Z. C. Holden,  Kerwin Hui,  B. C. Huynh,  T.-C. Jagau,  
 Hyunjun Ji,  B. Kaduk,  K. Khistyaev,  Jaehoon Kim,  P. Klunzinger,  K. Koh,  
 D. Kosenkov,  L. Koulias,  T. Kowalczyk,  C. M. Krauter,  A. Kunitsa,  
 Ka Un Lao,  A. Laurent,  K. V. Lawler,  Joonho Lee,  D. Lefrancois,  
 S. Lehtola,  D. S. Levine,  Yi-Pei Li,  You-Sheng Lin,  Fenglai Liu,  
 Kuan-Yu Liu,  E. Livshits,  M. Loipersberger,  A. Luenser,  P. Manohar,  
 E. Mansoor,  S. F. Manzer,  Shan-Ping Mao,  Yuezhi Mao,  N. Mardirossian,  
 A. V. Marenich,  T. Markovich,  L. A. Martinez-Martinez,  S. A. Maurer,  
 N. J. Mayhall,  S. C. McKenzie,  J.-M. Mewes,  P. Morgante,  A. F. Morrison,  
 J. W. Mullinax,  K. Nanda,  T. S. Nguyen-Beck,  R. Olivares-Amaya,  
 K. J. Oosterbaan,  J. A. Parkhill,  S. K. Paul,  F. Pavosevic,  Zheng Pei,  
 T. M. Perrine,  F. Plasser,  P. Pokhilko,  S. Prager,  A. Prociuk,  
 E. Ramos,  B. Rana,  D. R. Rehn,  F. Rob,  M. Scheurer,  M. Schneider,  
 N. Sergueev,  S. M. Sharada,  S. Sharma,  D. W. Small,  T. Stauch,  
 C. J. Stein,  T. Stein,  Yu-Chuan Su,  S. P. Veccham,  Zhen Tao,  
 A. J. W. Thom,  A. Tkatchenko,  T. Tsuchimochi,  N. M. Tubman,  L. Vogt,  
 M. L. Vidal,  O. Vydrov,  M. A. Watson,  J. Wenzel,  M. de Wergifosse,  
 T. A. Wesolowski,  A. White,  J. Witte,  A. Yamada,  Jun Yang,  K. Yao,  
 S. Yeganeh,  S. R. Yost,  Zhi-Qiang You,  A. Zech,  Igor Ying Zhang,  
 Xing Zhang,  Yan Zhao,  Ying Zhu,  B. R. Brooks,  G. K. L. Chan,  
 C. J. Cramer,  M. S. Gordon,  W. J. Hehre,  A. Klamt,  M. W. Schmidt,  
 C. D. Sherrill,  D. G. Truhlar,  A. Aspuru-Guzik,  R. Baer,  A. T. Bell,  
 N. A. Besley,  Jeng-Da Chai,  A. E. DePrince, III,  R. A. DiStasio Jr.,  
 A. Dreuw,  B. D. Dunietz,  T. R. Furlani,  Chao-Ping Hsu,  Yousung Jung,  
 Jing Kong,  D. S. Lambrecht,  WanZhen Liang,  C. Ochsenfeld,  
 V. A. Rassolov,  L. V. Slipchenko,  J. E. Subotnik,  T. Van Voorhis,  
 J. M. Herbert,  A. I. Krylov,  P. M. W. Gill,  M. Head-Gordon

 Contributors to earlier versions of Q-Chem not listed above: 
 R. D. Adamson,  B. Austin,  J. Baker,  G. J. O. Beran,  K. Brandhorst,  
 S. T. Brown,  E. F. C. Byrd,  A. K. Chakraborty,  C.-L. Cheng,  
 Siu Hung Chien,  D. M. Chipman,  D. L. Crittenden,  H. Dachsel,  
 R. J. Doerksen,  A. D. Dutoi,  L. Fusti-Molnar,  W. A. Goddard III,  
 A. Golubeva-Zadorozhnaya,  S. R. Gwaltney,  G. Hawkins,  A. Heyden,  
 S. Hirata,  G. Kedziora,  F. J. Keil,  C. Kelley,  Jihan Kim,  R. A. King,  
 R. Z. Khaliullin,  P. P. Korambath,  W. Kurlancheek,  A. M. Lee,  M. S. Lee,  
 S. V. Levchenko,  Ching Yeh Lin,  D. Liotard,  R. C. Lochan,  I. Lotan,  
 P. E. Maslen,  N. Nair,  D. P. O'Neill,  D. Neuhauser,  E. Neuscamman,  
 C. M. Oana,  R. Olson,  B. Peters,  R. Peverati,  P. A. Pieniazek,  
 Y. M. Rhee,  J. Ritchie,  M. A. Rohrdanz,  E. Rosta,  N. J. Russ,  
 H. F. Schaefer III,  N. E. Schultz,  N. Shenvi,  A. C. Simmonett,  A. Sodt,  
 D. Stuck,  K. S. Thanthiriwatte,  V. Vanovschi,  Tao Wang,  A. Warshel,  
 C. F. Williams,  Q. Wu,  X. Xu,  W. Zhang

 Please cite Q-Chem as follows:
 Y. Shao et al., Mol. Phys. 113, 184-215 (2015)
 DOI: 10.1080/00268976.2014.952696

 Q-Chem 5.3.0 for Intel X86 EM64T Linux

 Parts of Q-Chem use Armadillo 9.800.1 (Horizon Scraper).
 http://arma.sourceforge.net/

 Q-Chem begins on Mon Jul 27 14:42:51 2020  

Host: centos77-c7
0

     Scratch files written to /tmp/29924.centos77-h1/qchem108997//
Processing $rem in /opt/qchem-5.3.0-intel2020u1//config/preferences:
Processing $rem in /home/shihchengli/.qchemrc:

Checking the input file for inconsistencies... 	...done.

--------------------------------------------------------------
User input:
--------------------------------------------------------------
$rem
   JOBTYPE  sp
   EXCHANGE   omegaB97X-D
   BASIS   6-311+G(2df,2pd)
   UNRESTRICTED   False
   max_scf_cycles   250
   geom_opt_max_cycles   1500
   basis2 6-31G*
   scf_algorithm rca_diis
   SYM_IGNORE  TRUE
   print_input   true
   geom_opt_dmax   80
   pop_mulliken false
   XC_GRID 000075000302
$end

$molecule
0 1
C       -5.3217654121     0.3603343480     0.0392626058
C       -4.0878940793     1.1981475062     0.1170683865
H       -5.5821143678     -0.1100973109     -0.9132485905
H       -6.2952287238     0.8223561833     0.2289736717
H       -5.4018525457     -0.5122263536     0.6956327487
O       -2.9203907972     0.4826558603     -0.2128880246
H       -4.0037827588     1.6084678564     1.1280104824
H       -4.2556638175     2.0398441496     -0.5547326576
H       -2.7341174976     -0.2722622395     0.3422313777
$end
--------------------------------------------------------------
 ----------------------------------------------------------------
             Standard Nuclear Orientation (Angstroms)
    I     Atom           X                Y                Z
 ----------------------------------------------------------------
    1      C      -5.3217654121     0.3603343480     0.0392626058
    2      C      -4.0878940793     1.1981475062     0.1170683865
    3      H      -5.5821143678    -0.1100973109    -0.9132485905
    4      H      -6.2952287238     0.8223561833     0.2289736717
    5      H      -5.4018525457    -0.5122263536     0.6956327487
    6      O      -2.9203907972     0.4826558603    -0.2128880246
    7      H      -4.0037827588     1.6084678564     1.1280104824
    8      H      -4.2556638175     2.0398441496    -0.5547326576
    9      H      -2.7341174976    -0.2722622395     0.3422313777
 ----------------------------------------------------------------
 Nuclear Repulsion Energy =          81.96644507 hartrees
 There are       13 alpha and       13 beta electrons
 Requested basis set is 6-311+G(2df,2pd)
 There are 60 shells and 186 basis functions

 Total QAlloc Memory Limit   2000 MB
 Mega-Array Size       188 MB
 MEM_STATIC part       192 MB

                       Distance Matrix (Angstroms)
             C (  1)   C (  2)   H (  3)   H (  4)   H (  5)   O (  6)
   C (  2)  1.493460
   H (  3)  1.093785  2.237354
   H (  4)  1.094114  2.241889  1.637887
   H (  5)  1.094805  2.233070  1.668143  1.672424
   O (  6)  2.417673  1.408497  2.815428  3.420551  2.823624
   H (  7)  2.116669  1.094277  3.100215  2.583982  2.576605  2.058932
   H (  8)  2.076092  1.089916  2.551520  2.501259  3.064348  2.079579
   H (  9)  2.681024  2.011346  3.116667  3.727268  2.701719  0.955383
             H (  7)   H (  8)
   H (  8)  1.755322
   H (  9)  2.401384  2.909550
 
 A cutoff of  1.0D-09 yielded   1777 shell pairs
 There are     17270 function pairs (     21452 Cartesian)
 Smallest overlap matrix eigenvalue = 1.29E-04

 Scale SEOQF with 1.000000e-02/1.000000e-01/1.000000e-01

 Standard Electronic Orientation quadrupole field applied
 Nucleus-field energy     =     0.0000000027 hartrees
 Requested basis set is 6-31G(d)
 There are 24 shells and 54 basis functions
 A cutoff of  1.0D-09 yielded    298 shell pairs
 There are      1549 function pairs (      1732 Cartesian)
 Smallest overlap matrix eigenvalue = 7.42E-03
 Guess from superposition of atomic densities
 Warning:  Energy on first SCF cycle will be non-variational
 SAD guess density has 26.000000 electrons
 Long-range K will be added via erf
 Coulomb attenuation parameter = 0.2 bohr**(-1)
 A restricted hybrid HF-DFT SCF calculation will be
 performed using Relaxed Constraint Minimization + Pulay DIIS
 Exchange:     0.2220 Hartree-Fock + 1.0000 wB97X-D + LR-HF
 Correlation:  1.0000 wB97X-D
 Using Euler-Maclaurin-Lebedev (75,302) quadrature formula
 Dispersion:   Grimme D
 SCF converges when DIIS error is below 1.0E-04
 using 6 threads for integral computing
 -------------------------------------------------------
 OpenMP Integral computing Module                
 Release: version 1.0, May 2013, Q-Chem Inc. Pittsburgh 
 -------------------------------------------------------
 using 6 threads for integral computing
 -------------------------------------------------------
 OpenMP Integral computing Module                
 Release: version 1.0, May 2013, Q-Chem Inc. Pittsburgh 
 -------------------------------------------------------
 ---------------------------------------
  Cycle       Energy         DIIS Error
 ---------------------------------------
    1    -155.4645190409      1.07E-01
    2    -154.9137553193      1.36E-02
    3    -154.9423727631      3.06E-03
    4    -154.9683304006      2.42E-03
    5    -154.9690612572      2.16E-04 Done RCA. Switching to DIIS
    6    -154.9698716243      8.99E-05 Convergence criterion met
 ---------------------------------------
 SCF time:  CPU 12.95 s  wall 2.17 s
 SCF   energy in the small basis set = -154.96987162
 Total energy in the small basis set = -154.96987162
 ----------------------------------------------------
  Cycle       Energy    
 ----------------------------------------------------
    1     -18.7559841816     -1.88E+01
 Long-range K will be added via erf
 Coulomb attenuation parameter = 0.2 bohr**(-1)
 A restricted hybrid HF-DFT SCF calculation will be
 performed using Relaxed Constraint Minimization + Pulay DIIS
 Exchange:     0.2220 Hartree-Fock + 1.0000 wB97X-D + LR-HF
 Correlation:  1.0000 wB97X-D
 Using Euler-Maclaurin-Lebedev (75,302) quadrature formula
 Dispersion:   Grimme D
 SCF converges when DIIS error is below 1.0E-05
 Basis2 calculation detected. Using small basis as guess for larger.
 SCFMinFind is unable to tell whether the solution found is close.
 Resetting ReadMinima to 0 and attempting to follow guess.
 SCFMinFind following SCF Guess.
 using 6 threads for integral computing
 -------------------------------------------------------
 OpenMP Integral computing Module                
 Release: version 1.0, May 2013, Q-Chem Inc. Pittsburgh 
 -------------------------------------------------------
 using 6 threads for integral computing
 -------------------------------------------------------
 OpenMP Integral computing Module                
 Release: version 1.0, May 2013, Q-Chem Inc. Pittsburgh 
 -------------------------------------------------------
 ---------------------------------------
  Cycle       Energy         DIIS Error
 ---------------------------------------
    1    -155.0024693860      5.71E-03
    2    -155.0183319443      2.83E-03
    3    -155.0277998404      3.34E-04 Done RCA. Switching to DIIS
    4    -155.0390819565      2.32E-04
    5    -155.0392434055      4.04E-05
    6    -155.0392514531      6.11E-06 Convergence criterion met
 ---------------------------------------
 SCF time:  CPU 38.75 s  wall 6.48 s
 SCF   energy in the final basis set = -155.03925145
 Total energy in the final basis set = -155.03925145
 
 --------------------------------------------------------------
 
                    Orbital Energies (a.u.)
 --------------------------------------------------------------
 
 Alpha MOs
 -- Occupied --
-19.2460 -10.3321 -10.2702  -1.1260  -0.8534  -0.7314  -0.6021  -0.5505
 -0.5315  -0.4580  -0.4474  -0.4041  -0.3654
 -- Virtual --
  0.0646   0.0855   0.0887   0.1040   0.1264   0.1343   0.1391   0.1826
  0.1967   0.2249   0.2369   0.2414   0.2616   0.2763   0.2959   0.3077
  0.3221   0.3353   0.3488   0.3846   0.4582   0.5026   0.5140   0.5325
  0.5706   0.5778   0.5838   0.5935   0.6106   0.6395   0.6757   0.6774
  0.6922   0.7211   0.7444   0.7943   0.8454   0.8869   0.9184   0.9829
  0.9904   1.0437   1.0520   1.1103   1.1405   1.1650   1.1829   1.2069
  1.2405   1.2692   1.2785   1.3103   1.3221   1.3403   1.3762   1.4059
  1.4517   1.4656   1.4760   1.5010   1.5150   1.5536   1.6110   1.6356
  1.6457   1.7307   1.9545   2.0802   2.1207   2.2801   2.3140   2.4129
  2.4331   2.5018   2.5296   2.5607   2.6951   2.8112   2.8248   2.8518
  2.9107   2.9382   3.0099   3.0216   3.0604   3.0789   3.0940   3.1294
  3.1601   3.1932   3.2191   3.2400   3.2617   3.3128   3.3705   3.3770
  3.4022   3.4180   3.4442   3.4663   3.4980   3.5467   3.5542   3.5713
  3.6049   3.6196   3.6311   3.6690   3.6980   3.7307   3.7438   3.7589
  3.8287   3.8627   3.9443   3.9624   3.9800   4.0396   4.0792   4.0949
  4.1146   4.1364   4.1731   4.2080   4.2183   4.3132   4.3261   4.3428
  4.3740   4.4041   4.4689   4.5168   4.5882   4.6051   4.7031   4.7636
  4.8572   4.8933   4.9347   4.9364   4.9930   5.0183   5.0699   5.1332
  5.2222   5.2282   5.2639   5.3402   5.3782   5.4048   5.4622   5.5101
  5.5758   5.6198   5.7248   5.8433   5.9617   6.0585   6.3879   6.4358
  6.4433   6.6639   6.7269   6.8474   7.1223   7.3144   7.4474   7.5224
  7.7927   8.1306  25.2009  25.4270  50.4659
 --------------------------------------------------------------
 
 -----------------------------------------------------------------
                    Cartesian Multipole Moments
 -----------------------------------------------------------------
    Charge (ESU x 10^10)
                 0.0000
    Dipole Moment (Debye)
         X      -1.1343      Y      -0.4667      Z       1.1765
       Tot       1.6996
    Quadrupole Moments (Debye-Ang)
        XX     -11.7240     XY      -0.3255     YY     -18.8410
        XZ      -2.7773     YZ      -0.3470     ZZ     -20.2653
    Octopole Moments (Debye-Ang^2)
       XXX     206.1572    XXY      -6.8741    XYY      79.4746
       YYY     -37.6693    XXZ       4.8652    XYZ       1.5098
       YYZ      -0.6942    XZZ      85.8342    YZZ     -13.1013
       ZZZ      -0.2829
    Hexadecapole Moments (Debye-Ang^3)
      XXXX   -2045.7629   XXXY     125.8794   XXYY    -381.5226
      XYYY     153.4407   YYYY    -106.2410   XXXZ       6.6187
      XXYZ      -7.1216   XYYZ       4.6427   YYYZ      -4.5985
      XXZZ    -397.0958   XYZZ      54.1379   YYZZ     -22.9516
      XZZZ       7.0167   YZZZ      -1.7300   ZZZZ     -36.3051
 -----------------------------------------------------------------
Archival summary:
1\1\centos77-c7\SP\ProcedureUnspecified\BasisUnspecified\126\shihchen\MonJul2714:43:022020MonJul2714:43:022020\0\\#,ProcedureUnspecified,BasisUnspecified,\\0,1\C\H,1,1.08992\H,1,1.09428,2,106.96\O,1,1.4085,2,112.055,3,-120.708,0\H,4,0.955383,1,115.27,2,-179.359,0\C,1,1.49346,2,105.899,3,115.905,0\H,6,1.09378,1,118.901,2,63.6539,0\H,6,1.09411,1,119.285,2,-54.2417,0\H,6,1.0948,1,118.445,2,-175.724,0\\\@

 Total job time:  10.81s(wall), 55.58s(cpu) 
 Mon Jul 27 14:43:02 2020

        *************************************************************
        *                                                           *
        *  Thank you very much for using Q-Chem.  Have a nice day.  *
        *                                                           *
        *************************************************************


