                  Welcome to Q-Chem
     A Quantum Leap Into The Future Of Chemistry


 Q-Chem 5.3 (devel), Q-Chem, Inc., Pleasanton, CA (2020)

 Yihan Shao,  Zhengting Gan,  E. Epifanovsky,  A. T. B. Gilbert,  M. Wormit,  
 J. Kussmann,  A. W. Lange,  A. Behn,  Jia Deng,  Xintian Feng,  D. Ghosh,  
 M. Goldey,  P. R. Horn,  L. D. Jacobson,  I. Kaliman,  T. Kus,  A. Landau,  
 Jie Liu,  E. I. Proynov,  R. M. Richard,  R. P. Steele,  E. J. Sundstrom,  
 H. L. Woodcock III,  P. M. Zimmerman,  D. Zuev,  B. Alam,  B. Albrecht,  
 E. Alguire,  S. A. Baeppler,  D. Barton,  Z. Benda,  Y. A. Bernard,  
 E. J. Berquist,  K. B. Bravaya,  H. Burton,  K. Carter-Fenk,  D. Casanova,  
 Chun-Min Chang,  Yunqing Chen,  A. Chien,  K. D. Closser,  M. P. Coons,  
 S. Coriani,  S. Dasgupta,  A. L. Dempwolff,  M. Diedenhofen,  Hainam Do,  
 R. G. Edgar,  Po-Tung Fang,  S. Faraji,  S. Fatehi,  Qingguo Feng,  
 J. Fosso-Tande,  J. Gayvert,  Qinghui Ge,  A. Ghysels,  G. Gidofalvi,  
 J. Gomes,  J. Gonthier,  A. Gunina,  D. Hait,  M. W. D. Hanson-Heine,  
 P. H. P. Harbach,  A. W. Hauser,  M. F. Herbst,  J. E. Herr,  
 E. G. Hohenstein,  Z. C. Holden,  Kerwin Hui,  B. C. Huynh,  T.-C. Jagau,  
 Hyunjun Ji,  B. Kaduk,  K. Khistyaev,  Jaehoon Kim,  P. Klunzinger,  K. Koh,  
 D. Kosenkov,  L. Koulias,  T. Kowalczyk,  C. M. Krauter,  A. Kunitsa,  
 Ka Un Lao,  A. Laurent,  K. V. Lawler,  Joonho Lee,  D. Lefrancois,  
 S. Lehtola,  D. S. Levine,  Yi-Pei Li,  You-Sheng Lin,  Fenglai Liu,  
 Kuan-Yu Liu,  E. Livshits,  M. Loipersberger,  A. Luenser,  P. Manohar,  
 E. Mansoor,  S. F. Manzer,  Shan-Ping Mao,  Yuezhi Mao,  N. Mardirossian,  
 A. V. Marenich,  T. Markovich,  L. A. Martinez-Martinez,  S. A. Maurer,  
 N. J. Mayhall,  S. C. McKenzie,  J.-M. Mewes,  P. Morgante,  A. F. Morrison,  
 J. W. Mullinax,  K. Nanda,  T. S. Nguyen-Beck,  R. Olivares-Amaya,  
 K. J. Oosterbaan,  J. A. Parkhill,  S. K. Paul,  F. Pavosevic,  Zheng Pei,  
 T. M. Perrine,  F. Plasser,  P. Pokhilko,  S. Prager,  A. Prociuk,  
 E. Ramos,  B. Rana,  D. R. Rehn,  F. Rob,  M. Scheurer,  M. Schneider,  
 N. Sergueev,  S. M. Sharada,  S. Sharma,  D. W. Small,  T. Stauch,  
 C. J. Stein,  T. Stein,  Yu-Chuan Su,  S. P. Veccham,  Zhen Tao,  
 A. J. W. Thom,  A. Tkatchenko,  T. Tsuchimochi,  N. M. Tubman,  L. Vogt,  
 M. L. Vidal,  O. Vydrov,  M. A. Watson,  J. Wenzel,  M. de Wergifosse,  
 T. A. Wesolowski,  A. White,  J. Witte,  A. Yamada,  Jun Yang,  K. Yao,  
 S. Yeganeh,  S. R. Yost,  Zhi-Qiang You,  A. Zech,  Igor Ying Zhang,  
 Xing Zhang,  Yan Zhao,  Ying Zhu,  B. R. Brooks,  G. K. L. Chan,  
 C. J. Cramer,  M. S. Gordon,  W. J. Hehre,  A. Klamt,  M. W. Schmidt,  
 C. D. Sherrill,  D. G. Truhlar,  A. Aspuru-Guzik,  R. Baer,  A. T. Bell,  
 N. A. Besley,  Jeng-Da Chai,  A. E. DePrince, III,  R. A. DiStasio Jr.,  
 A. Dreuw,  B. D. Dunietz,  T. R. Furlani,  Chao-Ping Hsu,  Yousung Jung,  
 Jing Kong,  D. S. Lambrecht,  WanZhen Liang,  C. Ochsenfeld,  
 V. A. Rassolov,  L. V. Slipchenko,  J. E. Subotnik,  T. Van Voorhis,  
 J. M. Herbert,  A. I. Krylov,  P. M. W. Gill,  M. Head-Gordon

 Contributors to earlier versions of Q-Chem not listed above: 
 R. D. Adamson,  B. Austin,  J. Baker,  G. J. O. Beran,  K. Brandhorst,  
 S. T. Brown,  E. F. C. Byrd,  A. K. Chakraborty,  C.-L. Cheng,  
 Siu Hung Chien,  D. M. Chipman,  D. L. Crittenden,  H. Dachsel,  
 R. J. Doerksen,  A. D. Dutoi,  L. Fusti-Molnar,  W. A. Goddard III,  
 A. Golubeva-Zadorozhnaya,  S. R. Gwaltney,  G. Hawkins,  A. Heyden,  
 S. Hirata,  G. Kedziora,  F. J. Keil,  C. Kelley,  Jihan Kim,  R. A. King,  
 R. Z. Khaliullin,  P. P. Korambath,  W. Kurlancheek,  A. M. Lee,  M. S. Lee,  
 S. V. Levchenko,  Ching Yeh Lin,  D. Liotard,  R. C. Lochan,  I. Lotan,  
 P. E. Maslen,  N. Nair,  D. P. O'Neill,  D. Neuhauser,  E. Neuscamman,  
 C. M. Oana,  R. Olson,  B. Peters,  R. Peverati,  P. A. Pieniazek,  
 Y. M. Rhee,  J. Ritchie,  M. A. Rohrdanz,  E. Rosta,  N. J. Russ,  
 H. F. Schaefer III,  N. E. Schultz,  N. Shenvi,  A. C. Simmonett,  A. Sodt,  
 D. Stuck,  K. S. Thanthiriwatte,  V. Vanovschi,  Tao Wang,  A. Warshel,  
 C. F. Williams,  Q. Wu,  X. Xu,  W. Zhang

 Please cite Q-Chem as follows:
 Y. Shao et al., Mol. Phys. 113, 184-215 (2015)
 DOI: 10.1080/00268976.2014.952696

 Q-Chem 5.3.0 for Intel X86 EM64T Linux

 Parts of Q-Chem use Armadillo 9.800.1 (Horizon Scraper).
 http://arma.sourceforge.net/

 Q-Chem begins on Mon Jul 27 14:45:40 2020  

Host: centos77-c7
0

     Scratch files written to /tmp/29924.centos77-h1/qchem109653//
Processing $rem in /opt/qchem-5.3.0-intel2020u1//config/preferences:
Processing $rem in /home/shihchengli/.qchemrc:

Checking the input file for inconsistencies... 	...done.

--------------------------------------------------------------
User input:
--------------------------------------------------------------
$rem
   JOBTYPE  sp
   EXCHANGE   omegaB97X-D
   BASIS   6-311+G(2df,2pd)
   UNRESTRICTED   False
   max_scf_cycles   250
   geom_opt_max_cycles   1500
   basis2 6-31G*
   scf_algorithm rca_diis
   SYM_IGNORE  TRUE
   print_input   true
   geom_opt_dmax   80
   pop_mulliken false
   XC_GRID 000075000302
$end

$molecule
0 1
C       -5.3422915734     0.3111193714     0.0319581510
C       -4.1735753954     1.1835183289     0.1336242349
H       -5.5407861229     -0.0928018551     -0.9603042625
H       -6.2875324237     0.7921407712     0.2932316231
H       -5.3629605013     -0.5384825386     0.7202163975
O       -2.9535408426     0.5318289750     -0.2611721287
H       -3.9664826080     1.6128135293     1.1197290629
H       -4.0868482889     2.0091760788     -0.5710435582
H       -2.8887922437     -0.1920926609     0.3640704800
$end
--------------------------------------------------------------
 ----------------------------------------------------------------
             Standard Nuclear Orientation (Angstroms)
    I     Atom           X                Y                Z
 ----------------------------------------------------------------
    1      C      -5.3422915734     0.3111193714     0.0319581510
    2      C      -4.1735753954     1.1835183289     0.1336242349
    3      H      -5.5407861229    -0.0928018551    -0.9603042625
    4      H      -6.2875324237     0.7921407712     0.2932316231
    5      H      -5.3629605013    -0.5384825386     0.7202163975
    6      O      -2.9535408426     0.5318289750    -0.2611721287
    7      H      -3.9664826080     1.6128135293     1.1197290629
    8      H      -4.0868482889     2.0091760788    -0.5710435582
    9      H      -2.8887922437    -0.1920926609     0.3640704800
 ----------------------------------------------------------------
 Nuclear Repulsion Energy =          82.36145019 hartrees
 There are       13 alpha and       13 beta electrons
 Requested basis set is 6-311+G(2df,2pd)
 There are 60 shells and 186 basis functions

 Total QAlloc Memory Limit   2000 MB
 Mega-Array Size       188 MB
 MEM_STATIC part       192 MB

                       Distance Matrix (Angstroms)
             C (  1)   C (  2)   H (  3)   H (  4)   H (  5)   O (  6)
   C (  2)  1.461955
   H (  3)  1.089558  2.166781
   H (  4)  1.092303  2.155798  1.706489
   H (  5)  1.093595  2.173480  1.747685  1.675622
   O (  6)  2.416768  1.438418  2.751870  3.389783  2.813182
   H (  7)  2.184148  1.095255  3.116744  2.596897  2.595734  2.025208
   H (  8)  2.196166  1.088939  2.585299  2.659165  3.128319  1.887581
   H (  9)  2.526496  1.896333  2.965957  3.539091  2.523556  0.958740
             H (  7)   H (  8)
   H (  8)  1.740777
   H (  9)  2.233858  2.674951
 
 A cutoff of  1.0D-09 yielded   1781 shell pairs
 There are     17292 function pairs (     21475 Cartesian)
 Smallest overlap matrix eigenvalue = 1.17E-04

 Scale SEOQF with 1.000000e-02/1.000000e-01/1.000000e-01

 Standard Electronic Orientation quadrupole field applied
 Nucleus-field energy     =     0.0000000027 hartrees
 Requested basis set is 6-31G(d)
 There are 24 shells and 54 basis functions
 A cutoff of  1.0D-09 yielded    298 shell pairs
 There are      1549 function pairs (      1732 Cartesian)
 Smallest overlap matrix eigenvalue = 6.99E-03
 Guess from superposition of atomic densities
 Warning:  Energy on first SCF cycle will be non-variational
 SAD guess density has 26.000000 electrons
 Long-range K will be added via erf
 Coulomb attenuation parameter = 0.2 bohr**(-1)
 A restricted hybrid HF-DFT SCF calculation will be
 performed using Relaxed Constraint Minimization + Pulay DIIS
 Exchange:     0.2220 Hartree-Fock + 1.0000 wB97X-D + LR-HF
 Correlation:  1.0000 wB97X-D
 Using Euler-Maclaurin-Lebedev (75,302) quadrature formula
 Dispersion:   Grimme D
 SCF converges when DIIS error is below 1.0E-04
 using 6 threads for integral computing
 -------------------------------------------------------
 OpenMP Integral computing Module                
 Release: version 1.0, May 2013, Q-Chem Inc. Pittsburgh 
 -------------------------------------------------------
 using 6 threads for integral computing
 -------------------------------------------------------
 OpenMP Integral computing Module                
 Release: version 1.0, May 2013, Q-Chem Inc. Pittsburgh 
 -------------------------------------------------------
 ---------------------------------------
  Cycle       Energy         DIIS Error
 ---------------------------------------
    1    -155.4869007256      1.08E-01
    2    -154.9121804008      1.39E-02
    3    -154.9416352924      3.01E-03
    4    -154.9701486742      2.28E-03
    5    -154.9708065324      2.50E-04 Done RCA. Switching to DIIS
    6    -154.9715606561      1.11E-04
    7    -154.9715647339      1.06E-05 Convergence criterion met
 ---------------------------------------
 SCF time:  CPU 14.17 s  wall 2.37 s
 SCF   energy in the small basis set = -154.97156473
 Total energy in the small basis set = -154.97156473
 ----------------------------------------------------
  Cycle       Energy    
 ----------------------------------------------------
    1     -18.7651635373     -1.88E+01
 Long-range K will be added via erf
 Coulomb attenuation parameter = 0.2 bohr**(-1)
 A restricted hybrid HF-DFT SCF calculation will be
 performed using Relaxed Constraint Minimization + Pulay DIIS
 Exchange:     0.2220 Hartree-Fock + 1.0000 wB97X-D + LR-HF
 Correlation:  1.0000 wB97X-D
 Using Euler-Maclaurin-Lebedev (75,302) quadrature formula
 Dispersion:   Grimme D
 SCF converges when DIIS error is below 1.0E-05
 Basis2 calculation detected. Using small basis as guess for larger.
 SCFMinFind is unable to tell whether the solution found is close.
 Resetting ReadMinima to 0 and attempting to follow guess.
 SCFMinFind following SCF Guess.
 using 6 threads for integral computing
 -------------------------------------------------------
 OpenMP Integral computing Module                
 Release: version 1.0, May 2013, Q-Chem Inc. Pittsburgh 
 -------------------------------------------------------
 using 6 threads for integral computing
 -------------------------------------------------------
 OpenMP Integral computing Module                
 Release: version 1.0, May 2013, Q-Chem Inc. Pittsburgh 
 -------------------------------------------------------
 ---------------------------------------
  Cycle       Energy         DIIS Error
 ---------------------------------------
    1    -155.0027903245      5.73E-03
    2    -155.0170296520      2.97E-03
    3    -155.0274147398      3.90E-04 Done RCA. Switching to DIIS
    4    -155.0400933494      3.08E-04
    5    -155.0403696396      4.17E-05
    6    -155.0403783516      6.24E-06 Convergence criterion met
 ---------------------------------------
 SCF time:  CPU 39.18 s  wall 6.55 s
 SCF   energy in the final basis set = -155.04037835
 Total energy in the final basis set = -155.04037835
 
 --------------------------------------------------------------
 
                    Orbital Energies (a.u.)
 --------------------------------------------------------------
 
 Alpha MOs
 -- Occupied --
-19.2415 -10.3252 -10.2765  -1.1213  -0.8573  -0.7264  -0.5943  -0.5405
 -0.5303  -0.4769  -0.4457  -0.4168  -0.3632
 -- Virtual --
  0.0640   0.0856   0.0906   0.1023   0.1258   0.1317   0.1373   0.1817
  0.1978   0.2167   0.2288   0.2346   0.2746   0.2839   0.2843   0.3108
  0.3269   0.3299   0.3478   0.3878   0.4543   0.4921   0.5084   0.5283
  0.5659   0.5712   0.5748   0.6203   0.6240   0.6373   0.6600   0.6815
  0.6853   0.7135   0.7479   0.8209   0.8370   0.8946   0.9302   0.9633
  0.9928   1.0559   1.0750   1.1084   1.1501   1.1773   1.1815   1.2114
  1.2157   1.2397   1.2763   1.3227   1.3427   1.3708   1.3947   1.4031
  1.4509   1.4716   1.4802   1.4935   1.5140   1.5670   1.6121   1.6345
  1.6684   1.7259   1.9387   2.0277   2.0623   2.2425   2.2872   2.4322
  2.4556   2.5444   2.5465   2.5983   2.7173   2.8045   2.8287   2.8863
  2.9047   2.9736   3.0146   3.0387   3.0449   3.0593   3.0929   3.1031
  3.1228   3.1501   3.2312   3.2352   3.2609   3.3123   3.3544   3.3758
  3.3978   3.4151   3.4364   3.4544   3.5331   3.5492   3.5700   3.5799
  3.5987   3.6124   3.6461   3.7031   3.7123   3.7651   3.8073   3.8409
  3.8596   3.9137   3.9366   3.9570   3.9835   4.0173   4.0681   4.0993
  4.1354   4.1419   4.1884   4.2147   4.2264   4.2630   4.2752   4.3205
  4.3727   4.3918   4.4433   4.5080   4.5543   4.6857   4.6994   4.8146
  4.8481   4.9223   4.9295   4.9576   5.0154   5.0425   5.1329   5.2005
  5.2372   5.2515   5.2816   5.3212   5.3774   5.4668   5.4972   5.5267
  5.5728   5.6356   5.7365   5.9036   5.9346   5.9765   6.3824   6.4229
  6.4283   6.6304   6.6554   6.8107   7.1357   7.3852   7.4112   7.5819
  7.6566   8.1066  25.1700  25.4539  50.4689
 --------------------------------------------------------------
 
 -----------------------------------------------------------------
                    Cartesian Multipole Moments
 -----------------------------------------------------------------
    Charge (ESU x 10^10)
                 0.0000
    Dipole Moment (Debye)
         X      -1.4399      Y      -0.4346      Z       1.3071
       Tot       1.9927
    Quadrupole Moments (Debye-Ang)
        XX      -9.7011     XY       0.0664     YY     -19.1411
        XZ      -3.5376     YZ      -0.2108     ZZ     -19.8991
    Octopole Moments (Debye-Ang^2)
       XXX     197.1266    XXY      -9.6954    XYY      81.7785
       YYY     -37.7969    XXZ       9.1810    XYZ       0.8528
       YYZ      -0.2746    XZZ      84.5374    YZZ     -12.9745
       ZZZ       0.1396
    Hexadecapole Moments (Debye-Ang^3)
      XXXX   -2016.1175   XXXY     137.9728   XXYY    -394.7704
      XYYY     155.0519   YYYY    -106.0706   XXXZ     -17.5068
      XXYZ      -3.3697   XYYZ       2.6782   YYYZ      -3.6428
      XXZZ    -391.4441   XYZZ      53.6104   YYZZ     -22.7542
      XZZZ       6.6972   YZZZ      -1.4705   ZZZZ     -37.0858
 -----------------------------------------------------------------
Archival summary:
1\1\centos77-c7\SP\ProcedureUnspecified\BasisUnspecified\126\shihchen\MonJul2714:45:512020MonJul2714:45:512020\0\\#,ProcedureUnspecified,BasisUnspecified,\\0,1\C\H,1,1.08894\H,1,1.09526,2,105.686\O,1,1.43842,2,95.6446,3,-107.676,0\H,4,0.95874,1,102.732,2,175.34,0\C,1,1.46196,2,118.107,3,132.621,0\H,6,1.08956,1,115.48,2,51.4347,0\H,6,1.0923,1,114.354,2,-67.7347,0\H,6,1.09359,1,115.781,2,176.655,0\\\@

 Total job time:  11.09s(wall), 57.24s(cpu) 
 Mon Jul 27 14:45:51 2020

        *************************************************************
        *                                                           *
        *  Thank you very much for using Q-Chem.  Have a nice day.  *
        *                                                           *
        *************************************************************


