                  Welcome to Q-Chem
     A Quantum Leap Into The Future Of Chemistry


 Q-Chem 5.3 (devel), Q-Chem, Inc., Pleasanton, CA (2020)

 Yihan Shao,  Zhengting Gan,  E. Epifanovsky,  A. T. B. Gilbert,  M. Wormit,  
 J. Kussmann,  A. W. Lange,  A. Behn,  Jia Deng,  Xintian Feng,  D. Ghosh,  
 M. Goldey,  P. R. Horn,  L. D. Jacobson,  I. Kaliman,  T. Kus,  A. Landau,  
 Jie Liu,  E. I. Proynov,  R. M. Richard,  R. P. Steele,  E. J. Sundstrom,  
 H. L. Woodcock III,  P. M. Zimmerman,  D. Zuev,  B. Alam,  B. Albrecht,  
 E. Alguire,  S. A. Baeppler,  D. Barton,  Z. Benda,  Y. A. Bernard,  
 E. J. Berquist,  K. B. Bravaya,  H. Burton,  K. Carter-Fenk,  D. Casanova,  
 Chun-Min Chang,  Yunqing Chen,  A. Chien,  K. D. Closser,  M. P. Coons,  
 S. Coriani,  S. Dasgupta,  A. L. Dempwolff,  M. Diedenhofen,  Hainam Do,  
 R. G. Edgar,  Po-Tung Fang,  S. Faraji,  S. Fatehi,  Qingguo Feng,  
 J. Fosso-Tande,  J. Gayvert,  Qinghui Ge,  A. Ghysels,  G. Gidofalvi,  
 J. Gomes,  J. Gonthier,  A. Gunina,  D. Hait,  M. W. D. Hanson-Heine,  
 P. H. P. Harbach,  A. W. Hauser,  M. F. Herbst,  J. E. Herr,  
 E. G. Hohenstein,  Z. C. Holden,  Kerwin Hui,  B. C. Huynh,  T.-C. Jagau,  
 Hyunjun Ji,  B. Kaduk,  K. Khistyaev,  Jaehoon Kim,  P. Klunzinger,  K. Koh,  
 D. Kosenkov,  L. Koulias,  T. Kowalczyk,  C. M. Krauter,  A. Kunitsa,  
 Ka Un Lao,  A. Laurent,  K. V. Lawler,  Joonho Lee,  D. Lefrancois,  
 S. Lehtola,  D. S. Levine,  Yi-Pei Li,  You-Sheng Lin,  Fenglai Liu,  
 Kuan-Yu Liu,  E. Livshits,  M. Loipersberger,  A. Luenser,  P. Manohar,  
 E. Mansoor,  S. F. Manzer,  Shan-Ping Mao,  Yuezhi Mao,  N. Mardirossian,  
 A. V. Marenich,  T. Markovich,  L. A. Martinez-Martinez,  S. A. Maurer,  
 N. J. Mayhall,  S. C. McKenzie,  J.-M. Mewes,  P. Morgante,  A. F. Morrison,  
 J. W. Mullinax,  K. Nanda,  T. S. Nguyen-Beck,  R. Olivares-Amaya,  
 K. J. Oosterbaan,  J. A. Parkhill,  S. K. Paul,  F. Pavosevic,  Zheng Pei,  
 T. M. Perrine,  F. Plasser,  P. Pokhilko,  S. Prager,  A. Prociuk,  
 E. Ramos,  B. Rana,  D. R. Rehn,  F. Rob,  M. Scheurer,  M. Schneider,  
 N. Sergueev,  S. M. Sharada,  S. Sharma,  D. W. Small,  T. Stauch,  
 C. J. Stein,  T. Stein,  Yu-Chuan Su,  S. P. Veccham,  Zhen Tao,  
 A. J. W. Thom,  A. Tkatchenko,  T. Tsuchimochi,  N. M. Tubman,  L. Vogt,  
 M. L. Vidal,  O. Vydrov,  M. A. Watson,  J. Wenzel,  M. de Wergifosse,  
 T. A. Wesolowski,  A. White,  J. Witte,  A. Yamada,  Jun Yang,  K. Yao,  
 S. Yeganeh,  S. R. Yost,  Zhi-Qiang You,  A. Zech,  Igor Ying Zhang,  
 Xing Zhang,  Yan Zhao,  Ying Zhu,  B. R. Brooks,  G. K. L. Chan,  
 C. J. Cramer,  M. S. Gordon,  W. J. Hehre,  A. Klamt,  M. W. Schmidt,  
 C. D. Sherrill,  D. G. Truhlar,  A. Aspuru-Guzik,  R. Baer,  A. T. Bell,  
 N. A. Besley,  Jeng-Da Chai,  A. E. DePrince, III,  R. A. DiStasio Jr.,  
 A. Dreuw,  B. D. Dunietz,  T. R. Furlani,  Chao-Ping Hsu,  Yousung Jung,  
 Jing Kong,  D. S. Lambrecht,  WanZhen Liang,  C. Ochsenfeld,  
 V. A. Rassolov,  L. V. Slipchenko,  J. E. Subotnik,  T. Van Voorhis,  
 J. M. Herbert,  A. I. Krylov,  P. M. W. Gill,  M. Head-Gordon

 Contributors to earlier versions of Q-Chem not listed above: 
 R. D. Adamson,  B. Austin,  J. Baker,  G. J. O. Beran,  K. Brandhorst,  
 S. T. Brown,  E. F. C. Byrd,  A. K. Chakraborty,  C.-L. Cheng,  
 Siu Hung Chien,  D. M. Chipman,  D. L. Crittenden,  H. Dachsel,  
 R. J. Doerksen,  A. D. Dutoi,  L. Fusti-Molnar,  W. A. Goddard III,  
 A. Golubeva-Zadorozhnaya,  S. R. Gwaltney,  G. Hawkins,  A. Heyden,  
 S. Hirata,  G. Kedziora,  F. J. Keil,  C. Kelley,  Jihan Kim,  R. A. King,  
 R. Z. Khaliullin,  P. P. Korambath,  W. Kurlancheek,  A. M. Lee,  M. S. Lee,  
 S. V. Levchenko,  Ching Yeh Lin,  D. Liotard,  R. C. Lochan,  I. Lotan,  
 P. E. Maslen,  N. Nair,  D. P. O'Neill,  D. Neuhauser,  E. Neuscamman,  
 C. M. Oana,  R. Olson,  B. Peters,  R. Peverati,  P. A. Pieniazek,  
 Y. M. Rhee,  J. Ritchie,  M. A. Rohrdanz,  E. Rosta,  N. J. Russ,  
 H. F. Schaefer III,  N. E. Schultz,  N. Shenvi,  A. C. Simmonett,  A. Sodt,  
 D. Stuck,  K. S. Thanthiriwatte,  V. Vanovschi,  Tao Wang,  A. Warshel,  
 C. F. Williams,  Q. Wu,  X. Xu,  W. Zhang

 Please cite Q-Chem as follows:
 Y. Shao et al., Mol. Phys. 113, 184-215 (2015)
 DOI: 10.1080/00268976.2014.952696

 Q-Chem 5.3.0 for Intel X86 EM64T Linux

 Parts of Q-Chem use Armadillo 9.800.1 (Horizon Scraper).
 http://arma.sourceforge.net/

 Q-Chem begins on Mon Jul 27 14:49:38 2020  

Host: centos77-c7
0

     Scratch files written to /tmp/29924.centos77-h1/qchem110633//
Processing $rem in /opt/qchem-5.3.0-intel2020u1//config/preferences:
Processing $rem in /home/shihchengli/.qchemrc:

Checking the input file for inconsistencies... 	...done.

--------------------------------------------------------------
User input:
--------------------------------------------------------------
$rem
   JOBTYPE  sp
   EXCHANGE   omegaB97X-D
   BASIS   6-311+G(2df,2pd)
   UNRESTRICTED   False
   max_scf_cycles   250
   geom_opt_max_cycles   1500
   basis2 6-31G*
   scf_algorithm rca_diis
   SYM_IGNORE  TRUE
   print_input   true
   geom_opt_dmax   80
   pop_mulliken false
   XC_GRID 000075000302
$end

$molecule
0 1
C       -5.3952081495     0.3564528781     0.0566907900
C       -4.1555487815     1.1900789351     0.1297254972
H       -5.4763211297     -0.3601212952     -0.7695477213
H       -6.1645215678     1.0756494797     0.3026530437
H       -5.3041020161     -0.6732489764     0.4277748609
O       -2.9839428918     0.4663700590     -0.2442879388
H       -4.0369186530     1.7298642226     1.0832743099
H       -4.2181209129     2.1054616423     -0.4679060710
H       -2.8681258976     -0.2732869452     0.3519332294
$end
--------------------------------------------------------------
 ----------------------------------------------------------------
             Standard Nuclear Orientation (Angstroms)
    I     Atom           X                Y                Z
 ----------------------------------------------------------------
    1      C      -5.3952081495     0.3564528781     0.0566907900
    2      C      -4.1555487815     1.1900789351     0.1297254972
    3      H      -5.4763211297    -0.3601212952    -0.7695477213
    4      H      -6.1645215678     1.0756494797     0.3026530437
    5      H      -5.3041020161    -0.6732489764     0.4277748609
    6      O      -2.9839428918     0.4663700590    -0.2442879388
    7      H      -4.0369186530     1.7298642226     1.0832743099
    8      H      -4.2181209129     2.1054616423    -0.4679060710
    9      H      -2.8681258976    -0.2732869452     0.3519332294
 ----------------------------------------------------------------
 Nuclear Repulsion Energy =          82.01033988 hartrees
 There are       13 alpha and       13 beta electrons
 Requested basis set is 6-311+G(2df,2pd)
 There are 60 shells and 186 basis functions

 Total QAlloc Memory Limit   2000 MB
 Mega-Array Size       188 MB
 MEM_STATIC part       192 MB

                       Distance Matrix (Angstroms)
             C (  1)   C (  2)   H (  3)   H (  4)   H (  5)   O (  6)
   C (  2)  1.495668
   H (  3)  1.096690  2.226264
   H (  4)  1.081473  2.019646  1.919550
   H (  5)  1.098312  2.209072  1.249516  1.953106
   O (  6)  2.432462  1.426990  2.677860  3.284273  2.670868
   H (  7)  2.187483  1.102133  3.142112  2.358826  2.794707  2.113669
   H (  8)  2.172503  1.094991  2.784449  2.332970  3.114937  2.063934
   H (  9)  2.621047  1.961702  2.840412  3.562062  2.469757  0.957071
             H (  7)   H (  8)
   H (  8)  1.606259
   H (  9)  2.431779  2.855358
 
 A cutoff of  1.0D-09 yielded   1788 shell pairs
 There are     17337 function pairs (     21523 Cartesian)
 Smallest overlap matrix eigenvalue = 1.41E-04

 Scale SEOQF with 1.000000e-02/1.000000e-01/1.000000e-01

 Standard Electronic Orientation quadrupole field applied
 Nucleus-field energy     =     0.0000000029 hartrees
 Requested basis set is 6-31G(d)
 There are 24 shells and 54 basis functions
 A cutoff of  1.0D-09 yielded    298 shell pairs
 There are      1549 function pairs (      1732 Cartesian)
 Smallest overlap matrix eigenvalue = 7.54E-03
 Guess from superposition of atomic densities
 Warning:  Energy on first SCF cycle will be non-variational
 SAD guess density has 26.000000 electrons
 Long-range K will be added via erf
 Coulomb attenuation parameter = 0.2 bohr**(-1)
 A restricted hybrid HF-DFT SCF calculation will be
 performed using Relaxed Constraint Minimization + Pulay DIIS
 Exchange:     0.2220 Hartree-Fock + 1.0000 wB97X-D + LR-HF
 Correlation:  1.0000 wB97X-D
 Using Euler-Maclaurin-Lebedev (75,302) quadrature formula
 Dispersion:   Grimme D
 SCF converges when DIIS error is below 1.0E-04
 using 6 threads for integral computing
 -------------------------------------------------------
 OpenMP Integral computing Module                
 Release: version 1.0, May 2013, Q-Chem Inc. Pittsburgh 
 -------------------------------------------------------
 using 6 threads for integral computing
 -------------------------------------------------------
 OpenMP Integral computing Module                
 Release: version 1.0, May 2013, Q-Chem Inc. Pittsburgh 
 -------------------------------------------------------
 ---------------------------------------
  Cycle       Energy         DIIS Error
 ---------------------------------------
    1    -155.4671387545      1.06E-01
    2    -154.8635402016      1.39E-02
    3    -154.8944055018      3.24E-03
    4    -154.9221810354      2.67E-03
    5    -154.9230654247      2.45E-04 Done RCA. Switching to DIIS
    6    -154.9240639033      1.22E-04
    7    -154.9240688950      1.20E-05 Convergence criterion met
 ---------------------------------------
 SCF time:  CPU 14.32 s  wall 2.40 s
 SCF   energy in the small basis set = -154.92406890
 Total energy in the small basis set = -154.92406890
 ----------------------------------------------------
  Cycle       Energy    
 ----------------------------------------------------
    1     -18.7407122590     -1.87E+01
 Long-range K will be added via erf
 Coulomb attenuation parameter = 0.2 bohr**(-1)
 A restricted hybrid HF-DFT SCF calculation will be
 performed using Relaxed Constraint Minimization + Pulay DIIS
 Exchange:     0.2220 Hartree-Fock + 1.0000 wB97X-D + LR-HF
 Correlation:  1.0000 wB97X-D
 Using Euler-Maclaurin-Lebedev (75,302) quadrature formula
 Dispersion:   Grimme D
 SCF converges when DIIS error is below 1.0E-05
 Basis2 calculation detected. Using small basis as guess for larger.
 SCFMinFind is unable to tell whether the solution found is close.
 Resetting ReadMinima to 0 and attempting to follow guess.
 SCFMinFind following SCF Guess.
 using 6 threads for integral computing
 -------------------------------------------------------
 OpenMP Integral computing Module                
 Release: version 1.0, May 2013, Q-Chem Inc. Pittsburgh 
 -------------------------------------------------------
 using 6 threads for integral computing
 -------------------------------------------------------
 OpenMP Integral computing Module                
 Release: version 1.0, May 2013, Q-Chem Inc. Pittsburgh 
 -------------------------------------------------------
 ---------------------------------------
  Cycle       Energy         DIIS Error
 ---------------------------------------
    1    -154.9589320579      5.72E-03
    2    -154.9739417825      2.90E-03
    3    -154.9839185369      3.55E-04 Done RCA. Switching to DIIS
    4    -154.9959022407      2.56E-04
    5    -154.9961016006      4.21E-05
    6    -154.9961107218      5.72E-06 Convergence criterion met
 ---------------------------------------
 SCF time:  CPU 38.96 s  wall 6.52 s
 SCF   energy in the final basis set = -154.99611072
 Total energy in the final basis set = -154.99611072
 
 --------------------------------------------------------------
 
                    Orbital Energies (a.u.)
 --------------------------------------------------------------
 
 Alpha MOs
 -- Occupied --
-19.2475 -10.3300 -10.2774  -1.1228  -0.8601  -0.7390  -0.6087  -0.5503
 -0.5269  -0.4993  -0.4278  -0.3779  -0.3594
 -- Virtual --
  0.0654   0.0796   0.0878   0.1073   0.1182   0.1379   0.1402   0.1828
  0.1942   0.2093   0.2311   0.2424   0.2459   0.2648   0.2949   0.3004
  0.3181   0.3237   0.3472   0.3980   0.4613   0.5069   0.5247   0.5265
  0.5627   0.5690   0.5875   0.6014   0.6119   0.6351   0.6527   0.6816
  0.6909   0.7132   0.7505   0.8081   0.8502   0.8874   0.9083   0.9537
  0.9752   1.0334   1.0484   1.0710   1.1436   1.1769   1.1980   1.1993
  1.2301   1.2644   1.3044   1.3318   1.3411   1.3609   1.3854   1.4221
  1.4287   1.4538   1.4814   1.4898   1.4991   1.5499   1.5724   1.6241
  1.6417   1.7241   1.9419   2.1271   2.1394   2.2757   2.2931   2.4728
  2.4986   2.5203   2.5476   2.6546   2.7551   2.7739   2.8115   2.8350
  2.8901   2.9306   2.9401   2.9733   3.0111   3.0296   3.0575   3.0824
  3.1292   3.1482   3.1873   3.2256   3.2917   3.3189   3.3352   3.3612
  3.3842   3.4380   3.4469   3.4781   3.5249   3.5379   3.5592   3.5754
  3.5858   3.6087   3.6617   3.7085   3.7309   3.7746   3.7993   3.8429
  3.8490   3.8745   3.8925   3.9154   3.9658   3.9880   4.0436   4.0622
  4.0926   4.1031   4.1386   4.2190   4.2380   4.2815   4.3074   4.3359
  4.4133   4.4239   4.4493   4.5128   4.5819   4.6383   4.7209   4.7241
  4.8057   4.8588   4.8779   4.9311   5.0226   5.0821   5.1315   5.2127
  5.2369   5.2724   5.3337   5.4195   5.4538   5.4933   5.5191   5.5365
  5.6311   5.6930   5.8235   5.9133   5.9894   6.1279   6.2945   6.3887
  6.3999   6.6552   6.6993   6.8088   7.1254   7.3489   7.4303   7.5439
  7.7358   8.1102  25.1356  25.4232  50.4610
 --------------------------------------------------------------
 
 -----------------------------------------------------------------
                    Cartesian Multipole Moments
 -----------------------------------------------------------------
    Charge (ESU x 10^10)
                 0.0000
    Dipole Moment (Debye)
         X      -1.1067      Y      -0.5509      Z       1.1693
       Tot       1.7016
    Quadrupole Moments (Debye-Ang)
        XX     -13.0368     XY       0.2414     YY     -17.2926
        XZ      -2.9668     YZ       0.5063     ZZ     -21.5577
    Octopole Moments (Debye-Ang^2)
       XXX     225.8012    XXY      -8.6998    XYY      72.4051
       YYY     -35.4117    XXZ       6.6319    XYZ      -3.1056
       YYZ       0.0515    XZZ      93.4642    YZZ     -13.3694
       ZZZ      -0.4876
    Hexadecapole Moments (Debye-Ang^3)
      XXXX   -2247.1686   XXXY     127.1846   XXYY    -345.8876
      XYYY     145.4321   YYYY    -105.3719   XXXZ      -5.6269
      XXYZ      17.7167   XYYZ       1.3228   YYYZ      -3.4594
      XXZZ    -439.1926   XYZZ      55.7948   YYZZ     -24.1544
      XZZZ       8.5182   YZZZ      -2.6944   ZZZZ     -37.3123
 -----------------------------------------------------------------
Archival summary:
1\1\centos77-c7\SP\ProcedureUnspecified\BasisUnspecified\126\shihchen\MonJul2714:49:492020MonJul2714:49:492020\0\\#,ProcedureUnspecified,BasisUnspecified,\\0,1\C\H,1,1.09499\H,1,1.10213,2,93.9524\O,1,1.42699,2,109.138,3,-115.744,0\H,4,0.957071,1,109.149,2,172.814,0\C,1,1.49567,2,113.074,3,118.04,0\H,6,1.08147,1,101.996,2,-52.0103,0\H,6,1.09669,1,117.534,2,86.4601,0\H,6,1.09831,1,115.931,2,165.637,0\\\@

 Total job time:  11.09s(wall), 57.15s(cpu) 
 Mon Jul 27 14:49:49 2020

        *************************************************************
        *                                                           *
        *  Thank you very much for using Q-Chem.  Have a nice day.  *
        *                                                           *
        *************************************************************


