                  Welcome to Q-Chem
     A Quantum Leap Into The Future Of Chemistry


 Q-Chem 5.3 (devel), Q-Chem, Inc., Pleasanton, CA (2020)

 Yihan Shao,  Zhengting Gan,  E. Epifanovsky,  A. T. B. Gilbert,  M. Wormit,  
 J. Kussmann,  A. W. Lange,  A. Behn,  Jia Deng,  Xintian Feng,  D. Ghosh,  
 M. Goldey,  P. R. Horn,  L. D. Jacobson,  I. Kaliman,  T. Kus,  A. Landau,  
 Jie Liu,  E. I. Proynov,  R. M. Richard,  R. P. Steele,  E. J. Sundstrom,  
 H. L. Woodcock III,  P. M. Zimmerman,  D. Zuev,  B. Alam,  B. Albrecht,  
 E. Alguire,  S. A. Baeppler,  D. Barton,  Z. Benda,  Y. A. Bernard,  
 E. J. Berquist,  K. B. Bravaya,  H. Burton,  K. Carter-Fenk,  D. Casanova,  
 Chun-Min Chang,  Yunqing Chen,  A. Chien,  K. D. Closser,  M. P. Coons,  
 S. Coriani,  S. Dasgupta,  A. L. Dempwolff,  M. Diedenhofen,  Hainam Do,  
 R. G. Edgar,  Po-Tung Fang,  S. Faraji,  S. Fatehi,  Qingguo Feng,  
 J. Fosso-Tande,  J. Gayvert,  Qinghui Ge,  A. Ghysels,  G. Gidofalvi,  
 J. Gomes,  J. Gonthier,  A. Gunina,  D. Hait,  M. W. D. Hanson-Heine,  
 P. H. P. Harbach,  A. W. Hauser,  M. F. Herbst,  J. E. Herr,  
 E. G. Hohenstein,  Z. C. Holden,  Kerwin Hui,  B. C. Huynh,  T.-C. Jagau,  
 Hyunjun Ji,  B. Kaduk,  K. Khistyaev,  Jaehoon Kim,  P. Klunzinger,  K. Koh,  
 D. Kosenkov,  L. Koulias,  T. Kowalczyk,  C. M. Krauter,  A. Kunitsa,  
 Ka Un Lao,  A. Laurent,  K. V. Lawler,  Joonho Lee,  D. Lefrancois,  
 S. Lehtola,  D. S. Levine,  Yi-Pei Li,  You-Sheng Lin,  Fenglai Liu,  
 Kuan-Yu Liu,  E. Livshits,  M. Loipersberger,  A. Luenser,  P. Manohar,  
 E. Mansoor,  S. F. Manzer,  Shan-Ping Mao,  Yuezhi Mao,  N. Mardirossian,  
 A. V. Marenich,  T. Markovich,  L. A. Martinez-Martinez,  S. A. Maurer,  
 N. J. Mayhall,  S. C. McKenzie,  J.-M. Mewes,  P. Morgante,  A. F. Morrison,  
 J. W. Mullinax,  K. Nanda,  T. S. Nguyen-Beck,  R. Olivares-Amaya,  
 K. J. Oosterbaan,  J. A. Parkhill,  S. K. Paul,  F. Pavosevic,  Zheng Pei,  
 T. M. Perrine,  F. Plasser,  P. Pokhilko,  S. Prager,  A. Prociuk,  
 E. Ramos,  B. Rana,  D. R. Rehn,  F. Rob,  M. Scheurer,  M. Schneider,  
 N. Sergueev,  S. M. Sharada,  S. Sharma,  D. W. Small,  T. Stauch,  
 C. J. Stein,  T. Stein,  Yu-Chuan Su,  S. P. Veccham,  Zhen Tao,  
 A. J. W. Thom,  A. Tkatchenko,  T. Tsuchimochi,  N. M. Tubman,  L. Vogt,  
 M. L. Vidal,  O. Vydrov,  M. A. Watson,  J. Wenzel,  M. de Wergifosse,  
 T. A. Wesolowski,  A. White,  J. Witte,  A. Yamada,  Jun Yang,  K. Yao,  
 S. Yeganeh,  S. R. Yost,  Zhi-Qiang You,  A. Zech,  Igor Ying Zhang,  
 Xing Zhang,  Yan Zhao,  Ying Zhu,  B. R. Brooks,  G. K. L. Chan,  
 C. J. Cramer,  M. S. Gordon,  W. J. Hehre,  A. Klamt,  M. W. Schmidt,  
 C. D. Sherrill,  D. G. Truhlar,  A. Aspuru-Guzik,  R. Baer,  A. T. Bell,  
 N. A. Besley,  Jeng-Da Chai,  A. E. DePrince, III,  R. A. DiStasio Jr.,  
 A. Dreuw,  B. D. Dunietz,  T. R. Furlani,  Chao-Ping Hsu,  Yousung Jung,  
 Jing Kong,  D. S. Lambrecht,  WanZhen Liang,  C. Ochsenfeld,  
 V. A. Rassolov,  L. V. Slipchenko,  J. E. Subotnik,  T. Van Voorhis,  
 J. M. Herbert,  A. I. Krylov,  P. M. W. Gill,  M. Head-Gordon

 Contributors to earlier versions of Q-Chem not listed above: 
 R. D. Adamson,  B. Austin,  J. Baker,  G. J. O. Beran,  K. Brandhorst,  
 S. T. Brown,  E. F. C. Byrd,  A. K. Chakraborty,  C.-L. Cheng,  
 Siu Hung Chien,  D. M. Chipman,  D. L. Crittenden,  H. Dachsel,  
 R. J. Doerksen,  A. D. Dutoi,  L. Fusti-Molnar,  W. A. Goddard III,  
 A. Golubeva-Zadorozhnaya,  S. R. Gwaltney,  G. Hawkins,  A. Heyden,  
 S. Hirata,  G. Kedziora,  F. J. Keil,  C. Kelley,  Jihan Kim,  R. A. King,  
 R. Z. Khaliullin,  P. P. Korambath,  W. Kurlancheek,  A. M. Lee,  M. S. Lee,  
 S. V. Levchenko,  Ching Yeh Lin,  D. Liotard,  R. C. Lochan,  I. Lotan,  
 P. E. Maslen,  N. Nair,  D. P. O'Neill,  D. Neuhauser,  E. Neuscamman,  
 C. M. Oana,  R. Olson,  B. Peters,  R. Peverati,  P. A. Pieniazek,  
 Y. M. Rhee,  J. Ritchie,  M. A. Rohrdanz,  E. Rosta,  N. J. Russ,  
 H. F. Schaefer III,  N. E. Schultz,  N. Shenvi,  A. C. Simmonett,  A. Sodt,  
 D. Stuck,  K. S. Thanthiriwatte,  V. Vanovschi,  Tao Wang,  A. Warshel,  
 C. F. Williams,  Q. Wu,  X. Xu,  W. Zhang

 Please cite Q-Chem as follows:
 Y. Shao et al., Mol. Phys. 113, 184-215 (2015)
 DOI: 10.1080/00268976.2014.952696

 Q-Chem 5.3.0 for Intel X86 EM64T Linux

 Parts of Q-Chem use Armadillo 9.800.1 (Horizon Scraper).
 http://arma.sourceforge.net/

 Q-Chem begins on Mon Jul 27 14:49:27 2020  

Host: centos77-c7
0

     Scratch files written to /tmp/29924.centos77-h1/qchem110594//
Processing $rem in /opt/qchem-5.3.0-intel2020u1//config/preferences:
Processing $rem in /home/shihchengli/.qchemrc:

Checking the input file for inconsistencies... 	...done.

--------------------------------------------------------------
User input:
--------------------------------------------------------------
$rem
   JOBTYPE  sp
   EXCHANGE   omegaB97X-D
   BASIS   6-311+G(2df,2pd)
   UNRESTRICTED   False
   max_scf_cycles   250
   geom_opt_max_cycles   1500
   basis2 6-31G*
   scf_algorithm rca_diis
   SYM_IGNORE  TRUE
   print_input   true
   geom_opt_dmax   80
   pop_mulliken false
   XC_GRID 000075000302
$end

$molecule
0 1
C       -5.3914755636     0.3480495979     0.0522282906
C       -4.1497600971     1.1882064707     0.1279679238
H       -5.4779229179     -0.2958975488     -0.8291600277
H       -6.1930360024     1.0339967441     0.3007332255
H       -5.3025120698     -0.6445314826     0.5103197771
O       -2.9769173681     0.4715589581     -0.2444464960
H       -4.0357278326     1.6992610556     1.0960544486
H       -4.2152797998     2.0850572941     -0.4945241532
H       -2.8601783486     -0.2684810890     0.3511370114
$end
--------------------------------------------------------------
 ----------------------------------------------------------------
             Standard Nuclear Orientation (Angstroms)
    I     Atom           X                Y                Z
 ----------------------------------------------------------------
    1      C      -5.3914755636     0.3480495979     0.0522282906
    2      C      -4.1497600971     1.1882064707     0.1279679238
    3      H      -5.4779229179    -0.2958975488    -0.8291600277
    4      H      -6.1930360024     1.0339967441     0.3007332255
    5      H      -5.3025120698    -0.6445314826     0.5103197771
    6      O      -2.9769173681     0.4715589581    -0.2444464960
    7      H      -4.0357278326     1.6992610556     1.0960544486
    8      H      -4.2152797998     2.0850572941    -0.4945241532
    9      H      -2.8601783486    -0.2684810890     0.3511370114
 ----------------------------------------------------------------
 Nuclear Repulsion Energy =          81.95939965 hartrees
 There are       13 alpha and       13 beta electrons
 Requested basis set is 6-311+G(2df,2pd)
 There are 60 shells and 186 basis functions

 Total QAlloc Memory Limit   2000 MB
 Mega-Array Size       188 MB
 MEM_STATIC part       192 MB

                       Distance Matrix (Angstroms)
             C (  1)   C (  2)   H (  3)   H (  4)   H (  5)   O (  6)
   C (  2)  1.501152
   H (  3)  1.094982  2.209678
   H (  4)  1.083871  2.056357  1.885912
   H (  5)  1.096804  2.198626  1.395178  1.911653
   O (  6)  2.435849  1.424021  2.680654  3.310132  2.687698
   H (  7)  2.180229  1.100623  3.125226  2.393552  2.727855  2.103634
   H (  8)  2.167849  1.093678  2.715731  2.376696  3.105228  2.049258
   H (  9)  2.622389  1.958255  2.871661  3.578677  2.476236  0.957083
             H (  7)   H (  8)
   H (  8)  1.646517
   H (  9)  2.410151  2.844395
 
 A cutoff of  1.0D-09 yielded   1787 shell pairs
 There are     17325 function pairs (     21511 Cartesian)
 Smallest overlap matrix eigenvalue = 1.36E-04

 Scale SEOQF with 1.000000e-02/1.000000e-01/1.000000e-01

 Standard Electronic Orientation quadrupole field applied
 Nucleus-field energy     =     0.0000000028 hartrees
 Requested basis set is 6-31G(d)
 There are 24 shells and 54 basis functions
 A cutoff of  1.0D-09 yielded    298 shell pairs
 There are      1549 function pairs (      1732 Cartesian)
 Smallest overlap matrix eigenvalue = 7.38E-03
 Guess from superposition of atomic densities
 Warning:  Energy on first SCF cycle will be non-variational
 SAD guess density has 26.000000 electrons
 Long-range K will be added via erf
 Coulomb attenuation parameter = 0.2 bohr**(-1)
 A restricted hybrid HF-DFT SCF calculation will be
 performed using Relaxed Constraint Minimization + Pulay DIIS
 Exchange:     0.2220 Hartree-Fock + 1.0000 wB97X-D + LR-HF
 Correlation:  1.0000 wB97X-D
 Using Euler-Maclaurin-Lebedev (75,302) quadrature formula
 Dispersion:   Grimme D
 SCF converges when DIIS error is below 1.0E-04
 using 6 threads for integral computing
 -------------------------------------------------------
 OpenMP Integral computing Module                
 Release: version 1.0, May 2013, Q-Chem Inc. Pittsburgh 
 -------------------------------------------------------
 using 6 threads for integral computing
 -------------------------------------------------------
 OpenMP Integral computing Module                
 Release: version 1.0, May 2013, Q-Chem Inc. Pittsburgh 
 -------------------------------------------------------
 ---------------------------------------
  Cycle       Energy         DIIS Error
 ---------------------------------------
    1    -155.4506836982      1.06E-01
    2    -154.8923921932      1.37E-02
    3    -154.9217979632      3.13E-03
    4    -154.9486490966      2.53E-03
    5    -154.9494475325      2.36E-04 Done RCA. Switching to DIIS
    6    -154.9503474273      1.13E-04
    7    -154.9503515295      9.83E-06 Convergence criterion met
 ---------------------------------------
 SCF time:  CPU 14.35 s  wall 2.41 s
 SCF   energy in the small basis set = -154.95035153
 Total energy in the small basis set = -154.95035153
 ----------------------------------------------------
  Cycle       Energy    
 ----------------------------------------------------
    1     -18.7440391898     -1.87E+01
 Long-range K will be added via erf
 Coulomb attenuation parameter = 0.2 bohr**(-1)
 A restricted hybrid HF-DFT SCF calculation will be
 performed using Relaxed Constraint Minimization + Pulay DIIS
 Exchange:     0.2220 Hartree-Fock + 1.0000 wB97X-D + LR-HF
 Correlation:  1.0000 wB97X-D
 Using Euler-Maclaurin-Lebedev (75,302) quadrature formula
 Dispersion:   Grimme D
 SCF converges when DIIS error is below 1.0E-05
 Basis2 calculation detected. Using small basis as guess for larger.
 SCFMinFind is unable to tell whether the solution found is close.
 Resetting ReadMinima to 0 and attempting to follow guess.
 SCFMinFind following SCF Guess.
 using 6 threads for integral computing
 -------------------------------------------------------
 OpenMP Integral computing Module                
 Release: version 1.0, May 2013, Q-Chem Inc. Pittsburgh 
 -------------------------------------------------------
 using 6 threads for integral computing
 -------------------------------------------------------
 OpenMP Integral computing Module                
 Release: version 1.0, May 2013, Q-Chem Inc. Pittsburgh 
 -------------------------------------------------------
 ---------------------------------------
  Cycle       Energy         DIIS Error
 ---------------------------------------
    1    -154.9835547925      5.72E-03
    2    -154.9987154376      2.88E-03
    3    -155.0085699680      3.53E-04 Done RCA. Switching to DIIS
    4    -155.0204108167      2.56E-04
    5    -155.0206081306      4.10E-05
    6    -155.0206166848      5.65E-06 Convergence criterion met
 ---------------------------------------
 SCF time:  CPU 39.15 s  wall 6.55 s
 SCF   energy in the final basis set = -155.02061668
 Total energy in the final basis set = -155.02061668
 
 --------------------------------------------------------------
 
                    Orbital Energies (a.u.)
 --------------------------------------------------------------
 
 Alpha MOs
 -- Occupied --
-19.2472 -10.3292 -10.2762  -1.1236  -0.8557  -0.7319  -0.6024  -0.5479
 -0.5189  -0.5004  -0.4347  -0.3901  -0.3628
 -- Virtual --
  0.0655   0.0819   0.0881   0.1060   0.1200   0.1377   0.1390   0.1830
  0.1965   0.2109   0.2339   0.2452   0.2529   0.2658   0.2946   0.3039
  0.3191   0.3244   0.3459   0.3971   0.4583   0.5107   0.5143   0.5231
  0.5632   0.5719   0.5831   0.6031   0.6108   0.6434   0.6477   0.6806
  0.6938   0.7115   0.7465   0.8092   0.8451   0.8957   0.9197   0.9492
  0.9767   1.0451   1.0617   1.0715   1.1449   1.1782   1.1934   1.2054
  1.2326   1.2502   1.2990   1.3152   1.3387   1.3632   1.3793   1.4198
  1.4317   1.4539   1.4843   1.4883   1.5028   1.5391   1.5767   1.6228
  1.6392   1.7223   1.9413   2.1211   2.1292   2.2771   2.2920   2.4655
  2.4872   2.5136   2.5387   2.6213   2.6970   2.7781   2.8209   2.8467
  2.9320   2.9542   2.9648   2.9832   3.0191   3.0426   3.0664   3.0761
  3.1267   3.1658   3.1944   3.2311   3.2796   3.3067   3.3382   3.3615
  3.3806   3.4284   3.4487   3.4790   3.5192   3.5409   3.5522   3.5648
  3.5865   3.6384   3.6519   3.7243   3.7338   3.7527   3.8008   3.8142
  3.8552   3.8625   3.8922   3.9378   3.9734   3.9795   4.0373   4.0554
  4.0989   4.1179   4.1285   4.2112   4.2200   4.2741   4.2806   4.3227
  4.3972   4.4223   4.4531   4.4952   4.5689   4.6338   4.7189   4.7487
  4.8299   4.8724   4.8903   4.9390   5.0224   5.0829   5.1329   5.1544
  5.2188   5.2848   5.3354   5.3850   5.3969   5.4509   5.5016   5.5298
  5.5998   5.6877   5.7426   5.8938   5.9573   6.0860   6.3158   6.3468
  6.4034   6.6551   6.6964   6.8123   7.1259   7.3516   7.4311   7.5459
  7.7332   8.1089  25.1460  25.4396  50.4618
 --------------------------------------------------------------
 
 -----------------------------------------------------------------
                    Cartesian Multipole Moments
 -----------------------------------------------------------------
    Charge (ESU x 10^10)
                 0.0000
    Dipole Moment (Debye)
         X      -1.1161      Y      -0.4833      Z       1.2002
       Tot       1.7087
    Quadrupole Moments (Debye-Ang)
        XX     -12.8500     XY      -0.1718     YY     -17.6835
        XZ      -3.1072     YZ       0.2938     ZZ     -21.0989
    Octopole Moments (Debye-Ang^2)
       XXX     223.3189    XXY      -6.2884    XYY      74.2829
       YYY     -35.8263    XXZ       7.3368    XYZ      -2.0080
       YYZ      -0.0481    XZZ      91.0097    YZZ     -13.2485
       ZZZ      -0.3872
    Hexadecapole Moments (Debye-Ang^3)
      XXXX   -2222.0162   XXXY     112.9452   XXYY    -355.2013
      XYYY     147.0015   YYYY    -105.3533   XXXZ      -9.3797
      XXYZ      12.1148   XYYZ       1.7084   YYYZ      -3.7771
      XXZZ    -426.2176   XYZZ      55.2425   YYZZ     -23.6776
      XZZZ       8.2059   YZZZ      -2.3563   ZZZZ     -37.0834
 -----------------------------------------------------------------
Archival summary:
1\1\centos77-c7\SP\ProcedureUnspecified\BasisUnspecified\126\shihchen\MonJul2714:49:382020MonJul2714:49:382020\0\\#,ProcedureUnspecified,BasisUnspecified,\\0,1\C\H,1,1.09368\H,1,1.10062,2,97.2427\O,1,1.42402,2,108.251,3,-116.329,0\H,4,0.957083,1,109.077,2,174.371,0\C,1,1.50115,2,112.376,3,118.517,0\H,6,1.08387,1,104.238,2,-54.0334,0\H,6,1.09498,1,115.789,2,79.884,0\H,6,1.0968,1,114.729,2,169.35,0\\\@

 Total job time:  11.11s(wall), 57.29s(cpu) 
 Mon Jul 27 14:49:38 2020

        *************************************************************
        *                                                           *
        *  Thank you very much for using Q-Chem.  Have a nice day.  *
        *                                                           *
        *************************************************************


