                  Welcome to Q-Chem
     A Quantum Leap Into The Future Of Chemistry


 Q-Chem 5.3 (devel), Q-Chem, Inc., Pleasanton, CA (2020)

 Yihan Shao,  Zhengting Gan,  E. Epifanovsky,  A. T. B. Gilbert,  M. Wormit,  
 J. Kussmann,  A. W. Lange,  A. Behn,  Jia Deng,  Xintian Feng,  D. Ghosh,  
 M. Goldey,  P. R. Horn,  L. D. Jacobson,  I. Kaliman,  T. Kus,  A. Landau,  
 Jie Liu,  E. I. Proynov,  R. M. Richard,  R. P. Steele,  E. J. Sundstrom,  
 H. L. Woodcock III,  P. M. Zimmerman,  D. Zuev,  B. Alam,  B. Albrecht,  
 E. Alguire,  S. A. Baeppler,  D. Barton,  Z. Benda,  Y. A. Bernard,  
 E. J. Berquist,  K. B. Bravaya,  H. Burton,  K. Carter-Fenk,  D. Casanova,  
 Chun-Min Chang,  Yunqing Chen,  A. Chien,  K. D. Closser,  M. P. Coons,  
 S. Coriani,  S. Dasgupta,  A. L. Dempwolff,  M. Diedenhofen,  Hainam Do,  
 R. G. Edgar,  Po-Tung Fang,  S. Faraji,  S. Fatehi,  Qingguo Feng,  
 J. Fosso-Tande,  J. Gayvert,  Qinghui Ge,  A. Ghysels,  G. Gidofalvi,  
 J. Gomes,  J. Gonthier,  A. Gunina,  D. Hait,  M. W. D. Hanson-Heine,  
 P. H. P. Harbach,  A. W. Hauser,  M. F. Herbst,  J. E. Herr,  
 E. G. Hohenstein,  Z. C. Holden,  Kerwin Hui,  B. C. Huynh,  T.-C. Jagau,  
 Hyunjun Ji,  B. Kaduk,  K. Khistyaev,  Jaehoon Kim,  P. Klunzinger,  K. Koh,  
 D. Kosenkov,  L. Koulias,  T. Kowalczyk,  C. M. Krauter,  A. Kunitsa,  
 Ka Un Lao,  A. Laurent,  K. V. Lawler,  Joonho Lee,  D. Lefrancois,  
 S. Lehtola,  D. S. Levine,  Yi-Pei Li,  You-Sheng Lin,  Fenglai Liu,  
 Kuan-Yu Liu,  E. Livshits,  M. Loipersberger,  A. Luenser,  P. Manohar,  
 E. Mansoor,  S. F. Manzer,  Shan-Ping Mao,  Yuezhi Mao,  N. Mardirossian,  
 A. V. Marenich,  T. Markovich,  L. A. Martinez-Martinez,  S. A. Maurer,  
 N. J. Mayhall,  S. C. McKenzie,  J.-M. Mewes,  P. Morgante,  A. F. Morrison,  
 J. W. Mullinax,  K. Nanda,  T. S. Nguyen-Beck,  R. Olivares-Amaya,  
 K. J. Oosterbaan,  J. A. Parkhill,  S. K. Paul,  F. Pavosevic,  Zheng Pei,  
 T. M. Perrine,  F. Plasser,  P. Pokhilko,  S. Prager,  A. Prociuk,  
 E. Ramos,  B. Rana,  D. R. Rehn,  F. Rob,  M. Scheurer,  M. Schneider,  
 N. Sergueev,  S. M. Sharada,  S. Sharma,  D. W. Small,  T. Stauch,  
 C. J. Stein,  T. Stein,  Yu-Chuan Su,  S. P. Veccham,  Zhen Tao,  
 A. J. W. Thom,  A. Tkatchenko,  T. Tsuchimochi,  N. M. Tubman,  L. Vogt,  
 M. L. Vidal,  O. Vydrov,  M. A. Watson,  J. Wenzel,  M. de Wergifosse,  
 T. A. Wesolowski,  A. White,  J. Witte,  A. Yamada,  Jun Yang,  K. Yao,  
 S. Yeganeh,  S. R. Yost,  Zhi-Qiang You,  A. Zech,  Igor Ying Zhang,  
 Xing Zhang,  Yan Zhao,  Ying Zhu,  B. R. Brooks,  G. K. L. Chan,  
 C. J. Cramer,  M. S. Gordon,  W. J. Hehre,  A. Klamt,  M. W. Schmidt,  
 C. D. Sherrill,  D. G. Truhlar,  A. Aspuru-Guzik,  R. Baer,  A. T. Bell,  
 N. A. Besley,  Jeng-Da Chai,  A. E. DePrince, III,  R. A. DiStasio Jr.,  
 A. Dreuw,  B. D. Dunietz,  T. R. Furlani,  Chao-Ping Hsu,  Yousung Jung,  
 Jing Kong,  D. S. Lambrecht,  WanZhen Liang,  C. Ochsenfeld,  
 V. A. Rassolov,  L. V. Slipchenko,  J. E. Subotnik,  T. Van Voorhis,  
 J. M. Herbert,  A. I. Krylov,  P. M. W. Gill,  M. Head-Gordon

 Contributors to earlier versions of Q-Chem not listed above: 
 R. D. Adamson,  B. Austin,  J. Baker,  G. J. O. Beran,  K. Brandhorst,  
 S. T. Brown,  E. F. C. Byrd,  A. K. Chakraborty,  C.-L. Cheng,  
 Siu Hung Chien,  D. M. Chipman,  D. L. Crittenden,  H. Dachsel,  
 R. J. Doerksen,  A. D. Dutoi,  L. Fusti-Molnar,  W. A. Goddard III,  
 A. Golubeva-Zadorozhnaya,  S. R. Gwaltney,  G. Hawkins,  A. Heyden,  
 S. Hirata,  G. Kedziora,  F. J. Keil,  C. Kelley,  Jihan Kim,  R. A. King,  
 R. Z. Khaliullin,  P. P. Korambath,  W. Kurlancheek,  A. M. Lee,  M. S. Lee,  
 S. V. Levchenko,  Ching Yeh Lin,  D. Liotard,  R. C. Lochan,  I. Lotan,  
 P. E. Maslen,  N. Nair,  D. P. O'Neill,  D. Neuhauser,  E. Neuscamman,  
 C. M. Oana,  R. Olson,  B. Peters,  R. Peverati,  P. A. Pieniazek,  
 Y. M. Rhee,  J. Ritchie,  M. A. Rohrdanz,  E. Rosta,  N. J. Russ,  
 H. F. Schaefer III,  N. E. Schultz,  N. Shenvi,  A. C. Simmonett,  A. Sodt,  
 D. Stuck,  K. S. Thanthiriwatte,  V. Vanovschi,  Tao Wang,  A. Warshel,  
 C. F. Williams,  Q. Wu,  X. Xu,  W. Zhang

 Please cite Q-Chem as follows:
 Y. Shao et al., Mol. Phys. 113, 184-215 (2015)
 DOI: 10.1080/00268976.2014.952696

 Q-Chem 5.3.0 for Intel X86 EM64T Linux

 Parts of Q-Chem use Armadillo 9.800.1 (Horizon Scraper).
 http://arma.sourceforge.net/

 Q-Chem begins on Mon Jul 27 14:28:22 2020  

Host: centos77-c7
0

     Scratch files written to /tmp/29924.centos77-h1/qchem105417//
Processing $rem in /opt/qchem-5.3.0-intel2020u1//config/preferences:
Processing $rem in /home/shihchengli/.qchemrc:

Checking the input file for inconsistencies... 	...done.

--------------------------------------------------------------
User input:
--------------------------------------------------------------
$rem
   JOBTYPE  sp
   EXCHANGE   omegaB97X-D
   BASIS   6-311+G(2df,2pd)
   UNRESTRICTED   False
   max_scf_cycles   250
   geom_opt_max_cycles   1500
   basis2 6-31G*
   scf_algorithm rca_diis
   SYM_IGNORE  TRUE
   print_input   true
   geom_opt_dmax   80
   pop_mulliken false
   XC_GRID 000075000302
$end

$molecule
0 1
C       -5.3565877534     0.3232744031     -0.0904343472
C       -4.1388980771     1.2266448467     0.0252744237
H       -5.6277865218     -0.3384304877     -0.9081832520
H       -6.2340592819     0.8593995598     0.2747956997
H       -5.0675443753     -0.2637675648     0.7897151866
O       -2.9336191460     0.5165203051     -0.2020695796
H       -4.1757255604     1.3783560347     1.1140239748
H       -4.0686827304     2.2032712501     -0.4455143089
H       -2.9999065537     -0.2880483470     0.3127022030
$end
--------------------------------------------------------------
 ----------------------------------------------------------------
             Standard Nuclear Orientation (Angstroms)
    I     Atom           X                Y                Z
 ----------------------------------------------------------------
    1      C      -5.3565877534     0.3232744031    -0.0904343472
    2      C      -4.1388980771     1.2266448467     0.0252744237
    3      H      -5.6277865218    -0.3384304877    -0.9081832520
    4      H      -6.2340592819     0.8593995598     0.2747956997
    5      H      -5.0675443753    -0.2637675648     0.7897151866
    6      O      -2.9336191460     0.5165203051    -0.2020695796
    7      H      -4.1757255604     1.3783560347     1.1140239748
    8      H      -4.0686827304     2.2032712501    -0.4455143089
    9      H      -2.9999065537    -0.2880483470     0.3127022030
 ----------------------------------------------------------------
 Nuclear Repulsion Energy =          82.31241192 hartrees
 There are       13 alpha and       13 beta electrons
 Requested basis set is 6-311+G(2df,2pd)
 There are 60 shells and 186 basis functions

 Total QAlloc Memory Limit   2000 MB
 Mega-Array Size       188 MB
 MEM_STATIC part       192 MB

                       Distance Matrix (Angstroms)
             C (  1)   C (  2)   H (  3)   H (  4)   H (  5)   O (  6)
   C (  2)  1.520603
   H (  3)  1.086331  2.353209
   H (  4)  1.091228  2.141689  1.789358
   H (  5)  1.096735  1.915224  1.789499  1.699236
   O (  6)  2.433225  1.417272  2.913430  3.352294  2.479138
   H (  7)  1.989561  1.099886  3.024096  2.282621  1.896599  2.004418
   H (  8)  2.306332  1.086449  3.017468  2.648338  2.934246  2.047624
   H (  9)  2.467829  1.916823  2.898077  3.431882  2.122088  0.957452
             H (  7)   H (  8)
   H (  8)  1.767513
   H (  9)  2.191249  2.814933
 
 A cutoff of  1.0D-09 yielded   1789 shell pairs
 There are     17351 function pairs (     21549 Cartesian)
 Smallest overlap matrix eigenvalue = 1.56E-04

 Scale SEOQF with 1.000000e-02/1.000000e-01/1.000000e-01

 Standard Electronic Orientation quadrupole field applied
 Nucleus-field energy     =     0.0000000028 hartrees
 Requested basis set is 6-31G(d)
 There are 24 shells and 54 basis functions
 A cutoff of  1.0D-09 yielded    298 shell pairs
 There are      1549 function pairs (      1732 Cartesian)
 Smallest overlap matrix eigenvalue = 6.81E-03
 Guess from superposition of atomic densities
 Warning:  Energy on first SCF cycle will be non-variational
 SAD guess density has 26.000000 electrons
 Long-range K will be added via erf
 Coulomb attenuation parameter = 0.2 bohr**(-1)
 A restricted hybrid HF-DFT SCF calculation will be
 performed using Relaxed Constraint Minimization + Pulay DIIS
 Exchange:     0.2220 Hartree-Fock + 1.0000 wB97X-D + LR-HF
 Correlation:  1.0000 wB97X-D
 Using Euler-Maclaurin-Lebedev (75,302) quadrature formula
 Dispersion:   Grimme D
 SCF converges when DIIS error is below 1.0E-04
 using 6 threads for integral computing
 -------------------------------------------------------
 OpenMP Integral computing Module                
 Release: version 1.0, May 2013, Q-Chem Inc. Pittsburgh 
 -------------------------------------------------------
 using 6 threads for integral computing
 -------------------------------------------------------
 OpenMP Integral computing Module                
 Release: version 1.0, May 2013, Q-Chem Inc. Pittsburgh 
 -------------------------------------------------------
 ---------------------------------------
  Cycle       Energy         DIIS Error
 ---------------------------------------
    1    -155.4734259023      1.07E-01
    2    -154.8996963653      1.36E-02
    3    -154.9284298343      3.08E-03
    4    -154.9552776404      2.40E-03
    5    -154.9560017101      2.34E-04 Done RCA. Switching to DIIS
    6    -154.9568163776      9.85E-05 Convergence criterion met
 ---------------------------------------
 SCF time:  CPU 12.91 s  wall 2.16 s
 SCF   energy in the small basis set = -154.95681638
 Total energy in the small basis set = -154.95681638
 ----------------------------------------------------
  Cycle       Energy    
 ----------------------------------------------------
    1     -18.7541705007     -1.88E+01
 Long-range K will be added via erf
 Coulomb attenuation parameter = 0.2 bohr**(-1)
 A restricted hybrid HF-DFT SCF calculation will be
 performed using Relaxed Constraint Minimization + Pulay DIIS
 Exchange:     0.2220 Hartree-Fock + 1.0000 wB97X-D + LR-HF
 Correlation:  1.0000 wB97X-D
 Using Euler-Maclaurin-Lebedev (75,302) quadrature formula
 Dispersion:   Grimme D
 SCF converges when DIIS error is below 1.0E-05
 Basis2 calculation detected. Using small basis as guess for larger.
 SCFMinFind is unable to tell whether the solution found is close.
 Resetting ReadMinima to 0 and attempting to follow guess.
 SCFMinFind following SCF Guess.
 using 6 threads for integral computing
 -------------------------------------------------------
 OpenMP Integral computing Module                
 Release: version 1.0, May 2013, Q-Chem Inc. Pittsburgh 
 -------------------------------------------------------
 using 6 threads for integral computing
 -------------------------------------------------------
 OpenMP Integral computing Module                
 Release: version 1.0, May 2013, Q-Chem Inc. Pittsburgh 
 -------------------------------------------------------
 ---------------------------------------
  Cycle       Energy         DIIS Error
 ---------------------------------------
    1    -154.9892202138      5.72E-03
    2    -155.0046664099      2.86E-03
    3    -155.0143291990      3.52E-04 Done RCA. Switching to DIIS
    4    -155.0259495387      2.54E-04
    5    -155.0261427233      4.00E-05
    6    -155.0261509853      6.19E-06 Convergence criterion met
 ---------------------------------------
 SCF time:  CPU 39.52 s  wall 6.61 s
 SCF   energy in the final basis set = -155.02615099
 Total energy in the final basis set = -155.02615099
 
 --------------------------------------------------------------
 
                    Orbital Energies (a.u.)
 --------------------------------------------------------------
 
 Alpha MOs
 -- Occupied --
-19.2458 -10.3322 -10.2807  -1.1288  -0.8579  -0.7242  -0.6014  -0.5495
 -0.5179  -0.4860  -0.4501  -0.4126  -0.3570
 -- Virtual --
  0.0616   0.0862   0.0881   0.1008   0.1261   0.1326   0.1369   0.1817
  0.1963   0.2015   0.2358   0.2475   0.2608   0.2870   0.2905   0.2985
  0.3218   0.3264   0.3400   0.3799   0.4609   0.4864   0.5047   0.5206
  0.5618   0.5727   0.5945   0.6089   0.6116   0.6282   0.6523   0.6776
  0.7002   0.7077   0.7509   0.8050   0.8241   0.9036   0.9503   0.9736
  1.0071   1.0432   1.0508   1.0932   1.1484   1.1652   1.1790   1.1937
  1.2401   1.2749   1.2957   1.3094   1.3307   1.3603   1.3958   1.4141
  1.4576   1.4659   1.4804   1.5041   1.5123   1.5338   1.5837   1.6062
  1.6377   1.7201   1.9365   2.0261   2.1447   2.2744   2.3081   2.4520
  2.4685   2.5152   2.6198   2.6441   2.6780   2.8116   2.8347   2.8891
  2.9276   2.9617   3.0032   3.0175   3.0302   3.0548   3.0814   3.0959
  3.1439   3.1708   3.1977   3.2261   3.2869   3.2947   3.3264   3.3770
  3.3902   3.4278   3.4587   3.4708   3.5066   3.5336   3.5629   3.5674
  3.5975   3.6153   3.6305   3.6475   3.7152   3.7545   3.7835   3.8169
  3.8695   3.8836   3.9203   3.9881   4.0071   4.0548   4.0814   4.1037
  4.1333   4.1440   4.1626   4.1850   4.2350   4.2719   4.2896   4.3303
  4.4333   4.4562   4.4884   4.5042   4.5776   4.6730   4.7097   4.8016
  4.8467   4.8775   4.9289   5.0057   5.0521   5.1157   5.1389   5.1676
  5.2180   5.2476   5.2709   5.3103   5.3553   5.3872   5.5208   5.5382
  5.5886   5.6298   5.7153   5.8854   5.9439   6.0737   6.3980   6.4103
  6.4250   6.6525   6.6924   6.8332   7.1289   7.3699   7.4334   7.5795
  7.7273   8.0945  25.1521  25.4117  50.4867
 --------------------------------------------------------------
 
 -----------------------------------------------------------------
                    Cartesian Multipole Moments
 -----------------------------------------------------------------
    Charge (ESU x 10^10)
                 0.0000
    Dipole Moment (Debye)
         X      -1.5068      Y      -0.4764      Z       1.1046
       Tot       1.9281
    Quadrupole Moments (Debye-Ang)
        XX     -10.1031     XY      -0.1624     YY     -18.7029
        XZ      -3.1062     YZ      -0.1674     ZZ     -20.1573
    Octopole Moments (Debye-Ang^2)
       XXX     204.8520    XXY      -7.0824    XYY      79.7197
       YYY     -36.9046    XXZ       8.8408    XYZ      -0.3491
       YYZ      -0.5610    XZZ      85.2233    YZZ     -13.8389
       ZZZ       2.5779
    Hexadecapole Moments (Debye-Ang^3)
      XXXX   -2086.6754   XXXY     120.9893   XXYY    -384.8258
      XYYY     151.3843   YYYY    -104.4277   XXXZ     -24.4406
      XXYZ       6.9731   XYYZ       2.6450   YYYZ      -3.9501
      XXZZ    -392.8189   XYZZ      57.0649   YYZZ     -24.5094
      XZZZ      -7.3369   YZZZ      -0.0254   ZZZZ     -35.5489
 -----------------------------------------------------------------
Archival summary:
1\1\centos77-c7\SP\ProcedureUnspecified\BasisUnspecified\126\shihchen\MonJul2714:28:332020MonJul2714:28:332020\0\\#,ProcedureUnspecified,BasisUnspecified,\\0,1\C\H,1,1.08645\H,1,1.09989,2,107.885\O,1,1.41727,2,109.022,3,-113.341,0\H,4,0.957452,1,106.017,2,173.527,0\C,1,1.5206,2,123.56,3,112.246,0\H,6,1.08633,1,128.248,2,80.7903,0\H,6,1.09123,1,109.062,2,-57.3277,0\H,6,1.09673,1,92.6295,2,-160.882,0\\\@

 Total job time:  10.95s(wall), 56.31s(cpu) 
 Mon Jul 27 14:28:33 2020

        *************************************************************
        *                                                           *
        *  Thank you very much for using Q-Chem.  Have a nice day.  *
        *                                                           *
        *************************************************************


