                  Welcome to Q-Chem
     A Quantum Leap Into The Future Of Chemistry


 Q-Chem 5.3 (devel), Q-Chem, Inc., Pleasanton, CA (2020)

 Yihan Shao,  Zhengting Gan,  E. Epifanovsky,  A. T. B. Gilbert,  M. Wormit,  
 J. Kussmann,  A. W. Lange,  A. Behn,  Jia Deng,  Xintian Feng,  D. Ghosh,  
 M. Goldey,  P. R. Horn,  L. D. Jacobson,  I. Kaliman,  T. Kus,  A. Landau,  
 Jie Liu,  E. I. Proynov,  R. M. Richard,  R. P. Steele,  E. J. Sundstrom,  
 H. L. Woodcock III,  P. M. Zimmerman,  D. Zuev,  B. Alam,  B. Albrecht,  
 E. Alguire,  S. A. Baeppler,  D. Barton,  Z. Benda,  Y. A. Bernard,  
 E. J. Berquist,  K. B. Bravaya,  H. Burton,  K. Carter-Fenk,  D. Casanova,  
 Chun-Min Chang,  Yunqing Chen,  A. Chien,  K. D. Closser,  M. P. Coons,  
 S. Coriani,  S. Dasgupta,  A. L. Dempwolff,  M. Diedenhofen,  Hainam Do,  
 R. G. Edgar,  Po-Tung Fang,  S. Faraji,  S. Fatehi,  Qingguo Feng,  
 J. Fosso-Tande,  J. Gayvert,  Qinghui Ge,  A. Ghysels,  G. Gidofalvi,  
 J. Gomes,  J. Gonthier,  A. Gunina,  D. Hait,  M. W. D. Hanson-Heine,  
 P. H. P. Harbach,  A. W. Hauser,  M. F. Herbst,  J. E. Herr,  
 E. G. Hohenstein,  Z. C. Holden,  Kerwin Hui,  B. C. Huynh,  T.-C. Jagau,  
 Hyunjun Ji,  B. Kaduk,  K. Khistyaev,  Jaehoon Kim,  P. Klunzinger,  K. Koh,  
 D. Kosenkov,  L. Koulias,  T. Kowalczyk,  C. M. Krauter,  A. Kunitsa,  
 Ka Un Lao,  A. Laurent,  K. V. Lawler,  Joonho Lee,  D. Lefrancois,  
 S. Lehtola,  D. S. Levine,  Yi-Pei Li,  You-Sheng Lin,  Fenglai Liu,  
 Kuan-Yu Liu,  E. Livshits,  M. Loipersberger,  A. Luenser,  P. Manohar,  
 E. Mansoor,  S. F. Manzer,  Shan-Ping Mao,  Yuezhi Mao,  N. Mardirossian,  
 A. V. Marenich,  T. Markovich,  L. A. Martinez-Martinez,  S. A. Maurer,  
 N. J. Mayhall,  S. C. McKenzie,  J.-M. Mewes,  P. Morgante,  A. F. Morrison,  
 J. W. Mullinax,  K. Nanda,  T. S. Nguyen-Beck,  R. Olivares-Amaya,  
 K. J. Oosterbaan,  J. A. Parkhill,  S. K. Paul,  F. Pavosevic,  Zheng Pei,  
 T. M. Perrine,  F. Plasser,  P. Pokhilko,  S. Prager,  A. Prociuk,  
 E. Ramos,  B. Rana,  D. R. Rehn,  F. Rob,  M. Scheurer,  M. Schneider,  
 N. Sergueev,  S. M. Sharada,  S. Sharma,  D. W. Small,  T. Stauch,  
 C. J. Stein,  T. Stein,  Yu-Chuan Su,  S. P. Veccham,  Zhen Tao,  
 A. J. W. Thom,  A. Tkatchenko,  T. Tsuchimochi,  N. M. Tubman,  L. Vogt,  
 M. L. Vidal,  O. Vydrov,  M. A. Watson,  J. Wenzel,  M. de Wergifosse,  
 T. A. Wesolowski,  A. White,  J. Witte,  A. Yamada,  Jun Yang,  K. Yao,  
 S. Yeganeh,  S. R. Yost,  Zhi-Qiang You,  A. Zech,  Igor Ying Zhang,  
 Xing Zhang,  Yan Zhao,  Ying Zhu,  B. R. Brooks,  G. K. L. Chan,  
 C. J. Cramer,  M. S. Gordon,  W. J. Hehre,  A. Klamt,  M. W. Schmidt,  
 C. D. Sherrill,  D. G. Truhlar,  A. Aspuru-Guzik,  R. Baer,  A. T. Bell,  
 N. A. Besley,  Jeng-Da Chai,  A. E. DePrince, III,  R. A. DiStasio Jr.,  
 A. Dreuw,  B. D. Dunietz,  T. R. Furlani,  Chao-Ping Hsu,  Yousung Jung,  
 Jing Kong,  D. S. Lambrecht,  WanZhen Liang,  C. Ochsenfeld,  
 V. A. Rassolov,  L. V. Slipchenko,  J. E. Subotnik,  T. Van Voorhis,  
 J. M. Herbert,  A. I. Krylov,  P. M. W. Gill,  M. Head-Gordon

 Contributors to earlier versions of Q-Chem not listed above: 
 R. D. Adamson,  B. Austin,  J. Baker,  G. J. O. Beran,  K. Brandhorst,  
 S. T. Brown,  E. F. C. Byrd,  A. K. Chakraborty,  C.-L. Cheng,  
 Siu Hung Chien,  D. M. Chipman,  D. L. Crittenden,  H. Dachsel,  
 R. J. Doerksen,  A. D. Dutoi,  L. Fusti-Molnar,  W. A. Goddard III,  
 A. Golubeva-Zadorozhnaya,  S. R. Gwaltney,  G. Hawkins,  A. Heyden,  
 S. Hirata,  G. Kedziora,  F. J. Keil,  C. Kelley,  Jihan Kim,  R. A. King,  
 R. Z. Khaliullin,  P. P. Korambath,  W. Kurlancheek,  A. M. Lee,  M. S. Lee,  
 S. V. Levchenko,  Ching Yeh Lin,  D. Liotard,  R. C. Lochan,  I. Lotan,  
 P. E. Maslen,  N. Nair,  D. P. O'Neill,  D. Neuhauser,  E. Neuscamman,  
 C. M. Oana,  R. Olson,  B. Peters,  R. Peverati,  P. A. Pieniazek,  
 Y. M. Rhee,  J. Ritchie,  M. A. Rohrdanz,  E. Rosta,  N. J. Russ,  
 H. F. Schaefer III,  N. E. Schultz,  N. Shenvi,  A. C. Simmonett,  A. Sodt,  
 D. Stuck,  K. S. Thanthiriwatte,  V. Vanovschi,  Tao Wang,  A. Warshel,  
 C. F. Williams,  Q. Wu,  X. Xu,  W. Zhang

 Please cite Q-Chem as follows:
 Y. Shao et al., Mol. Phys. 113, 184-215 (2015)
 DOI: 10.1080/00268976.2014.952696

 Q-Chem 5.3.0 for Intel X86 EM64T Linux

 Parts of Q-Chem use Armadillo 9.800.1 (Horizon Scraper).
 http://arma.sourceforge.net/

 Q-Chem begins on Mon Jul 27 14:34:12 2020  

Host: centos77-c7
0

     Scratch files written to /tmp/29924.centos77-h1/qchem106861//
Processing $rem in /opt/qchem-5.3.0-intel2020u1//config/preferences:
Processing $rem in /home/shihchengli/.qchemrc:

Checking the input file for inconsistencies... 	...done.

--------------------------------------------------------------
User input:
--------------------------------------------------------------
$rem
   JOBTYPE  sp
   EXCHANGE   omegaB97X-D
   BASIS   6-311+G(2df,2pd)
   UNRESTRICTED   False
   max_scf_cycles   250
   geom_opt_max_cycles   1500
   basis2 6-31G*
   scf_algorithm rca_diis
   SYM_IGNORE  TRUE
   print_input   true
   geom_opt_dmax   80
   pop_mulliken false
   XC_GRID 000075000302
$end

$molecule
0 1
C       -5.3014192664     0.1324353639     0.0592665190
C       -4.0272404623     1.2431108710     0.0623740375
H       -5.5591647950     -0.1440856355     -0.9650781104
H       -6.0515677647     0.9169408391     0.2322053904
H       -5.5280113190     -0.7044375099     0.7205094875
O       -2.8952145888     0.5101690167     -0.2824164079
H       -3.8123655746     1.5867917398     1.0847057019
H       -4.3147223373     2.1323912719     -0.5011374326
H       -3.1131038918     -0.0560959571     0.4598808146
$end
--------------------------------------------------------------
 ----------------------------------------------------------------
             Standard Nuclear Orientation (Angstroms)
    I     Atom           X                Y                Z
 ----------------------------------------------------------------
    1      C      -5.3014192664     0.1324353639     0.0592665190
    2      C      -4.0272404623     1.2431108710     0.0623740375
    3      H      -5.5591647950    -0.1440856355    -0.9650781104
    4      H      -6.0515677647     0.9169408391     0.2322053904
    5      H      -5.5280113190    -0.7044375099     0.7205094875
    6      O      -2.8952145888     0.5101690167    -0.2824164079
    7      H      -3.8123655746     1.5867917398     1.0847057019
    8      H      -4.3147223373     2.1323912719    -0.5011374326
    9      H      -3.1131038918    -0.0560959571     0.4598808146
 ----------------------------------------------------------------
 Nuclear Repulsion Energy =          80.75481022 hartrees
 There are       13 alpha and       13 beta electrons
 Requested basis set is 6-311+G(2df,2pd)
 There are 60 shells and 186 basis functions

 Total QAlloc Memory Limit   2000 MB
 Mega-Array Size       188 MB
 MEM_STATIC part       192 MB

                       Distance Matrix (Angstroms)
             C (  1)   C (  2)   H (  3)   H (  4)   H (  5)   O (  6)
   C (  2)  1.690308
   H (  3)  1.091869  2.307978
   H (  4)  1.099127  2.057457  1.673836
   H (  5)  1.090386  2.545270  1.776561  1.772405
   O (  6)  2.459522  1.391965  2.826784  3.223797  3.068020
   H (  7)  2.320336  1.099750  3.201384  2.487867  2.885448  1.967055
   H (  8)  2.299445  1.091334  2.635569  2.243155  3.318447  2.166667
   H (  9)  2.232658  1.637558  2.832219  3.103741  2.513971  0.958716
             H (  7)   H (  8)
   H (  8)  1.750697
   H (  9)  1.891680  2.675242
 
 A cutoff of  1.0D-09 yielded   1783 shell pairs
 There are     17307 function pairs (     21501 Cartesian)
 Smallest overlap matrix eigenvalue = 2.54E-04

 Scale SEOQF with 1.000000e-02/1.000000e-01/1.000000e-01

 Standard Electronic Orientation quadrupole field applied
 Nucleus-field energy     =     0.0000000027 hartrees
 Requested basis set is 6-31G(d)
 There are 24 shells and 54 basis functions
 A cutoff of  1.0D-09 yielded    298 shell pairs
 There are      1549 function pairs (      1732 Cartesian)
 Smallest overlap matrix eigenvalue = 9.02E-03
 Guess from superposition of atomic densities
 Warning:  Energy on first SCF cycle will be non-variational
 SAD guess density has 26.000000 electrons
 Long-range K will be added via erf
 Coulomb attenuation parameter = 0.2 bohr**(-1)
 A restricted hybrid HF-DFT SCF calculation will be
 performed using Relaxed Constraint Minimization + Pulay DIIS
 Exchange:     0.2220 Hartree-Fock + 1.0000 wB97X-D + LR-HF
 Correlation:  1.0000 wB97X-D
 Using Euler-Maclaurin-Lebedev (75,302) quadrature formula
 Dispersion:   Grimme D
 SCF converges when DIIS error is below 1.0E-04
 using 6 threads for integral computing
 -------------------------------------------------------
 OpenMP Integral computing Module                
 Release: version 1.0, May 2013, Q-Chem Inc. Pittsburgh 
 -------------------------------------------------------
 using 6 threads for integral computing
 -------------------------------------------------------
 OpenMP Integral computing Module                
 Release: version 1.0, May 2013, Q-Chem Inc. Pittsburgh 
 -------------------------------------------------------
 ---------------------------------------
  Cycle       Energy         DIIS Error
 ---------------------------------------
    1    -155.3470633649      1.04E-01
    2    -154.8682122865      1.40E-02
    3    -154.8976164655      2.94E-03
    4    -154.9269377243      2.02E-03
    5    -154.9274728179      2.48E-04 Done RCA. Switching to DIIS
    6    -154.9280753371      6.94E-05 Convergence criterion met
 ---------------------------------------
 SCF time:  CPU 12.93 s  wall 2.17 s
 SCF   energy in the small basis set = -154.92807534
 Total energy in the small basis set = -154.92807534
 ----------------------------------------------------
  Cycle       Energy    
 ----------------------------------------------------
    1     -18.7094759969     -1.87E+01
 Long-range K will be added via erf
 Coulomb attenuation parameter = 0.2 bohr**(-1)
 A restricted hybrid HF-DFT SCF calculation will be
 performed using Relaxed Constraint Minimization + Pulay DIIS
 Exchange:     0.2220 Hartree-Fock + 1.0000 wB97X-D + LR-HF
 Correlation:  1.0000 wB97X-D
 Using Euler-Maclaurin-Lebedev (75,302) quadrature formula
 Dispersion:   Grimme D
 SCF converges when DIIS error is below 1.0E-05
 Basis2 calculation detected. Using small basis as guess for larger.
 SCFMinFind is unable to tell whether the solution found is close.
 Resetting ReadMinima to 0 and attempting to follow guess.
 SCFMinFind following SCF Guess.
 using 6 threads for integral computing
 -------------------------------------------------------
 OpenMP Integral computing Module                
 Release: version 1.0, May 2013, Q-Chem Inc. Pittsburgh 
 -------------------------------------------------------
 using 6 threads for integral computing
 -------------------------------------------------------
 OpenMP Integral computing Module                
 Release: version 1.0, May 2013, Q-Chem Inc. Pittsburgh 
 -------------------------------------------------------
 ---------------------------------------
  Cycle       Energy         DIIS Error
 ---------------------------------------
    1    -154.9611608255      5.68E-03
    2    -154.9773990014      2.71E-03
    3    -154.9860740446      3.32E-04 Done RCA. Switching to DIIS
    4    -154.9964556039      2.29E-04
    5    -154.9966157307      3.77E-05
    6    -154.9966237395      6.28E-06 Convergence criterion met
 ---------------------------------------
 SCF time:  CPU 38.78 s  wall 6.49 s
 SCF   energy in the final basis set = -154.99662374
 Total energy in the final basis set = -154.99662374
 
 --------------------------------------------------------------
 
                    Orbital Energies (a.u.)
 --------------------------------------------------------------
 
 Alpha MOs
 -- Occupied --
-19.2481 -10.3506 -10.2837  -1.1510  -0.8244  -0.7253  -0.6000  -0.5391
 -0.5272  -0.4722  -0.4680  -0.4164  -0.3455
 -- Virtual --
  0.0636   0.0803   0.0867   0.1028   0.1247   0.1315   0.1325   0.1712
  0.1922   0.2144   0.2229   0.2297   0.2543   0.2720   0.2897   0.2931
  0.3084   0.3301   0.3323   0.3796   0.4509   0.4785   0.5125   0.5435
  0.5516   0.5646   0.5884   0.6049   0.6090   0.6283   0.6338   0.6589
  0.6765   0.7064   0.7438   0.8152   0.8303   0.9102   0.9413   0.9741
  1.0218   1.0433   1.0498   1.0814   1.1001   1.1533   1.1723   1.1831
  1.2134   1.2471   1.2763   1.2976   1.3167   1.3597   1.3888   1.4164
  1.4419   1.4582   1.4584   1.4936   1.5203   1.5402   1.5754   1.6365
  1.6451   1.6967   1.9194   2.0230   2.0945   2.2560   2.3250   2.4353
  2.4411   2.4931   2.5323   2.5787   2.6797   2.7204   2.8063   2.8364
  2.9082   2.9233   2.9714   3.0180   3.0359   3.0699   3.0884   3.1268
  3.1590   3.1860   3.2064   3.2286   3.2861   3.2987   3.3354   3.3498
  3.3828   3.4032   3.4245   3.4264   3.4682   3.5189   3.5418   3.5652
  3.5870   3.6003   3.6216   3.6547   3.6902   3.7154   3.7289   3.8008
  3.8441   3.8637   3.9005   3.9589   3.9657   3.9829   4.0321   4.0458
  4.0766   4.1088   4.1634   4.1693   4.2177   4.2209   4.2595   4.3014
  4.3278   4.3696   4.4030   4.4990   4.5739   4.6333   4.6483   4.7518
  4.8360   4.8825   4.9090   4.9697   4.9941   5.1239   5.1373   5.1636
  5.1847   5.2425   5.2500   5.3047   5.3146   5.3445   5.3862   5.4173
  5.5217   5.6342   5.6538   5.7505   6.0120   6.1137   6.3732   6.3887
  6.4375   6.6430   6.6502   6.8035   7.1093   7.4039   7.4673   7.5438
  7.6640   8.0595  25.0979  25.3298  50.4784
 --------------------------------------------------------------
 
 -----------------------------------------------------------------
                    Cartesian Multipole Moments
 -----------------------------------------------------------------
    Charge (ESU x 10^10)
                -0.0000
    Dipole Moment (Debye)
         X      -1.4851      Y       0.0976      Z       1.2727
       Tot       1.9583
    Quadrupole Moments (Debye-Ang)
        XX     -11.0569     XY      -1.5916     YY     -18.1384
        XZ      -3.1699     YZ      -0.5891     ZZ     -19.9553
    Octopole Moments (Debye-Ang^2)
       XXX     214.1750    XXY      -4.2896    XYY      75.4853
       YYY     -33.6901    XXZ       6.5029    XYZ       3.1671
       YYZ      -0.3911    XZZ      84.1446    YZZ     -12.6395
       ZZZ       0.8245
    Hexadecapole Moments (Debye-Ang^3)
      XXXX   -2158.3696   XXXY     114.9080   XXYY    -359.2271
      XYYY     129.4118   YYYY    -105.1534   XXXZ      -0.0687
      XXYZ     -16.4899   XYYZ       3.4453   YYYZ      -3.7646
      XXZZ    -386.8481   XYZZ      50.4119   YYZZ     -24.0254
      XZZZ       4.1314   YZZZ      -0.5315   ZZZZ     -36.6126
 -----------------------------------------------------------------
Archival summary:
1\1\centos77-c7\SP\ProcedureUnspecified\BasisUnspecified\126\shihchen\MonJul2714:34:232020MonJul2714:34:232020\0\\#,ProcedureUnspecified,BasisUnspecified,\\0,1\C\H,1,1.09133\H,1,1.09975,2,106.071\O,1,1.39197,2,121.024,3,-117.371,0\H,4,0.958716,1,86.2382,2,179.232,0\C,1,1.69031,2,109.628,3,119.619,0\H,6,1.09039,1,131.288,2,-159.321,0\H,6,1.09187,1,110.248,2,58.8977,0\H,6,1.09913,1,92.59,2,-42.3557,0\\\@

 Total job time:  10.80s(wall), 55.51s(cpu) 
 Mon Jul 27 14:34:23 2020

        *************************************************************
        *                                                           *
        *  Thank you very much for using Q-Chem.  Have a nice day.  *
        *                                                           *
        *************************************************************


