                  Welcome to Q-Chem
     A Quantum Leap Into The Future Of Chemistry


 Q-Chem 5.3 (devel), Q-Chem, Inc., Pleasanton, CA (2020)

 Yihan Shao,  Zhengting Gan,  E. Epifanovsky,  A. T. B. Gilbert,  M. Wormit,  
 J. Kussmann,  A. W. Lange,  A. Behn,  Jia Deng,  Xintian Feng,  D. Ghosh,  
 M. Goldey,  P. R. Horn,  L. D. Jacobson,  I. Kaliman,  T. Kus,  A. Landau,  
 Jie Liu,  E. I. Proynov,  R. M. Richard,  R. P. Steele,  E. J. Sundstrom,  
 H. L. Woodcock III,  P. M. Zimmerman,  D. Zuev,  B. Alam,  B. Albrecht,  
 E. Alguire,  S. A. Baeppler,  D. Barton,  Z. Benda,  Y. A. Bernard,  
 E. J. Berquist,  K. B. Bravaya,  H. Burton,  K. Carter-Fenk,  D. Casanova,  
 Chun-Min Chang,  Yunqing Chen,  A. Chien,  K. D. Closser,  M. P. Coons,  
 S. Coriani,  S. Dasgupta,  A. L. Dempwolff,  M. Diedenhofen,  Hainam Do,  
 R. G. Edgar,  Po-Tung Fang,  S. Faraji,  S. Fatehi,  Qingguo Feng,  
 J. Fosso-Tande,  J. Gayvert,  Qinghui Ge,  A. Ghysels,  G. Gidofalvi,  
 J. Gomes,  J. Gonthier,  A. Gunina,  D. Hait,  M. W. D. Hanson-Heine,  
 P. H. P. Harbach,  A. W. Hauser,  M. F. Herbst,  J. E. Herr,  
 E. G. Hohenstein,  Z. C. Holden,  Kerwin Hui,  B. C. Huynh,  T.-C. Jagau,  
 Hyunjun Ji,  B. Kaduk,  K. Khistyaev,  Jaehoon Kim,  P. Klunzinger,  K. Koh,  
 D. Kosenkov,  L. Koulias,  T. Kowalczyk,  C. M. Krauter,  A. Kunitsa,  
 Ka Un Lao,  A. Laurent,  K. V. Lawler,  Joonho Lee,  D. Lefrancois,  
 S. Lehtola,  D. S. Levine,  Yi-Pei Li,  You-Sheng Lin,  Fenglai Liu,  
 Kuan-Yu Liu,  E. Livshits,  M. Loipersberger,  A. Luenser,  P. Manohar,  
 E. Mansoor,  S. F. Manzer,  Shan-Ping Mao,  Yuezhi Mao,  N. Mardirossian,  
 A. V. Marenich,  T. Markovich,  L. A. Martinez-Martinez,  S. A. Maurer,  
 N. J. Mayhall,  S. C. McKenzie,  J.-M. Mewes,  P. Morgante,  A. F. Morrison,  
 J. W. Mullinax,  K. Nanda,  T. S. Nguyen-Beck,  R. Olivares-Amaya,  
 K. J. Oosterbaan,  J. A. Parkhill,  S. K. Paul,  F. Pavosevic,  Zheng Pei,  
 T. M. Perrine,  F. Plasser,  P. Pokhilko,  S. Prager,  A. Prociuk,  
 E. Ramos,  B. Rana,  D. R. Rehn,  F. Rob,  M. Scheurer,  M. Schneider,  
 N. Sergueev,  S. M. Sharada,  S. Sharma,  D. W. Small,  T. Stauch,  
 C. J. Stein,  T. Stein,  Yu-Chuan Su,  S. P. Veccham,  Zhen Tao,  
 A. J. W. Thom,  A. Tkatchenko,  T. Tsuchimochi,  N. M. Tubman,  L. Vogt,  
 M. L. Vidal,  O. Vydrov,  M. A. Watson,  J. Wenzel,  M. de Wergifosse,  
 T. A. Wesolowski,  A. White,  J. Witte,  A. Yamada,  Jun Yang,  K. Yao,  
 S. Yeganeh,  S. R. Yost,  Zhi-Qiang You,  A. Zech,  Igor Ying Zhang,  
 Xing Zhang,  Yan Zhao,  Ying Zhu,  B. R. Brooks,  G. K. L. Chan,  
 C. J. Cramer,  M. S. Gordon,  W. J. Hehre,  A. Klamt,  M. W. Schmidt,  
 C. D. Sherrill,  D. G. Truhlar,  A. Aspuru-Guzik,  R. Baer,  A. T. Bell,  
 N. A. Besley,  Jeng-Da Chai,  A. E. DePrince, III,  R. A. DiStasio Jr.,  
 A. Dreuw,  B. D. Dunietz,  T. R. Furlani,  Chao-Ping Hsu,  Yousung Jung,  
 Jing Kong,  D. S. Lambrecht,  WanZhen Liang,  C. Ochsenfeld,  
 V. A. Rassolov,  L. V. Slipchenko,  J. E. Subotnik,  T. Van Voorhis,  
 J. M. Herbert,  A. I. Krylov,  P. M. W. Gill,  M. Head-Gordon

 Contributors to earlier versions of Q-Chem not listed above: 
 R. D. Adamson,  B. Austin,  J. Baker,  G. J. O. Beran,  K. Brandhorst,  
 S. T. Brown,  E. F. C. Byrd,  A. K. Chakraborty,  C.-L. Cheng,  
 Siu Hung Chien,  D. M. Chipman,  D. L. Crittenden,  H. Dachsel,  
 R. J. Doerksen,  A. D. Dutoi,  L. Fusti-Molnar,  W. A. Goddard III,  
 A. Golubeva-Zadorozhnaya,  S. R. Gwaltney,  G. Hawkins,  A. Heyden,  
 S. Hirata,  G. Kedziora,  F. J. Keil,  C. Kelley,  Jihan Kim,  R. A. King,  
 R. Z. Khaliullin,  P. P. Korambath,  W. Kurlancheek,  A. M. Lee,  M. S. Lee,  
 S. V. Levchenko,  Ching Yeh Lin,  D. Liotard,  R. C. Lochan,  I. Lotan,  
 P. E. Maslen,  N. Nair,  D. P. O'Neill,  D. Neuhauser,  E. Neuscamman,  
 C. M. Oana,  R. Olson,  B. Peters,  R. Peverati,  P. A. Pieniazek,  
 Y. M. Rhee,  J. Ritchie,  M. A. Rohrdanz,  E. Rosta,  N. J. Russ,  
 H. F. Schaefer III,  N. E. Schultz,  N. Shenvi,  A. C. Simmonett,  A. Sodt,  
 D. Stuck,  K. S. Thanthiriwatte,  V. Vanovschi,  Tao Wang,  A. Warshel,  
 C. F. Williams,  Q. Wu,  X. Xu,  W. Zhang

 Please cite Q-Chem as follows:
 Y. Shao et al., Mol. Phys. 113, 184-215 (2015)
 DOI: 10.1080/00268976.2014.952696

 Q-Chem 5.3.0 for Intel X86 EM64T Linux

 Parts of Q-Chem use Armadillo 9.800.1 (Horizon Scraper).
 http://arma.sourceforge.net/

 Q-Chem begins on Mon Jul 27 14:43:35 2020  

Host: centos77-c7
0

     Scratch files written to /tmp/29924.centos77-h1/qchem109163//
Processing $rem in /opt/qchem-5.3.0-intel2020u1//config/preferences:
Processing $rem in /home/shihchengli/.qchemrc:

Checking the input file for inconsistencies... 	...done.

--------------------------------------------------------------
User input:
--------------------------------------------------------------
$rem
   JOBTYPE  sp
   EXCHANGE   omegaB97X-D
   BASIS   6-311+G(2df,2pd)
   UNRESTRICTED   False
   max_scf_cycles   250
   geom_opt_max_cycles   1500
   basis2 6-31G*
   scf_algorithm rca_diis
   SYM_IGNORE  TRUE
   print_input   true
   geom_opt_dmax   80
   pop_mulliken false
   XC_GRID 000075000302
$end

$molecule
0 1
C       -5.4026084454     0.2826793474     0.0332443757
C       -4.1586064148     1.1681482895     0.1244407129
H       -5.4403511473     -0.0733585937     -0.9940515132
H       -6.2411533103     0.9188290414     0.3147731713
H       -5.2635318920     -0.5295105013     0.7483149343
O       -2.9717486043     0.4928704184     -0.2593446503
H       -4.0551105051     1.5962357813     1.1291534867
H       -4.1884252847     2.0001974411     -0.5785118662
H       -2.8812743958     -0.2388712240     0.3522913489
$end
--------------------------------------------------------------
 ----------------------------------------------------------------
             Standard Nuclear Orientation (Angstroms)
    I     Atom           X                Y                Z
 ----------------------------------------------------------------
    1      C      -5.4026084454     0.2826793474     0.0332443757
    2      C      -4.1586064148     1.1681482895     0.1244407129
    3      H      -5.4403511473    -0.0733585937    -0.9940515132
    4      H      -6.2411533103     0.9188290414     0.3147731713
    5      H      -5.2635318920    -0.5295105013     0.7483149343
    6      O      -2.9717486043     0.4928704184    -0.2593446503
    7      H      -4.0551105051     1.5962357813     1.1291534867
    8      H      -4.1884252847     2.0001974411    -0.5785118662
    9      H      -2.8812743958    -0.2388712240     0.3522913489
 ----------------------------------------------------------------
 Nuclear Repulsion Energy =          81.95205495 hartrees
 There are       13 alpha and       13 beta electrons
 Requested basis set is 6-311+G(2df,2pd)
 There are 60 shells and 186 basis functions

 Total QAlloc Memory Limit   2000 MB
 Mega-Array Size       188 MB
 MEM_STATIC part       192 MB

                       Distance Matrix (Angstroms)
             C (  1)   C (  2)   H (  3)   H (  4)   H (  5)   O (  6)
   C (  2)  1.529677
   H (  3)  1.087899  2.105999
   H (  4)  1.089542  2.106036  1.827223
   H (  5)  1.091018  2.119463  1.809746  1.800386
   O (  6)  2.457411  1.418423  2.637121  3.346649  2.704239
   H (  7)  2.177659  1.097004  3.035529  2.429172  2.474695  2.078224
   H (  8)  2.190515  1.089650  2.457565  2.486163  3.052171  1.963213
   H (  9)  2.594404  1.913948  2.896361  3.553936  2.432377  0.957982
             H (  7)   H (  8)
   H (  8)  1.759852
   H (  9)  2.312796  2.754717
 
 A cutoff of  1.0D-09 yielded   1789 shell pairs
 There are     17331 function pairs (     21519 Cartesian)
 Smallest overlap matrix eigenvalue = 1.42E-04

 Scale SEOQF with 1.000000e-02/1.000000e-01/1.000000e-01

 Standard Electronic Orientation quadrupole field applied
 Nucleus-field energy     =     0.0000000026 hartrees
 Requested basis set is 6-31G(d)
 There are 24 shells and 54 basis functions
 A cutoff of  1.0D-09 yielded    298 shell pairs
 There are      1549 function pairs (      1732 Cartesian)
 Smallest overlap matrix eigenvalue = 7.10E-03
 Guess from superposition of atomic densities
 Warning:  Energy on first SCF cycle will be non-variational
 SAD guess density has 26.000000 electrons
 Long-range K will be added via erf
 Coulomb attenuation parameter = 0.2 bohr**(-1)
 A restricted hybrid HF-DFT SCF calculation will be
 performed using Relaxed Constraint Minimization + Pulay DIIS
 Exchange:     0.2220 Hartree-Fock + 1.0000 wB97X-D + LR-HF
 Correlation:  1.0000 wB97X-D
 Using Euler-Maclaurin-Lebedev (75,302) quadrature formula
 Dispersion:   Grimme D
 SCF converges when DIIS error is below 1.0E-04
 using 6 threads for integral computing
 -------------------------------------------------------
 OpenMP Integral computing Module                
 Release: version 1.0, May 2013, Q-Chem Inc. Pittsburgh 
 -------------------------------------------------------
 using 6 threads for integral computing
 -------------------------------------------------------
 OpenMP Integral computing Module                
 Release: version 1.0, May 2013, Q-Chem Inc. Pittsburgh 
 -------------------------------------------------------
 ---------------------------------------
  Cycle       Energy         DIIS Error
 ---------------------------------------
    1    -155.4274482943      1.06E-01
    2    -154.9233180621      1.36E-02
    3    -154.9515828845      3.03E-03
    4    -154.9780154622      2.40E-03
    5    -154.9787397393      2.35E-04 Done RCA. Switching to DIIS
    6    -154.9795575493      1.08E-04
    7    -154.9795612483      7.29E-06 Convergence criterion met
 ---------------------------------------
 SCF time:  CPU 14.39 s  wall 2.41 s
 SCF   energy in the small basis set = -154.97956125
 Total energy in the small basis set = -154.97956125
 ----------------------------------------------------
  Cycle       Energy    
 ----------------------------------------------------
    1     -18.7488932046     -1.87E+01
 Long-range K will be added via erf
 Coulomb attenuation parameter = 0.2 bohr**(-1)
 A restricted hybrid HF-DFT SCF calculation will be
 performed using Relaxed Constraint Minimization + Pulay DIIS
 Exchange:     0.2220 Hartree-Fock + 1.0000 wB97X-D + LR-HF
 Correlation:  1.0000 wB97X-D
 Using Euler-Maclaurin-Lebedev (75,302) quadrature formula
 Dispersion:   Grimme D
 SCF converges when DIIS error is below 1.0E-05
 Basis2 calculation detected. Using small basis as guess for larger.
 SCFMinFind is unable to tell whether the solution found is close.
 Resetting ReadMinima to 0 and attempting to follow guess.
 SCFMinFind following SCF Guess.
 using 6 threads for integral computing
 -------------------------------------------------------
 OpenMP Integral computing Module                
 Release: version 1.0, May 2013, Q-Chem Inc. Pittsburgh 
 -------------------------------------------------------
 using 6 threads for integral computing
 -------------------------------------------------------
 OpenMP Integral computing Module                
 Release: version 1.0, May 2013, Q-Chem Inc. Pittsburgh 
 -------------------------------------------------------
 ---------------------------------------
  Cycle       Energy         DIIS Error
 ---------------------------------------
    1    -155.0107013222      5.72E-03
    2    -155.0259325044      2.88E-03
    3    -155.0357094202      3.58E-04 Done RCA. Switching to DIIS
    4    -155.0474975260      2.63E-04
    5    -155.0477042928      3.91E-05
    6    -155.0477121801      5.56E-06 Convergence criterion met
 ---------------------------------------
 SCF time:  CPU 39.34 s  wall 6.58 s
 SCF   energy in the final basis set = -155.04771218
 Total energy in the final basis set = -155.04771218
 
 --------------------------------------------------------------
 
                    Orbital Energies (a.u.)
 --------------------------------------------------------------
 
 Alpha MOs
 -- Occupied --
-19.2465 -10.3255 -10.2769  -1.1267  -0.8499  -0.7197  -0.5958  -0.5438
 -0.5214  -0.4722  -0.4613  -0.4146  -0.3611
 -- Virtual --
  0.0650   0.0878   0.0895   0.1006   0.1268   0.1337   0.1348   0.1813
  0.1975   0.2125   0.2385   0.2473   0.2666   0.2808   0.2905   0.3027
  0.3125   0.3278   0.3409   0.3805   0.4557   0.4858   0.4967   0.5220
  0.5665   0.5776   0.5816   0.6111   0.6183   0.6287   0.6632   0.6812
  0.6903   0.7045   0.7408   0.8119   0.8485   0.9001   0.9295   0.9425
  0.9850   1.0510   1.0685   1.1002   1.1335   1.1810   1.1837   1.2000
  1.2283   1.2447   1.2864   1.3024   1.3263   1.3703   1.3794   1.4206
  1.4428   1.4587   1.4727   1.4803   1.4961   1.5212   1.5660   1.6125
  1.6645   1.7091   1.9324   2.0279   2.1134   2.2608   2.2834   2.4890
  2.5050   2.5189   2.5631   2.6335   2.7119   2.8431   2.8655   2.8933
  2.9209   2.9661   2.9825   2.9886   3.0345   3.0361   3.0518   3.0723
  3.0938   3.1678   3.2177   3.2441   3.2642   3.2861   3.3067   3.3539
  3.3592   3.3880   3.4100   3.4550   3.5191   3.5653   3.5689   3.5837
  3.6037   3.6163   3.6667   3.7092   3.7190   3.7518   3.7862   3.8461
  3.8902   3.9133   3.9397   3.9804   4.0127   4.0274   4.0397   4.0698
  4.0727   4.0936   4.1175   4.1808   4.1852   4.2314   4.2610   4.3250
  4.3386   4.4041   4.4782   4.5226   4.5489   4.6511   4.7329   4.7740
  4.8741   4.9333   4.9542   4.9725   5.0026   5.0462   5.1275   5.1846
  5.2156   5.2450   5.2897   5.3171   5.3737   5.4284   5.4841   5.4964
  5.5687   5.5856   5.6697   5.8198   5.9306   6.0285   6.3314   6.3516
  6.4035   6.6521   6.6804   6.8206   7.1279   7.3724   7.4161   7.5707
  7.6823   8.1037  25.1614  25.4323  50.4706
 --------------------------------------------------------------
 
 -----------------------------------------------------------------
                    Cartesian Multipole Moments
 -----------------------------------------------------------------
    Charge (ESU x 10^10)
                 0.0000
    Dipole Moment (Debye)
         X      -1.1773      Y      -0.3747      Z       1.2731
       Tot       1.7741
    Quadrupole Moments (Debye-Ang)
        XX     -12.4420     XY      -0.8689     YY     -19.0320
        XZ      -3.4988     YZ      -0.2728     ZZ     -19.7928
    Octopole Moments (Debye-Ang^2)
       XXX     221.1294    XXY      -1.6387    XYY      80.8969
       YYY     -36.7554    XXZ       9.5901    XYZ       0.8870
       YYZ      -0.2372    XZZ      84.3135    YZZ     -12.6541
       ZZZ       0.0596
    Hexadecapole Moments (Debye-Ang^3)
      XXXX   -2210.8146   XXXY      81.9195   XXYY    -387.8647
      XYYY     150.4371   YYYY    -104.2998   XXXZ     -22.4469
      XXYZ      -2.4023   XYYZ       2.3896   YYYZ      -3.7687
      XXZZ    -391.9683   XYZZ      52.3681   YYZZ     -22.5890
      XZZZ       6.9690   YZZZ      -1.5988   ZZZZ     -37.2261
 -----------------------------------------------------------------
Archival summary:
1\1\centos77-c7\SP\ProcedureUnspecified\BasisUnspecified\126\shihchen\MonJul2714:43:472020MonJul2714:43:472020\0\\#,ProcedureUnspecified,BasisUnspecified,\\0,1\C\H,1,1.08965\H,1,1.097,2,107.184\O,1,1.41842,2,102.232,3,-116.544,0\H,4,0.957982,1,105.659,2,178.163,0\C,1,1.52968,2,112.414,3,122.142,0\H,6,1.0879,1,105.9,2,58.4894,0\H,6,1.08954,1,105.814,2,-62.9777,0\H,6,1.09102,1,106.749,2,178.358,0\\\@

 Total job time:  11.25s(wall), 57.96s(cpu) 
 Mon Jul 27 14:43:47 2020

        *************************************************************
        *                                                           *
        *  Thank you very much for using Q-Chem.  Have a nice day.  *
        *                                                           *
        *************************************************************


