                  Welcome to Q-Chem
     A Quantum Leap Into The Future Of Chemistry


 Q-Chem 5.3 (devel), Q-Chem, Inc., Pleasanton, CA (2020)

 Yihan Shao,  Zhengting Gan,  E. Epifanovsky,  A. T. B. Gilbert,  M. Wormit,  
 J. Kussmann,  A. W. Lange,  A. Behn,  Jia Deng,  Xintian Feng,  D. Ghosh,  
 M. Goldey,  P. R. Horn,  L. D. Jacobson,  I. Kaliman,  T. Kus,  A. Landau,  
 Jie Liu,  E. I. Proynov,  R. M. Richard,  R. P. Steele,  E. J. Sundstrom,  
 H. L. Woodcock III,  P. M. Zimmerman,  D. Zuev,  B. Alam,  B. Albrecht,  
 E. Alguire,  S. A. Baeppler,  D. Barton,  Z. Benda,  Y. A. Bernard,  
 E. J. Berquist,  K. B. Bravaya,  H. Burton,  K. Carter-Fenk,  D. Casanova,  
 Chun-Min Chang,  Yunqing Chen,  A. Chien,  K. D. Closser,  M. P. Coons,  
 S. Coriani,  S. Dasgupta,  A. L. Dempwolff,  M. Diedenhofen,  Hainam Do,  
 R. G. Edgar,  Po-Tung Fang,  S. Faraji,  S. Fatehi,  Qingguo Feng,  
 J. Fosso-Tande,  J. Gayvert,  Qinghui Ge,  A. Ghysels,  G. Gidofalvi,  
 J. Gomes,  J. Gonthier,  A. Gunina,  D. Hait,  M. W. D. Hanson-Heine,  
 P. H. P. Harbach,  A. W. Hauser,  M. F. Herbst,  J. E. Herr,  
 E. G. Hohenstein,  Z. C. Holden,  Kerwin Hui,  B. C. Huynh,  T.-C. Jagau,  
 Hyunjun Ji,  B. Kaduk,  K. Khistyaev,  Jaehoon Kim,  P. Klunzinger,  K. Koh,  
 D. Kosenkov,  L. Koulias,  T. Kowalczyk,  C. M. Krauter,  A. Kunitsa,  
 Ka Un Lao,  A. Laurent,  K. V. Lawler,  Joonho Lee,  D. Lefrancois,  
 S. Lehtola,  D. S. Levine,  Yi-Pei Li,  You-Sheng Lin,  Fenglai Liu,  
 Kuan-Yu Liu,  E. Livshits,  M. Loipersberger,  A. Luenser,  P. Manohar,  
 E. Mansoor,  S. F. Manzer,  Shan-Ping Mao,  Yuezhi Mao,  N. Mardirossian,  
 A. V. Marenich,  T. Markovich,  L. A. Martinez-Martinez,  S. A. Maurer,  
 N. J. Mayhall,  S. C. McKenzie,  J.-M. Mewes,  P. Morgante,  A. F. Morrison,  
 J. W. Mullinax,  K. Nanda,  T. S. Nguyen-Beck,  R. Olivares-Amaya,  
 K. J. Oosterbaan,  J. A. Parkhill,  S. K. Paul,  F. Pavosevic,  Zheng Pei,  
 T. M. Perrine,  F. Plasser,  P. Pokhilko,  S. Prager,  A. Prociuk,  
 E. Ramos,  B. Rana,  D. R. Rehn,  F. Rob,  M. Scheurer,  M. Schneider,  
 N. Sergueev,  S. M. Sharada,  S. Sharma,  D. W. Small,  T. Stauch,  
 C. J. Stein,  T. Stein,  Yu-Chuan Su,  S. P. Veccham,  Zhen Tao,  
 A. J. W. Thom,  A. Tkatchenko,  T. Tsuchimochi,  N. M. Tubman,  L. Vogt,  
 M. L. Vidal,  O. Vydrov,  M. A. Watson,  J. Wenzel,  M. de Wergifosse,  
 T. A. Wesolowski,  A. White,  J. Witte,  A. Yamada,  Jun Yang,  K. Yao,  
 S. Yeganeh,  S. R. Yost,  Zhi-Qiang You,  A. Zech,  Igor Ying Zhang,  
 Xing Zhang,  Yan Zhao,  Ying Zhu,  B. R. Brooks,  G. K. L. Chan,  
 C. J. Cramer,  M. S. Gordon,  W. J. Hehre,  A. Klamt,  M. W. Schmidt,  
 C. D. Sherrill,  D. G. Truhlar,  A. Aspuru-Guzik,  R. Baer,  A. T. Bell,  
 N. A. Besley,  Jeng-Da Chai,  A. E. DePrince, III,  R. A. DiStasio Jr.,  
 A. Dreuw,  B. D. Dunietz,  T. R. Furlani,  Chao-Ping Hsu,  Yousung Jung,  
 Jing Kong,  D. S. Lambrecht,  WanZhen Liang,  C. Ochsenfeld,  
 V. A. Rassolov,  L. V. Slipchenko,  J. E. Subotnik,  T. Van Voorhis,  
 J. M. Herbert,  A. I. Krylov,  P. M. W. Gill,  M. Head-Gordon

 Contributors to earlier versions of Q-Chem not listed above: 
 R. D. Adamson,  B. Austin,  J. Baker,  G. J. O. Beran,  K. Brandhorst,  
 S. T. Brown,  E. F. C. Byrd,  A. K. Chakraborty,  C.-L. Cheng,  
 Siu Hung Chien,  D. M. Chipman,  D. L. Crittenden,  H. Dachsel,  
 R. J. Doerksen,  A. D. Dutoi,  L. Fusti-Molnar,  W. A. Goddard III,  
 A. Golubeva-Zadorozhnaya,  S. R. Gwaltney,  G. Hawkins,  A. Heyden,  
 S. Hirata,  G. Kedziora,  F. J. Keil,  C. Kelley,  Jihan Kim,  R. A. King,  
 R. Z. Khaliullin,  P. P. Korambath,  W. Kurlancheek,  A. M. Lee,  M. S. Lee,  
 S. V. Levchenko,  Ching Yeh Lin,  D. Liotard,  R. C. Lochan,  I. Lotan,  
 P. E. Maslen,  N. Nair,  D. P. O'Neill,  D. Neuhauser,  E. Neuscamman,  
 C. M. Oana,  R. Olson,  B. Peters,  R. Peverati,  P. A. Pieniazek,  
 Y. M. Rhee,  J. Ritchie,  M. A. Rohrdanz,  E. Rosta,  N. J. Russ,  
 H. F. Schaefer III,  N. E. Schultz,  N. Shenvi,  A. C. Simmonett,  A. Sodt,  
 D. Stuck,  K. S. Thanthiriwatte,  V. Vanovschi,  Tao Wang,  A. Warshel,  
 C. F. Williams,  Q. Wu,  X. Xu,  W. Zhang

 Please cite Q-Chem as follows:
 Y. Shao et al., Mol. Phys. 113, 184-215 (2015)
 DOI: 10.1080/00268976.2014.952696

 Q-Chem 5.3.0 for Intel X86 EM64T Linux

 Parts of Q-Chem use Armadillo 9.800.1 (Horizon Scraper).
 http://arma.sourceforge.net/

 Q-Chem begins on Mon Jul 27 14:35:19 2020  

Host: centos77-c7
0

     Scratch files written to /tmp/29924.centos77-h1/qchem107104//
Processing $rem in /opt/qchem-5.3.0-intel2020u1//config/preferences:
Processing $rem in /home/shihchengli/.qchemrc:

Checking the input file for inconsistencies... 	...done.

--------------------------------------------------------------
User input:
--------------------------------------------------------------
$rem
   JOBTYPE  sp
   EXCHANGE   omegaB97X-D
   BASIS   6-311+G(2df,2pd)
   UNRESTRICTED   False
   max_scf_cycles   250
   geom_opt_max_cycles   1500
   basis2 6-31G*
   scf_algorithm rca_diis
   SYM_IGNORE  TRUE
   print_input   true
   geom_opt_dmax   80
   pop_mulliken false
   XC_GRID 000075000302
$end

$molecule
0 1
C       -5.4546651580     0.2855757775     -0.0268139781
C       -4.0321166136     1.1812918171     0.1974753949
H       -5.6603730184     -0.1825004855     -0.9907186981
H       -6.3447110729     0.8182850010     0.3137724776
H       -5.3481097484     -0.5279178570     0.7032297449
O       -3.0751567530     0.5750888570     -0.1516138468
H       -4.0424021124     1.7189188461     1.1631044864
H       -3.9487235596     1.9540779983     -0.5741784394
H       -2.6965519635     -0.2055999545     0.2360528588
$end
--------------------------------------------------------------
 ----------------------------------------------------------------
             Standard Nuclear Orientation (Angstroms)
    I     Atom           X                Y                Z
 ----------------------------------------------------------------
    1      C      -5.4546651580     0.2855757775    -0.0268139781
    2      C      -4.0321166136     1.1812918171     0.1974753949
    3      H      -5.6603730184    -0.1825004855    -0.9907186981
    4      H      -6.3447110729     0.8182850010     0.3137724776
    5      H      -5.3481097484    -0.5279178570     0.7032297449
    6      O      -3.0751567530     0.5750888570    -0.1516138468
    7      H      -4.0424021124     1.7189188461     1.1631044864
    8      H      -3.9487235596     1.9540779983    -0.5741784394
    9      H      -2.6965519635    -0.2055999545     0.2360528588
 ----------------------------------------------------------------
 Nuclear Repulsion Energy =          84.00888624 hartrees
 There are       13 alpha and       13 beta electrons
 Requested basis set is 6-311+G(2df,2pd)
 There are 60 shells and 186 basis functions

 Total QAlloc Memory Limit   2000 MB
 Mega-Array Size       188 MB
 MEM_STATIC part       192 MB

                       Distance Matrix (Angstroms)
             C (  1)   C (  2)   H (  3)   H (  4)   H (  5)   O (  6)
   C (  2)  1.695953
   H (  3)  1.091111  2.433712
   H (  4)  1.091769  2.343799  1.780895
   H (  5)  1.098221  2.215632  1.756782  1.719638
   O (  6)  2.400303  1.185377  2.821592  3.311452  2.667151
   H (  7)  2.337705  1.105255  3.297299  2.614026  2.639059  1.993087
   H (  8)  2.313302  1.095264  2.769155  2.796290  3.122556  1.686206
   H (  9)  2.813813  1.925796  3.207762  3.789914  2.711623  0.950317
             H (  7)   H (  8)
   H (  8)  1.755627
   H (  9)  2.524779  2.624618
 
 A cutoff of  1.0D-09 yielded   1775 shell pairs
 There are     17254 function pairs (     21430 Cartesian)
 Smallest overlap matrix eigenvalue = 2.45E-04

 Scale SEOQF with 1.000000e-02/1.000000e-01/1.000000e-01

 Standard Electronic Orientation quadrupole field applied
 Nucleus-field energy     =     0.0000000027 hartrees
 Requested basis set is 6-31G(d)
 There are 24 shells and 54 basis functions
 A cutoff of  1.0D-09 yielded    298 shell pairs
 There are      1549 function pairs (      1732 Cartesian)
 Smallest overlap matrix eigenvalue = 7.09E-03
 Guess from superposition of atomic densities
 Warning:  Energy on first SCF cycle will be non-variational
 SAD guess density has 26.000000 electrons
 Long-range K will be added via erf
 Coulomb attenuation parameter = 0.2 bohr**(-1)
 A restricted hybrid HF-DFT SCF calculation will be
 performed using Relaxed Constraint Minimization + Pulay DIIS
 Exchange:     0.2220 Hartree-Fock + 1.0000 wB97X-D + LR-HF
 Correlation:  1.0000 wB97X-D
 Using Euler-Maclaurin-Lebedev (75,302) quadrature formula
 Dispersion:   Grimme D
 SCF converges when DIIS error is below 1.0E-04
 using 6 threads for integral computing
 -------------------------------------------------------
 OpenMP Integral computing Module                
 Release: version 1.0, May 2013, Q-Chem Inc. Pittsburgh 
 -------------------------------------------------------
 using 6 threads for integral computing
 -------------------------------------------------------
 OpenMP Integral computing Module                
 Release: version 1.0, May 2013, Q-Chem Inc. Pittsburgh 
 -------------------------------------------------------
 ---------------------------------------
  Cycle       Energy         DIIS Error
 ---------------------------------------
    1    -155.6616411412      1.20E-01
    2    -154.8457323386      1.36E-02
    3    -154.8754940079      3.12E-03
    4    -154.9001947295      2.51E-03
    5    -154.9009827110      1.81E-04 Done RCA. Switching to DIIS
    6    -154.9017830378      8.60E-05 Convergence criterion met
 ---------------------------------------
 SCF time:  CPU 12.93 s  wall 2.17 s
 SCF   energy in the small basis set = -154.90178304
 Total energy in the small basis set = -154.90178304
 ----------------------------------------------------
  Cycle       Energy    
 ----------------------------------------------------
    1     -18.8236933275     -1.88E+01
 Long-range K will be added via erf
 Coulomb attenuation parameter = 0.2 bohr**(-1)
 A restricted hybrid HF-DFT SCF calculation will be
 performed using Relaxed Constraint Minimization + Pulay DIIS
 Exchange:     0.2220 Hartree-Fock + 1.0000 wB97X-D + LR-HF
 Correlation:  1.0000 wB97X-D
 Using Euler-Maclaurin-Lebedev (75,302) quadrature formula
 Dispersion:   Grimme D
 SCF converges when DIIS error is below 1.0E-05
 Basis2 calculation detected. Using small basis as guess for larger.
 SCFMinFind is unable to tell whether the solution found is close.
 Resetting ReadMinima to 0 and attempting to follow guess.
 SCFMinFind following SCF Guess.
 using 6 threads for integral computing
 -------------------------------------------------------
 OpenMP Integral computing Module                
 Release: version 1.0, May 2013, Q-Chem Inc. Pittsburgh 
 -------------------------------------------------------
 using 6 threads for integral computing
 -------------------------------------------------------
 OpenMP Integral computing Module                
 Release: version 1.0, May 2013, Q-Chem Inc. Pittsburgh 
 -------------------------------------------------------
 ---------------------------------------
  Cycle       Energy         DIIS Error
 ---------------------------------------
    1    -154.9383234818      5.67E-03
    2    -154.9576513431      2.48E-03
    3    -154.9650401594      2.31E-04 Done RCA. Switching to DIIS
    4    -154.9733060064      1.04E-04
    5    -154.9733476679      3.93E-05
    6    -154.9733553360      5.94E-06 Convergence criterion met
 ---------------------------------------
 SCF time:  CPU 38.47 s  wall 6.44 s
 SCF   energy in the final basis set = -154.97335534
 Total energy in the final basis set = -154.97335534
 
 --------------------------------------------------------------
 
                    Orbital Energies (a.u.)
 --------------------------------------------------------------
 
 Alpha MOs
 -- Occupied --
-19.2525 -10.3262 -10.2646  -1.2181  -0.8190  -0.7624  -0.6220  -0.5706
 -0.5386  -0.4691  -0.4545  -0.3654  -0.3395
 -- Virtual --
  0.0657   0.0871   0.0913   0.1040   0.1289   0.1334   0.1408   0.1829
  0.1932   0.2201   0.2323   0.2427   0.2696   0.2735   0.2964   0.3013
  0.3213   0.3456   0.3603   0.4106   0.4517   0.4965   0.5244   0.5342
  0.5550   0.5811   0.5959   0.6045   0.6308   0.6580   0.6764   0.7109
  0.7309   0.7534   0.7911   0.8054   0.8413   0.8817   0.9289   0.9619
  0.9991   1.0064   1.0939   1.1044   1.1268   1.1425   1.1845   1.1924
  1.2000   1.2420   1.2834   1.2947   1.3179   1.3563   1.3734   1.3904
  1.4399   1.4526   1.4956   1.5025   1.5368   1.5431   1.5790   1.6549
  1.6750   1.7572   1.9467   2.0311   2.1805   2.2440   2.4016   2.4416
  2.4725   2.5027   2.5585   2.5795   2.6754   2.7885   2.8124   2.8952
  2.9347   2.9725   3.0374   3.0643   3.0800   3.1024   3.1109   3.1444
  3.1754   3.1794   3.2254   3.2430   3.2781   3.3147   3.3338   3.3476
  3.3626   3.3850   3.4377   3.4654   3.5105   3.5191   3.5569   3.5814
  3.5944   3.6131   3.6375   3.6749   3.6856   3.7294   3.7605   3.8181
  3.8637   3.8902   3.9064   3.9340   3.9934   4.0246   4.0652   4.0683
  4.0736   4.1247   4.1762   4.1866   4.2327   4.2779   4.3091   4.3350
  4.3520   4.3707   4.3986   4.4980   4.5815   4.5979   4.7753   4.7917
  4.8537   4.8892   4.9402   4.9670   5.0081   5.0486   5.0695   5.1414
  5.1996   5.2092   5.2525   5.2773   5.3084   5.3603   5.3901   5.4041
  5.5255   5.5939   5.6701   5.8551   6.0377   6.3618   6.3797   6.4188
  6.5516   6.9418   7.0770   7.1290   7.1748   7.2700   7.4973   7.5809
  7.9358   8.4809  25.3256  25.4796  50.6263
 --------------------------------------------------------------
 
 -----------------------------------------------------------------
                    Cartesian Multipole Moments
 -----------------------------------------------------------------
    Charge (ESU x 10^10)
                 0.0000
    Dipole Moment (Debye)
         X       0.4296      Y      -0.8713      Z       0.8565
       Tot       1.2951
    Quadrupole Moments (Debye-Ang)
        XX     -23.7390     XY       2.0576     YY     -20.1395
        XZ      -2.1562     YZ       0.1889     ZZ     -20.1723
    Octopole Moments (Debye-Ang^2)
       XXX     285.3086    XXY     -18.4844    XYY      87.7031
       YYY     -40.3539    XXZ       4.0480    XYZ      -1.2830
       YYZ      -0.5069    XZZ      86.9978    YZZ     -13.5113
       ZZZ      -2.3966
    Hexadecapole Moments (Debye-Ang^3)
      XXXX   -2565.1572   XXXY     173.7801   XXYY    -427.7691
      XYYY     163.5375   YYYY    -115.6452   XXXZ       3.5180
      XXYZ       7.2599   XYYZ       1.9424   YYYZ      -4.6817
      XXZZ    -408.0392   XYZZ      55.1323   YYZZ     -24.1792
      XZZZ      12.9160   YZZZ      -4.2018   ZZZZ     -38.0579
 -----------------------------------------------------------------
Archival summary:
1\1\centos77-c7\SP\ProcedureUnspecified\BasisUnspecified\126\shihchen\MonJul2714:35:292020MonJul2714:35:292020\0\\#,ProcedureUnspecified,BasisUnspecified,\\0,1\O\H,1,0.950317\C,1,1.18538,2,128.434\H,3,1.09526,1,95.2717,2,178.109,0\H,3,1.10525,1,120.902,2,66.0981,0\C,3,1.69595,1,111.599,2,-67.8518,0\H,6,1.09111,3,120.102,1,-50.4704,0\H,6,1.09177,3,112.635,1,178.495,0\H,6,1.09822,3,102.822,1,67.7644,0\\\@

 Total job time:  10.75s(wall), 55.23s(cpu) 
 Mon Jul 27 14:35:29 2020

        *************************************************************
        *                                                           *
        *  Thank you very much for using Q-Chem.  Have a nice day.  *
        *                                                           *
        *************************************************************


