                  Welcome to Q-Chem
     A Quantum Leap Into The Future Of Chemistry


 Q-Chem 5.3 (devel), Q-Chem, Inc., Pleasanton, CA (2020)

 Yihan Shao,  Zhengting Gan,  E. Epifanovsky,  A. T. B. Gilbert,  M. Wormit,  
 J. Kussmann,  A. W. Lange,  A. Behn,  Jia Deng,  Xintian Feng,  D. Ghosh,  
 M. Goldey,  P. R. Horn,  L. D. Jacobson,  I. Kaliman,  T. Kus,  A. Landau,  
 Jie Liu,  E. I. Proynov,  R. M. Richard,  R. P. Steele,  E. J. Sundstrom,  
 H. L. Woodcock III,  P. M. Zimmerman,  D. Zuev,  B. Alam,  B. Albrecht,  
 E. Alguire,  S. A. Baeppler,  D. Barton,  Z. Benda,  Y. A. Bernard,  
 E. J. Berquist,  K. B. Bravaya,  H. Burton,  K. Carter-Fenk,  D. Casanova,  
 Chun-Min Chang,  Yunqing Chen,  A. Chien,  K. D. Closser,  M. P. Coons,  
 S. Coriani,  S. Dasgupta,  A. L. Dempwolff,  M. Diedenhofen,  Hainam Do,  
 R. G. Edgar,  Po-Tung Fang,  S. Faraji,  S. Fatehi,  Qingguo Feng,  
 J. Fosso-Tande,  J. Gayvert,  Qinghui Ge,  A. Ghysels,  G. Gidofalvi,  
 J. Gomes,  J. Gonthier,  A. Gunina,  D. Hait,  M. W. D. Hanson-Heine,  
 P. H. P. Harbach,  A. W. Hauser,  M. F. Herbst,  J. E. Herr,  
 E. G. Hohenstein,  Z. C. Holden,  Kerwin Hui,  B. C. Huynh,  T.-C. Jagau,  
 Hyunjun Ji,  B. Kaduk,  K. Khistyaev,  Jaehoon Kim,  P. Klunzinger,  K. Koh,  
 D. Kosenkov,  L. Koulias,  T. Kowalczyk,  C. M. Krauter,  A. Kunitsa,  
 Ka Un Lao,  A. Laurent,  K. V. Lawler,  Joonho Lee,  D. Lefrancois,  
 S. Lehtola,  D. S. Levine,  Yi-Pei Li,  You-Sheng Lin,  Fenglai Liu,  
 Kuan-Yu Liu,  E. Livshits,  M. Loipersberger,  A. Luenser,  P. Manohar,  
 E. Mansoor,  S. F. Manzer,  Shan-Ping Mao,  Yuezhi Mao,  N. Mardirossian,  
 A. V. Marenich,  T. Markovich,  L. A. Martinez-Martinez,  S. A. Maurer,  
 N. J. Mayhall,  S. C. McKenzie,  J.-M. Mewes,  P. Morgante,  A. F. Morrison,  
 J. W. Mullinax,  K. Nanda,  T. S. Nguyen-Beck,  R. Olivares-Amaya,  
 K. J. Oosterbaan,  J. A. Parkhill,  S. K. Paul,  F. Pavosevic,  Zheng Pei,  
 T. M. Perrine,  F. Plasser,  P. Pokhilko,  S. Prager,  A. Prociuk,  
 E. Ramos,  B. Rana,  D. R. Rehn,  F. Rob,  M. Scheurer,  M. Schneider,  
 N. Sergueev,  S. M. Sharada,  S. Sharma,  D. W. Small,  T. Stauch,  
 C. J. Stein,  T. Stein,  Yu-Chuan Su,  S. P. Veccham,  Zhen Tao,  
 A. J. W. Thom,  A. Tkatchenko,  T. Tsuchimochi,  N. M. Tubman,  L. Vogt,  
 M. L. Vidal,  O. Vydrov,  M. A. Watson,  J. Wenzel,  M. de Wergifosse,  
 T. A. Wesolowski,  A. White,  J. Witte,  A. Yamada,  Jun Yang,  K. Yao,  
 S. Yeganeh,  S. R. Yost,  Zhi-Qiang You,  A. Zech,  Igor Ying Zhang,  
 Xing Zhang,  Yan Zhao,  Ying Zhu,  B. R. Brooks,  G. K. L. Chan,  
 C. J. Cramer,  M. S. Gordon,  W. J. Hehre,  A. Klamt,  M. W. Schmidt,  
 C. D. Sherrill,  D. G. Truhlar,  A. Aspuru-Guzik,  R. Baer,  A. T. Bell,  
 N. A. Besley,  Jeng-Da Chai,  A. E. DePrince, III,  R. A. DiStasio Jr.,  
 A. Dreuw,  B. D. Dunietz,  T. R. Furlani,  Chao-Ping Hsu,  Yousung Jung,  
 Jing Kong,  D. S. Lambrecht,  WanZhen Liang,  C. Ochsenfeld,  
 V. A. Rassolov,  L. V. Slipchenko,  J. E. Subotnik,  T. Van Voorhis,  
 J. M. Herbert,  A. I. Krylov,  P. M. W. Gill,  M. Head-Gordon

 Contributors to earlier versions of Q-Chem not listed above: 
 R. D. Adamson,  B. Austin,  J. Baker,  G. J. O. Beran,  K. Brandhorst,  
 S. T. Brown,  E. F. C. Byrd,  A. K. Chakraborty,  C.-L. Cheng,  
 Siu Hung Chien,  D. M. Chipman,  D. L. Crittenden,  H. Dachsel,  
 R. J. Doerksen,  A. D. Dutoi,  L. Fusti-Molnar,  W. A. Goddard III,  
 A. Golubeva-Zadorozhnaya,  S. R. Gwaltney,  G. Hawkins,  A. Heyden,  
 S. Hirata,  G. Kedziora,  F. J. Keil,  C. Kelley,  Jihan Kim,  R. A. King,  
 R. Z. Khaliullin,  P. P. Korambath,  W. Kurlancheek,  A. M. Lee,  M. S. Lee,  
 S. V. Levchenko,  Ching Yeh Lin,  D. Liotard,  R. C. Lochan,  I. Lotan,  
 P. E. Maslen,  N. Nair,  D. P. O'Neill,  D. Neuhauser,  E. Neuscamman,  
 C. M. Oana,  R. Olson,  B. Peters,  R. Peverati,  P. A. Pieniazek,  
 Y. M. Rhee,  J. Ritchie,  M. A. Rohrdanz,  E. Rosta,  N. J. Russ,  
 H. F. Schaefer III,  N. E. Schultz,  N. Shenvi,  A. C. Simmonett,  A. Sodt,  
 D. Stuck,  K. S. Thanthiriwatte,  V. Vanovschi,  Tao Wang,  A. Warshel,  
 C. F. Williams,  Q. Wu,  X. Xu,  W. Zhang

 Please cite Q-Chem as follows:
 Y. Shao et al., Mol. Phys. 113, 184-215 (2015)
 DOI: 10.1080/00268976.2014.952696

 Q-Chem 5.3.0 for Intel X86 EM64T Linux

 Parts of Q-Chem use Armadillo 9.800.1 (Horizon Scraper).
 http://arma.sourceforge.net/

 Q-Chem begins on Mon Jul 20 23:04:23 2020  

Host: centos77-c5
0

     Scratch files written to /tmp/29655.centos77-h1/qchem120852//
Processing $rem in /opt/qchem-5.3.0-intel2020u1//config/preferences:
Processing $rem in /home/shihchengli/.qchemrc:

Checking the input file for inconsistencies... 	...done.

--------------------------------------------------------------
User input:
--------------------------------------------------------------
$comment
Optimize C2H4 at omegaB97X-D/6-311+G(2df,2pd)
$end

$rem
JOBTYPE opt
EXCHANGE omegaB97X-D
BASIS 6-311+G(2df,2pd)
XC_GRID 000075000302
SYM_IGNORE TRUE
$end

$molecule
0 1
C         -4.49554        0.52199        0.00000
C         -3.34270        1.18822        0.00000
H         -5.35312        0.90958       -0.54059
H         -4.58787       -0.41458        0.54059
H         -3.25036        2.12479       -0.54059
H         -2.48512        0.80063        0.54059
$end

--------------------------------------------------------------
 ----------------------------------------------------------------
             Standard Nuclear Orientation (Angstroms)
    I     Atom           X                Y                Z
 ----------------------------------------------------------------
    1      C      -4.4955400000     0.5219900000     0.0000000000
    2      C      -3.3427000000     1.1882200000     0.0000000000
    3      H      -5.3531200000     0.9095800000    -0.5405900000
    4      H      -4.5878700000    -0.4145800000     0.5405900000
    5      H      -3.2503600000     2.1247900000    -0.5405900000
    6      H      -2.4851200000     0.8006300000     0.5405900000
 ----------------------------------------------------------------
 Nuclear Repulsion Energy =          33.40096252 hartrees
 There are        8 alpha and        8 beta electrons
 Requested basis set is 6-311+G(2df,2pd)
 There are 40 shells and 124 basis functions

 Total QAlloc Memory Limit   2000 MB
 Mega-Array Size       188 MB
 MEM_STATIC part       192 MB
 A cutoff of  1.0D-11 yielded    820 shell pairs
 There are      7944 function pairs (      9873 Cartesian)
 Smallest overlap matrix eigenvalue = 1.21E-04

 Scale SEOQF with 1.000000e-02/1.000000e-01/1.000000e-01

 Standard Electronic Orientation quadrupole field applied
 Nucleus-field energy     =     0.0000000019 hartrees
 Guess from superposition of atomic densities
 Warning:  Energy on first SCF cycle will be non-variational
 SAD guess density has 16.000000 electrons

 -----------------------------------------------------------------------
  General SCF calculation program by
  Eric Jon Sundstrom, Paul Horn, Yuezhi Mao, Dmitri Zuev, Alec White,
  David Stuck, Shaama M.S., Shane Yost, Joonho Lee, David Small,
  Daniel Levine, Susi Lehtola, Hugh Burton, Evgeny Epifanovsky,
  Bang C. Huynh
 -----------------------------------------------------------------------
 Exchange:     0.2220 Hartree-Fock + 1.0000 wB97X-D + LR-HF
 Correlation:  1.0000 wB97X-D
 Using Euler-Maclaurin-Lebedev (75,302) quadrature formula
 Dispersion:   Grimme D
 using 2 threads for integral computing
 -------------------------------------------------------
 OpenMP Integral computing Module                
 Release: version 1.0, May 2013, Q-Chem Inc. Pittsburgh 
 -------------------------------------------------------
 using 2 threads for integral computing
 -------------------------------------------------------
 OpenMP Integral computing Module                
 Release: version 1.0, May 2013, Q-Chem Inc. Pittsburgh 
 -------------------------------------------------------
 A restricted SCF calculation will be
 performed using DIIS
 SCF converges when DIIS error is below 1.0e-08
 ---------------------------------------
  Cycle       Energy         DIIS error
 ---------------------------------------
    1     -78.8122878005      3.72e-02  
    2     -78.5577266968      3.76e-03  
    3     -78.5739163096      2.56e-03  
    4     -78.5860943237      1.08e-04  
    5     -78.5861489099      1.60e-05  
    6     -78.5861510073      3.35e-06  
    7     -78.5861511035      3.78e-07  
    8     -78.5861511044      6.47e-08  
    9     -78.5861511045      7.83e-09  Convergence criterion met
 ---------------------------------------
 SCF time:   CPU 17.40s  wall 9.00s 
 SCF   energy in the final basis set =      -78.5861511045
 Total energy in the final basis set =      -78.5861511045
 
 --------------------------------------------------------------
 
                    Orbital Energies (a.u.)
 --------------------------------------------------------------
 
 Alpha MOs
 -- Occupied --
-10.2845 -10.2836  -0.8635  -0.6721  -0.5641  -0.5026  -0.4423  -0.3594
 -- Virtual --
  0.0630   0.0821   0.0886   0.1008   0.1245   0.1285   0.1444   0.1801
  0.2038   0.2042   0.2387   0.2684   0.3461   0.3840   0.4704   0.4717
  0.5644   0.5668   0.5834   0.5967   0.5990   0.6140   0.6360   0.6727
  0.7065   0.7254   0.7667   0.7882   0.8143   0.8942   0.9559   0.9832
  1.0747   1.0901   1.0921   1.2029   1.2295   1.2531   1.2630   1.4275
  1.4392   1.4538   1.4637   1.5184   1.5444   1.5657   1.6428   1.8090
  2.3579   2.5225   2.5736   2.6098   2.6977   2.7571   2.7885   2.8128
  2.8198   2.8349   2.9327   2.9916   3.0037   3.0090   3.0342   3.0650
  3.0680   3.0844   3.1082   3.1725   3.2601   3.2667   3.3268   3.3363
  3.3586   3.3995   3.4597   3.4800   3.5618   3.6283   3.7035   3.7148
  3.7320   3.7665   3.8321   3.8846   3.8915   3.9114   3.9598   4.0014
  4.1158   4.1195   4.1240   4.1487   4.2583   4.3038   4.3642   4.6160
  4.7044   4.7618   4.7977   4.8963   4.9204   4.9944   5.0726   5.1187
  5.1443   5.1725   5.2186   5.4227   5.5374   5.7022   6.2192   6.3906
  6.4337   6.5502  24.8614  25.4351
 --------------------------------------------------------------
 
          Ground-State Mulliken Net Atomic Charges

     Atom                 Charge (a.u.)
  ----------------------------------------
      1 C                    -0.097130
      2 C                    -0.097129
      3 H                     0.048581
      4 H                     0.048548
      5 H                     0.048548
      6 H                     0.048581
  ----------------------------------------
  Sum of atomic charges =     0.000000

 -----------------------------------------------------------------
                    Cartesian Multipole Moments
 -----------------------------------------------------------------
    Charge (ESU x 10^10)
                -0.0000
    Dipole Moment (Debye)
         X       0.0000      Y      -0.0000      Z      -0.0000
       Tot       0.0000
    Quadrupole Moments (Debye-Ang)
        XX     -12.6119     XY       0.4236     YY     -13.1004
        XZ       0.8366     YZ      -1.4476     ZZ     -14.5283
    Octopole Moments (Debye-Ang^2)
       XXX     148.2822    XXY     -14.1048    XYY      52.0666
       YYY     -33.6067    XXZ      -6.5572    XYZ       6.3888
       YYZ      -2.4757    XZZ      56.9380    YZZ     -12.4232
       ZZZ      -0.0000
    Hexadecapole Moments (Debye-Ang^3)
      XXXX   -1218.1305   XXXY     135.8825   XXYY    -232.0810
      XYYY     124.5423   YYYY     -91.9808   XXXZ      39.6889
      XXYZ     -27.8013   XYYZ       9.0830   YYYZ      -3.0595
      XXZZ    -236.1018   XYZZ      45.5662   YYZZ     -19.9804
      XZZZ      -1.0649   YZZZ       1.8429   ZZZZ     -23.3695
 -----------------------------------------------------------------
 Calculating analytic gradient of the SCF energy
 Gradient of SCF Energy
            1           2           3           4           5           6
    1  -0.0107026   0.0107015   0.0000633   0.0029808  -0.0029798  -0.0000632
    2  -0.0061223   0.0061215   0.0034060  -0.0016277   0.0016281  -0.0034056
    3  -0.0000938   0.0000941  -0.0020585   0.0020690  -0.0020692   0.0020583
 Max gradient component =       1.070E-02
 RMS gradient           =       4.518E-03
 Gradient time:  CPU 6.03 s  wall 3.02 s
 Geometry Optimization Parameters
   NAtoms,    NIC,     NZ,  NCons,   NDum,   NFix, NCnnct, MaxDiis
        6      27       0       0       0       0       0       0


** GEOMETRY OPTIMIZATION IN DELOCALIZED INTERNAL COORDINATES **
   Searching for a Minimum

   Optimization Cycle:   1

                       Coordinates (Angstroms)
     ATOM                X               Y               Z
      1  C        -4.4955400000    0.5219900000    0.0000000000
      2  C        -3.3427000000    1.1882200000    0.0000000000
      3  H        -5.3531200000    0.9095800000   -0.5405900000
      4  H        -4.5878700000   -0.4145800000    0.5405900000
      5  H        -3.2503600000    2.1247900000   -0.5405900000
      6  H        -2.4851200000    0.8006300000    0.5405900000
   Point Group: c1    Number of degrees of freedom:    12


   Energy is    -78.586151104


 Attempting to generate delocalized internal coordinates
 Initial Hessian constructed with Jon Baker's OPTIMIZE code

 12 Hessian modes will be used to form the next step
  Hessian Eigenvalues:
     0.031468    0.031468    0.031468    0.160000    0.160000    0.160000
     0.160000    0.353587    0.353588    0.353598    0.353598    0.591519

 Minimum search - taking simple RFO step
 Searching for Lamda that Minimizes Along All modes
 Value Taken    Lamda =  -0.00057079
 Step Taken.  Stepsize is  0.052701

                             Maximum     Tolerance    Cnvgd?
         Gradient           0.008909      0.000300      NO
         Displacement       0.036690      0.001200      NO
         Energy change     *********      0.000001      NO


 New Cartesian Coordinates Obtained by Inverse Iteration

 Displacement from previous Coordinates is:  0.050498
 ----------------------------------------------------------------
             Standard Nuclear Orientation (Angstroms)
    I     Atom           X                Y                Z
 ----------------------------------------------------------------
    1      C      -4.4921322918     0.5239584250     0.0001765845
    2      C      -3.3461053554     1.1862511201    -0.0001773709
    3      H      -5.3552135019     0.8982578105    -0.5344494405
    4      H      -4.5988287374    -0.4109326047     0.5344339707
    5      H      -3.2394061005     2.1211428950    -0.5344330408
    6      H      -2.4830240130     0.8119523541     0.5344492970
 ----------------------------------------------------------------
 Nuclear Repulsion Energy =          33.52949118 hartrees
 There are        8 alpha and        8 beta electrons
 Applying Cartesian multipole field
    Component          Value
    ---------          -----
     (2,0,0)        1.00000E-12
     (0,2,0)        2.00000E-11
     (0,0,2)       -3.00000E-11
 Nucleus-field energy     =     0.0000000019 hartrees
 Requested basis set is 6-311+G(2df,2pd)
 There are 40 shells and 124 basis functions
 A cutoff of  1.0D-11 yielded    820 shell pairs
 There are      7944 function pairs (      9873 Cartesian)
 Smallest overlap matrix eigenvalue = 1.18E-04
 Guess MOs from SCF MO coefficient file

 -----------------------------------------------------------------------
  General SCF calculation program by
  Eric Jon Sundstrom, Paul Horn, Yuezhi Mao, Dmitri Zuev, Alec White,
  David Stuck, Shaama M.S., Shane Yost, Joonho Lee, David Small,
  Daniel Levine, Susi Lehtola, Hugh Burton, Evgeny Epifanovsky,
  Bang C. Huynh
 -----------------------------------------------------------------------
 Exchange:     0.2220 Hartree-Fock + 1.0000 wB97X-D + LR-HF
 Correlation:  1.0000 wB97X-D
 Using Euler-Maclaurin-Lebedev (75,302) quadrature formula
 Dispersion:   Grimme D
 using 2 threads for integral computing
 -------------------------------------------------------
 OpenMP Integral computing Module                
 Release: version 1.0, May 2013, Q-Chem Inc. Pittsburgh 
 -------------------------------------------------------
 using 2 threads for integral computing
 -------------------------------------------------------
 OpenMP Integral computing Module                
 Release: version 1.0, May 2013, Q-Chem Inc. Pittsburgh 
 -------------------------------------------------------
 A restricted SCF calculation will be
 performed using DIIS
 SCF converges when DIIS error is below 1.0e-08
 ---------------------------------------
  Cycle       Energy         DIIS error
 ---------------------------------------
    1     -78.5864460508      2.50e-04  
    2     -78.5865070662      5.07e-05  
    3     -78.5865106219      3.04e-05  
    4     -78.5865123809      2.14e-06  
    5     -78.5865124023      2.99e-07  
    6     -78.5865124028      5.99e-08  
    7     -78.5865124028      9.27e-09  Convergence criterion met
 ---------------------------------------
 SCF time:   CPU 14.11s  wall 7.00s 
 SCF   energy in the final basis set =      -78.5865124028
 Total energy in the final basis set =      -78.5865124028
 
 --------------------------------------------------------------
 
                    Orbital Energies (a.u.)
 --------------------------------------------------------------
 
 Alpha MOs
 -- Occupied --
-10.2828 -10.2819  -0.8649  -0.6741  -0.5630  -0.5071  -0.4402  -0.3607
 -- Virtual --
  0.0641   0.0817   0.0883   0.1013   0.1244   0.1287   0.1450   0.1805
  0.2041   0.2073   0.2374   0.2699   0.3470   0.3868   0.4707   0.4713
  0.5663   0.5667   0.5816   0.5981   0.5988   0.6169   0.6383   0.6730
  0.7087   0.7264   0.7656   0.7940   0.8089   0.8963   0.9692   0.9958
  1.0777   1.0888   1.1001   1.2051   1.2225   1.2526   1.2663   1.4306
  1.4420   1.4634   1.4649   1.5186   1.5589   1.5671   1.6466   1.8046
  2.3543   2.5175   2.5617   2.6085   2.6968   2.7679   2.7874   2.8132
  2.8257   2.8359   2.9388   2.9954   3.0178   3.0230   3.0269   3.0669
  3.0670   3.0863   3.1039   3.1744   3.2578   3.2763   3.3357   3.3366
  3.3521   3.4075   3.4591   3.4823   3.5638   3.6209   3.6980   3.7282
  3.7326   3.7684   3.8564   3.9054   3.9062   3.9237   3.9828   4.0026
  4.1169   4.1224   4.1279   4.1603   4.2443   4.3071   4.3786   4.6183
  4.7117   4.7768   4.8292   4.9140   4.9353   5.0374   5.0963   5.1210
  5.1394   5.2094   5.2525   5.4239   5.5122   5.6917   6.2579   6.4496
  6.4593   6.5471  24.8691  25.4616
 --------------------------------------------------------------
 
          Ground-State Mulliken Net Atomic Charges

     Atom                 Charge (a.u.)
  ----------------------------------------
      1 C                    -0.096367
      2 C                    -0.096367
      3 H                     0.048187
      4 H                     0.048180
      5 H                     0.048179
      6 H                     0.048187
  ----------------------------------------
  Sum of atomic charges =     0.000000

 -----------------------------------------------------------------
                    Cartesian Multipole Moments
 -----------------------------------------------------------------
    Charge (ESU x 10^10)
                 0.0000
    Dipole Moment (Debye)
         X       0.0000      Y       0.0000      Z       0.0000
       Tot       0.0000
    Quadrupole Moments (Debye-Ang)
        XX     -12.5331     XY       0.4917     YY     -13.0974
        XZ       0.8039     YZ      -1.3916     ZZ     -14.5194
    Octopole Moments (Debye-Ang^2)
       XXX     147.3558    XXY     -14.5714    XYY      52.1714
       YYY     -33.5991    XXZ      -6.3009    XYZ       6.1413
       YYZ      -2.3799    XZZ      56.9034    YZZ     -12.4156
       ZZZ       0.0000
    Hexadecapole Moments (Debye-Ang^3)
      XXXX   -1210.4452   XXXY     138.3852   XXYY    -232.7406
      XYYY     124.7049   YYYY     -91.7641   XXXZ      38.1533
      XXYZ     -26.7088   XYYZ       8.6863   YYYZ      -2.8972
      XXZZ    -235.9082   XYZZ      45.5527   YYZZ     -19.9354
      XZZZ      -1.0569   YZZZ       1.8377   ZZZZ     -23.1651
 -----------------------------------------------------------------
 Calculating analytic gradient of the SCF energy
 Gradient of SCF Energy
            1           2           3           4           5           6
    1  -0.0031062   0.0031057   0.0009358   0.0011817  -0.0011815  -0.0009356
    2  -0.0017720   0.0017718   0.0008632   0.0003791  -0.0003790  -0.0008631
    3  -0.0000222   0.0000221  -0.0002011   0.0001968  -0.0001967   0.0002011
 Max gradient component =       3.106E-03
 RMS gradient           =       1.334E-03
 Gradient time:  CPU 6.12 s  wall 3.06 s
 Geometry Optimization Parameters
   NAtoms,    NIC,     NZ,  NCons,   NDum,   NFix, NCnnct, MaxDiis
        6      27       0       0       0       0       0       0

 Cartesian Hessian Update
 Hessian updated using BFGS update


** GEOMETRY OPTIMIZATION IN DELOCALIZED INTERNAL COORDINATES **
   Searching for a Minimum

   Optimization Cycle:   2

                       Coordinates (Angstroms)
     ATOM                X               Y               Z
      1  C        -4.4921322918    0.5239584250    0.0001765845
      2  C        -3.3461053554    1.1862511201   -0.0001773709
      3  H        -5.3552135019    0.8982578105   -0.5344494405
      4  H        -4.5988287374   -0.4109326047    0.5344339707
      5  H        -3.2394061005    2.1211428950   -0.5344330408
      6  H        -2.4830240130    0.8119523541    0.5344492970
   Point Group: c1    Number of degrees of freedom:    12


   Energy is    -78.586512403

 Hessian updated using BFGS update

  9 Hessian modes will be used to form the next step
  Hessian Eigenvalues:
     0.031467    0.031468    0.108958    0.160002    0.353587    0.353592
     0.353598    0.378283    0.600547

 Minimum search - taking simple RFO step
 Searching for Lamda that Minimizes Along All modes
 Value Taken    Lamda =  -0.00008309
 Step Taken.  Stepsize is  0.027246

                             Maximum     Tolerance    Cnvgd?
         Gradient           0.002775      0.000300      NO
         Displacement       0.019124      0.001200      NO
         Energy change     -0.000361      0.000001      NO


 New Cartesian Coordinates Obtained by Inverse Iteration

 Displacement from previous Coordinates is:  0.029088
 ----------------------------------------------------------------
             Standard Nuclear Orientation (Angstroms)
    I     Atom           X                Y                Z
 ----------------------------------------------------------------
    1      C      -4.4913704873     0.5244062385     0.0002185548
    2      C      -3.3468663940     1.1858040014    -0.0002181026
    3      H      -5.3593071720     0.8921807099    -0.5321908950
    4      H      -4.6061391046    -0.4114544652     0.5321543649
    5      H      -3.2320974947     2.1216643106    -0.5321545484
    6      H      -2.4789293474     0.8180292049     0.5321906263
 ----------------------------------------------------------------
 Nuclear Repulsion Energy =          33.53260247 hartrees
 There are        8 alpha and        8 beta electrons
 Applying Cartesian multipole field
    Component          Value
    ---------          -----
     (2,0,0)        1.00000E-12
     (0,2,0)        2.00000E-11
     (0,0,2)       -3.00000E-11
 Nucleus-field energy     =     0.0000000019 hartrees
 Requested basis set is 6-311+G(2df,2pd)
 There are 40 shells and 124 basis functions
 A cutoff of  1.0D-11 yielded    820 shell pairs
 There are      7944 function pairs (      9873 Cartesian)
 Smallest overlap matrix eigenvalue = 1.18E-04
 Guess MOs from SCF MO coefficient file

 -----------------------------------------------------------------------
  General SCF calculation program by
  Eric Jon Sundstrom, Paul Horn, Yuezhi Mao, Dmitri Zuev, Alec White,
  David Stuck, Shaama M.S., Shane Yost, Joonho Lee, David Small,
  Daniel Levine, Susi Lehtola, Hugh Burton, Evgeny Epifanovsky,
  Bang C. Huynh
 -----------------------------------------------------------------------
 Exchange:     0.2220 Hartree-Fock + 1.0000 wB97X-D + LR-HF
 Correlation:  1.0000 wB97X-D
 Using Euler-Maclaurin-Lebedev (75,302) quadrature formula
 Dispersion:   Grimme D
 using 2 threads for integral computing
 -------------------------------------------------------
 OpenMP Integral computing Module                
 Release: version 1.0, May 2013, Q-Chem Inc. Pittsburgh 
 -------------------------------------------------------
 using 2 threads for integral computing
 -------------------------------------------------------
 OpenMP Integral computing Module                
 Release: version 1.0, May 2013, Q-Chem Inc. Pittsburgh 
 -------------------------------------------------------
 A restricted SCF calculation will be
 performed using DIIS
 SCF converges when DIIS error is below 1.0e-08
 ---------------------------------------
  Cycle       Energy         DIIS error
 ---------------------------------------
    1     -78.5865408382      1.15e-04  
    2     -78.5865537809      1.47e-05  
    3     -78.5865542231      8.02e-06  
    4     -78.5865543476      1.38e-06  
    5     -78.5865543539      2.07e-07  
    6     -78.5865543541      3.29e-08  
    7     -78.5865543541      4.00e-09  Convergence criterion met
 ---------------------------------------
 SCF time:   CPU 13.94s  wall 7.00s 
 SCF   energy in the final basis set =      -78.5865543541
 Total energy in the final basis set =      -78.5865543541
 
 --------------------------------------------------------------
 
                    Orbital Energies (a.u.)
 --------------------------------------------------------------
 
 Alpha MOs
 -- Occupied --
-10.2829 -10.2819  -0.8650  -0.6748  -0.5615  -0.5091  -0.4390  -0.3610
 -- Virtual --
  0.0642   0.0815   0.0881   0.1016   0.1244   0.1288   0.1452   0.1806
  0.2042   0.2084   0.2359   0.2698   0.3470   0.3877   0.4709   0.4712
  0.5661   0.5673   0.5801   0.5978   0.5985   0.6185   0.6393   0.6730
  0.7091   0.7255   0.7640   0.7963   0.8052   0.8964   0.9754   1.0017
  1.0778   1.0859   1.1049   1.2041   1.2178   1.2508   1.2678   1.4313
  1.4417   1.4614   1.4705   1.5171   1.5656   1.5667   1.6472   1.8009
  2.3554   2.5147   2.5543   2.6061   2.6984   2.7714   2.7865   2.8119
  2.8281   2.8339   2.9408   2.9962   3.0235   3.0258   3.0285   3.0645
  3.0670   3.0880   3.0998   3.1743   3.2554   3.2811   3.3384   3.3416
  3.3482   3.4075   3.4567   3.4827   3.5636   3.6137   3.6917   3.7253
  3.7383   3.7650   3.8686   3.9120   3.9135   3.9291   3.9906   4.0021
  4.1155   4.1188   4.1277   4.1650   4.2339   4.3023   4.3791   4.6142
  4.7118   4.7778   4.8402   4.9167   4.9342   5.0533   5.0988   5.1108
  5.1270   5.2245   5.2617   5.4161   5.4897   5.6789   6.2710   6.4463
  6.4895   6.5342  24.8683  25.4619
 --------------------------------------------------------------
 
          Ground-State Mulliken Net Atomic Charges

     Atom                 Charge (a.u.)
  ----------------------------------------
      1 C                    -0.096707
      2 C                    -0.096707
      3 H                     0.048355
      4 H                     0.048352
      5 H                     0.048352
      6 H                     0.048355
  ----------------------------------------
  Sum of atomic charges =     0.000000

 -----------------------------------------------------------------
                    Cartesian Multipole Moments
 -----------------------------------------------------------------
    Charge (ESU x 10^10)
                -0.0000
    Dipole Moment (Debye)
         X       0.0000      Y      -0.0000      Z      -0.0000
       Tot       0.0000
    Quadrupole Moments (Debye-Ang)
        XX     -12.4922     XY       0.5328     YY     -13.1034
        XZ       0.7906     YZ      -1.3686     ZZ     -14.5304
    Octopole Moments (Debye-Ang^2)
       XXX     146.8747    XXY     -14.8585    XYY      52.2651
       YYY     -33.6144    XXZ      -6.1966    XYZ       6.0396
       YYZ      -2.3405    XZZ      56.9464    YZZ     -12.4250
       ZZZ      -0.0000
    Hexadecapole Moments (Debye-Ang^3)
      XXXX   -1206.6433   XXXY     139.9027   XXYY    -233.3325
      XYYY     124.8505   YYYY     -91.7915   XXXZ      37.5433
      XXYZ     -26.2615   XYYZ       8.5105   YYYZ      -2.8346
      XXZZ    -236.0919   XYZZ      45.5841   YYZZ     -19.9519
      XZZZ      -1.0594   YZZZ       1.8436   ZZZZ     -23.1291
 -----------------------------------------------------------------
 Calculating analytic gradient of the SCF energy
 Gradient of SCF Energy
            1           2           3           4           5           6
    1  -0.0001241   0.0001240   0.0001018  -0.0000041   0.0000042  -0.0001018
    2  -0.0000708   0.0000708  -0.0000215   0.0001158  -0.0001158   0.0000215
    3   0.0000000   0.0000001   0.0000452  -0.0000622   0.0000621  -0.0000452
 Max gradient component =       1.241E-04
 RMS gradient           =       7.495E-05
 Gradient time:  CPU 6.01 s  wall 3.01 s
 Geometry Optimization Parameters
   NAtoms,    NIC,     NZ,  NCons,   NDum,   NFix, NCnnct, MaxDiis
        6      27       0       0       0       0       0       0

 Cartesian Hessian Update
 Hessian updated using BFGS update


** GEOMETRY OPTIMIZATION IN DELOCALIZED INTERNAL COORDINATES **
   Searching for a Minimum

   Optimization Cycle:   3

                       Coordinates (Angstroms)
     ATOM                X               Y               Z
      1  C        -4.4913704873    0.5244062385    0.0002185548
      2  C        -3.3468663940    1.1858040014   -0.0002181026
      3  H        -5.3593071720    0.8921807099   -0.5321908950
      4  H        -4.6061391046   -0.4114544652    0.5321543649
      5  H        -3.2320974947    2.1216643106   -0.5321545484
      6  H        -2.4789293474    0.8180292049    0.5321906263
   Point Group: c1    Number of degrees of freedom:    12


   Energy is    -78.586554354

 Hessian updated using BFGS update

 11 Hessian modes will be used to form the next step
  Hessian Eigenvalues:
     0.031467    0.031468    0.031468    0.109041    0.160000    0.160002
     0.353587    0.353594    0.353598    0.374718    0.600995

 Minimum search - taking simple RFO step
 Searching for Lamda that Minimizes Along All modes
 Value Taken    Lamda =  -0.00000016
 Step Taken.  Stepsize is  0.000661

                             Maximum     Tolerance    Cnvgd?
         Gradient           0.000203      0.000300     YES
         Displacement       0.000486      0.001200     YES
         Energy change     -0.000042      0.000001      NO


                       Distance Matrix (Angstroms)
             C (  1)   C (  2)   H (  3)   H (  4)   H (  5)
   C (  2)  1.321869
   H (  3)  1.082604  2.102172
   H (  4)  1.082572  2.102480  1.843789
   H (  5)  2.102480  1.082572  2.456960  3.072041
   H (  6)  2.102172  1.082604  3.071642  2.456960  1.843789
 
 Final energy is   -78.5865543540957     


 ******************************
 **  OPTIMIZATION CONVERGED  **
 ******************************

                       Coordinates (Angstroms)
     ATOM                X               Y               Z
      1  C        -4.4913704873    0.5244062385    0.0002185548
      2  C        -3.3468663940    1.1858040014   -0.0002181026
      3  H        -5.3593071720    0.8921807099   -0.5321908950
      4  H        -4.6061391046   -0.4114544652    0.5321543649
      5  H        -3.2320974947    2.1216643106   -0.5321545484
      6  H        -2.4789293474    0.8180292049    0.5321906263

Z-matrix Print:
$molecule
0 1
C 
H  1 1.082572
H  1 1.082604 2 116.764631
C  1 1.321869 2 121.634234 3 -179.953277 0
H  4 1.082572 1 121.634237 2 180.000000 0
H  4 1.082604 1 121.601126 2 -0.048927 0
$end

 
 --------------------------------------------------------------
 
                    Orbital Energies (a.u.)
 --------------------------------------------------------------
 
 Alpha MOs
 -- Occupied --
-10.2829 -10.2819  -0.8650  -0.6748  -0.5615  -0.5091  -0.4390  -0.3610
 -- Virtual --
  0.0642   0.0815   0.0881   0.1016   0.1244   0.1288   0.1452   0.1806
  0.2042   0.2084   0.2359   0.2698   0.3470   0.3877   0.4709   0.4712
  0.5661   0.5673   0.5801   0.5978   0.5985   0.6185   0.6393   0.6730
  0.7091   0.7255   0.7640   0.7963   0.8052   0.8964   0.9754   1.0017
  1.0778   1.0859   1.1049   1.2041   1.2178   1.2508   1.2678   1.4313
  1.4417   1.4614   1.4705   1.5171   1.5656   1.5667   1.6472   1.8009
  2.3554   2.5147   2.5543   2.6061   2.6984   2.7714   2.7865   2.8119
  2.8281   2.8339   2.9408   2.9962   3.0235   3.0258   3.0285   3.0645
  3.0670   3.0880   3.0998   3.1743   3.2554   3.2811   3.3384   3.3416
  3.3482   3.4075   3.4567   3.4827   3.5636   3.6137   3.6917   3.7253
  3.7383   3.7650   3.8686   3.9120   3.9135   3.9291   3.9906   4.0021
  4.1155   4.1188   4.1277   4.1650   4.2339   4.3023   4.3791   4.6142
  4.7118   4.7778   4.8402   4.9167   4.9342   5.0533   5.0988   5.1108
  5.1270   5.2245   5.2617   5.4161   5.4897   5.6789   6.2710   6.4463
  6.4895   6.5342  24.8683  25.4619
 --------------------------------------------------------------
 
          Ground-State Mulliken Net Atomic Charges

     Atom                 Charge (a.u.)
  ----------------------------------------
      1 C                    -0.096707
      2 C                    -0.096707
      3 H                     0.048355
      4 H                     0.048352
      5 H                     0.048352
      6 H                     0.048355
  ----------------------------------------
  Sum of atomic charges =     0.000000

 -----------------------------------------------------------------
                    Cartesian Multipole Moments
 -----------------------------------------------------------------
    Charge (ESU x 10^10)
                -0.0000
    Dipole Moment (Debye)
         X       0.0000      Y      -0.0000      Z      -0.0000
       Tot       0.0000
    Quadrupole Moments (Debye-Ang)
        XX     -12.4922     XY       0.5328     YY     -13.1034
        XZ       0.7906     YZ      -1.3686     ZZ     -14.5304
    Octopole Moments (Debye-Ang^2)
       XXX     146.8747    XXY     -14.8585    XYY      52.2651
       YYY     -33.6144    XXZ      -6.1966    XYZ       6.0396
       YYZ      -2.3405    XZZ      56.9464    YZZ     -12.4250
       ZZZ      -0.0000
    Hexadecapole Moments (Debye-Ang^3)
      XXXX   -1206.6433   XXXY     139.9027   XXYY    -233.3325
      XYYY     124.8505   YYYY     -91.7915   XXXZ      37.5433
      XXYZ     -26.2615   XYYZ       8.5105   YYYZ      -2.8346
      XXZZ    -236.0919   XYZZ      45.5841   YYZZ     -19.9519
      XZZZ      -1.0594   YZZZ       1.8436   ZZZZ     -23.1291
 -----------------------------------------------------------------
Archival summary:
1\1\centos77-c5\OPT\ProcedureUnspecified\BasisUnspecified\24\shihchen\MonJul2023:04:552020MonJul2023:04:552020\0\\#,OPT,ProcedureUnspecified,BasisUnspecified,\\0,1\C\H,1,1.08257\H,1,1.0826,2,116.765\C,1,1.32187,2,121.634,3,-179.953,0\H,4,1.08257,1,121.634,2,180,0\H,4,1.0826,1,121.601,2,-0.0489274,0\\\@

 Total job time:  32.19s(wall), 64.09s(cpu) 
 Mon Jul 20 23:04:55 2020

        *************************************************************
        *                                                           *
        *  Thank you very much for using Q-Chem.  Have a nice day.  *
        *                                                           *
        *************************************************************


 
User input: 2 of 3 
 
                  Welcome to Q-Chem
     A Quantum Leap Into The Future Of Chemistry


 Q-Chem 5.3 (devel), Q-Chem, Inc., Pleasanton, CA (2020)

 Yihan Shao,  Zhengting Gan,  E. Epifanovsky,  A. T. B. Gilbert,  M. Wormit,  
 J. Kussmann,  A. W. Lange,  A. Behn,  Jia Deng,  Xintian Feng,  D. Ghosh,  
 M. Goldey,  P. R. Horn,  L. D. Jacobson,  I. Kaliman,  T. Kus,  A. Landau,  
 Jie Liu,  E. I. Proynov,  R. M. Richard,  R. P. Steele,  E. J. Sundstrom,  
 H. L. Woodcock III,  P. M. Zimmerman,  D. Zuev,  B. Alam,  B. Albrecht,  
 E. Alguire,  S. A. Baeppler,  D. Barton,  Z. Benda,  Y. A. Bernard,  
 E. J. Berquist,  K. B. Bravaya,  H. Burton,  K. Carter-Fenk,  D. Casanova,  
 Chun-Min Chang,  Yunqing Chen,  A. Chien,  K. D. Closser,  M. P. Coons,  
 S. Coriani,  S. Dasgupta,  A. L. Dempwolff,  M. Diedenhofen,  Hainam Do,  
 R. G. Edgar,  Po-Tung Fang,  S. Faraji,  S. Fatehi,  Qingguo Feng,  
 J. Fosso-Tande,  J. Gayvert,  Qinghui Ge,  A. Ghysels,  G. Gidofalvi,  
 J. Gomes,  J. Gonthier,  A. Gunina,  D. Hait,  M. W. D. Hanson-Heine,  
 P. H. P. Harbach,  A. W. Hauser,  M. F. Herbst,  J. E. Herr,  
 E. G. Hohenstein,  Z. C. Holden,  Kerwin Hui,  B. C. Huynh,  T.-C. Jagau,  
 Hyunjun Ji,  B. Kaduk,  K. Khistyaev,  Jaehoon Kim,  P. Klunzinger,  K. Koh,  
 D. Kosenkov,  L. Koulias,  T. Kowalczyk,  C. M. Krauter,  A. Kunitsa,  
 Ka Un Lao,  A. Laurent,  K. V. Lawler,  Joonho Lee,  D. Lefrancois,  
 S. Lehtola,  D. S. Levine,  Yi-Pei Li,  You-Sheng Lin,  Fenglai Liu,  
 Kuan-Yu Liu,  E. Livshits,  M. Loipersberger,  A. Luenser,  P. Manohar,  
 E. Mansoor,  S. F. Manzer,  Shan-Ping Mao,  Yuezhi Mao,  N. Mardirossian,  
 A. V. Marenich,  T. Markovich,  L. A. Martinez-Martinez,  S. A. Maurer,  
 N. J. Mayhall,  S. C. McKenzie,  J.-M. Mewes,  P. Morgante,  A. F. Morrison,  
 J. W. Mullinax,  K. Nanda,  T. S. Nguyen-Beck,  R. Olivares-Amaya,  
 K. J. Oosterbaan,  J. A. Parkhill,  S. K. Paul,  F. Pavosevic,  Zheng Pei,  
 T. M. Perrine,  F. Plasser,  P. Pokhilko,  S. Prager,  A. Prociuk,  
 E. Ramos,  B. Rana,  D. R. Rehn,  F. Rob,  M. Scheurer,  M. Schneider,  
 N. Sergueev,  S. M. Sharada,  S. Sharma,  D. W. Small,  T. Stauch,  
 C. J. Stein,  T. Stein,  Yu-Chuan Su,  S. P. Veccham,  Zhen Tao,  
 A. J. W. Thom,  A. Tkatchenko,  T. Tsuchimochi,  N. M. Tubman,  L. Vogt,  
 M. L. Vidal,  O. Vydrov,  M. A. Watson,  J. Wenzel,  M. de Wergifosse,  
 T. A. Wesolowski,  A. White,  J. Witte,  A. Yamada,  Jun Yang,  K. Yao,  
 S. Yeganeh,  S. R. Yost,  Zhi-Qiang You,  A. Zech,  Igor Ying Zhang,  
 Xing Zhang,  Yan Zhao,  Ying Zhu,  B. R. Brooks,  G. K. L. Chan,  
 C. J. Cramer,  M. S. Gordon,  W. J. Hehre,  A. Klamt,  M. W. Schmidt,  
 C. D. Sherrill,  D. G. Truhlar,  A. Aspuru-Guzik,  R. Baer,  A. T. Bell,  
 N. A. Besley,  Jeng-Da Chai,  A. E. DePrince, III,  R. A. DiStasio Jr.,  
 A. Dreuw,  B. D. Dunietz,  T. R. Furlani,  Chao-Ping Hsu,  Yousung Jung,  
 Jing Kong,  D. S. Lambrecht,  WanZhen Liang,  C. Ochsenfeld,  
 V. A. Rassolov,  L. V. Slipchenko,  J. E. Subotnik,  T. Van Voorhis,  
 J. M. Herbert,  A. I. Krylov,  P. M. W. Gill,  M. Head-Gordon

 Contributors to earlier versions of Q-Chem not listed above: 
 R. D. Adamson,  B. Austin,  J. Baker,  G. J. O. Beran,  K. Brandhorst,  
 S. T. Brown,  E. F. C. Byrd,  A. K. Chakraborty,  C.-L. Cheng,  
 Siu Hung Chien,  D. M. Chipman,  D. L. Crittenden,  H. Dachsel,  
 R. J. Doerksen,  A. D. Dutoi,  L. Fusti-Molnar,  W. A. Goddard III,  
 A. Golubeva-Zadorozhnaya,  S. R. Gwaltney,  G. Hawkins,  A. Heyden,  
 S. Hirata,  G. Kedziora,  F. J. Keil,  C. Kelley,  Jihan Kim,  R. A. King,  
 R. Z. Khaliullin,  P. P. Korambath,  W. Kurlancheek,  A. M. Lee,  M. S. Lee,  
 S. V. Levchenko,  Ching Yeh Lin,  D. Liotard,  R. C. Lochan,  I. Lotan,  
 P. E. Maslen,  N. Nair,  D. P. O'Neill,  D. Neuhauser,  E. Neuscamman,  
 C. M. Oana,  R. Olson,  B. Peters,  R. Peverati,  P. A. Pieniazek,  
 Y. M. Rhee,  J. Ritchie,  M. A. Rohrdanz,  E. Rosta,  N. J. Russ,  
 H. F. Schaefer III,  N. E. Schultz,  N. Shenvi,  A. C. Simmonett,  A. Sodt,  
 D. Stuck,  K. S. Thanthiriwatte,  V. Vanovschi,  Tao Wang,  A. Warshel,  
 C. F. Williams,  Q. Wu,  X. Xu,  W. Zhang

 Please cite Q-Chem as follows:
 Y. Shao et al., Mol. Phys. 113, 184-215 (2015)
 DOI: 10.1080/00268976.2014.952696

 Q-Chem 5.3.0 for Intel X86 EM64T Linux

 Parts of Q-Chem use Armadillo 9.800.1 (Horizon Scraper).
 http://arma.sourceforge.net/

 Q-Chem begins on Mon Jul 20 23:04:55 2020  

Host: centos77-c5
0

     Scratch files written to /tmp/29655.centos77-h1/qchem120852//
Processing $rem in /opt/qchem-5.3.0-intel2020u1//config/preferences:
Processing $rem in /home/shihchengli/.qchemrc:
The previous job contains 0 fragments, simply inherited here

Checking the input file for inconsistencies... 	...done.

--------------------------------------------------------------
User input:
--------------------------------------------------------------

$comment
Vibrational analysis of C2H4 at omegaB97X-D/6-311+G(2df,2pd)
$end

$rem
JOBTYPE freq
EXCHANGE omegaB97X-D
BASIS 6-311+G(2df,2pd)
XC_GRID 000075000302
SYM_IGNORE TRUE
$end

$molecule
read
$end

--------------------------------------------------------------
 ----------------------------------------------------------------
             Standard Nuclear Orientation (Angstroms)
    I     Atom           X                Y                Z
 ----------------------------------------------------------------
    1      C      -4.4913704873     0.5244062385     0.0002185548
    2      C      -3.3468663940     1.1858040014    -0.0002181026
    3      H      -5.3593071720     0.8921807099    -0.5321908950
    4      H      -4.6061391046    -0.4114544652     0.5321543649
    5      H      -3.2320974947     2.1216643106    -0.5321545484
    6      H      -2.4789293474     0.8180292049     0.5321906263
 ----------------------------------------------------------------
 Nuclear Repulsion Energy =          33.53260247 hartrees
 There are        8 alpha and        8 beta electrons
 Requested basis set is 6-311+G(2df,2pd)
 There are 40 shells and 124 basis functions

 Total QAlloc Memory Limit   2000 MB
 Mega-Array Size       188 MB
 MEM_STATIC part       192 MB

                       Distance Matrix (Angstroms)
             C (  1)   C (  2)   H (  3)   H (  4)   H (  5)
   C (  2)  1.321869
   H (  3)  1.082604  2.102172
   H (  4)  1.082572  2.102480  1.843789
   H (  5)  2.102480  1.082572  2.456960  3.072041
   H (  6)  2.102172  1.082604  3.071642  2.456960  1.843789
 
 A cutoff of  1.0D-11 yielded    820 shell pairs
 There are      7944 function pairs (      9873 Cartesian)
 Smallest overlap matrix eigenvalue = 1.18E-04
 Guess from superposition of atomic densities
 Warning:  Energy on first SCF cycle will be non-variational
 SAD guess density has 16.000000 electrons

 -----------------------------------------------------------------------
  General SCF calculation program by
  Eric Jon Sundstrom, Paul Horn, Yuezhi Mao, Dmitri Zuev, Alec White,
  David Stuck, Shaama M.S., Shane Yost, Joonho Lee, David Small,
  Daniel Levine, Susi Lehtola, Hugh Burton, Evgeny Epifanovsky,
  Bang C. Huynh
 -----------------------------------------------------------------------
 Exchange:     0.2220 Hartree-Fock + 1.0000 wB97X-D + LR-HF
 Correlation:  1.0000 wB97X-D
 Using Euler-Maclaurin-Lebedev (75,302) quadrature formula
 Dispersion:   Grimme D
 using 2 threads for integral computing
 -------------------------------------------------------
 OpenMP Integral computing Module                
 Release: version 1.0, May 2013, Q-Chem Inc. Pittsburgh 
 -------------------------------------------------------
 using 2 threads for integral computing
 -------------------------------------------------------
 OpenMP Integral computing Module                
 Release: version 1.0, May 2013, Q-Chem Inc. Pittsburgh 
 -------------------------------------------------------
 A restricted SCF calculation will be
 performed using DIIS
 SCF converges when DIIS error is below 1.0e-08
 ---------------------------------------
  Cycle       Energy         DIIS error
 ---------------------------------------
    1     -78.8308302714      3.77e-02  
    2     -78.5573865793      3.82e-03  
    3     -78.5738509915      2.61e-03  
    4     -78.5864980578      1.09e-04  
    5     -78.5865522384      1.58e-05  
    6     -78.5865542625      3.23e-06  
    7     -78.5865543534      3.15e-07  
    8     -78.5865543542      4.49e-08  
    9     -78.5865543542      7.65e-09  Convergence criterion met
 ---------------------------------------
 SCF time:   CPU 17.43s  wall 9.00s 
 SCF   energy in the final basis set =      -78.5865543542
 Total energy in the final basis set =      -78.5865543542
 
 --------------------------------------------------------------
 
                    Orbital Energies (a.u.)
 --------------------------------------------------------------
 
 Alpha MOs
 -- Occupied --
-10.2829 -10.2819  -0.8650  -0.6748  -0.5615  -0.5091  -0.4390  -0.3610
 -- Virtual --
  0.0642   0.0815   0.0881   0.1016   0.1244   0.1288   0.1452   0.1806
  0.2042   0.2084   0.2359   0.2698   0.3470   0.3877   0.4709   0.4712
  0.5661   0.5673   0.5801   0.5978   0.5985   0.6185   0.6393   0.6730
  0.7091   0.7255   0.7640   0.7963   0.8052   0.8964   0.9754   1.0017
  1.0778   1.0859   1.1049   1.2041   1.2178   1.2508   1.2678   1.4313
  1.4417   1.4614   1.4705   1.5171   1.5656   1.5667   1.6472   1.8009
  2.3554   2.5147   2.5543   2.6061   2.6984   2.7714   2.7865   2.8119
  2.8281   2.8339   2.9408   2.9962   3.0235   3.0258   3.0285   3.0645
  3.0670   3.0880   3.0998   3.1743   3.2554   3.2811   3.3384   3.3416
  3.3482   3.4075   3.4567   3.4827   3.5636   3.6137   3.6917   3.7253
  3.7383   3.7650   3.8686   3.9120   3.9135   3.9291   3.9906   4.0021
  4.1155   4.1188   4.1277   4.1650   4.2339   4.3023   4.3791   4.6142
  4.7118   4.7778   4.8402   4.9167   4.9342   5.0533   5.0988   5.1108
  5.1270   5.2245   5.2617   5.4161   5.4897   5.6789   6.2710   6.4463
  6.4895   6.5342  24.8683  25.4619
 --------------------------------------------------------------
 
          Ground-State Mulliken Net Atomic Charges

     Atom                 Charge (a.u.)
  ----------------------------------------
      1 C                    -0.096707
      2 C                    -0.096707
      3 H                     0.048355
      4 H                     0.048352
      5 H                     0.048352
      6 H                     0.048355
  ----------------------------------------
  Sum of atomic charges =     0.000000

 -----------------------------------------------------------------
                    Cartesian Multipole Moments
 -----------------------------------------------------------------
    Charge (ESU x 10^10)
                -0.0000
    Dipole Moment (Debye)
         X       0.0000      Y      -0.0000      Z      -0.0000
       Tot       0.0000
    Quadrupole Moments (Debye-Ang)
        XX     -12.4922     XY       0.5328     YY     -13.1034
        XZ       0.7906     YZ      -1.3686     ZZ     -14.5304
    Octopole Moments (Debye-Ang^2)
       XXX     146.8747    XXY     -14.8585    XYY      52.2651
       YYY     -33.6144    XXZ      -6.1966    XYZ       6.0396
       YYZ      -2.3405    XZZ      56.9464    YZZ     -12.4250
       ZZZ      -0.0000
    Hexadecapole Moments (Debye-Ang^3)
      XXXX   -1206.6434   XXXY     139.9027   XXYY    -233.3325
      XYYY     124.8505   YYYY     -91.7915   XXXZ      37.5432
      XXYZ     -26.2615   XYYZ       8.5105   YYYZ      -2.8346
      XXZZ    -236.0919   XYZZ      45.5841   YYZZ     -19.9519
      XZZZ      -1.0594   YZZZ       1.8436   ZZZZ     -23.1291
 -----------------------------------------------------------------
 Calculating MO derivatives via CPSCF
    1     0    21    0.0525264  
    2     0    21    0.0124971  
    3     0    21    0.0027621  
    4     0    21    0.0004753  
    5     0    21    0.0000671  
    6    19     2    0.0000058  
    7    21     0    0.0000004  Converged
 Time for AOints: 3.9 s (CPU) 1.9 s (wall)
 ------------------------------------------------------------------------------
                     AOints        : Timing summary (seconds)
 ------------------------------------------------------------------------------
     job step          cpu (% of tot)      sys (% of tot)     wall (% of tot)
 ------------------------------------------------------------------------------
  AOints            0.3869E+01 ( 4.3)   0.0000E+00 ( 0.0)   0.1936E+01 ( 4.3)
 ------------------------------------------------------------------------------
   Grand Totals     0.8906E+02          0.5500E-04          0.4456E+02
 ------------------------------------------------------------------------------
 Polarizability Matrix (a.u.)
            1           2           3
    1 -31.5724239  -5.6742855  -0.6085636
    2  -5.6742855 -25.0292519   1.0613475
    3  -0.6085636   1.0613475 -20.8856726
 Calculating analytic Hessian of the SCF energy
atom: 0 element: 6
atom: 1 element: 6
atom: 2 element: 1
atom: 3 element: 1
atom: 4 element: 1
atom: 5 element: 1
 
 Direct stationary perturbation theory relativistic correction:
 
 rels  =       0.017708383662
 relv  =      -0.072870260198
 rel2e =       0.000000000000
 E_rel =      -0.055161876535
 
 Hessian of the SCF Energy
            1           2           3           4           5           6
    1   0.7772632   0.1783997   0.1248988  -0.4672602  -0.2159046  -0.0148765
    2   0.1783997   0.5715591  -0.2164629  -0.2159046  -0.2187495   0.0257971
    3   0.1248988  -0.2164629   0.2922117  -0.0148766   0.0257971  -0.0731934
    4  -0.4672602  -0.2159046  -0.0148766   0.7772633   0.1783997   0.1248985
    5  -0.2159046  -0.2187495   0.0257971   0.1783997   0.5715590  -0.2164630
    6  -0.0148765   0.0257971  -0.0731934   0.1248985  -0.2164630   0.2922117
    7  -0.2340246   0.0749810  -0.1152112  -0.0185148   0.0113227  -0.0158335
    8   0.0791888  -0.0887196   0.0592854  -0.0156873   0.0100906  -0.0076789
    9  -0.1178107   0.0577882  -0.1152791   0.0007206   0.0018923   0.0056868
   10  -0.0585420  -0.0218443   0.0064871   0.0010785  -0.0269545   0.0145353
   11  -0.0260689  -0.2647157   0.1292106   0.0000723  -0.0094649   0.0098487
   12   0.0090400   0.1306782  -0.1151601  -0.0019722   0.0003071   0.0057341
   13   0.0010785  -0.0269545   0.0145353  -0.0585421  -0.0218443   0.0064872
   14   0.0000723  -0.0094649   0.0098487  -0.0260689  -0.2647155   0.1292107
   15  -0.0019722   0.0003071   0.0057341   0.0090401   0.1306783  -0.1151603
   16  -0.0185148   0.0113227  -0.0158335  -0.2340247   0.0749810  -0.1152110
   17  -0.0156873   0.0100906  -0.0076789   0.0791889  -0.0887196   0.0592854
   18   0.0007206   0.0018923   0.0056868  -0.1178105   0.0577882  -0.1152789
            7           8           9          10          11          12
    1  -0.2340246   0.0791888  -0.1178107  -0.0585420  -0.0260689   0.0090400
    2   0.0749810  -0.0887196   0.0577882  -0.0218443  -0.2647157   0.1306782
    3  -0.1152112   0.0592854  -0.1152791   0.0064871   0.1292106  -0.1151601
    4  -0.0185148  -0.0156873   0.0007206   0.0010785   0.0000723  -0.0019722
    5   0.0113227   0.0100906   0.0018923  -0.0269545  -0.0094649   0.0003071
    6  -0.0158335  -0.0076789   0.0056868   0.0145353   0.0098487   0.0057341
    7   0.2490844  -0.0799500   0.1283865   0.0049968  -0.0028770   0.0024237
    8  -0.0799500   0.0822752  -0.0639162   0.0195484  -0.0045989   0.0116485
    9   0.1283865  -0.0639162   0.1092504  -0.0112938   0.0036982  -0.0031526
   10   0.0049968   0.0195484  -0.0112938   0.0549790   0.0317803  -0.0090381
   11  -0.0028770  -0.0045989   0.0036982   0.0317803   0.2768605  -0.1428905
   12   0.0024237   0.0116485  -0.0031526  -0.0090381  -0.1428905   0.1090845
   13   0.0003722   0.0016430   0.0023200  -0.0028844  -0.0041729  -0.0030105
   14   0.0012661  -0.0013062  -0.0042787  -0.0041729   0.0032251   0.0044117
   15   0.0025572  -0.0041550  -0.0055925  -0.0030105   0.0044117   0.0090866
   16  -0.0019139  -0.0047429  -0.0023226   0.0003722   0.0012661   0.0025572
   17  -0.0047429   0.0022588   0.0048162   0.0016430  -0.0013062  -0.0041550
   18  -0.0023226   0.0048162   0.0090869   0.0023200  -0.0042787  -0.0055925
           13          14          15          16          17          18
    1   0.0010785   0.0000723  -0.0019722  -0.0185148  -0.0156873   0.0007206
    2  -0.0269545  -0.0094649   0.0003071   0.0113227   0.0100906   0.0018923
    3   0.0145353   0.0098487   0.0057341  -0.0158335  -0.0076789   0.0056868
    4  -0.0585421  -0.0260689   0.0090401  -0.2340247   0.0791889  -0.1178105
    5  -0.0218443  -0.2647155   0.1306783   0.0749810  -0.0887196   0.0577882
    6   0.0064872   0.1292107  -0.1151603  -0.1152110   0.0592854  -0.1152789
    7   0.0003722   0.0012661   0.0025572  -0.0019139  -0.0047429  -0.0023226
    8   0.0016430  -0.0013062  -0.0041550  -0.0047429   0.0022588   0.0048162
    9   0.0023200  -0.0042787  -0.0055925  -0.0023226   0.0048162   0.0090869
   10  -0.0028844  -0.0041729  -0.0030105   0.0003722   0.0016430   0.0023200
   11  -0.0041729   0.0032251   0.0044117   0.0012661  -0.0013062  -0.0042787
   12  -0.0030105   0.0044117   0.0090866   0.0025572  -0.0041550  -0.0055925
   13   0.0549790   0.0317804  -0.0090382   0.0049968   0.0195484  -0.0112938
   14   0.0317804   0.2768603  -0.1428906  -0.0028770  -0.0045989   0.0036982
   15  -0.0090382  -0.1428906   0.1090846   0.0024237   0.0116485  -0.0031526
   16   0.0049968  -0.0028770   0.0024237   0.2490845  -0.0799501   0.1283863
   17   0.0195484  -0.0045989   0.0116485  -0.0799501   0.0822752  -0.0639161
   18  -0.0112938   0.0036982  -0.0031526   0.1283863  -0.0639161   0.1092502
 **********************************************************************
 **                                                                  **
 **                       VIBRATIONAL ANALYSIS                       **
 **                       --------------------                       **
 **                                                                  **
 **        VIBRATIONAL FREQUENCIES (CM**-1) AND NORMAL MODES         **
 **     FORCE CONSTANTS (mDYN/ANGSTROM) AND REDUCED MASSES (AMU)     **
 **                  INFRARED INTENSITIES (KM/MOL)                   **
 **                                                                  **
 **********************************************************************
 

 Mode:                 1                      2                      3
 Frequency:       837.65                 984.64                 999.47
 Force Cnst:      0.4309                 0.6629                 0.8938
 Red. Mass:       1.0424                 1.1606                 1.5186
 IR Active:          YES                    YES                    YES
 IR Intens:        0.225                106.947                  0.000
 Raman Active:       YES                    YES                    YES
               X      Y      Z        X      Y      Z        X      Y      Z
 C         -0.016  0.028 -0.023    0.024 -0.042 -0.068    0.044 -0.076 -0.124
 C         -0.016  0.028 -0.023    0.024 -0.042 -0.068   -0.044  0.076  0.124
 H         -0.282 -0.391  0.130   -0.148  0.258  0.419   -0.139  0.247  0.397
 H          0.475  0.056  0.141   -0.135  0.239  0.392   -0.139  0.244  0.400
 H          0.475  0.056  0.141   -0.135  0.239  0.392    0.139 -0.244 -0.400
 H         -0.282 -0.391  0.130   -0.148  0.258  0.419    0.139 -0.247 -0.397
 TransDip   0.006 -0.011  0.008   -0.095  0.166  0.270   -0.000 -0.000 -0.000

 Mode:                 4                      5                      6
 Frequency:      1068.20                1246.43                1388.58
 Force Cnst:      0.6777                 1.3966                 1.3577
 Red. Mass:       1.0080                 1.5257                 1.1951
 IR Active:          YES                    YES                    YES
 IR Intens:        0.116                  0.000                  0.000
 Raman Active:       YES                    YES                    YES
               X      Y      Z        X      Y      Z        X      Y      Z
 C          0.001 -0.002 -0.002   -0.063  0.108 -0.089    0.080  0.047  0.000
 C          0.001 -0.002 -0.002    0.063 -0.108  0.089   -0.080 -0.047 -0.000
 H          0.144 -0.237 -0.397   -0.348 -0.333  0.082    0.312  0.367 -0.117
 H         -0.155  0.257  0.419    0.462  0.134  0.082    0.475  0.085  0.114
 H         -0.155  0.257  0.419   -0.462 -0.134 -0.082   -0.475 -0.085 -0.114
 H          0.144 -0.237 -0.397    0.348  0.333 -0.082   -0.312 -0.367  0.117
 TransDip  -0.003  0.006  0.009   -0.000  0.000  0.000    0.000  0.000  0.000

 Mode:                 7                      8                      9
 Frequency:      1476.30                1711.11                3152.79
 Force Cnst:      1.4281                 5.7357                 6.1350
 Red. Mass:       1.1122                 3.3249                 1.0476
 IR Active:          YES                    YES                    YES
 IR Intens:       12.026                  0.000                 15.558
 Raman Active:       YES                    YES                    YES
               X      Y      Z        X      Y      Z        X      Y      Z
 C         -0.060 -0.034  0.000   -0.281 -0.162  0.000   -0.037 -0.021  0.000
 C         -0.060 -0.034  0.000    0.281  0.162 -0.000   -0.037 -0.021  0.000
 H          0.241  0.403 -0.165    0.038  0.382 -0.222    0.394 -0.177  0.248
 H          0.471  0.005  0.161    0.352 -0.159  0.220    0.043  0.432 -0.249
 H          0.471  0.005  0.161   -0.352  0.159 -0.220    0.043  0.432 -0.249
 H          0.241  0.403 -0.165   -0.038 -0.382  0.222    0.394 -0.177  0.248
 TransDip   0.097  0.055 -0.001    0.000 -0.000 -0.000   -0.109 -0.063  0.000

 Mode:                10                     11                     12
 Frequency:      3171.01                3232.54                3258.51
 Force Cnst:      6.3682                 6.8657                 6.9941
 Red. Mass:       1.0749                 1.1152                 1.1180
 IR Active:          YES                    YES                    YES
 IR Intens:        0.000                  0.000                 18.835
 Raman Active:       YES                    YES                    YES
               X      Y      Z        X      Y      Z        X      Y      Z
 C         -0.048 -0.028  0.000   -0.029  0.049 -0.040    0.029 -0.050  0.041
 C          0.048  0.028 -0.000    0.029 -0.049  0.040    0.029 -0.050  0.041
 H          0.394 -0.174  0.246    0.402 -0.167  0.245   -0.402  0.166 -0.244
 H          0.046  0.432 -0.248   -0.056 -0.428  0.242    0.057  0.429 -0.242
 H         -0.046 -0.432  0.248    0.056  0.428 -0.242    0.057  0.429 -0.242
 H         -0.394  0.174 -0.246   -0.402  0.167 -0.245   -0.402  0.166 -0.244
 TransDip  -0.000 -0.000  0.000    0.000 -0.000  0.000    0.057 -0.098  0.080

 STANDARD THERMODYNAMIC QUANTITIES AT   298.15 K  AND     1.00 ATM

   This Molecule has  0 Imaginary Frequencies
   Zero point vibrational energy:       32.204 kcal/mol

   Atom    1 Element C  Has Mass   12.00000
   Atom    2 Element C  Has Mass   12.00000
   Atom    3 Element H  Has Mass    1.00783
   Atom    4 Element H  Has Mass    1.00783
   Atom    5 Element H  Has Mass    1.00783
   Atom    6 Element H  Has Mass    1.00783
   Molecular Mass:    28.031320 amu
   Principal axes and moments of inertia in amu*Bohr^2:
                             1           2           3
    Eigenvalues --       12.23510    59.16518    71.40028
          X               0.86579    -0.40874    -0.28870
          Y               0.50041     0.70690     0.49988
          Z              -0.00024    -0.57726     0.81656
   Rotational Symmetry Number is   1
   The Molecule is an Asymmetric Top
   Translational Enthalpy:        0.889 kcal/mol
   Rotational Enthalpy:           0.889 kcal/mol
   Vibrational Enthalpy:         32.331 kcal/mol
   gas constant (RT):             0.592 kcal/mol
   Translational Entropy:        35.927  cal/mol.K
   Rotational Entropy:           18.586  cal/mol.K
   Vibrational Entropy:           0.514  cal/mol.K

   Total Enthalpy:               34.701 kcal/mol
   Total Entropy:                55.027  cal/mol.K
Archival summary:
1\1\centos77-c5\FREQ\ProcedureUnspecified\BasisUnspecified\24\shihchen\MonJul2023:06:422020MonJul2023:06:422020\0\\#,FREQ,ProcedureUnspecified,BasisUnspecified,\\0,1\C\H,1,1.08257\H,1,1.0826,2,116.765\C,1,1.32187,2,121.634,3,-179.953,0\H,4,1.08257,1,121.634,2,180,0\H,4,1.0826,1,121.601,2,-0.0489274,0\\\@

 Total job time:  106.60s(wall), 196.57s(cpu) 
 Mon Jul 20 23:06:42 2020

        *************************************************************
        *                                                           *
        *  Thank you very much for using Q-Chem.  Have a nice day.  *
        *                                                           *
        *************************************************************


 
User input: 3 of 3 
 
                  Welcome to Q-Chem
     A Quantum Leap Into The Future Of Chemistry


 Q-Chem 5.3 (devel), Q-Chem, Inc., Pleasanton, CA (2020)

 Yihan Shao,  Zhengting Gan,  E. Epifanovsky,  A. T. B. Gilbert,  M. Wormit,  
 J. Kussmann,  A. W. Lange,  A. Behn,  Jia Deng,  Xintian Feng,  D. Ghosh,  
 M. Goldey,  P. R. Horn,  L. D. Jacobson,  I. Kaliman,  T. Kus,  A. Landau,  
 Jie Liu,  E. I. Proynov,  R. M. Richard,  R. P. Steele,  E. J. Sundstrom,  
 H. L. Woodcock III,  P. M. Zimmerman,  D. Zuev,  B. Alam,  B. Albrecht,  
 E. Alguire,  S. A. Baeppler,  D. Barton,  Z. Benda,  Y. A. Bernard,  
 E. J. Berquist,  K. B. Bravaya,  H. Burton,  K. Carter-Fenk,  D. Casanova,  
 Chun-Min Chang,  Yunqing Chen,  A. Chien,  K. D. Closser,  M. P. Coons,  
 S. Coriani,  S. Dasgupta,  A. L. Dempwolff,  M. Diedenhofen,  Hainam Do,  
 R. G. Edgar,  Po-Tung Fang,  S. Faraji,  S. Fatehi,  Qingguo Feng,  
 J. Fosso-Tande,  J. Gayvert,  Qinghui Ge,  A. Ghysels,  G. Gidofalvi,  
 J. Gomes,  J. Gonthier,  A. Gunina,  D. Hait,  M. W. D. Hanson-Heine,  
 P. H. P. Harbach,  A. W. Hauser,  M. F. Herbst,  J. E. Herr,  
 E. G. Hohenstein,  Z. C. Holden,  Kerwin Hui,  B. C. Huynh,  T.-C. Jagau,  
 Hyunjun Ji,  B. Kaduk,  K. Khistyaev,  Jaehoon Kim,  P. Klunzinger,  K. Koh,  
 D. Kosenkov,  L. Koulias,  T. Kowalczyk,  C. M. Krauter,  A. Kunitsa,  
 Ka Un Lao,  A. Laurent,  K. V. Lawler,  Joonho Lee,  D. Lefrancois,  
 S. Lehtola,  D. S. Levine,  Yi-Pei Li,  You-Sheng Lin,  Fenglai Liu,  
 Kuan-Yu Liu,  E. Livshits,  M. Loipersberger,  A. Luenser,  P. Manohar,  
 E. Mansoor,  S. F. Manzer,  Shan-Ping Mao,  Yuezhi Mao,  N. Mardirossian,  
 A. V. Marenich,  T. Markovich,  L. A. Martinez-Martinez,  S. A. Maurer,  
 N. J. Mayhall,  S. C. McKenzie,  J.-M. Mewes,  P. Morgante,  A. F. Morrison,  
 J. W. Mullinax,  K. Nanda,  T. S. Nguyen-Beck,  R. Olivares-Amaya,  
 K. J. Oosterbaan,  J. A. Parkhill,  S. K. Paul,  F. Pavosevic,  Zheng Pei,  
 T. M. Perrine,  F. Plasser,  P. Pokhilko,  S. Prager,  A. Prociuk,  
 E. Ramos,  B. Rana,  D. R. Rehn,  F. Rob,  M. Scheurer,  M. Schneider,  
 N. Sergueev,  S. M. Sharada,  S. Sharma,  D. W. Small,  T. Stauch,  
 C. J. Stein,  T. Stein,  Yu-Chuan Su,  S. P. Veccham,  Zhen Tao,  
 A. J. W. Thom,  A. Tkatchenko,  T. Tsuchimochi,  N. M. Tubman,  L. Vogt,  
 M. L. Vidal,  O. Vydrov,  M. A. Watson,  J. Wenzel,  M. de Wergifosse,  
 T. A. Wesolowski,  A. White,  J. Witte,  A. Yamada,  Jun Yang,  K. Yao,  
 S. Yeganeh,  S. R. Yost,  Zhi-Qiang You,  A. Zech,  Igor Ying Zhang,  
 Xing Zhang,  Yan Zhao,  Ying Zhu,  B. R. Brooks,  G. K. L. Chan,  
 C. J. Cramer,  M. S. Gordon,  W. J. Hehre,  A. Klamt,  M. W. Schmidt,  
 C. D. Sherrill,  D. G. Truhlar,  A. Aspuru-Guzik,  R. Baer,  A. T. Bell,  
 N. A. Besley,  Jeng-Da Chai,  A. E. DePrince, III,  R. A. DiStasio Jr.,  
 A. Dreuw,  B. D. Dunietz,  T. R. Furlani,  Chao-Ping Hsu,  Yousung Jung,  
 Jing Kong,  D. S. Lambrecht,  WanZhen Liang,  C. Ochsenfeld,  
 V. A. Rassolov,  L. V. Slipchenko,  J. E. Subotnik,  T. Van Voorhis,  
 J. M. Herbert,  A. I. Krylov,  P. M. W. Gill,  M. Head-Gordon

 Contributors to earlier versions of Q-Chem not listed above: 
 R. D. Adamson,  B. Austin,  J. Baker,  G. J. O. Beran,  K. Brandhorst,  
 S. T. Brown,  E. F. C. Byrd,  A. K. Chakraborty,  C.-L. Cheng,  
 Siu Hung Chien,  D. M. Chipman,  D. L. Crittenden,  H. Dachsel,  
 R. J. Doerksen,  A. D. Dutoi,  L. Fusti-Molnar,  W. A. Goddard III,  
 A. Golubeva-Zadorozhnaya,  S. R. Gwaltney,  G. Hawkins,  A. Heyden,  
 S. Hirata,  G. Kedziora,  F. J. Keil,  C. Kelley,  Jihan Kim,  R. A. King,  
 R. Z. Khaliullin,  P. P. Korambath,  W. Kurlancheek,  A. M. Lee,  M. S. Lee,  
 S. V. Levchenko,  Ching Yeh Lin,  D. Liotard,  R. C. Lochan,  I. Lotan,  
 P. E. Maslen,  N. Nair,  D. P. O'Neill,  D. Neuhauser,  E. Neuscamman,  
 C. M. Oana,  R. Olson,  B. Peters,  R. Peverati,  P. A. Pieniazek,  
 Y. M. Rhee,  J. Ritchie,  M. A. Rohrdanz,  E. Rosta,  N. J. Russ,  
 H. F. Schaefer III,  N. E. Schultz,  N. Shenvi,  A. C. Simmonett,  A. Sodt,  
 D. Stuck,  K. S. Thanthiriwatte,  V. Vanovschi,  Tao Wang,  A. Warshel,  
 C. F. Williams,  Q. Wu,  X. Xu,  W. Zhang

 Please cite Q-Chem as follows:
 Y. Shao et al., Mol. Phys. 113, 184-215 (2015)
 DOI: 10.1080/00268976.2014.952696

 Q-Chem 5.3.0 for Intel X86 EM64T Linux

 Parts of Q-Chem use Armadillo 9.800.1 (Horizon Scraper).
 http://arma.sourceforge.net/

 Q-Chem begins on Mon Jul 20 23:06:42 2020  

Host: centos77-c5
0

     Scratch files written to /tmp/29655.centos77-h1/qchem120852//
Processing $rem in /opt/qchem-5.3.0-intel2020u1//config/preferences:
Processing $rem in /home/shihchengli/.qchemrc:
The previous job contains 0 fragments, simply inherited here

Checking the input file for inconsistencies... 	...done.

--------------------------------------------------------------
User input:
--------------------------------------------------------------

$comment
Optimize C2H4 at omegaB97X-D/6-311+G(2df,2pd)
$end

$rem
JOBTYPE opt
EXCHANGE omegaB97X-D
BASIS 6-311+G(2df,2pd)
XC_GRID 000075000302
SYM_IGNORE TRUE
GEOM_OPT_HESSIAN READ
$end

$molecule
read
$end
--------------------------------------------------------------
 ----------------------------------------------------------------
             Standard Nuclear Orientation (Angstroms)
    I     Atom           X                Y                Z
 ----------------------------------------------------------------
    1      C      -4.4913704873     0.5244062385     0.0002185548
    2      C      -3.3468663940     1.1858040014    -0.0002181026
    3      H      -5.3593071720     0.8921807099    -0.5321908950
    4      H      -4.6061391046    -0.4114544652     0.5321543649
    5      H      -3.2320974947     2.1216643106    -0.5321545484
    6      H      -2.4789293474     0.8180292049     0.5321906263
 ----------------------------------------------------------------
 Nuclear Repulsion Energy =          33.53260247 hartrees
 There are        8 alpha and        8 beta electrons
 Requested basis set is 6-311+G(2df,2pd)
 There are 40 shells and 124 basis functions

 Total QAlloc Memory Limit   2000 MB
 Mega-Array Size       188 MB
 MEM_STATIC part       192 MB
 A cutoff of  1.0D-11 yielded    820 shell pairs
 There are      7944 function pairs (      9873 Cartesian)
 Smallest overlap matrix eigenvalue = 1.18E-04

 Scale SEOQF with 1.000000e-02/1.000000e-01/1.000000e-01

 Standard Electronic Orientation quadrupole field applied
 Nucleus-field energy     =     0.0000000019 hartrees
 Guess from superposition of atomic densities
 Warning:  Energy on first SCF cycle will be non-variational
 SAD guess density has 16.000000 electrons

 -----------------------------------------------------------------------
  General SCF calculation program by
  Eric Jon Sundstrom, Paul Horn, Yuezhi Mao, Dmitri Zuev, Alec White,
  David Stuck, Shaama M.S., Shane Yost, Joonho Lee, David Small,
  Daniel Levine, Susi Lehtola, Hugh Burton, Evgeny Epifanovsky,
  Bang C. Huynh
 -----------------------------------------------------------------------
 Exchange:     0.2220 Hartree-Fock + 1.0000 wB97X-D + LR-HF
 Correlation:  1.0000 wB97X-D
 Using Euler-Maclaurin-Lebedev (75,302) quadrature formula
 Dispersion:   Grimme D
 using 2 threads for integral computing
 -------------------------------------------------------
 OpenMP Integral computing Module                
 Release: version 1.0, May 2013, Q-Chem Inc. Pittsburgh 
 -------------------------------------------------------
 using 2 threads for integral computing
 -------------------------------------------------------
 OpenMP Integral computing Module                
 Release: version 1.0, May 2013, Q-Chem Inc. Pittsburgh 
 -------------------------------------------------------
 A restricted SCF calculation will be
 performed using DIIS
 SCF converges when DIIS error is below 1.0e-08
 ---------------------------------------
  Cycle       Energy         DIIS error
 ---------------------------------------
    1     -78.8308302713      3.77e-02  
    2     -78.5573865792      3.82e-03  
    3     -78.5738509914      2.61e-03  
    4     -78.5864980577      1.09e-04  
    5     -78.5865522382      1.58e-05  
    6     -78.5865542624      3.23e-06  
    7     -78.5865543533      3.15e-07  
    8     -78.5865543541      4.49e-08  
    9     -78.5865543541      7.65e-09  Convergence criterion met
 ---------------------------------------
 SCF time:   CPU 17.26s  wall 9.00s 
 SCF   energy in the final basis set =      -78.5865543541
 Total energy in the final basis set =      -78.5865543541
 
 --------------------------------------------------------------
 
                    Orbital Energies (a.u.)
 --------------------------------------------------------------
 
 Alpha MOs
 -- Occupied --
-10.2829 -10.2819  -0.8650  -0.6748  -0.5615  -0.5091  -0.4390  -0.3610
 -- Virtual --
  0.0642   0.0815   0.0881   0.1016   0.1244   0.1288   0.1452   0.1806
  0.2042   0.2084   0.2359   0.2698   0.3470   0.3877   0.4709   0.4712
  0.5661   0.5673   0.5801   0.5978   0.5985   0.6185   0.6393   0.6730
  0.7091   0.7255   0.7640   0.7963   0.8052   0.8964   0.9754   1.0017
  1.0778   1.0859   1.1049   1.2041   1.2178   1.2508   1.2678   1.4313
  1.4417   1.4614   1.4705   1.5171   1.5656   1.5667   1.6472   1.8009
  2.3554   2.5147   2.5543   2.6061   2.6984   2.7714   2.7865   2.8119
  2.8281   2.8339   2.9408   2.9962   3.0235   3.0258   3.0285   3.0645
  3.0670   3.0880   3.0998   3.1743   3.2554   3.2811   3.3384   3.3416
  3.3482   3.4075   3.4567   3.4827   3.5636   3.6137   3.6917   3.7253
  3.7383   3.7650   3.8686   3.9120   3.9135   3.9291   3.9906   4.0021
  4.1155   4.1188   4.1277   4.1650   4.2339   4.3023   4.3791   4.6142
  4.7118   4.7778   4.8402   4.9167   4.9342   5.0533   5.0988   5.1108
  5.1270   5.2245   5.2617   5.4161   5.4897   5.6789   6.2710   6.4463
  6.4895   6.5342  24.8683  25.4619
 --------------------------------------------------------------
 
          Ground-State Mulliken Net Atomic Charges

     Atom                 Charge (a.u.)
  ----------------------------------------
      1 C                    -0.096707
      2 C                    -0.096707
      3 H                     0.048355
      4 H                     0.048352
      5 H                     0.048352
      6 H                     0.048355
  ----------------------------------------
  Sum of atomic charges =     0.000000

 -----------------------------------------------------------------
                    Cartesian Multipole Moments
 -----------------------------------------------------------------
    Charge (ESU x 10^10)
                -0.0000
    Dipole Moment (Debye)
         X       0.0000      Y      -0.0000      Z      -0.0000
       Tot       0.0000
    Quadrupole Moments (Debye-Ang)
        XX     -12.4922     XY       0.5328     YY     -13.1034
        XZ       0.7906     YZ      -1.3686     ZZ     -14.5304
    Octopole Moments (Debye-Ang^2)
       XXX     146.8747    XXY     -14.8585    XYY      52.2651
       YYY     -33.6144    XXZ      -6.1966    XYZ       6.0396
       YYZ      -2.3405    XZZ      56.9464    YZZ     -12.4250
       ZZZ      -0.0000
    Hexadecapole Moments (Debye-Ang^3)
      XXXX   -1206.6434   XXXY     139.9027   XXYY    -233.3325
      XYYY     124.8505   YYYY     -91.7915   XXXZ      37.5432
      XXYZ     -26.2615   XYYZ       8.5105   YYYZ      -2.8346
      XXZZ    -236.0919   XYZZ      45.5841   YYZZ     -19.9519
      XZZZ      -1.0594   YZZZ       1.8436   ZZZZ     -23.1291
 -----------------------------------------------------------------
 Calculating analytic gradient of the SCF energy
 Gradient of SCF Energy
            1           2           3           4           5           6
    1  -0.0001241   0.0001240   0.0001018  -0.0000041   0.0000042  -0.0001018
    2  -0.0000708   0.0000708  -0.0000215   0.0001158  -0.0001158   0.0000215
    3  -0.0000000   0.0000001   0.0000452  -0.0000622   0.0000621  -0.0000452
 Max gradient component =       1.241E-04
 RMS gradient           =       7.496E-05
 Gradient time:  CPU 6.01 s  wall 3.01 s
 Geometry Optimization Parameters
   NAtoms,    NIC,     NZ,  NCons,   NDum,   NFix, NCnnct, MaxDiis
        6      27       0       0       0       0       0       0

 Cartesian Hessian read from HESS file


** GEOMETRY OPTIMIZATION IN DELOCALIZED INTERNAL COORDINATES **
   Searching for a Minimum

   Optimization Cycle:   1

                       Coordinates (Angstroms)
     ATOM                X               Y               Z
      1  C        -4.4913704873    0.5244062385    0.0002185548
      2  C        -3.3468663940    1.1858040014   -0.0002181026
      3  H        -5.3593071720    0.8921807099   -0.5321908950
      4  H        -4.6061391046   -0.4114544652    0.5321543649
      5  H        -3.2320974947    2.1216643106   -0.5321545484
      6  H        -2.4789293474    0.8180292049    0.5321906263
   Point Group: c1    Number of degrees of freedom:    12


   Energy is    -78.586554354


 Attempting to generate delocalized internal coordinates

 Transforming Cartesian Hessian to Internal Coordinates
 Hessian Transformation does not Include Derivative of B-matrix

 10 Hessian modes will be used to form the next step
  Hessian Eigenvalues:
     0.036727    0.048054    0.103378    0.109512    0.143431    0.361756
     0.361799    0.364113    0.364276    0.655686

 Minimum search - taking simple RFO step
 Searching for Lamda that Minimizes Along All modes
 Value Taken    Lamda =  -0.00000016
 Step Taken.  Stepsize is  0.000682

                             Maximum     Tolerance    Cnvgd?
         Gradient           0.000200      0.000300     YES
         Displacement       0.000495      0.001200     YES
         Energy change     *********      0.000001      NO


                       Distance Matrix (Angstroms)
             C (  1)   C (  2)   H (  3)   H (  4)   H (  5)
   C (  2)  1.321869
   H (  3)  1.082604  2.102172
   H (  4)  1.082572  2.102480  1.843789
   H (  5)  2.102480  1.082572  2.456960  3.072041
   H (  6)  2.102172  1.082604  3.071642  2.456960  1.843789
 
 Final energy is   -78.5865543540958     


 ******************************
 **  OPTIMIZATION CONVERGED  **
 ******************************

                       Coordinates (Angstroms)
     ATOM                X               Y               Z
      1  C        -4.4913704873    0.5244062385    0.0002185548
      2  C        -3.3468663940    1.1858040014   -0.0002181026
      3  H        -5.3593071720    0.8921807099   -0.5321908950
      4  H        -4.6061391046   -0.4114544652    0.5321543649
      5  H        -3.2320974947    2.1216643106   -0.5321545484
      6  H        -2.4789293474    0.8180292049    0.5321906263

Z-matrix Print:
$molecule
0 1
C 
H  1 1.082572
H  1 1.082604 2 116.764631
C  1 1.321869 2 121.634234 3 -179.953277 0
H  4 1.082572 1 121.634237 2 180.000000 0
H  4 1.082604 1 121.601126 2 -0.048927 0
$end

 
 --------------------------------------------------------------
 
                    Orbital Energies (a.u.)
 --------------------------------------------------------------
 
 Alpha MOs
 -- Occupied --
-10.2829 -10.2819  -0.8650  -0.6748  -0.5615  -0.5091  -0.4390  -0.3610
 -- Virtual --
  0.0642   0.0815   0.0881   0.1016   0.1244   0.1288   0.1452   0.1806
  0.2042   0.2084   0.2359   0.2698   0.3470   0.3877   0.4709   0.4712
  0.5661   0.5673   0.5801   0.5978   0.5985   0.6185   0.6393   0.6730
  0.7091   0.7255   0.7640   0.7963   0.8052   0.8964   0.9754   1.0017
  1.0778   1.0859   1.1049   1.2041   1.2178   1.2508   1.2678   1.4313
  1.4417   1.4614   1.4705   1.5171   1.5656   1.5667   1.6472   1.8009
  2.3554   2.5147   2.5543   2.6061   2.6984   2.7714   2.7865   2.8119
  2.8281   2.8339   2.9408   2.9962   3.0235   3.0258   3.0285   3.0645
  3.0670   3.0880   3.0998   3.1743   3.2554   3.2811   3.3384   3.3416
  3.3482   3.4075   3.4567   3.4827   3.5636   3.6137   3.6917   3.7253
  3.7383   3.7650   3.8686   3.9120   3.9135   3.9291   3.9906   4.0021
  4.1155   4.1188   4.1277   4.1650   4.2339   4.3023   4.3791   4.6142
  4.7118   4.7778   4.8402   4.9167   4.9342   5.0533   5.0988   5.1108
  5.1270   5.2245   5.2617   5.4161   5.4897   5.6789   6.2710   6.4463
  6.4895   6.5342  24.8683  25.4619
 --------------------------------------------------------------
 
          Ground-State Mulliken Net Atomic Charges

     Atom                 Charge (a.u.)
  ----------------------------------------
      1 C                    -0.096707
      2 C                    -0.096707
      3 H                     0.048355
      4 H                     0.048352
      5 H                     0.048352
      6 H                     0.048355
  ----------------------------------------
  Sum of atomic charges =     0.000000

 -----------------------------------------------------------------
                    Cartesian Multipole Moments
 -----------------------------------------------------------------
    Charge (ESU x 10^10)
                -0.0000
    Dipole Moment (Debye)
         X       0.0000      Y      -0.0000      Z      -0.0000
       Tot       0.0000
    Quadrupole Moments (Debye-Ang)
        XX     -12.4922     XY       0.5328     YY     -13.1034
        XZ       0.7906     YZ      -1.3686     ZZ     -14.5304
    Octopole Moments (Debye-Ang^2)
       XXX     146.8747    XXY     -14.8585    XYY      52.2651
       YYY     -33.6144    XXZ      -6.1966    XYZ       6.0396
       YYZ      -2.3405    XZZ      56.9464    YZZ     -12.4250
       ZZZ      -0.0000
    Hexadecapole Moments (Debye-Ang^3)
      XXXX   -1206.6434   XXXY     139.9027   XXYY    -233.3325
      XYYY     124.8505   YYYY     -91.7915   XXXZ      37.5432
      XXYZ     -26.2615   XYYZ       8.5105   YYYZ      -2.8346
      XXZZ    -236.0919   XYZZ      45.5841   YYZZ     -19.9519
      XZZZ      -1.0594   YZZZ       1.8436   ZZZZ     -23.1291
 -----------------------------------------------------------------
Archival summary:
1\1\centos77-c5\OPT\ProcedureUnspecified\BasisUnspecified\24\shihchen\MonJul2023:06:542020MonJul2023:06:542020\0\\#,OPT,ProcedureUnspecified,BasisUnspecified,\\0,1\C\H,1,1.08257\H,1,1.0826,2,116.765\C,1,1.32187,2,121.634,3,-179.953,0\H,4,1.08257,1,121.634,2,180,0\H,4,1.0826,1,121.601,2,-0.0489274,0\\\@

 Total job time:  11.88s(wall), 23.58s(cpu) 
 Mon Jul 20 23:06:54 2020

        *************************************************************
        *                                                           *
        *  Thank you very much for using Q-Chem.  Have a nice day.  *
        *                                                           *
        *************************************************************


