                  Welcome to Q-Chem
     A Quantum Leap Into The Future Of Chemistry


 Q-Chem 5.3 (devel), Q-Chem, Inc., Pleasanton, CA (2020)

 Yihan Shao,  Zhengting Gan,  E. Epifanovsky,  A. T. B. Gilbert,  M. Wormit,  
 J. Kussmann,  A. W. Lange,  A. Behn,  Jia Deng,  Xintian Feng,  D. Ghosh,  
 M. Goldey,  P. R. Horn,  L. D. Jacobson,  I. Kaliman,  T. Kus,  A. Landau,  
 Jie Liu,  E. I. Proynov,  R. M. Richard,  R. P. Steele,  E. J. Sundstrom,  
 H. L. Woodcock III,  P. M. Zimmerman,  D. Zuev,  B. Alam,  B. Albrecht,  
 E. Alguire,  S. A. Baeppler,  D. Barton,  Z. Benda,  Y. A. Bernard,  
 E. J. Berquist,  K. B. Bravaya,  H. Burton,  K. Carter-Fenk,  D. Casanova,  
 Chun-Min Chang,  Yunqing Chen,  A. Chien,  K. D. Closser,  M. P. Coons,  
 S. Coriani,  S. Dasgupta,  A. L. Dempwolff,  M. Diedenhofen,  Hainam Do,  
 R. G. Edgar,  Po-Tung Fang,  S. Faraji,  S. Fatehi,  Qingguo Feng,  
 J. Fosso-Tande,  J. Gayvert,  Qinghui Ge,  A. Ghysels,  G. Gidofalvi,  
 J. Gomes,  J. Gonthier,  A. Gunina,  D. Hait,  M. W. D. Hanson-Heine,  
 P. H. P. Harbach,  A. W. Hauser,  M. F. Herbst,  J. E. Herr,  
 E. G. Hohenstein,  Z. C. Holden,  Kerwin Hui,  B. C. Huynh,  T.-C. Jagau,  
 Hyunjun Ji,  B. Kaduk,  K. Khistyaev,  Jaehoon Kim,  P. Klunzinger,  K. Koh,  
 D. Kosenkov,  L. Koulias,  T. Kowalczyk,  C. M. Krauter,  A. Kunitsa,  
 Ka Un Lao,  A. Laurent,  K. V. Lawler,  Joonho Lee,  D. Lefrancois,  
 S. Lehtola,  D. S. Levine,  Yi-Pei Li,  You-Sheng Lin,  Fenglai Liu,  
 Kuan-Yu Liu,  E. Livshits,  M. Loipersberger,  A. Luenser,  P. Manohar,  
 E. Mansoor,  S. F. Manzer,  Shan-Ping Mao,  Yuezhi Mao,  N. Mardirossian,  
 A. V. Marenich,  T. Markovich,  L. A. Martinez-Martinez,  S. A. Maurer,  
 N. J. Mayhall,  S. C. McKenzie,  J.-M. Mewes,  P. Morgante,  A. F. Morrison,  
 J. W. Mullinax,  K. Nanda,  T. S. Nguyen-Beck,  R. Olivares-Amaya,  
 K. J. Oosterbaan,  J. A. Parkhill,  S. K. Paul,  F. Pavosevic,  Zheng Pei,  
 T. M. Perrine,  F. Plasser,  P. Pokhilko,  S. Prager,  A. Prociuk,  
 E. Ramos,  B. Rana,  D. R. Rehn,  F. Rob,  M. Scheurer,  M. Schneider,  
 N. Sergueev,  S. M. Sharada,  S. Sharma,  D. W. Small,  T. Stauch,  
 C. J. Stein,  T. Stein,  Yu-Chuan Su,  S. P. Veccham,  Zhen Tao,  
 A. J. W. Thom,  A. Tkatchenko,  T. Tsuchimochi,  N. M. Tubman,  L. Vogt,  
 M. L. Vidal,  O. Vydrov,  M. A. Watson,  J. Wenzel,  M. de Wergifosse,  
 T. A. Wesolowski,  A. White,  J. Witte,  A. Yamada,  Jun Yang,  K. Yao,  
 S. Yeganeh,  S. R. Yost,  Zhi-Qiang You,  A. Zech,  Igor Ying Zhang,  
 Xing Zhang,  Yan Zhao,  Ying Zhu,  B. R. Brooks,  G. K. L. Chan,  
 C. J. Cramer,  M. S. Gordon,  W. J. Hehre,  A. Klamt,  M. W. Schmidt,  
 C. D. Sherrill,  D. G. Truhlar,  A. Aspuru-Guzik,  R. Baer,  A. T. Bell,  
 N. A. Besley,  Jeng-Da Chai,  A. E. DePrince, III,  R. A. DiStasio Jr.,  
 A. Dreuw,  B. D. Dunietz,  T. R. Furlani,  Chao-Ping Hsu,  Yousung Jung,  
 Jing Kong,  D. S. Lambrecht,  WanZhen Liang,  C. Ochsenfeld,  
 V. A. Rassolov,  L. V. Slipchenko,  J. E. Subotnik,  T. Van Voorhis,  
 J. M. Herbert,  A. I. Krylov,  P. M. W. Gill,  M. Head-Gordon

 Contributors to earlier versions of Q-Chem not listed above: 
 R. D. Adamson,  B. Austin,  J. Baker,  G. J. O. Beran,  K. Brandhorst,  
 S. T. Brown,  E. F. C. Byrd,  A. K. Chakraborty,  C.-L. Cheng,  
 Siu Hung Chien,  D. M. Chipman,  D. L. Crittenden,  H. Dachsel,  
 R. J. Doerksen,  A. D. Dutoi,  L. Fusti-Molnar,  W. A. Goddard III,  
 A. Golubeva-Zadorozhnaya,  S. R. Gwaltney,  G. Hawkins,  A. Heyden,  
 S. Hirata,  G. Kedziora,  F. J. Keil,  C. Kelley,  Jihan Kim,  R. A. King,  
 R. Z. Khaliullin,  P. P. Korambath,  W. Kurlancheek,  A. M. Lee,  M. S. Lee,  
 S. V. Levchenko,  Ching Yeh Lin,  D. Liotard,  R. C. Lochan,  I. Lotan,  
 P. E. Maslen,  N. Nair,  D. P. O'Neill,  D. Neuhauser,  E. Neuscamman,  
 C. M. Oana,  R. Olson,  B. Peters,  R. Peverati,  P. A. Pieniazek,  
 Y. M. Rhee,  J. Ritchie,  M. A. Rohrdanz,  E. Rosta,  N. J. Russ,  
 H. F. Schaefer III,  N. E. Schultz,  N. Shenvi,  A. C. Simmonett,  A. Sodt,  
 D. Stuck,  K. S. Thanthiriwatte,  V. Vanovschi,  Tao Wang,  A. Warshel,  
 C. F. Williams,  Q. Wu,  X. Xu,  W. Zhang

 Please cite Q-Chem as follows:
 Y. Shao et al., Mol. Phys. 113, 184-215 (2015)
 DOI: 10.1080/00268976.2014.952696

 Q-Chem 5.3.0 for Intel X86 EM64T Linux

 Parts of Q-Chem use Armadillo 9.800.1 (Horizon Scraper).
 http://arma.sourceforge.net/

 Q-Chem begins on Mon Jul 20 23:39:19 2020  

Host: centos77-c3
0

     Scratch files written to /tmp/29653.centos77-h1/qchem43123//
Processing $rem in /opt/qchem-5.3.0-intel2020u1//config/preferences:
Processing $rem in /home/shihchengli/.qchemrc:

Checking the input file for inconsistencies... 	...done.

--------------------------------------------------------------
User input:
--------------------------------------------------------------
$comment
Optimize C2H5OH at omegaB97X-D/6-311+G(2df,2pd)
$end

$rem
JOBTYPE opt
EXCHANGE omegaB97X-D
BASIS 6-311+G(2df,2pd)
XC_GRID 000075000302
SYM_IGNORE TRUE
$end

$molecule
0 1
C         -5.38644        0.30780        0.02290
C         -4.12729        1.16162        0.10031
H         -5.53286       -0.06035       -1.01466
H         -6.26858        0.91389        0.31849
H         -5.30082       -0.56100        0.70936
O         -3.00689        0.41815       -0.29456
H         -3.98800        1.55970        1.13110
H         -4.23203        2.03321       -0.57969
H         -2.75990       -0.15580        0.47706
$end

--------------------------------------------------------------
 ----------------------------------------------------------------
             Standard Nuclear Orientation (Angstroms)
    I     Atom           X                Y                Z
 ----------------------------------------------------------------
    1      C      -5.3864400000     0.3078000000     0.0229000000
    2      C      -4.1272900000     1.1616200000     0.1003100000
    3      H      -5.5328600000    -0.0603500000    -1.0146600000
    4      H      -6.2685800000     0.9138900000     0.3184900000
    5      H      -5.3008200000    -0.5610000000     0.7093600000
    6      O      -3.0068900000     0.4181500000    -0.2945600000
    7      H      -3.9880000000     1.5597000000     1.1311000000
    8      H      -4.2320300000     2.0332100000    -0.5796900000
    9      H      -2.7599000000    -0.1558000000     0.4770600000
 ----------------------------------------------------------------
 Nuclear Repulsion Energy =          81.71251176 hartrees
 There are       13 alpha and       13 beta electrons
 Requested basis set is 6-311+G(2df,2pd)
 There are 60 shells and 186 basis functions

 Total QAlloc Memory Limit   2000 MB
 Mega-Array Size       188 MB
 MEM_STATIC part       192 MB
 A cutoff of  1.0D-11 yielded   1809 shell pairs
 There are     17508 function pairs (     21740 Cartesian)
 Smallest overlap matrix eigenvalue = 1.16E-04

 Scale SEOQF with 1.000000e-02/1.000000e-01/1.000000e-01

 Standard Electronic Orientation quadrupole field applied
 Nucleus-field energy     =     0.0000000026 hartrees
 Guess from superposition of atomic densities
 Warning:  Energy on first SCF cycle will be non-variational
 SAD guess density has 26.000000 electrons

 -----------------------------------------------------------------------
  General SCF calculation program by
  Eric Jon Sundstrom, Paul Horn, Yuezhi Mao, Dmitri Zuev, Alec White,
  David Stuck, Shaama M.S., Shane Yost, Joonho Lee, David Small,
  Daniel Levine, Susi Lehtola, Hugh Burton, Evgeny Epifanovsky,
  Bang C. Huynh
 -----------------------------------------------------------------------
 Exchange:     0.2220 Hartree-Fock + 1.0000 wB97X-D + LR-HF
 Correlation:  1.0000 wB97X-D
 Using Euler-Maclaurin-Lebedev (75,302) quadrature formula
 Dispersion:   Grimme D
 using 3 threads for integral computing
 -------------------------------------------------------
 OpenMP Integral computing Module                
 Release: version 1.0, May 2013, Q-Chem Inc. Pittsburgh 
 -------------------------------------------------------
 using 3 threads for integral computing
 -------------------------------------------------------
 OpenMP Integral computing Module                
 Release: version 1.0, May 2013, Q-Chem Inc. Pittsburgh 
 -------------------------------------------------------
 A restricted SCF calculation will be
 performed using DIIS
 SCF converges when DIIS error is below 1.0e-08
 ---------------------------------------
  Cycle       Energy         DIIS error
 ---------------------------------------
    1    -155.4330035375      3.14e-02  
    2    -154.9870922193      4.07e-03  
    3    -154.9938435635      4.26e-03  
    4    -155.0467242012      4.30e-04  
    5    -155.0472823744      1.64e-04  
    6    -155.0473797352      2.86e-05  
    7    -155.0473836635      4.48e-06  
    8    -155.0473838076      1.36e-06  
    9    -155.0473838189      4.95e-07  
   10    -155.0473838202      1.17e-07  
   11    -155.0473838203      1.71e-08  
   12    -155.0473838203      3.35e-09  Convergence criterion met
 ---------------------------------------
 SCF time:   CPU 66.07s  wall 22.00s 
 SCF   energy in the final basis set =     -155.0473838203
 Total energy in the final basis set =     -155.0473838203
 
 --------------------------------------------------------------
 
                    Orbital Energies (a.u.)
 --------------------------------------------------------------
 
 Alpha MOs
 -- Occupied --
-19.2507 -10.3309 -10.2772  -1.1266  -0.8423  -0.7114  -0.6004  -0.5448
 -0.5108  -0.4711  -0.4558  -0.4080  -0.3606
 -- Virtual --
  0.0631   0.0852   0.0889   0.1023   0.1266   0.1338   0.1353   0.1785
  0.2005   0.2149   0.2386   0.2402   0.2535   0.2840   0.2918   0.3028
  0.3133   0.3360   0.3551   0.3889   0.4576   0.4975   0.5063   0.5209
  0.5679   0.5741   0.5783   0.5968   0.6095   0.6242   0.6439   0.6658
  0.6941   0.7107   0.7612   0.8106   0.8258   0.8878   0.9274   0.9547
  0.9958   1.0357   1.0665   1.1054   1.1183   1.1788   1.1804   1.2066
  1.2231   1.2323   1.2739   1.3084   1.3213   1.3554   1.3770   1.4120
  1.4377   1.4483   1.4654   1.4798   1.5080   1.5233   1.5724   1.5913
  1.6442   1.7351   1.9291   2.0301   2.1236   2.2928   2.3073   2.4808
  2.4919   2.5352   2.5692   2.6120   2.7057   2.8188   2.8476   2.8586
  2.9050   2.9682   2.9823   3.0089   3.0245   3.0372   3.0608   3.0771
  3.1032   3.1868   3.2040   3.2537   3.2648   3.2784   3.2836   3.3404
  3.3549   3.3906   3.4087   3.4198   3.4785   3.5474   3.5697   3.5705
  3.5899   3.6102   3.6440   3.6909   3.7154   3.7536   3.7808   3.8254
  3.8775   3.9130   3.9595   3.9796   3.9875   4.0044   4.0391   4.0596
  4.0778   4.0913   4.1057   4.1468   4.1784   4.2175   4.2883   4.3052
  4.3229   4.3844   4.4252   4.4708   4.5064   4.6035   4.6698   4.7184
  4.7937   4.8845   4.8971   4.9318   4.9649   4.9932   5.0742   5.1589
  5.2029   5.2201   5.2314   5.2485   5.2583   5.3370   5.3658   5.4490
  5.4756   5.6174   5.6728   5.7832   5.9648   6.0278   6.3068   6.3413
  6.3634   6.5047   6.6427   6.7535   7.1550   7.3682   7.4410   7.5545
  7.6988   8.0115  25.1365  25.3611  50.3954
 --------------------------------------------------------------
 
          Ground-State Mulliken Net Atomic Charges

     Atom                 Charge (a.u.)
  ----------------------------------------
      1 C                    -0.126629
      2 C                     0.102397
      3 H                     0.050200
      4 H                     0.027650
      5 H                     0.022743
      6 O                    -0.305928
      7 H                     0.016278
      8 H                     0.027694
      9 H                     0.185594
  ----------------------------------------
  Sum of atomic charges =     0.000000

 -----------------------------------------------------------------
                    Cartesian Multipole Moments
 -----------------------------------------------------------------
    Charge (ESU x 10^10)
                -0.0000
    Dipole Moment (Debye)
         X      -0.8044      Y      -0.1111      Z       1.5116
       Tot       1.7159
    Quadrupole Moments (Debye-Ang)
        XX     -14.7377     XY      -1.4145     YY     -19.2679
        XZ      -3.7702     YZ      -0.3348     ZZ     -19.7490
    Octopole Moments (Debye-Ang^2)
       XXX     232.2625    XXY      -1.3713    XYY      81.8896
       YYY     -36.2066    XXZ       8.8153    XYZ       1.3277
       YYZ      -0.0123    XZZ      84.6751    YZZ     -12.4194
       ZZZ       1.1577
    Hexadecapole Moments (Debye-Ang^3)
      XXXX   -2261.7817   XXXY      90.8695   XXYY    -392.2292
      XYYY     149.4950   YYYY    -103.3436   XXXZ     -14.2176
      XXYZ      -4.8050   XYYZ       1.6068   YYYZ      -3.5457
      XXZZ    -395.3158   XYZZ      51.9750   YYZZ     -22.7427
      XZZZ       2.3712   YZZZ      -1.0800   ZZZZ     -38.3210
 -----------------------------------------------------------------
 Calculating analytic gradient of the SCF energy
 Gradient of SCF Energy
            1           2           3           4           5           6
    1   0.0084051   0.0120532  -0.0014709  -0.0075006   0.0028309  -0.0183317
    2  -0.0004215  -0.0095056  -0.0033877   0.0085066  -0.0086468   0.0184899
    3  -0.0013721  -0.0039000  -0.0129958   0.0030265   0.0080113  -0.0252557
            7           8           9
    1   0.0026322  -0.0048995   0.0062813
    2   0.0021050   0.0100188  -0.0171587
    3   0.0104631  -0.0064185   0.0284412
 Max gradient component =       2.844E-02
 RMS gradient           =       1.144E-02
 Gradient time:  CPU 17.63 s  wall 5.91 s
 Geometry Optimization Parameters
   NAtoms,    NIC,     NZ,  NCons,   NDum,   NFix, NCnnct, MaxDiis
        9      51       0       0       0       0       0       0


** GEOMETRY OPTIMIZATION IN DELOCALIZED INTERNAL COORDINATES **
   Searching for a Minimum

   Optimization Cycle:   1

                       Coordinates (Angstroms)
     ATOM                X               Y               Z
      1  C        -5.3864400000    0.3078000000    0.0229000000
      2  C        -4.1272900000    1.1616200000    0.1003100000
      3  H        -5.5328600000   -0.0603500000   -1.0146600000
      4  H        -6.2685800000    0.9138900000    0.3184900000
      5  H        -5.3008200000   -0.5610000000    0.7093600000
      6  O        -3.0068900000    0.4181500000   -0.2945600000
      7  H        -3.9880000000    1.5597000000    1.1311000000
      8  H        -4.2320300000    2.0332100000   -0.5796900000
      9  H        -2.7599000000   -0.1558000000    0.4770600000
   Point Group: c1    Number of degrees of freedom:    21


   Energy is   -155.047383820


 Attempting to generate delocalized internal coordinates
 Initial Hessian constructed with Jon Baker's OPTIMIZE code

 21 Hessian modes will be used to form the next step
  Hessian Eigenvalues:
     0.006096    0.015458    0.051666    0.058544    0.059035    0.060122
     0.114769    0.138551    0.160000    0.160000    0.160000    0.160000
     0.220010    0.300504    0.322081    0.325332    0.325395    0.325553
     0.325624    0.453867    0.489615

 Minimum search - taking simple RFO step
 Searching for Lamda that Minimizes Along All modes
 Value Taken    Lamda =  -0.00634403
 Step Taken.  Stepsize is  0.162264

                             Maximum     Tolerance    Cnvgd?
         Gradient           0.020990      0.000300      NO
         Displacement       0.067524      0.001200      NO
         Energy change     *********      0.000001      NO


 New Cartesian Coordinates Obtained by Inverse Iteration

 Displacement from previous Coordinates is:  0.228112
 ----------------------------------------------------------------
             Standard Nuclear Orientation (Angstroms)
    I     Atom           X                Y                Z
 ----------------------------------------------------------------
    1      C      -5.4018168880     0.3137226415     0.0304413317
    2      C      -4.1316573914     1.1490203278     0.1124768504
    3      H      -5.5348004256    -0.0629279495    -0.9828580088
    4      H      -6.2792432902     0.9058571130     0.2993686558
    5      H      -5.3484527488    -0.5396607291     0.7088918242
    6      O      -2.9740798848     0.4388497983    -0.2825436412
    7      H      -4.0173149124     1.5593314701     1.1227790572
    8      H      -4.2040162237     2.0016729885    -0.5640724322
    9      H      -2.7114282351    -0.1486456606     0.4258263628
 ----------------------------------------------------------------
 Nuclear Repulsion Energy =          81.74395392 hartrees
 There are       13 alpha and       13 beta electrons
 Applying Cartesian multipole field
    Component          Value
    ---------          -----
     (2,0,0)        1.00000E-12
     (0,2,0)        2.00000E-11
     (0,0,2)       -3.00000E-11
 Nucleus-field energy     =     0.0000000026 hartrees
 Requested basis set is 6-311+G(2df,2pd)
 There are 60 shells and 186 basis functions
 A cutoff of  1.0D-11 yielded   1809 shell pairs
 There are     17508 function pairs (     21740 Cartesian)
 Smallest overlap matrix eigenvalue = 1.21E-04
 Guess MOs from SCF MO coefficient file

 -----------------------------------------------------------------------
  General SCF calculation program by
  Eric Jon Sundstrom, Paul Horn, Yuezhi Mao, Dmitri Zuev, Alec White,
  David Stuck, Shaama M.S., Shane Yost, Joonho Lee, David Small,
  Daniel Levine, Susi Lehtola, Hugh Burton, Evgeny Epifanovsky,
  Bang C. Huynh
 -----------------------------------------------------------------------
 Exchange:     0.2220 Hartree-Fock + 1.0000 wB97X-D + LR-HF
 Correlation:  1.0000 wB97X-D
 Using Euler-Maclaurin-Lebedev (75,302) quadrature formula
 Dispersion:   Grimme D
 using 3 threads for integral computing
 -------------------------------------------------------
 OpenMP Integral computing Module                
 Release: version 1.0, May 2013, Q-Chem Inc. Pittsburgh 
 -------------------------------------------------------
 using 3 threads for integral computing
 -------------------------------------------------------
 OpenMP Integral computing Module                
 Release: version 1.0, May 2013, Q-Chem Inc. Pittsburgh 
 -------------------------------------------------------
 A restricted SCF calculation will be
 performed using DIIS
 SCF converges when DIIS error is below 1.0e-08
 ---------------------------------------
  Cycle       Energy         DIIS error
 ---------------------------------------
    1    -155.0488333926      7.03e-04  
    2    -155.0505064862      1.19e-04  
    3    -155.0505782110      5.47e-05  
    4    -155.0505907341      1.68e-05  
    5    -155.0505922365      4.38e-06  
    6    -155.0505923379      1.85e-06  
    7    -155.0505923499      5.29e-07  
    8    -155.0505923515      8.54e-08  
    9    -155.0505923516      1.84e-08  
   10    -155.0505923516      4.04e-09  Convergence criterion met
 ---------------------------------------
 SCF time:   CPU 57.16s  wall 19.00s 
 SCF   energy in the final basis set =     -155.0505923516
 Total energy in the final basis set =     -155.0505923516
 
 --------------------------------------------------------------
 
                    Orbital Energies (a.u.)
 --------------------------------------------------------------
 
 Alpha MOs
 -- Occupied --
-19.2471 -10.3277 -10.2720  -1.1266  -0.8483  -0.7200  -0.6019  -0.5447
 -0.5145  -0.4722  -0.4573  -0.4098  -0.3635
 -- Virtual --
  0.0647   0.0866   0.0896   0.1026   0.1265   0.1339   0.1372   0.1801
  0.2035   0.2196   0.2416   0.2439   0.2610   0.2871   0.2892   0.3053
  0.3111   0.3390   0.3543   0.3855   0.4571   0.4995   0.5066   0.5229
  0.5708   0.5804   0.5820   0.6009   0.6164   0.6314   0.6561   0.6739
  0.6957   0.7183   0.7677   0.8134   0.8272   0.8847   0.9294   0.9512
  0.9881   1.0434   1.0665   1.1133   1.1265   1.1799   1.1847   1.2123
  1.2284   1.2374   1.2809   1.3078   1.3278   1.3519   1.3824   1.4150
  1.4464   1.4593   1.4765   1.4903   1.5289   1.5371   1.5865   1.6167
  1.6574   1.7091   1.9402   2.0406   2.1209   2.2821   2.2931   2.4657
  2.4755   2.5212   2.5539   2.5910   2.7014   2.8472   2.8536   2.8678
  2.9199   2.9780   2.9984   3.0238   3.0387   3.0554   3.0639   3.0899
  3.1129   3.1929   3.2055   3.2642   3.2746   3.3008   3.3074   3.3395
  3.3497   3.3968   3.4122   3.4166   3.4975   3.5593   3.5800   3.5830
  3.6037   3.6199   3.6505   3.7027   3.7214   3.7667   3.7801   3.8266
  3.9000   3.9093   3.9637   3.9845   4.0124   4.0225   4.0430   4.0839
  4.0936   4.1064   4.1226   4.1812   4.2022   4.2158   4.3047   4.3250
  4.3416   4.4033   4.4685   4.5046   4.5506   4.6470   4.7385   4.7698
  4.8271   4.9298   4.9372   4.9898   5.0108   5.0447   5.1218   5.2090
  5.2397   5.2606   5.2711   5.3074   5.3315   5.3759   5.3926   5.4684
  5.5059   5.6236   5.6813   5.8126   5.9258   6.0285   6.3652   6.3849
  6.4114   6.6529   6.7098   6.8145   7.1337   7.3419   7.4283   7.5561
  7.7167   8.1205  25.1714  25.4297  50.4646
 --------------------------------------------------------------
 
          Ground-State Mulliken Net Atomic Charges

     Atom                 Charge (a.u.)
  ----------------------------------------
      1 C                    -0.120407
      2 C                     0.105316
      3 H                     0.048398
      4 H                     0.028271
      5 H                     0.023742
      6 O                    -0.305919
      7 H                     0.017007
      8 H                     0.027888
      9 H                     0.175705
  ----------------------------------------
  Sum of atomic charges =     0.000000

 -----------------------------------------------------------------
                    Cartesian Multipole Moments
 -----------------------------------------------------------------
    Charge (ESU x 10^10)
                -0.0000
    Dipole Moment (Debye)
         X      -0.8869      Y      -0.1715      Z       1.4739
       Tot       1.7287
    Quadrupole Moments (Debye-Ang)
        XX     -13.7456     XY      -1.2919     YY     -19.1910
        XZ      -3.7433     YZ      -0.2449     ZZ     -19.7986
    Octopole Moments (Debye-Ang^2)
       XXX     223.5249    XXY      -1.6293    XYY      81.3990
       YYY     -36.2407    XXZ       9.1696    XYZ       0.9647
       YYZ      -0.0538    XZZ      84.6203    YZZ     -12.4277
       ZZZ       0.8017
    Hexadecapole Moments (Debye-Ang^3)
      XXXX   -2197.4853   XXXY      90.9140   XXYY    -389.9457
      XYYY     149.2350   YYYY    -101.4224   XXXZ     -16.9455
      XXYZ      -3.4545   XYYZ       1.8375   YYYZ      -3.5248
      XXZZ    -394.6606   XYZZ      51.8146   YYZZ     -22.2436
      XZZZ       4.0087   YZZZ      -1.2937   ZZZZ     -37.3510
 -----------------------------------------------------------------
 Calculating analytic gradient of the SCF energy
 Gradient of SCF Energy
            1           2           3           4           5           6
    1  -0.0026237   0.0038624   0.0004044  -0.0011302   0.0003704  -0.0003213
    2   0.0001069  -0.0024220   0.0005730  -0.0002064   0.0001898   0.0000012
    3   0.0000313  -0.0004099   0.0001889  -0.0000325  -0.0000196  -0.0015027
            7           8           9
    1  -0.0010168  -0.0002946   0.0007495
    2   0.0006319   0.0006796   0.0004460
    3   0.0004023   0.0003390   0.0010031
 Max gradient component =       3.862E-03
 RMS gradient           =       1.159E-03
 Gradient time:  CPU 17.22 s  wall 5.75 s
 Geometry Optimization Parameters
   NAtoms,    NIC,     NZ,  NCons,   NDum,   NFix, NCnnct, MaxDiis
        9      51       0       0       0       0       0       0

 Cartesian Hessian Update
 Hessian updated using BFGS update


** GEOMETRY OPTIMIZATION IN DELOCALIZED INTERNAL COORDINATES **
   Searching for a Minimum

   Optimization Cycle:   2

                       Coordinates (Angstroms)
     ATOM                X               Y               Z
      1  C        -5.4018168880    0.3137226415    0.0304413317
      2  C        -4.1316573914    1.1490203278    0.1124768504
      3  H        -5.5348004256   -0.0629279495   -0.9828580088
      4  H        -6.2792432902    0.9058571130    0.2993686558
      5  H        -5.3484527488   -0.5396607291    0.7088918242
      6  O        -2.9740798848    0.4388497983   -0.2825436412
      7  H        -4.0173149124    1.5593314701    1.1227790572
      8  H        -4.2040162237    2.0016729885   -0.5640724322
      9  H        -2.7114282351   -0.1486456606    0.4258263628
   Point Group: c1    Number of degrees of freedom:    21


   Energy is   -155.050592352

 Hessian updated using BFGS update

 19 Hessian modes will be used to form the next step
  Hessian Eigenvalues:
     0.006096    0.015235    0.052429    0.058677    0.059030    0.060643
     0.114155    0.139039    0.157819    0.162937    0.227540    0.296924
     0.320640    0.323863    0.325381    0.325559    0.330733    0.455043
     0.483495

 Minimum search - taking simple RFO step
 Searching for Lamda that Minimizes Along All modes
 Value Taken    Lamda =  -0.00019069
 Step Taken.  Stepsize is  0.081107

                             Maximum     Tolerance    Cnvgd?
         Gradient           0.002027      0.000300      NO
         Displacement       0.049060      0.001200      NO
         Energy change     -0.003209      0.000001      NO


 New Cartesian Coordinates Obtained by Inverse Iteration

 Displacement from previous Coordinates is:  0.077506
 ----------------------------------------------------------------
             Standard Nuclear Orientation (Angstroms)
    I     Atom           X                Y                Z
 ----------------------------------------------------------------
    1      C      -5.3939659364     0.3120879897     0.0303984037
    2      C      -4.1353946663     1.1579228375     0.1139872238
    3      H      -5.5262974297    -0.0714851157    -0.9805231387
    4      H      -6.2705536394     0.9036973263     0.2959932632
    5      H      -5.3409249497    -0.5376677531     0.7129213760
    6      O      -2.9767812434     0.4471974365    -0.2771212839
    7      H      -4.0174596415     1.5636571684     1.1243555764
    8      H      -4.2051720839     2.0077761153    -0.5645788258
    9      H      -2.7362604096    -0.1659660050     0.4148774054
 ----------------------------------------------------------------
 Nuclear Repulsion Energy =          81.88389719 hartrees
 There are       13 alpha and       13 beta electrons
 Applying Cartesian multipole field
    Component          Value
    ---------          -----
     (2,0,0)        1.00000E-12
     (0,2,0)        2.00000E-11
     (0,0,2)       -3.00000E-11
 Nucleus-field energy     =     0.0000000026 hartrees
 Requested basis set is 6-311+G(2df,2pd)
 There are 60 shells and 186 basis functions
 A cutoff of  1.0D-11 yielded   1809 shell pairs
 There are     17508 function pairs (     21740 Cartesian)
 Smallest overlap matrix eigenvalue = 1.22E-04
 Guess MOs from SCF MO coefficient file

 -----------------------------------------------------------------------
  General SCF calculation program by
  Eric Jon Sundstrom, Paul Horn, Yuezhi Mao, Dmitri Zuev, Alec White,
  David Stuck, Shaama M.S., Shane Yost, Joonho Lee, David Small,
  Daniel Levine, Susi Lehtola, Hugh Burton, Evgeny Epifanovsky,
  Bang C. Huynh
 -----------------------------------------------------------------------
 Exchange:     0.2220 Hartree-Fock + 1.0000 wB97X-D + LR-HF
 Correlation:  1.0000 wB97X-D
 Using Euler-Maclaurin-Lebedev (75,302) quadrature formula
 Dispersion:   Grimme D
 using 3 threads for integral computing
 -------------------------------------------------------
 OpenMP Integral computing Module                
 Release: version 1.0, May 2013, Q-Chem Inc. Pittsburgh 
 -------------------------------------------------------
 using 3 threads for integral computing
 -------------------------------------------------------
 OpenMP Integral computing Module                
 Release: version 1.0, May 2013, Q-Chem Inc. Pittsburgh 
 -------------------------------------------------------
 A restricted SCF calculation will be
 performed using DIIS
 SCF converges when DIIS error is below 1.0e-08
 ---------------------------------------
  Cycle       Energy         DIIS error
 ---------------------------------------
    1    -155.0504444109      2.58e-04  
    2    -155.0507053221      4.08e-05  
    3    -155.0507163707      1.18e-05  
    4    -155.0507170491      7.37e-06  
    5    -155.0507172491      2.30e-06  
    6    -155.0507172714      5.62e-07  
    7    -155.0507172733      1.77e-07  
    8    -155.0507172736      3.24e-08  
    9    -155.0507172736      8.65e-09  Convergence criterion met
 ---------------------------------------
 SCF time:   CPU 51.65s  wall 17.00s 
 SCF   energy in the final basis set =     -155.0507172736
 Total energy in the final basis set =     -155.0507172736
 
 --------------------------------------------------------------
 
                    Orbital Energies (a.u.)
 --------------------------------------------------------------
 
 Alpha MOs
 -- Occupied --
-19.2461 -10.3272 -10.2719  -1.1265  -0.8490  -0.7208  -0.6013  -0.5451
 -0.5158  -0.4722  -0.4573  -0.4100  -0.3630
 -- Virtual --
  0.0649   0.0868   0.0895   0.1025   0.1266   0.1338   0.1371   0.1804
  0.2027   0.2193   0.2416   0.2440   0.2625   0.2858   0.2897   0.3059
  0.3129   0.3381   0.3519   0.3850   0.4569   0.4991   0.5050   0.5230
  0.5711   0.5805   0.5814   0.6036   0.6154   0.6329   0.6599   0.6744
  0.6954   0.7180   0.7621   0.8118   0.8312   0.8869   0.9310   0.9515
  0.9894   1.0457   1.0646   1.1138   1.1296   1.1789   1.1846   1.2137
  1.2281   1.2369   1.2818   1.3071   1.3270   1.3555   1.3847   1.4159
  1.4473   1.4606   1.4765   1.4901   1.5248   1.5374   1.5897   1.6186
  1.6578   1.7116   1.9414   2.0379   2.1177   2.2833   2.2931   2.4655
  2.4734   2.5193   2.5555   2.5923   2.7029   2.8505   2.8542   2.8695
  2.9198   2.9768   3.0023   3.0234   3.0410   3.0554   3.0655   3.0895
  3.1080   3.1932   3.2082   3.2638   3.2769   3.2998   3.3066   3.3457
  3.3522   3.4015   3.4130   3.4175   3.4996   3.5614   3.5802   3.5829
  3.6061   3.6193   3.6503   3.7053   3.7267   3.7639   3.7888   3.8274
  3.9015   3.9109   3.9648   3.9877   4.0107   4.0219   4.0411   4.0858
  4.0942   4.1089   4.1255   4.1810   4.2053   4.2195   4.3049   4.3252
  4.3414   4.4023   4.4706   4.5093   4.5499   4.6502   4.7388   4.7792
  4.8349   4.9333   4.9407   4.9912   5.0147   5.0594   5.1239   5.2139
  5.2372   5.2648   5.2766   5.3065   5.3338   5.3751   5.3982   5.4772
  5.5108   5.6202   5.6834   5.8212   5.9255   6.0288   6.3661   6.3895
  6.4106   6.6613   6.7129   6.8227   7.1332   7.3431   7.4285   7.5570
  7.7212   8.1251  25.1764  25.4351  50.4694
 --------------------------------------------------------------
 
          Ground-State Mulliken Net Atomic Charges

     Atom                 Charge (a.u.)
  ----------------------------------------
      1 C                    -0.122748
      2 C                     0.108199
      3 H                     0.048808
      4 H                     0.027820
      5 H                     0.024028
      6 O                    -0.307319
      7 H                     0.017839
      8 H                     0.027954
      9 H                     0.175418
  ----------------------------------------
  Sum of atomic charges =     0.000000

 -----------------------------------------------------------------
                    Cartesian Multipole Moments
 -----------------------------------------------------------------
    Charge (ESU x 10^10)
                -0.0000
    Dipole Moment (Debye)
         X      -0.9335      Y      -0.2072      Z       1.4437
       Tot       1.7317
    Quadrupole Moments (Debye-Ang)
        XX     -13.5032     XY      -1.1911     YY     -19.1136
        XZ      -3.6845     YZ      -0.2608     ZZ     -19.8066
    Octopole Moments (Debye-Ang^2)
       XXX     222.6019    XXY      -2.0200    XYY      81.0890
       YYY     -36.3420    XXZ       9.0045    XYZ       1.0176
       YYZ      -0.1258    XZZ      84.6021    YZZ     -12.4969
       ZZZ       0.7022
    Hexadecapole Moments (Debye-Ang^3)
      XXXX   -2193.2896   XXXY      92.9642   XXYY    -388.5746
      XYYY     149.5244   YYYY    -102.0727   XXXZ     -16.0939
      XXYZ      -3.6757   XYYZ       2.1263   YYYZ      -3.6705
      XXZZ    -394.1842   XYZZ      52.0699   YYZZ     -22.3338
      XZZZ       4.3116   YZZZ      -1.3388   ZZZZ     -37.2443
 -----------------------------------------------------------------
 Calculating analytic gradient of the SCF energy
 Gradient of SCF Energy
            1           2           3           4           5           6
    1  -0.0006542   0.0010894   0.0000476   0.0005750  -0.0000377  -0.0013749
    2  -0.0004763   0.0005046   0.0001307  -0.0001981   0.0001728  -0.0013985
    3  -0.0000589  -0.0002480   0.0002245  -0.0001783  -0.0003274   0.0008265
            7           8           9
    1  -0.0001599   0.0001015   0.0004131
    2  -0.0002813   0.0001762   0.0013699
    3  -0.0001829   0.0004559  -0.0005113
 Max gradient component =       1.398E-03
 RMS gradient           =       6.085E-04
 Gradient time:  CPU 17.31 s  wall 5.78 s
 Geometry Optimization Parameters
   NAtoms,    NIC,     NZ,  NCons,   NDum,   NFix, NCnnct, MaxDiis
        9      51       0       0       0       0       0       0

 Cartesian Hessian Update
 Hessian updated using BFGS update


** GEOMETRY OPTIMIZATION IN DELOCALIZED INTERNAL COORDINATES **
   Searching for a Minimum

   Optimization Cycle:   3

                       Coordinates (Angstroms)
     ATOM                X               Y               Z
      1  C        -5.3939659364    0.3120879897    0.0303984037
      2  C        -4.1353946663    1.1579228375    0.1139872238
      3  H        -5.5262974297   -0.0714851157   -0.9805231387
      4  H        -6.2705536394    0.9036973263    0.2959932632
      5  H        -5.3409249497   -0.5376677531    0.7129213760
      6  O        -2.9767812434    0.4471974365   -0.2771212839
      7  H        -4.0174596415    1.5636571684    1.1243555764
      8  H        -4.2051720839    2.0077761153   -0.5645788258
      9  H        -2.7362604096   -0.1659660050    0.4148774054
   Point Group: c1    Number of degrees of freedom:    21


   Energy is   -155.050717274

 Hessian updated using BFGS update

 20 Hessian modes will be used to form the next step
  Hessian Eigenvalues:
     0.005942    0.007278    0.053156    0.058732    0.058949    0.063242
     0.114803    0.139082    0.159504    0.160827    0.170799    0.254727
     0.303732    0.322506    0.325089    0.325382    0.327846    0.341881
     0.464213    0.518223

 Minimum search - taking simple RFO step
 Searching for Lamda that Minimizes Along All modes
 Value Taken    Lamda =  -0.00013387
 Step Taken.  Stepsize is  0.132391

                             Maximum     Tolerance    Cnvgd?
         Gradient           0.000930      0.000300      NO
         Displacement       0.086567      0.001200      NO
         Energy change     -0.000125      0.000001      NO


 New Cartesian Coordinates Obtained by Inverse Iteration

 Displacement from previous Coordinates is:  0.109553
 ----------------------------------------------------------------
             Standard Nuclear Orientation (Angstroms)
    I     Atom           X                Y                Z
 ----------------------------------------------------------------
    1      C      -5.3859041054     0.3116421778     0.0316724916
    2      C      -4.1371997116     1.1668731488     0.1169892319
    3      H      -5.5129315190    -0.0810603233    -0.9770058129
    4      H      -6.2672252363     0.8996628498     0.2906614484
    5      H      -5.3315612344    -0.5331315111     0.7209485306
    6      O      -2.9713768882     0.4622569353    -0.2693828220
    7      H      -4.0213623145     1.5727092554     1.1274337695
    8      H      -4.2070739715     2.0127798373    -0.5657736520
    9      H      -2.7681750191    -0.1945123699     0.3947668149
 ----------------------------------------------------------------
 Nuclear Repulsion Energy =          81.92259999 hartrees
 There are       13 alpha and       13 beta electrons
 Applying Cartesian multipole field
    Component          Value
    ---------          -----
     (2,0,0)        1.00000E-12
     (0,2,0)        2.00000E-11
     (0,0,2)       -3.00000E-11
 Nucleus-field energy     =     0.0000000026 hartrees
 Requested basis set is 6-311+G(2df,2pd)
 There are 60 shells and 186 basis functions
 A cutoff of  1.0D-11 yielded   1809 shell pairs
 There are     17508 function pairs (     21740 Cartesian)
 Smallest overlap matrix eigenvalue = 1.26E-04
 Guess MOs from SCF MO coefficient file

 -----------------------------------------------------------------------
  General SCF calculation program by
  Eric Jon Sundstrom, Paul Horn, Yuezhi Mao, Dmitri Zuev, Alec White,
  David Stuck, Shaama M.S., Shane Yost, Joonho Lee, David Small,
  Daniel Levine, Susi Lehtola, Hugh Burton, Evgeny Epifanovsky,
  Bang C. Huynh
 -----------------------------------------------------------------------
 Exchange:     0.2220 Hartree-Fock + 1.0000 wB97X-D + LR-HF
 Correlation:  1.0000 wB97X-D
 Using Euler-Maclaurin-Lebedev (75,302) quadrature formula
 Dispersion:   Grimme D
 using 3 threads for integral computing
 -------------------------------------------------------
 OpenMP Integral computing Module                
 Release: version 1.0, May 2013, Q-Chem Inc. Pittsburgh 
 -------------------------------------------------------
 using 3 threads for integral computing
 -------------------------------------------------------
 OpenMP Integral computing Module                
 Release: version 1.0, May 2013, Q-Chem Inc. Pittsburgh 
 -------------------------------------------------------
 A restricted SCF calculation will be
 performed using DIIS
 SCF converges when DIIS error is below 1.0e-08
 ---------------------------------------
  Cycle       Energy         DIIS error
 ---------------------------------------
    1    -155.0500798270      4.26e-04  
    2    -155.0507920146      6.89e-05  
    3    -155.0508217789      1.73e-05  
    4    -155.0508233884      1.16e-05  
    5    -155.0508238375      3.81e-06  
    6    -155.0508239028      5.56e-07  
    7    -155.0508239066      2.78e-07  
    8    -155.0508239072      6.09e-08  
    9    -155.0508239073      1.43e-08  
   10    -155.0508239073      2.92e-09  Convergence criterion met
 ---------------------------------------
 SCF time:   CPU 57.28s  wall 19.00s 
 SCF   energy in the final basis set =     -155.0508239073
 Total energy in the final basis set =     -155.0508239073
 
 --------------------------------------------------------------
 
                    Orbital Energies (a.u.)
 --------------------------------------------------------------
 
 Alpha MOs
 -- Occupied --
-19.2457 -10.3271 -10.2726  -1.1258  -0.8497  -0.7214  -0.5996  -0.5451
 -0.5183  -0.4716  -0.4573  -0.4107  -0.3629
 -- Virtual --
  0.0650   0.0871   0.0892   0.1023   0.1265   0.1337   0.1370   0.1807
  0.2010   0.2185   0.2410   0.2440   0.2639   0.2848   0.2895   0.3062
  0.3144   0.3364   0.3476   0.3838   0.4570   0.4975   0.5026   0.5234
  0.5704   0.5795   0.5805   0.6062   0.6140   0.6336   0.6648   0.6751
  0.6936   0.7164   0.7531   0.8092   0.8373   0.8905   0.9308   0.9508
  0.9895   1.0490   1.0606   1.1135   1.1349   1.1771   1.1845   1.2142
  1.2281   1.2365   1.2819   1.3050   1.3259   1.3575   1.3835   1.4160
  1.4477   1.4627   1.4752   1.4896   1.5167   1.5373   1.5918   1.6224
  1.6561   1.7119   1.9410   2.0389   2.1151   2.2818   2.2924   2.4641
  2.4718   2.5145   2.5537   2.5920   2.7040   2.8509   2.8524   2.8746
  2.9175   2.9760   3.0045   3.0242   3.0443   3.0554   3.0641   3.0895
  3.0969   3.1892   3.2125   3.2638   3.2793   3.2963   3.3058   3.3501
  3.3528   3.4059   3.4104   3.4193   3.5032   3.5626   3.5791   3.5819
  3.6070   3.6158   3.6513   3.7077   3.7287   3.7594   3.7949   3.8290
  3.8993   3.9135   3.9637   3.9873   4.0063   4.0200   4.0388   4.0835
  4.0932   4.1090   4.1293   4.1795   4.2068   4.2229   4.3048   4.3226
  4.3417   4.3998   4.4717   4.5123   4.5454   4.6511   4.7320   4.7835
  4.8429   4.9344   4.9417   4.9917   5.0128   5.0680   5.1240   5.2143
  5.2288   5.2624   5.2806   5.3058   5.3321   5.3719   5.4031   5.4842
  5.5167   5.6077   5.6807   5.8263   5.9235   6.0265   6.3638   6.3889
  6.4084   6.6600   6.7092   6.8233   7.1316   7.3462   7.4263   7.5554
  7.7232   8.1195  25.1765  25.4351  50.4686
 --------------------------------------------------------------
 
          Ground-State Mulliken Net Atomic Charges

     Atom                 Charge (a.u.)
  ----------------------------------------
      1 C                    -0.123081
      2 C                     0.107773
      3 H                     0.049110
      4 H                     0.028148
      5 H                     0.024077
      6 O                    -0.309213
      7 H                     0.019253
      8 H                     0.027999
      9 H                     0.175934
  ----------------------------------------
  Sum of atomic charges =     0.000000

 -----------------------------------------------------------------
                    Cartesian Multipole Moments
 -----------------------------------------------------------------
    Charge (ESU x 10^10)
                -0.0000
    Dipole Moment (Debye)
         X      -1.0157      Y      -0.2756      Z       1.3886
       Tot       1.7424
    Quadrupole Moments (Debye-Ang)
        XX     -13.0273     XY      -1.0161     YY     -19.0455
        XZ      -3.5746     YZ      -0.2778     ZZ     -19.8436
    Octopole Moments (Debye-Ang^2)
       XXX     220.2006    XXY      -2.5347    XYY      80.7735
       YYY     -36.5933    XXZ       8.7523    XYZ       1.0654
       YYZ      -0.2201    XZZ      84.6239    YZZ     -12.6162
       ZZZ       0.5135
    Hexadecapole Moments (Debye-Ang^3)
      XXXX   -2179.1780   XXXY      94.7069   XXYY    -387.1573
      XYYY     150.2545   YYYY    -103.0792   XXXZ     -15.1293
      XXYZ      -3.8656   XYYZ       2.5240   YYYZ      -3.8342
      XXZZ    -393.7083   XYZZ      52.4706   YYZZ     -22.4693
      XZZZ       5.0052   YZZZ      -1.4090   ZZZZ     -37.1772
 -----------------------------------------------------------------
 Calculating analytic gradient of the SCF energy
 Gradient of SCF Energy
            1           2           3           4           5           6
    1   0.0009936  -0.0013505  -0.0001046   0.0006497  -0.0001228  -0.0010393
    2  -0.0001569   0.0014973  -0.0002070   0.0001028   0.0000094  -0.0014330
    3  -0.0001346   0.0001287  -0.0000233  -0.0000755  -0.0002546   0.0006167
            7           8           9
    1   0.0002392   0.0002787   0.0004559
    2  -0.0006538  -0.0001184   0.0009596
    3  -0.0001852   0.0002635  -0.0003356
 Max gradient component =       1.497E-03
 RMS gradient           =       6.418E-04
 Gradient time:  CPU 17.44 s  wall 5.82 s
 Geometry Optimization Parameters
   NAtoms,    NIC,     NZ,  NCons,   NDum,   NFix, NCnnct, MaxDiis
        9      51       0       0       0       0       0       0

 Cartesian Hessian Update
 Hessian updated using BFGS update


** GEOMETRY OPTIMIZATION IN DELOCALIZED INTERNAL COORDINATES **
   Searching for a Minimum

   Optimization Cycle:   4

                       Coordinates (Angstroms)
     ATOM                X               Y               Z
      1  C        -5.3859041054    0.3116421778    0.0316724916
      2  C        -4.1371997116    1.1668731488    0.1169892319
      3  H        -5.5129315190   -0.0810603233   -0.9770058129
      4  H        -6.2672252363    0.8996628498    0.2906614484
      5  H        -5.3315612344   -0.5331315111    0.7209485306
      6  O        -2.9713768882    0.4622569353   -0.2693828220
      7  H        -4.0213623145    1.5727092554    1.1274337695
      8  H        -4.2070739715    2.0127798373   -0.5657736520
      9  H        -2.7681750191   -0.1945123699    0.3947668149
   Point Group: c1    Number of degrees of freedom:    21


   Energy is   -155.050823907

 Hessian updated using BFGS update

 21 Hessian modes will be used to form the next step
  Hessian Eigenvalues:
     0.002496    0.006156    0.053090    0.058835    0.059042    0.067404
     0.115295    0.139080    0.159411    0.160162    0.160567    0.174266
     0.254156    0.319980    0.323118    0.325298    0.325616    0.330270
     0.368830    0.463220    0.502530

 Minimum search - taking simple RFO step
 Searching for Lamda that Minimizes Along All modes
 Value Taken    Lamda =  -0.00018419
 Step Taken.  Stepsize is  0.249698

                             Maximum     Tolerance    Cnvgd?
         Gradient           0.000820      0.000300      NO
         Displacement       0.170047      0.001200      NO
         Energy change     -0.000107      0.000001      NO


 New Cartesian Coordinates Obtained by Inverse Iteration

 Displacement from previous Coordinates is:  0.197403
 ----------------------------------------------------------------
             Standard Nuclear Orientation (Angstroms)
    I     Atom           X                Y                Z
 ----------------------------------------------------------------
    1      C      -5.3738886330     0.3106421162     0.0352350527
    2      C      -4.1365814569     1.1800191819     0.1228750833
    3      H      -5.4899560961    -0.0943680960    -0.9702106415
    4      H      -6.2648043224     0.8900180236     0.2825327133
    5      H      -5.3172203474    -0.5264494786     0.7347870604
    6      O      -2.9567439143     0.4882469629    -0.2503103192
    7      H      -4.0310765152     1.5938365860     1.1316639849
    8      H      -4.2079445607     2.0183841388    -0.5687132364
    9      H      -2.8245941539    -0.2431094348     0.3524503025
 ----------------------------------------------------------------
 Nuclear Repulsion Energy =          81.92290027 hartrees
 There are       13 alpha and       13 beta electrons
 Applying Cartesian multipole field
    Component          Value
    ---------          -----
     (2,0,0)        1.00000E-12
     (0,2,0)        2.00000E-11
     (0,0,2)       -3.00000E-11
 Nucleus-field energy     =     0.0000000026 hartrees
 Requested basis set is 6-311+G(2df,2pd)
 There are 60 shells and 186 basis functions
 A cutoff of  1.0D-11 yielded   1811 shell pairs
 There are     17518 function pairs (     21752 Cartesian)
 Smallest overlap matrix eigenvalue = 1.33E-04
 Guess MOs from SCF MO coefficient file

 -----------------------------------------------------------------------
  General SCF calculation program by
  Eric Jon Sundstrom, Paul Horn, Yuezhi Mao, Dmitri Zuev, Alec White,
  David Stuck, Shaama M.S., Shane Yost, Joonho Lee, David Small,
  Daniel Levine, Susi Lehtola, Hugh Burton, Evgeny Epifanovsky,
  Bang C. Huynh
 -----------------------------------------------------------------------
 Exchange:     0.2220 Hartree-Fock + 1.0000 wB97X-D + LR-HF
 Correlation:  1.0000 wB97X-D
 Using Euler-Maclaurin-Lebedev (75,302) quadrature formula
 Dispersion:   Grimme D
 using 3 threads for integral computing
 -------------------------------------------------------
 OpenMP Integral computing Module                
 Release: version 1.0, May 2013, Q-Chem Inc. Pittsburgh 
 -------------------------------------------------------
 using 3 threads for integral computing
 -------------------------------------------------------
 OpenMP Integral computing Module                
 Release: version 1.0, May 2013, Q-Chem Inc. Pittsburgh 
 -------------------------------------------------------
 A restricted SCF calculation will be
 performed using DIIS
 SCF converges when DIIS error is below 1.0e-08
 ---------------------------------------
  Cycle       Energy         DIIS error
 ---------------------------------------
    1    -155.0483128718      7.98e-04  
    2    -155.0508112034      1.31e-04  
    3    -155.0509148219      4.06e-05  
    4    -155.0509212507      2.76e-05  
    5    -155.0509237245      6.78e-06  
    6    -155.0509239570      1.23e-06  
    7    -155.0509239724      5.84e-07  
    8    -155.0509239753      1.11e-07  
    9    -155.0509239754      2.85e-08  
   10    -155.0509239755      6.76e-09  Convergence criterion met
 ---------------------------------------
 SCF time:   CPU 57.20s  wall 19.00s 
 SCF   energy in the final basis set =     -155.0509239755
 Total energy in the final basis set =     -155.0509239755
 
 --------------------------------------------------------------
 
                    Orbital Energies (a.u.)
 --------------------------------------------------------------
 
 Alpha MOs
 -- Occupied --
-19.2457 -10.3271 -10.2742  -1.1251  -0.8502  -0.7226  -0.5964  -0.5449
 -0.5229  -0.4703  -0.4577  -0.4121  -0.3626
 -- Virtual --
  0.0652   0.0875   0.0889   0.1019   0.1266   0.1337   0.1369   0.1812
  0.1978   0.2172   0.2401   0.2441   0.2655   0.2838   0.2888   0.3068
  0.3168   0.3299   0.3435   0.3822   0.4575   0.4931   0.5013   0.5245
  0.5686   0.5776   0.5787   0.6085   0.6136   0.6329   0.6681   0.6805
  0.6904   0.7133   0.7393   0.8051   0.8465   0.8962   0.9292   0.9508
  0.9882   1.0532   1.0592   1.1114   1.1424   1.1742   1.1839   1.2126
  1.2293   1.2364   1.2783   1.3007   1.3237   1.3593   1.3789   1.4152
  1.4495   1.4662   1.4740   1.4875   1.5048   1.5375   1.5951   1.6288
  1.6523   1.7117   1.9391   2.0457   2.1132   2.2788   2.2848   2.4617
  2.4712   2.5050   2.5493   2.5906   2.7055   2.8422   2.8508   2.8825
  2.9146   2.9753   3.0064   3.0274   3.0478   3.0545   3.0626   3.0807
  3.0911   3.1784   3.2193   3.2634   3.2845   3.2897   3.3074   3.3499
  3.3597   3.4022   3.4114   3.4259   3.5091   3.5647   3.5747   3.5818
  3.6091   3.6106   3.6554   3.7106   3.7283   3.7543   3.7955   3.8390
  3.8921   3.9203   3.9585   3.9813   3.9960   4.0114   4.0398   4.0755
  4.0916   4.1092   4.1355   4.1795   4.2083   4.2322   4.3016   4.3190
  4.3438   4.3949   4.4706   4.5124   4.5390   4.6499   4.7207   4.7889
  4.8565   4.9335   4.9453   4.9941   5.0064   5.0714   5.1191   5.2145
  5.2180   5.2561   5.2851   5.3073   5.3307   5.3664   5.4126   5.4850
  5.5336   5.5839   5.6794   5.8285   5.9235   6.0246   6.3586   6.3864
  6.4063   6.6566   6.7028   6.8216   7.1281   7.3522   7.4234   7.5543
  7.7232   8.1114  25.1745  25.4329  50.4671
 --------------------------------------------------------------
 
          Ground-State Mulliken Net Atomic Charges

     Atom                 Charge (a.u.)
  ----------------------------------------
      1 C                    -0.119212
      2 C                     0.102076
      3 H                     0.049358
      4 H                     0.029143
      5 H                     0.023738
      6 O                    -0.310825
      7 H                     0.021077
      8 H                     0.027819
      9 H                     0.176825
  ----------------------------------------
  Sum of atomic charges =     0.000000

 -----------------------------------------------------------------
                    Cartesian Multipole Moments
 -----------------------------------------------------------------
    Charge (ESU x 10^10)
                -0.0000
    Dipole Moment (Debye)
         X      -1.1667      Y      -0.3970      Z       1.2671
       Tot       1.7676
    Quadrupole Moments (Debye-Ang)
        XX     -12.1214     XY      -0.6877     YY     -18.9436
        XZ      -3.3195     YZ      -0.2905     ZZ     -19.9225
    Octopole Moments (Debye-Ang^2)
       XXX     215.3094    XXY      -3.5194    XYY      80.2884
       YYY     -37.0470    XXZ       8.1715    XYZ       1.0888
       YYZ      -0.3896    XZZ      84.6780    YZZ     -12.8188
       ZZZ       0.0563
    Hexadecapole Moments (Debye-Ang^3)
      XXXX   -2148.9191   XXXY      97.6767   XXYY    -385.0156
      XYYY     151.5135   YYYY    -104.8428   XXXZ     -13.2447
      XXYZ      -4.0076   XYYZ       3.1987   YYYZ      -4.1133
      XXZZ    -392.8658   XYZZ      53.1001   YYZZ     -22.6995
      XZZZ       6.6806   YZZZ      -1.5936   ZZZZ     -36.9875
 -----------------------------------------------------------------
 Calculating analytic gradient of the SCF energy
 Gradient of SCF Energy
            1           2           3           4           5           6
    1   0.0016665  -0.0029970  -0.0001367   0.0002561  -0.0002135   0.0004880
    2   0.0002619   0.0013895  -0.0003339   0.0001855  -0.0001667  -0.0006362
    3  -0.0001525   0.0005815  -0.0001170   0.0000243  -0.0000673  -0.0001936
            7           8           9
    1   0.0004357   0.0005236  -0.0000227
    2  -0.0005703  -0.0003363   0.0002065
    3  -0.0000545  -0.0000113  -0.0000096
 Max gradient component =       2.997E-03
 RMS gradient           =       7.715E-04
 Gradient time:  CPU 17.46 s  wall 5.83 s
 Geometry Optimization Parameters
   NAtoms,    NIC,     NZ,  NCons,   NDum,   NFix, NCnnct, MaxDiis
        9      51       0       0       0       0       0       0

 Cartesian Hessian Update
 Hessian updated using BFGS update


** GEOMETRY OPTIMIZATION IN DELOCALIZED INTERNAL COORDINATES **
   Searching for a Minimum

   Optimization Cycle:   5

                       Coordinates (Angstroms)
     ATOM                X               Y               Z
      1  C        -5.3738886330    0.3106421162    0.0352350527
      2  C        -4.1365814569    1.1800191819    0.1228750833
      3  H        -5.4899560961   -0.0943680960   -0.9702106415
      4  H        -6.2648043224    0.8900180236    0.2825327133
      5  H        -5.3172203474   -0.5264494786    0.7347870604
      6  O        -2.9567439143    0.4882469629   -0.2503103192
      7  H        -4.0310765152    1.5938365860    1.1316639849
      8  H        -4.2079445607    2.0183841388   -0.5687132364
      9  H        -2.8245941539   -0.2431094348    0.3524503025
   Point Group: c1    Number of degrees of freedom:    21


   Energy is   -155.050923975

 Hessian updated using BFGS update

 21 Hessian modes will be used to form the next step
  Hessian Eigenvalues:
     0.002609    0.006159    0.053151    0.058859    0.059070    0.067006
     0.115936    0.139331    0.160059    0.160180    0.161539    0.172535
     0.251967    0.319053    0.322365    0.325241    0.325401    0.330894
     0.354009    0.465729    0.501946

 Minimum search - taking simple RFO step
 Searching for Lamda that Minimizes Along All modes
 Value Taken    Lamda =  -0.00002323
 Step Taken.  Stepsize is  0.033179

                             Maximum     Tolerance    Cnvgd?
         Gradient           0.001261      0.000300      NO
         Displacement       0.021911      0.001200      NO
         Energy change     -0.000100      0.000001      NO


 New Cartesian Coordinates Obtained by Inverse Iteration

 Displacement from previous Coordinates is:  0.022223
 ----------------------------------------------------------------
             Standard Nuclear Orientation (Angstroms)
    I     Atom           X                Y                Z
 ----------------------------------------------------------------
    1      C      -5.3736119706     0.3106485076     0.0357751014
    2      C      -4.1346261762     1.1802448927     0.1228789016
    3      H      -5.4892955047    -0.0921338115    -0.9704650379
    4      H      -6.2654451750     0.8882329298     0.2841895350
    5      H      -5.3147295564    -0.5270813995     0.7343656454
    6      O      -2.9538043794     0.4897152759    -0.2464884004
    7      H      -4.0334667491     1.5985825134     1.1306342346
    8      H      -4.2092739102     2.0177868974    -0.5700088668
    9      H      -2.8285565785    -0.2487758059     0.3494288872
 ----------------------------------------------------------------
 Nuclear Repulsion Energy =          81.90176156 hartrees
 There are       13 alpha and       13 beta electrons
 Applying Cartesian multipole field
    Component          Value
    ---------          -----
     (2,0,0)        1.00000E-12
     (0,2,0)        2.00000E-11
     (0,0,2)       -3.00000E-11
 Nucleus-field energy     =     0.0000000026 hartrees
 Requested basis set is 6-311+G(2df,2pd)
 There are 60 shells and 186 basis functions
 A cutoff of  1.0D-11 yielded   1811 shell pairs
 There are     17518 function pairs (     21752 Cartesian)
 Smallest overlap matrix eigenvalue = 1.35E-04
 Guess MOs from SCF MO coefficient file

 -----------------------------------------------------------------------
  General SCF calculation program by
  Eric Jon Sundstrom, Paul Horn, Yuezhi Mao, Dmitri Zuev, Alec White,
  David Stuck, Shaama M.S., Shane Yost, Joonho Lee, David Small,
  Daniel Levine, Susi Lehtola, Hugh Burton, Evgeny Epifanovsky,
  Bang C. Huynh
 -----------------------------------------------------------------------
 Exchange:     0.2220 Hartree-Fock + 1.0000 wB97X-D + LR-HF
 Correlation:  1.0000 wB97X-D
 Using Euler-Maclaurin-Lebedev (75,302) quadrature formula
 Dispersion:   Grimme D
 using 3 threads for integral computing
 -------------------------------------------------------
 OpenMP Integral computing Module                
 Release: version 1.0, May 2013, Q-Chem Inc. Pittsburgh 
 -------------------------------------------------------
 using 3 threads for integral computing
 -------------------------------------------------------
 OpenMP Integral computing Module                
 Release: version 1.0, May 2013, Q-Chem Inc. Pittsburgh 
 -------------------------------------------------------
 A restricted SCF calculation will be
 performed using DIIS
 SCF converges when DIIS error is below 1.0e-08
 ---------------------------------------
  Cycle       Energy         DIIS error
 ---------------------------------------
    1    -155.0509084945      8.86e-05  
    2    -155.0509386178      1.51e-05  
    3    -155.0509398714      6.85e-06  
    4    -155.0509400198      3.75e-06  
    5    -155.0509400674      7.59e-07  
    6    -155.0509400705      2.07e-07  
    7    -155.0509400708      6.12e-08  
    8    -155.0509400709      1.06e-08  
    9    -155.0509400709      3.51e-09  Convergence criterion met
 ---------------------------------------
 SCF time:   CPU 51.52s  wall 17.00s 
 SCF   energy in the final basis set =     -155.0509400709
 Total energy in the final basis set =     -155.0509400709
 
 --------------------------------------------------------------
 
                    Orbital Energies (a.u.)
 --------------------------------------------------------------
 
 Alpha MOs
 -- Occupied --
-19.2460 -10.3273 -10.2744  -1.1254  -0.8500  -0.7228  -0.5961  -0.5450
 -0.5234  -0.4699  -0.4579  -0.4121  -0.3627
 -- Virtual --
  0.0652   0.0876   0.0889   0.1019   0.1266   0.1337   0.1369   0.1813
  0.1975   0.2170   0.2402   0.2442   0.2654   0.2841   0.2888   0.3067
  0.3168   0.3291   0.3433   0.3818   0.4576   0.4927   0.5011   0.5247
  0.5682   0.5775   0.5787   0.6083   0.6133   0.6325   0.6681   0.6812
  0.6902   0.7129   0.7381   0.8044   0.8474   0.8968   0.9284   0.9510
  0.9876   1.0523   1.0602   1.1110   1.1431   1.1741   1.1835   1.2126
  1.2295   1.2364   1.2777   1.2999   1.3234   1.3581   1.3776   1.4154
  1.4498   1.4661   1.4736   1.4867   1.5041   1.5374   1.5953   1.6292
  1.6518   1.7118   1.9386   2.0480   2.1144   2.2793   2.2838   2.4611
  2.4717   2.5028   2.5488   2.5901   2.7055   2.8397   2.8514   2.8826
  2.9146   2.9752   3.0061   3.0284   3.0472   3.0542   3.0627   3.0793
  3.0913   3.1772   3.2200   3.2633   3.2861   3.2894   3.3074   3.3490
  3.3595   3.4016   3.4108   3.4251   3.5087   3.5646   3.5741   3.5820
  3.6083   3.6111   3.6557   3.7110   3.7274   3.7542   3.7936   3.8394
  3.8914   3.9205   3.9567   3.9805   3.9940   4.0109   4.0400   4.0741
  4.0917   4.1095   4.1350   4.1794   4.2079   4.2321   4.3011   4.3195
  4.3453   4.3947   4.4701   4.5109   4.5384   4.6487   4.7193   4.7880
  4.8561   4.9330   4.9459   4.9942   5.0053   5.0649   5.1193   5.2139
  5.2180   5.2547   5.2840   5.3081   5.3303   5.3660   5.4120   5.4828
  5.5347   5.5807   5.6794   5.8254   5.9257   6.0273   6.3577   6.3859
  6.4060   6.6552   6.7044   6.8205   7.1275   7.3523   7.4238   7.5539
  7.7240   8.1103  25.1740  25.4317  50.4665
 --------------------------------------------------------------
 
          Ground-State Mulliken Net Atomic Charges

     Atom                 Charge (a.u.)
  ----------------------------------------
      1 C                    -0.118093
      2 C                     0.100641
      3 H                     0.049217
      4 H                     0.029385
      5 H                     0.023495
      6 O                    -0.310478
      7 H                     0.021035
      8 H                     0.027708
      9 H                     0.177092
  ----------------------------------------
  Sum of atomic charges =     0.000000

 -----------------------------------------------------------------
                    Cartesian Multipole Moments
 -----------------------------------------------------------------
    Charge (ESU x 10^10)
                -0.0000
    Dipole Moment (Debye)
         X      -1.1776      Y      -0.4095      Z       1.2509
       Tot       1.7662
    Quadrupole Moments (Debye-Ang)
        XX     -12.0582     XY      -0.6591     YY     -18.9400
        XZ      -3.2805     YZ      -0.2960     ZZ     -19.9314
    Octopole Moments (Debye-Ang^2)
       XXX     214.9209    XXY      -3.5593    XYY      80.2597
       YYY     -37.0834    XXZ       8.0692    XYZ       1.1031
       YYZ      -0.4045    XZZ      84.6800    YZZ     -12.8333
       ZZZ      -0.0241
    Hexadecapole Moments (Debye-Ang^3)
      XXXX   -2146.0845   XXXY      97.4699   XXYY    -384.8754
      XYYY     151.5837   YYYY    -104.9793   XXXZ     -12.9522
      XXYZ      -4.0576   XYYZ       3.2415   YYYZ      -4.1230
      XXZZ    -392.7571   XYZZ      53.1249   YYZZ     -22.7151
      XZZZ       6.9549   YZZZ      -1.6253   ZZZZ     -36.9422
 -----------------------------------------------------------------
 Calculating analytic gradient of the SCF energy
 Gradient of SCF Energy
            1           2           3           4           5           6
    1   0.0007857  -0.0015742  -0.0000383   0.0000238  -0.0000902   0.0005868
    2   0.0001987   0.0007247  -0.0001122   0.0000617  -0.0000850  -0.0004226
    3  -0.0000823   0.0002804  -0.0000944  -0.0000084  -0.0000167  -0.0001833
            7           8           9
    1   0.0001617   0.0001006   0.0000440
    2  -0.0002607  -0.0000506  -0.0000541
    3   0.0000156   0.0000192   0.0000699
 Max gradient component =       1.574E-03
 RMS gradient           =       4.065E-04
 Gradient time:  CPU 17.31 s  wall 5.78 s
 Geometry Optimization Parameters
   NAtoms,    NIC,     NZ,  NCons,   NDum,   NFix, NCnnct, MaxDiis
        9      51       0       0       0       0       0       0

 Cartesian Hessian Update
 Hessian updated using BFGS update


** GEOMETRY OPTIMIZATION IN DELOCALIZED INTERNAL COORDINATES **
   Searching for a Minimum

   Optimization Cycle:   6

                       Coordinates (Angstroms)
     ATOM                X               Y               Z
      1  C        -5.3736119706    0.3106485076    0.0357751014
      2  C        -4.1346261762    1.1802448927    0.1228789016
      3  H        -5.4892955047   -0.0921338115   -0.9704650379
      4  H        -6.2654451750    0.8882329298    0.2841895350
      5  H        -5.3147295564   -0.5270813995    0.7343656454
      6  O        -2.9538043794    0.4897152759   -0.2464884004
      7  H        -4.0334667491    1.5985825134    1.1306342346
      8  H        -4.2092739102    2.0177868974   -0.5700088668
      9  H        -2.8285565785   -0.2487758059    0.3494288872
   Point Group: c1    Number of degrees of freedom:    21


   Energy is   -155.050940071

 Hessian updated using BFGS update

 21 Hessian modes will be used to form the next step
  Hessian Eigenvalues:
     0.002562    0.005803    0.052423    0.057898    0.058933    0.059461
     0.114329    0.140662    0.156846    0.160158    0.163010    0.168399
     0.243269    0.278710    0.321606    0.325336    0.325505    0.328090
     0.331493    0.467289    0.515030

 Minimum search - taking simple RFO step
 Searching for Lamda that Minimizes Along All modes
 Value Taken    Lamda =  -0.00000868
 Step Taken.  Stepsize is  0.021564

                             Maximum     Tolerance    Cnvgd?
         Gradient           0.000678      0.000300      NO
         Displacement       0.012155      0.001200      NO
         Energy change     -0.000016      0.000001      NO


 New Cartesian Coordinates Obtained by Inverse Iteration

 Displacement from previous Coordinates is:  0.014430
 ----------------------------------------------------------------
             Standard Nuclear Orientation (Angstroms)
    I     Atom           X                Y                Z
 ----------------------------------------------------------------
    1      C      -5.3738568017     0.3103387188     0.0360893535
    2      C      -4.1330134884     1.1798099743     0.1228324926
    3      H      -5.4900887412    -0.0897246146    -0.9710090522
    4      H      -6.2656042667     0.8870189264     0.2865499831
    5      H      -5.3131805721    -0.5286454695     0.7328768052
    6      O      -2.9525986880     0.4906679388    -0.2441998730
    7      H      -4.0348731459     1.6019442020     1.1295943689
    8      H      -4.2088080308     2.0163801763    -0.5713530755
    9      H      -2.8307862652    -0.2505698525     0.3489289973
 ----------------------------------------------------------------
 Nuclear Repulsion Energy =          81.90399692 hartrees
 There are       13 alpha and       13 beta electrons
 Applying Cartesian multipole field
    Component          Value
    ---------          -----
     (2,0,0)        1.00000E-12
     (0,2,0)        2.00000E-11
     (0,0,2)       -3.00000E-11
 Nucleus-field energy     =     0.0000000026 hartrees
 Requested basis set is 6-311+G(2df,2pd)
 There are 60 shells and 186 basis functions
 A cutoff of  1.0D-11 yielded   1811 shell pairs
 There are     17518 function pairs (     21752 Cartesian)
 Smallest overlap matrix eigenvalue = 1.35E-04
 Guess MOs from SCF MO coefficient file

 -----------------------------------------------------------------------
  General SCF calculation program by
  Eric Jon Sundstrom, Paul Horn, Yuezhi Mao, Dmitri Zuev, Alec White,
  David Stuck, Shaama M.S., Shane Yost, Joonho Lee, David Small,
  Daniel Levine, Susi Lehtola, Hugh Burton, Evgeny Epifanovsky,
  Bang C. Huynh
 -----------------------------------------------------------------------
 Exchange:     0.2220 Hartree-Fock + 1.0000 wB97X-D + LR-HF
 Correlation:  1.0000 wB97X-D
 Using Euler-Maclaurin-Lebedev (75,302) quadrature formula
 Dispersion:   Grimme D
 using 3 threads for integral computing
 -------------------------------------------------------
 OpenMP Integral computing Module                
 Release: version 1.0, May 2013, Q-Chem Inc. Pittsburgh 
 -------------------------------------------------------
 using 3 threads for integral computing
 -------------------------------------------------------
 OpenMP Integral computing Module                
 Release: version 1.0, May 2013, Q-Chem Inc. Pittsburgh 
 -------------------------------------------------------
 A restricted SCF calculation will be
 performed using DIIS
 SCF converges when DIIS error is below 1.0e-08
 ---------------------------------------
  Cycle       Energy         DIIS error
 ---------------------------------------
    1    -155.0509346134      4.87e-05  
    2    -155.0509439124      9.15e-06  
    3    -155.0509442810      6.58e-06  
    4    -155.0509444074      1.96e-06  
    5    -155.0509444221      3.55e-07  
    6    -155.0509444230      9.77e-08  
    7    -155.0509444230      3.29e-08  
    8    -155.0509444231      5.52e-09  Convergence criterion met
 ---------------------------------------
 SCF time:   CPU 45.62s  wall 15.00s 
 SCF   energy in the final basis set =     -155.0509444231
 Total energy in the final basis set =     -155.0509444231
 
 --------------------------------------------------------------
 
                    Orbital Energies (a.u.)
 --------------------------------------------------------------
 
 Alpha MOs
 -- Occupied --
-19.2462 -10.3273 -10.2744  -1.1260  -0.8498  -0.7230  -0.5962  -0.5450
 -0.5237  -0.4698  -0.4582  -0.4120  -0.3626
 -- Virtual --
  0.0652   0.0876   0.0889   0.1019   0.1266   0.1338   0.1369   0.1813
  0.1975   0.2170   0.2401   0.2442   0.2654   0.2845   0.2890   0.3068
  0.3167   0.3287   0.3432   0.3816   0.4577   0.4926   0.5011   0.5249
  0.5680   0.5776   0.5788   0.6085   0.6133   0.6322   0.6682   0.6816
  0.6901   0.7128   0.7378   0.8042   0.8477   0.8971   0.9279   0.9512
  0.9871   1.0518   1.0608   1.1108   1.1435   1.1741   1.1830   1.2126
  1.2295   1.2362   1.2777   1.2995   1.3234   1.3575   1.3768   1.4155
  1.4500   1.4660   1.4736   1.4862   1.5039   1.5374   1.5954   1.6295
  1.6515   1.7118   1.9385   2.0498   2.1157   2.2799   2.2833   2.4606
  2.4723   2.5014   2.5488   2.5899   2.7057   2.8383   2.8521   2.8829
  2.9148   2.9751   3.0061   3.0290   3.0466   3.0541   3.0628   3.0785
  3.0917   3.1764   3.2207   3.2632   3.2871   3.2894   3.3074   3.3484
  3.3598   3.4014   3.4106   3.4243   3.5090   3.5646   3.5738   3.5822
  3.6078   3.6117   3.6560   3.7112   3.7273   3.7543   3.7922   3.8394
  3.8911   3.9206   3.9558   3.9803   3.9932   4.0107   4.0398   4.0736
  4.0920   4.1098   4.1346   4.1798   4.2078   4.2319   4.3009   4.3201
  4.3458   4.3948   4.4694   4.5098   4.5383   4.6479   4.7192   4.7878
  4.8559   4.9328   4.9464   4.9942   5.0053   5.0611   5.1198   5.2137
  5.2185   5.2540   5.2836   5.3089   5.3298   5.3660   5.4118   5.4817
  5.5357   5.5794   5.6797   5.8230   5.9286   6.0316   6.3576   6.3857
  6.4060   6.6552   6.7081   6.8216   7.1272   7.3528   7.4248   7.5548
  7.7243   8.1109  25.1748  25.4309  50.4669
 --------------------------------------------------------------
 
          Ground-State Mulliken Net Atomic Charges

     Atom                 Charge (a.u.)
  ----------------------------------------
      1 C                    -0.117616
      2 C                     0.099720
      3 H                     0.049115
      4 H                     0.029515
      5 H                     0.023304
      6 O                    -0.309536
      7 H                     0.020827
      8 H                     0.027548
      9 H                     0.177122
  ----------------------------------------
  Sum of atomic charges =     0.000000

 -----------------------------------------------------------------
                    Cartesian Multipole Moments
 -----------------------------------------------------------------
    Charge (ESU x 10^10)
                -0.0000
    Dipole Moment (Debye)
         X      -1.1784      Y      -0.4165      Z       1.2423
       Tot       1.7622
    Quadrupole Moments (Debye-Ang)
        XX     -12.0615     XY      -0.6365     YY     -18.9452
        XZ      -3.2595     YZ      -0.2995     ZZ     -19.9340
    Octopole Moments (Debye-Ang^2)
       XXX     214.9347    XXY      -3.6256    XYY      80.2798
       YYY     -37.1085    XXZ       8.0144    XYZ       1.1104
       YYZ      -0.4103    XZZ      84.6794    YZZ     -12.8378
       ZZZ      -0.0773
    Hexadecapole Moments (Debye-Ang^3)
      XXXX   -2145.8544   XXXY      97.5513   XXYY    -384.9687
      XYYY     151.6352   YYYY    -105.0474   XXXZ     -12.8144
      XXYZ      -4.0683   XYYZ       3.2449   YYYZ      -4.1176
      XXZZ    -392.7106   XYZZ      53.1154   YYZZ     -22.7183
      XZZZ       7.1367   YZZZ      -1.6475   ZZZZ     -36.9160
 -----------------------------------------------------------------
 Calculating analytic gradient of the SCF energy
 Gradient of SCF Energy
            1           2           3           4           5           6
    1  -0.0000211  -0.0000860   0.0000308  -0.0000545  -0.0000090   0.0001789
    2  -0.0000240  -0.0000258   0.0000468  -0.0000282  -0.0000108   0.0000267
    3  -0.0000259   0.0001392  -0.0000452  -0.0000441  -0.0000380  -0.0001024
            7           8           9
    1  -0.0000135   0.0000378  -0.0000635
    2  -0.0000087   0.0000084   0.0000157
    3   0.0000309   0.0000400   0.0000456
 Max gradient component =       1.789E-04
 RMS gradient           =       5.948E-05
 Gradient time:  CPU 17.29 s  wall 5.77 s
 Geometry Optimization Parameters
   NAtoms,    NIC,     NZ,  NCons,   NDum,   NFix, NCnnct, MaxDiis
        9      51       0       0       0       0       0       0

 Cartesian Hessian Update
 Hessian updated using BFGS update


** GEOMETRY OPTIMIZATION IN DELOCALIZED INTERNAL COORDINATES **
   Searching for a Minimum

   Optimization Cycle:   7

                       Coordinates (Angstroms)
     ATOM                X               Y               Z
      1  C        -5.3738568017    0.3103387188    0.0360893535
      2  C        -4.1330134884    1.1798099743    0.1228324926
      3  H        -5.4900887412   -0.0897246146   -0.9710090522
      4  H        -6.2656042667    0.8870189264    0.2865499831
      5  H        -5.3131805721   -0.5286454695    0.7328768052
      6  O        -2.9525986880    0.4906679388   -0.2441998730
      7  H        -4.0348731459    1.6019442020    1.1295943689
      8  H        -4.2088080308    2.0163801763   -0.5713530755
      9  H        -2.8307862652   -0.2505698525    0.3489289973
   Point Group: c1    Number of degrees of freedom:    21


   Energy is   -155.050944423

 Hessian updated using BFGS update

 21 Hessian modes will be used to form the next step
  Hessian Eigenvalues:
     0.002603    0.005574    0.054056    0.056016    0.059019    0.059152
     0.112208    0.140682    0.155461    0.160160    0.162883    0.173738
     0.248567    0.285628    0.321489    0.325243    0.325445    0.328736
     0.332282    0.460191    0.510321

 Minimum search - taking simple RFO step
 Searching for Lamda that Minimizes Along All modes
 Value Taken    Lamda =  -0.00000027
 Step Taken.  Stepsize is  0.003226

                             Maximum     Tolerance    Cnvgd?
         Gradient           0.000110      0.000300     YES
         Displacement       0.002080      0.001200      NO
         Energy change     -0.000004      0.000001      NO


 New Cartesian Coordinates Obtained by Inverse Iteration

 Displacement from previous Coordinates is:  0.003111
 ----------------------------------------------------------------
             Standard Nuclear Orientation (Angstroms)
    I     Atom           X                Y                Z
 ----------------------------------------------------------------
    1      C      -5.3739015644     0.3103828479     0.0359844482
    2      C      -4.1329966799     1.1797398635     0.1225775852
    3      H      -5.4906299103    -0.0893361133    -0.9711879115
    4      H      -6.2653293757     0.8871742516     0.2871686603
    5      H      -5.3129491568    -0.5289028814     0.7323756746
    6      O      -2.9527694211     0.4903434571    -0.2439521498
    7      H      -4.0351786776     1.6019212828     1.1293639002
    8      H      -4.2089333852     2.0163330192    -0.5715952114
    9      H      -2.8301218289    -0.2504357274     0.3495750043
 ----------------------------------------------------------------
 Nuclear Repulsion Energy =          81.90687078 hartrees
 There are       13 alpha and       13 beta electrons
 Applying Cartesian multipole field
    Component          Value
    ---------          -----
     (2,0,0)        1.00000E-12
     (0,2,0)        2.00000E-11
     (0,0,2)       -3.00000E-11
 Nucleus-field energy     =     0.0000000026 hartrees
 Requested basis set is 6-311+G(2df,2pd)
 There are 60 shells and 186 basis functions
 A cutoff of  1.0D-11 yielded   1811 shell pairs
 There are     17518 function pairs (     21752 Cartesian)
 Smallest overlap matrix eigenvalue = 1.35E-04
 Guess MOs from SCF MO coefficient file

 -----------------------------------------------------------------------
  General SCF calculation program by
  Eric Jon Sundstrom, Paul Horn, Yuezhi Mao, Dmitri Zuev, Alec White,
  David Stuck, Shaama M.S., Shane Yost, Joonho Lee, David Small,
  Daniel Levine, Susi Lehtola, Hugh Burton, Evgeny Epifanovsky,
  Bang C. Huynh
 -----------------------------------------------------------------------
 Exchange:     0.2220 Hartree-Fock + 1.0000 wB97X-D + LR-HF
 Correlation:  1.0000 wB97X-D
 Using Euler-Maclaurin-Lebedev (75,302) quadrature formula
 Dispersion:   Grimme D
 using 3 threads for integral computing
 -------------------------------------------------------
 OpenMP Integral computing Module                
 Release: version 1.0, May 2013, Q-Chem Inc. Pittsburgh 
 -------------------------------------------------------
 using 3 threads for integral computing
 -------------------------------------------------------
 OpenMP Integral computing Module                
 Release: version 1.0, May 2013, Q-Chem Inc. Pittsburgh 
 -------------------------------------------------------
 A restricted SCF calculation will be
 performed using DIIS
 SCF converges when DIIS error is below 1.0e-08
 ---------------------------------------
  Cycle       Energy         DIIS error
 ---------------------------------------
    1    -155.0509442401      8.71e-06  
    2    -155.0509445495      1.32e-06  
    3    -155.0509445633      3.00e-07  
    4    -155.0509445639      1.77e-07  
    5    -155.0509445640      7.16e-08  
    6    -155.0509445640      1.19e-08  
    7    -155.0509445640      5.71e-09  Convergence criterion met
 ---------------------------------------
 SCF time:   CPU 40.10s  wall 13.00s 
 SCF   energy in the final basis set =     -155.0509445640
 Total energy in the final basis set =     -155.0509445640
 
 --------------------------------------------------------------
 
                    Orbital Energies (a.u.)
 --------------------------------------------------------------
 
 Alpha MOs
 -- Occupied --
-19.2462 -10.3272 -10.2744  -1.1260  -0.8498  -0.7230  -0.5962  -0.5451
 -0.5236  -0.4698  -0.4582  -0.4120  -0.3626
 -- Virtual --
  0.0652   0.0876   0.0889   0.1019   0.1266   0.1338   0.1369   0.1813
  0.1975   0.2170   0.2402   0.2442   0.2654   0.2845   0.2890   0.3068
  0.3167   0.3288   0.3432   0.3816   0.4577   0.4927   0.5011   0.5249
  0.5680   0.5777   0.5788   0.6084   0.6132   0.6322   0.6682   0.6816
  0.6902   0.7128   0.7379   0.8041   0.8476   0.8971   0.9280   0.9512
  0.9871   1.0518   1.0608   1.1108   1.1435   1.1741   1.1830   1.2127
  1.2295   1.2363   1.2778   1.2994   1.3234   1.3574   1.3769   1.4156
  1.4500   1.4659   1.4736   1.4862   1.5040   1.5374   1.5954   1.6294
  1.6516   1.7118   1.9386   2.0498   2.1158   2.2801   2.2835   2.4606
  2.4724   2.5013   2.5489   2.5900   2.7057   2.8384   2.8521   2.8829
  2.9149   2.9752   3.0061   3.0291   3.0466   3.0541   3.0628   3.0787
  3.0917   3.1767   3.2206   3.2632   3.2872   3.2895   3.3073   3.3484
  3.3597   3.4015   3.4106   3.4242   3.5088   3.5646   3.5739   3.5823
  3.6078   3.6117   3.6559   3.7114   3.7274   3.7544   3.7922   3.8391
  3.8911   3.9206   3.9559   3.9804   3.9933   4.0108   4.0399   4.0737
  4.0920   4.1099   4.1345   4.1798   4.2079   4.2317   4.3011   4.3201
  4.3460   4.3948   4.4695   4.5097   4.5384   4.6479   4.7193   4.7879
  4.8556   4.9328   4.9465   4.9942   5.0053   5.0608   5.1201   5.2138
  5.2187   5.2540   5.2836   5.3089   5.3298   5.3661   5.4116   5.4815
[...]
 N. J. Mayhall,  S. C. McKenzie,  J.-M. Mewes,  P. Morgante,  A. F. Morrison,  
 J. W. Mullinax,  K. Nanda,  T. S. Nguyen-Beck,  R. Olivares-Amaya,  
 K. J. Oosterbaan,  J. A. Parkhill,  S. K. Paul,  F. Pavosevic,  Zheng Pei,  
 T. M. Perrine,  F. Plasser,  P. Pokhilko,  S. Prager,  A. Prociuk,  
 E. Ramos,  B. Rana,  D. R. Rehn,  F. Rob,  M. Scheurer,  M. Schneider,  
 N. Sergueev,  S. M. Sharada,  S. Sharma,  D. W. Small,  T. Stauch,  
 C. J. Stein,  T. Stein,  Yu-Chuan Su,  S. P. Veccham,  Zhen Tao,  
 A. J. W. Thom,  A. Tkatchenko,  T. Tsuchimochi,  N. M. Tubman,  L. Vogt,  
 M. L. Vidal,  O. Vydrov,  M. A. Watson,  J. Wenzel,  M. de Wergifosse,  
 T. A. Wesolowski,  A. White,  J. Witte,  A. Yamada,  Jun Yang,  K. Yao,  
 S. Yeganeh,  S. R. Yost,  Zhi-Qiang You,  A. Zech,  Igor Ying Zhang,  
 Xing Zhang,  Yan Zhao,  Ying Zhu,  B. R. Brooks,  G. K. L. Chan,  
 C. J. Cramer,  M. S. Gordon,  W. J. Hehre,  A. Klamt,  M. W. Schmidt,  
 C. D. Sherrill,  D. G. Truhlar,  A. Aspuru-Guzik,  R. Baer,  A. T. Bell,  
 N. A. Besley,  Jeng-Da Chai,  A. E. DePrince, III,  R. A. DiStasio Jr.,  
 A. Dreuw,  B. D. Dunietz,  T. R. Furlani,  Chao-Ping Hsu,  Yousung Jung,  
 Jing Kong,  D. S. Lambrecht,  WanZhen Liang,  C. Ochsenfeld,  
 V. A. Rassolov,  L. V. Slipchenko,  J. E. Subotnik,  T. Van Voorhis,  
 J. M. Herbert,  A. I. Krylov,  P. M. W. Gill,  M. Head-Gordon

 Contributors to earlier versions of Q-Chem not listed above: 
 R. D. Adamson,  B. Austin,  J. Baker,  G. J. O. Beran,  K. Brandhorst,  
 S. T. Brown,  E. F. C. Byrd,  A. K. Chakraborty,  C.-L. Cheng,  
 Siu Hung Chien,  D. M. Chipman,  D. L. Crittenden,  H. Dachsel,  
 R. J. Doerksen,  A. D. Dutoi,  L. Fusti-Molnar,  W. A. Goddard III,  
 A. Golubeva-Zadorozhnaya,  S. R. Gwaltney,  G. Hawkins,  A. Heyden,  
 S. Hirata,  G. Kedziora,  F. J. Keil,  C. Kelley,  Jihan Kim,  R. A. King,  
 R. Z. Khaliullin,  P. P. Korambath,  W. Kurlancheek,  A. M. Lee,  M. S. Lee,  
 S. V. Levchenko,  Ching Yeh Lin,  D. Liotard,  R. C. Lochan,  I. Lotan,  
 P. E. Maslen,  N. Nair,  D. P. O'Neill,  D. Neuhauser,  E. Neuscamman,  
 C. M. Oana,  R. Olson,  B. Peters,  R. Peverati,  P. A. Pieniazek,  
 Y. M. Rhee,  J. Ritchie,  M. A. Rohrdanz,  E. Rosta,  N. J. Russ,  
 H. F. Schaefer III,  N. E. Schultz,  N. Shenvi,  A. C. Simmonett,  A. Sodt,  
 D. Stuck,  K. S. Thanthiriwatte,  V. Vanovschi,  Tao Wang,  A. Warshel,  
 C. F. Williams,  Q. Wu,  X. Xu,  W. Zhang

 Please cite Q-Chem as follows:
 Y. Shao et al., Mol. Phys. 113, 184-215 (2015)
 DOI: 10.1080/00268976.2014.952696

 Q-Chem 5.3.0 for Intel X86 EM64T Linux

 Parts of Q-Chem use Armadillo 9.800.1 (Horizon Scraper).
 http://arma.sourceforge.net/

 Q-Chem begins on Mon Jul 20 23:47:36 2020  

Host: centos77-c3
0

     Scratch files written to /tmp/29653.centos77-h1/qchem43123//
Processing $rem in /opt/qchem-5.3.0-intel2020u1//config/preferences:
Processing $rem in /home/shihchengli/.qchemrc:
The previous job contains 0 fragments, simply inherited here

Checking the input file for inconsistencies... 	...done.

--------------------------------------------------------------
User input:
--------------------------------------------------------------

$comment
Optimize C2H5OH at omegaB97X-D/6-311+G(2df,2pd)
$end

$rem
JOBTYPE opt
EXCHANGE omegaB97X-D
BASIS 6-311+G(2df,2pd)
XC_GRID 000075000302
SYM_IGNORE TRUE
GEOM_OPT_HESSIAN READ
$end

$molecule
read
$end
--------------------------------------------------------------
 ----------------------------------------------------------------
             Standard Nuclear Orientation (Angstroms)
    I     Atom           X                Y                Z
 ----------------------------------------------------------------
    1      C      -5.3739015644     0.3103828479     0.0359844482
    2      C      -4.1329966799     1.1797398635     0.1225775852
    3      H      -5.4906299103    -0.0893361133    -0.9711879115
    4      H      -6.2653293757     0.8871742516     0.2871686603
    5      H      -5.3129491568    -0.5289028814     0.7323756746
    6      O      -2.9527694211     0.4903434571    -0.2439521498
    7      H      -4.0351786776     1.6019212828     1.1293639002
    8      H      -4.2089333852     2.0163330192    -0.5715952114
    9      H      -2.8301218289    -0.2504357274     0.3495750043
 ----------------------------------------------------------------
 Nuclear Repulsion Energy =          81.90687078 hartrees
 There are       13 alpha and       13 beta electrons
 Requested basis set is 6-311+G(2df,2pd)
 There are 60 shells and 186 basis functions

 Total QAlloc Memory Limit   2000 MB
 Mega-Array Size       188 MB
 MEM_STATIC part       192 MB
 A cutoff of  1.0D-11 yielded   1811 shell pairs
 There are     17518 function pairs (     21752 Cartesian)
 Smallest overlap matrix eigenvalue = 1.35E-04

 Scale SEOQF with 1.000000e-02/1.000000e-01/1.000000e-01

 Standard Electronic Orientation quadrupole field applied
 Nucleus-field energy     =     0.0000000026 hartrees
 Guess from superposition of atomic densities
 Warning:  Energy on first SCF cycle will be non-variational
 SAD guess density has 26.000000 electrons

 -----------------------------------------------------------------------
  General SCF calculation program by
  Eric Jon Sundstrom, Paul Horn, Yuezhi Mao, Dmitri Zuev, Alec White,
  David Stuck, Shaama M.S., Shane Yost, Joonho Lee, David Small,
  Daniel Levine, Susi Lehtola, Hugh Burton, Evgeny Epifanovsky,
  Bang C. Huynh
 -----------------------------------------------------------------------
 Exchange:     0.2220 Hartree-Fock + 1.0000 wB97X-D + LR-HF
 Correlation:  1.0000 wB97X-D
 Using Euler-Maclaurin-Lebedev (75,302) quadrature formula
 Dispersion:   Grimme D
 using 3 threads for integral computing
 -------------------------------------------------------
 OpenMP Integral computing Module                
 Release: version 1.0, May 2013, Q-Chem Inc. Pittsburgh 
 -------------------------------------------------------
 using 3 threads for integral computing
 -------------------------------------------------------
 OpenMP Integral computing Module                
 Release: version 1.0, May 2013, Q-Chem Inc. Pittsburgh 
 -------------------------------------------------------
 A restricted SCF calculation will be
 performed using DIIS
 SCF converges when DIIS error is below 1.0e-08
 ---------------------------------------
  Cycle       Energy         DIIS error
 ---------------------------------------
    1    -155.4938930676      3.20e-02  
    2    -154.9901858086      4.12e-03  
    3    -154.9993655081      4.21e-03  
    4    -155.0502464778      4.44e-04  
    5    -155.0508444310      1.63e-04  
    6    -155.0509405392      2.84e-05  
    7    -155.0509444050      4.43e-06  
    8    -155.0509445521      1.27e-06  
    9    -155.0509445627      4.63e-07  
   10    -155.0509445639      1.22e-07  
   11    -155.0509445640      1.75e-08  
   12    -155.0509445640      3.44e-09  Convergence criterion met
 ---------------------------------------
 SCF time:   CPU 66.16s  wall 22.00s 
 SCF   energy in the final basis set =     -155.0509445640
 Total energy in the final basis set =     -155.0509445640
 
 --------------------------------------------------------------
 
                    Orbital Energies (a.u.)
 --------------------------------------------------------------
 
 Alpha MOs
 -- Occupied --
-19.2462 -10.3272 -10.2744  -1.1260  -0.8498  -0.7230  -0.5962  -0.5451
 -0.5236  -0.4698  -0.4582  -0.4120  -0.3626
 -- Virtual --
  0.0652   0.0876   0.0889   0.1019   0.1266   0.1338   0.1369   0.1813
  0.1975   0.2170   0.2402   0.2442   0.2654   0.2845   0.2890   0.3068
  0.3167   0.3288   0.3432   0.3816   0.4577   0.4927   0.5011   0.5249
  0.5680   0.5777   0.5788   0.6084   0.6132   0.6322   0.6682   0.6816
  0.6902   0.7128   0.7379   0.8041   0.8476   0.8971   0.9280   0.9512
  0.9871   1.0518   1.0608   1.1108   1.1435   1.1741   1.1830   1.2127
  1.2295   1.2363   1.2778   1.2994   1.3234   1.3574   1.3769   1.4156
  1.4500   1.4659   1.4736   1.4862   1.5040   1.5374   1.5954   1.6294
  1.6516   1.7118   1.9386   2.0498   2.1158   2.2801   2.2835   2.4606
  2.4724   2.5013   2.5489   2.5900   2.7057   2.8384   2.8521   2.8829
  2.9149   2.9752   3.0061   3.0291   3.0466   3.0541   3.0628   3.0787
  3.0917   3.1767   3.2206   3.2632   3.2872   3.2895   3.3073   3.3484
  3.3597   3.4015   3.4106   3.4242   3.5088   3.5646   3.5739   3.5823
  3.6078   3.6117   3.6559   3.7114   3.7274   3.7544   3.7922   3.8391
  3.8911   3.9206   3.9559   3.9804   3.9933   4.0108   4.0399   4.0737
  4.0920   4.1099   4.1345   4.1798   4.2079   4.2317   4.3011   4.3201
  4.3460   4.3948   4.4695   4.5097   4.5384   4.6479   4.7193   4.7879
  4.8556   4.9328   4.9465   4.9942   5.0053   5.0608   5.1201   5.2138
  5.2187   5.2540   5.2836   5.3089   5.3298   5.3661   5.4116   5.4815
  5.5354   5.5796   5.6798   5.8231   5.9287   6.0320   6.3576   6.3858
  6.4060   6.6552   6.7088   6.8217   7.1273   7.3525   7.4249   7.5546
  7.7249   8.1110  25.1751  25.4310  50.4669
 --------------------------------------------------------------
 
          Ground-State Mulliken Net Atomic Charges

     Atom                 Charge (a.u.)
  ----------------------------------------
      1 C                    -0.117602
      2 C                     0.099789
      3 H                     0.049086
      4 H                     0.029492
      5 H                     0.023293
      6 O                    -0.309556
      7 H                     0.020797
      8 H                     0.027550
      9 H                     0.177150
  ----------------------------------------
  Sum of atomic charges =     0.000000

 -----------------------------------------------------------------
                    Cartesian Multipole Moments
 -----------------------------------------------------------------
    Charge (ESU x 10^10)
                -0.0000
    Dipole Moment (Debye)
         X      -1.1765      Y      -0.4157      Z       1.2428
       Tot       1.7611
    Quadrupole Moments (Debye-Ang)
        XX     -12.0746     XY      -0.6393     YY     -18.9451
        XZ      -3.2600     YZ      -0.3007     ZZ     -19.9330
    Octopole Moments (Debye-Ang^2)
       XXX     215.0175    XXY      -3.6134    XYY      80.2792
       YYY     -37.1041    XXZ       8.0147    XYZ       1.1135
       YYZ      -0.4105    XZZ      84.6775    YZZ     -12.8360
       ZZZ      -0.0769
    Hexadecapole Moments (Debye-Ang^3)
      XXXX   -2146.4036   XXXY      97.5082   XXYY    -384.9625
      XYYY     151.6243   YYYY    -105.0349   XXXZ     -12.8306
      XXYZ      -4.0715   XYYZ       3.2417   YYYZ      -4.1169
      XXZZ    -392.7081   XYZZ      53.1096   YYZZ     -22.7164
      XZZZ       7.1265   YZZZ      -1.6461   ZZZZ     -36.9100
 -----------------------------------------------------------------
 Calculating analytic gradient of the SCF energy
 Gradient of SCF Energy
            1           2           3           4           5           6
    1  -0.0000224  -0.0000066   0.0000374  -0.0000179  -0.0000060   0.0000517
    2  -0.0000140   0.0000134   0.0000413  -0.0000224  -0.0000164   0.0000015
    3  -0.0000159   0.0000199  -0.0000402  -0.0000365  -0.0000486   0.0000107
            7           8           9
    1  -0.0000318  -0.0000116   0.0000072
    2  -0.0000238   0.0000364  -0.0000160
    3   0.0000363   0.0000531   0.0000211
 Max gradient component =       5.314E-05
 RMS gradient           =       2.843E-05
 Gradient time:  CPU 17.48 s  wall 5.86 s
 Geometry Optimization Parameters
   NAtoms,    NIC,     NZ,  NCons,   NDum,   NFix, NCnnct, MaxDiis
        9      51       0       0       0       0       0       0

 Cartesian Hessian read from HESS file


** GEOMETRY OPTIMIZATION IN DELOCALIZED INTERNAL COORDINATES **
   Searching for a Minimum

   Optimization Cycle:   1

                       Coordinates (Angstroms)
     ATOM                X               Y               Z
      1  C        -5.3739015644    0.3103828479    0.0359844482
      2  C        -4.1329966799    1.1797398635    0.1225775852
      3  H        -5.4906299103   -0.0893361133   -0.9711879115
      4  H        -6.2653293757    0.8871742516    0.2871686603
      5  H        -5.3129491568   -0.5289028814    0.7323756746
      6  O        -2.9527694211    0.4903434571   -0.2439521498
      7  H        -4.0351786776    1.6019212828    1.1293639002
      8  H        -4.2089333852    2.0163330192   -0.5715952114
      9  H        -2.8301218289   -0.2504357274    0.3495750043
   Point Group: c1    Number of degrees of freedom:    21


   Energy is   -155.050944564


 Attempting to generate delocalized internal coordinates

 Transforming Cartesian Hessian to Internal Coordinates
 Hessian Transformation does not Include Derivative of B-matrix

 21 Hessian modes will be used to form the next step
  Hessian Eigenvalues:
     0.002393    0.003047    0.044128    0.044262    0.049818    0.059338
     0.101754    0.121087    0.122823    0.130077    0.161804    0.171242
     0.244709    0.298543    0.320882    0.336802    0.339693    0.341932
     0.346567    0.390845    0.550187

 Minimum search - taking simple RFO step
 Searching for Lamda that Minimizes Along All modes
 Value Taken    Lamda =  -0.00000003
 Step Taken.  Stepsize is  0.001499

                             Maximum     Tolerance    Cnvgd?
         Gradient           0.000037      0.000300     YES
         Displacement       0.001113      0.001200     YES
         Energy change     *********      0.000001      NO


                       Distance Matrix (Angstroms)
             C (  1)   C (  2)   H (  3)   H (  4)   H (  5)   O (  6)
   C (  2)  1.517605
   H (  3)  1.089861  2.156396
   H (  4)  1.091066  2.158594  1.771212
   H (  5)  1.092280  2.164163  1.768309  1.763664
   O (  6)  2.443897  1.415114  2.702894  3.378257  2.750005
   H (  7)  2.157714  1.096095  3.064475  2.488720  2.516090  2.072007
   H (  8)  2.153270  1.089739  2.497251  2.498247  3.065521  2.003482
   H (  9)  2.623675  1.947925  2.974672  3.619213  2.527551  0.957116
             H (  7)   H (  8)
   H (  8)  1.759315
   H (  9)  2.343386  2.808543
 
 Final energy is   -155.050944564017     


 ******************************
 **  OPTIMIZATION CONVERGED  **
 ******************************

                       Coordinates (Angstroms)
     ATOM                X               Y               Z
      1  C        -5.3739015644    0.3103828479    0.0359844482
      2  C        -4.1329966799    1.1797398635    0.1225775852
      3  H        -5.4906299103   -0.0893361133   -0.9711879115
      4  H        -6.2653293757    0.8871742516    0.2871686603
      5  H        -5.3129491568   -0.5289028814    0.7323756746
      6  O        -2.9527694211    0.4903434571   -0.2439521498
      7  H        -4.0351786776    1.6019212828    1.1293639002
      8  H        -4.2089333852    2.0163330192   -0.5715952114
      9  H        -2.8301218289   -0.2504357274    0.3495750043

Z-matrix Print:
$molecule
0 1
C 
H  1 1.089739
H  1 1.096095 2 107.195330
O  1 1.415114 2 105.493153 3 -117.851933 0
H  4 0.957116 1 108.863086 2 178.989487 0
C  1 1.517605 2 110.270363 3 120.027749 0
H  6 1.089861 1 110.512058 2 60.249713 0
H  6 1.091066 1 110.615032 2 -60.067323 0
H  6 1.092280 1 110.987094 2 -179.627853 0
$end

 
 --------------------------------------------------------------
 
                    Orbital Energies (a.u.)
 --------------------------------------------------------------
 
 Alpha MOs
 -- Occupied --
-19.2462 -10.3272 -10.2744  -1.1260  -0.8498  -0.7230  -0.5962  -0.5451
 -0.5236  -0.4698  -0.4582  -0.4120  -0.3626
 -- Virtual --
  0.0652   0.0876   0.0889   0.1019   0.1266   0.1338   0.1369   0.1813
  0.1975   0.2170   0.2402   0.2442   0.2654   0.2845   0.2890   0.3068
  0.3167   0.3288   0.3432   0.3816   0.4577   0.4927   0.5011   0.5249
  0.5680   0.5777   0.5788   0.6084   0.6132   0.6322   0.6682   0.6816
  0.6902   0.7128   0.7379   0.8041   0.8476   0.8971   0.9280   0.9512
  0.9871   1.0518   1.0608   1.1108   1.1435   1.1741   1.1830   1.2127
  1.2295   1.2363   1.2778   1.2994   1.3234   1.3574   1.3769   1.4156
  1.4500   1.4659   1.4736   1.4862   1.5040   1.5374   1.5954   1.6294
  1.6516   1.7118   1.9386   2.0498   2.1158   2.2801   2.2835   2.4606
  2.4724   2.5013   2.5489   2.5900   2.7057   2.8384   2.8521   2.8829
  2.9149   2.9752   3.0061   3.0291   3.0466   3.0541   3.0628   3.0787
  3.0917   3.1767   3.2206   3.2632   3.2872   3.2895   3.3073   3.3484
  3.3597   3.4015   3.4106   3.4242   3.5088   3.5646   3.5739   3.5823
  3.6078   3.6117   3.6559   3.7114   3.7274   3.7544   3.7922   3.8391
  3.8911   3.9206   3.9559   3.9804   3.9933   4.0108   4.0399   4.0737
  4.0920   4.1099   4.1345   4.1798   4.2079   4.2317   4.3011   4.3201
  4.3460   4.3948   4.4695   4.5097   4.5384   4.6479   4.7193   4.7879
  4.8556   4.9328   4.9465   4.9942   5.0053   5.0608   5.1201   5.2138
  5.2187   5.2540   5.2836   5.3089   5.3298   5.3661   5.4116   5.4815
  5.5354   5.5796   5.6798   5.8231   5.9287   6.0320   6.3576   6.3858
  6.4060   6.6552   6.7088   6.8217   7.1273   7.3525   7.4249   7.5546
  7.7249   8.1110  25.1751  25.4310  50.4669
 --------------------------------------------------------------
 
          Ground-State Mulliken Net Atomic Charges

     Atom                 Charge (a.u.)
  ----------------------------------------
      1 C                    -0.117602
      2 C                     0.099789
      3 H                     0.049086
      4 H                     0.029492
      5 H                     0.023293
      6 O                    -0.309556
      7 H                     0.020797
      8 H                     0.027550
      9 H                     0.177150
  ----------------------------------------
  Sum of atomic charges =     0.000000

 -----------------------------------------------------------------
                    Cartesian Multipole Moments
 -----------------------------------------------------------------
    Charge (ESU x 10^10)
                -0.0000
    Dipole Moment (Debye)
         X      -1.1765      Y      -0.4157      Z       1.2428
       Tot       1.7611
    Quadrupole Moments (Debye-Ang)
        XX     -12.0746     XY      -0.6393     YY     -18.9451
        XZ      -3.2600     YZ      -0.3007     ZZ     -19.9330
    Octopole Moments (Debye-Ang^2)
       XXX     215.0175    XXY      -3.6134    XYY      80.2792
       YYY     -37.1041    XXZ       8.0147    XYZ       1.1135
       YYZ      -0.4105    XZZ      84.6775    YZZ     -12.8360
       ZZZ      -0.0769
    Hexadecapole Moments (Debye-Ang^3)
      XXXX   -2146.4036   XXXY      97.5082   XXYY    -384.9625
      XYYY     151.6243   YYYY    -105.0349   XXXZ     -12.8306
      XXYZ      -4.0715   XYYZ       3.2417   YYYZ      -4.1169
      XXZZ    -392.7081   XYZZ      53.1096   YYZZ     -22.7164
      XZZZ       7.1265   YZZZ      -1.6461   ZZZZ     -36.9100
 -----------------------------------------------------------------
Archival summary:
1\1\centos77-c3\OPT\ProcedureUnspecified\BasisUnspecified\126\shihchen\MonJul2023:48:042020MonJul2023:48:042020\0\\#,OPT,ProcedureUnspecified,BasisUnspecified,\\0,1\C\H,1,1.08974\H,1,1.09609,2,107.195\O,1,1.41511,2,105.493,3,-117.852,0\H,4,0.957116,1,108.863,2,178.989,0\C,1,1.5176,2,110.27,3,120.028,0\H,6,1.08986,1,110.512,2,60.2497,0\H,6,1.09107,1,110.615,2,-60.0673,0\H,6,1.09228,1,110.987,2,-179.628,0\\\@

 Total job time:  28.19s(wall), 84.20s(cpu) 
 Mon Jul 20 23:48:04 2020

        *************************************************************
        *                                                           *
        *  Thank you very much for using Q-Chem.  Have a nice day.  *
        *                                                           *
        *************************************************************


