                  Welcome to Q-Chem
     A Quantum Leap Into The Future Of Chemistry


 Q-Chem 5.3 (devel), Q-Chem, Inc., Pleasanton, CA (2020)

 Yihan Shao,  Zhengting Gan,  E. Epifanovsky,  A. T. B. Gilbert,  M. Wormit,  
 J. Kussmann,  A. W. Lange,  A. Behn,  Jia Deng,  Xintian Feng,  D. Ghosh,  
 M. Goldey,  P. R. Horn,  L. D. Jacobson,  I. Kaliman,  T. Kus,  A. Landau,  
 Jie Liu,  E. I. Proynov,  R. M. Richard,  R. P. Steele,  E. J. Sundstrom,  
 H. L. Woodcock III,  P. M. Zimmerman,  D. Zuev,  B. Alam,  B. Albrecht,  
 E. Alguire,  S. A. Baeppler,  D. Barton,  Z. Benda,  Y. A. Bernard,  
 E. J. Berquist,  K. B. Bravaya,  H. Burton,  K. Carter-Fenk,  D. Casanova,  
 Chun-Min Chang,  Yunqing Chen,  A. Chien,  K. D. Closser,  M. P. Coons,  
 S. Coriani,  S. Dasgupta,  A. L. Dempwolff,  M. Diedenhofen,  Hainam Do,  
 R. G. Edgar,  Po-Tung Fang,  S. Faraji,  S. Fatehi,  Qingguo Feng,  
 J. Fosso-Tande,  J. Gayvert,  Qinghui Ge,  A. Ghysels,  G. Gidofalvi,  
 J. Gomes,  J. Gonthier,  A. Gunina,  D. Hait,  M. W. D. Hanson-Heine,  
 P. H. P. Harbach,  A. W. Hauser,  M. F. Herbst,  J. E. Herr,  
 E. G. Hohenstein,  Z. C. Holden,  Kerwin Hui,  B. C. Huynh,  T.-C. Jagau,  
 Hyunjun Ji,  B. Kaduk,  K. Khistyaev,  Jaehoon Kim,  P. Klunzinger,  K. Koh,  
 D. Kosenkov,  L. Koulias,  T. Kowalczyk,  C. M. Krauter,  A. Kunitsa,  
 Ka Un Lao,  A. Laurent,  K. V. Lawler,  Joonho Lee,  D. Lefrancois,  
 S. Lehtola,  D. S. Levine,  Yi-Pei Li,  You-Sheng Lin,  Fenglai Liu,  
 Kuan-Yu Liu,  E. Livshits,  M. Loipersberger,  A. Luenser,  P. Manohar,  
 E. Mansoor,  S. F. Manzer,  Shan-Ping Mao,  Yuezhi Mao,  N. Mardirossian,  
 A. V. Marenich,  T. Markovich,  L. A. Martinez-Martinez,  S. A. Maurer,  
 N. J. Mayhall,  S. C. McKenzie,  J.-M. Mewes,  P. Morgante,  A. F. Morrison,  
 J. W. Mullinax,  K. Nanda,  T. S. Nguyen-Beck,  R. Olivares-Amaya,  
 K. J. Oosterbaan,  J. A. Parkhill,  S. K. Paul,  F. Pavosevic,  Zheng Pei,  
 T. M. Perrine,  F. Plasser,  P. Pokhilko,  S. Prager,  A. Prociuk,  
 E. Ramos,  B. Rana,  D. R. Rehn,  F. Rob,  M. Scheurer,  M. Schneider,  
 N. Sergueev,  S. M. Sharada,  S. Sharma,  D. W. Small,  T. Stauch,  
 C. J. Stein,  T. Stein,  Yu-Chuan Su,  S. P. Veccham,  Zhen Tao,  
 A. J. W. Thom,  A. Tkatchenko,  T. Tsuchimochi,  N. M. Tubman,  L. Vogt,  
 M. L. Vidal,  O. Vydrov,  M. A. Watson,  J. Wenzel,  M. de Wergifosse,  
 T. A. Wesolowski,  A. White,  J. Witte,  A. Yamada,  Jun Yang,  K. Yao,  
 S. Yeganeh,  S. R. Yost,  Zhi-Qiang You,  A. Zech,  Igor Ying Zhang,  
 Xing Zhang,  Yan Zhao,  Ying Zhu,  B. R. Brooks,  G. K. L. Chan,  
 C. J. Cramer,  M. S. Gordon,  W. J. Hehre,  A. Klamt,  M. W. Schmidt,  
 C. D. Sherrill,  D. G. Truhlar,  A. Aspuru-Guzik,  R. Baer,  A. T. Bell,  
 N. A. Besley,  Jeng-Da Chai,  A. E. DePrince, III,  R. A. DiStasio Jr.,  
 A. Dreuw,  B. D. Dunietz,  T. R. Furlani,  Chao-Ping Hsu,  Yousung Jung,  
 Jing Kong,  D. S. Lambrecht,  WanZhen Liang,  C. Ochsenfeld,  
 V. A. Rassolov,  L. V. Slipchenko,  J. E. Subotnik,  T. Van Voorhis,  
 J. M. Herbert,  A. I. Krylov,  P. M. W. Gill,  M. Head-Gordon

 Contributors to earlier versions of Q-Chem not listed above: 
 R. D. Adamson,  B. Austin,  J. Baker,  G. J. O. Beran,  K. Brandhorst,  
 S. T. Brown,  E. F. C. Byrd,  A. K. Chakraborty,  C.-L. Cheng,  
 Siu Hung Chien,  D. M. Chipman,  D. L. Crittenden,  H. Dachsel,  
 R. J. Doerksen,  A. D. Dutoi,  L. Fusti-Molnar,  W. A. Goddard III,  
 A. Golubeva-Zadorozhnaya,  S. R. Gwaltney,  G. Hawkins,  A. Heyden,  
 S. Hirata,  G. Kedziora,  F. J. Keil,  C. Kelley,  Jihan Kim,  R. A. King,  
 R. Z. Khaliullin,  P. P. Korambath,  W. Kurlancheek,  A. M. Lee,  M. S. Lee,  
 S. V. Levchenko,  Ching Yeh Lin,  D. Liotard,  R. C. Lochan,  I. Lotan,  
 P. E. Maslen,  N. Nair,  D. P. O'Neill,  D. Neuhauser,  E. Neuscamman,  
 C. M. Oana,  R. Olson,  B. Peters,  R. Peverati,  P. A. Pieniazek,  
 Y. M. Rhee,  J. Ritchie,  M. A. Rohrdanz,  E. Rosta,  N. J. Russ,  
 H. F. Schaefer III,  N. E. Schultz,  N. Shenvi,  A. C. Simmonett,  A. Sodt,  
 D. Stuck,  K. S. Thanthiriwatte,  V. Vanovschi,  Tao Wang,  A. Warshel,  
 C. F. Williams,  Q. Wu,  X. Xu,  W. Zhang

 Please cite Q-Chem as follows:
 Y. Shao et al., Mol. Phys. 113, 184-215 (2015)
 DOI: 10.1080/00268976.2014.952696

 Q-Chem 5.3.0 for Intel X86 EM64T Linux

 Parts of Q-Chem use Armadillo 9.800.1 (Horizon Scraper).
 http://arma.sourceforge.net/

 Q-Chem begins on Tue Jul 21 09:14:43 2020  

Host: centos77-c3
0

     Scratch files written to /tmp/29705.centos77-h1/qchem77793//
Processing $rem in /opt/qchem-5.3.0-intel2020u1//config/preferences:
Processing $rem in /home/shihchengli/.qchemrc:

Checking the input file for inconsistencies... 	...done.

--------------------------------------------------------------
User input:
--------------------------------------------------------------
i$comment
Optimize the saddle point structure for the C2H5OH -> C2H4 + H2O reaction. 
Job 1: Hessian evaluation.
Job 2: Saddle point optimization.   Note that the Hessian from a previous calculation is read in.
Job 3: Hessian evaluation and frequency calculation.  This confirms that we indeed reach a saddle point.
$end

$molecule
0 1
C        -5.5442124276    0.5556646819   -0.0590253767
C        -4.4564313935    1.4615476527    0.0231464318
H        -5.9750906626    0.3565370011   -1.0378171388
H        -6.2449323072    0.5114473557    0.7710954911
H        -4.5254054502   -0.3765120236    0.1602042875
O        -3.3224596779   -0.0688240477    0.3899471992
H        -4.2385397952    2.0048298279    0.9359373263
H        -3.9665441606    1.8354368587   -0.8705685869
H        -2.4071165225   -0.4169900496    0.2599705299
$end

$rem
JOBTYPE freq
EXCHANGE omegaB97X-D
BASIS 6-311+G(2df,2pd)
XC_GRID 000075000302
SYM_IGNORE TRUE
$end

--------------------------------------------------------------
 ----------------------------------------------------------------
             Standard Nuclear Orientation (Angstroms)
    I     Atom           X                Y                Z
 ----------------------------------------------------------------
    1      C      -5.5442124276     0.5556646819    -0.0590253767
    2      C      -4.4564313935     1.4615476527     0.0231464318
    3      H      -5.9750906626     0.3565370011    -1.0378171388
    4      H      -6.2449323072     0.5114473557     0.7710954911
    5      H      -4.5254054502    -0.3765120236     0.1602042875
    6      O      -3.3224596779    -0.0688240477     0.3899471992
    7      H      -4.2385397952     2.0048298279     0.9359373263
    8      H      -3.9665441606     1.8354368587    -0.8705685869
    9      H      -2.4071165225    -0.4169900496     0.2599705299
 ----------------------------------------------------------------
 Nuclear Repulsion Energy =          78.14993764 hartrees
 There are       13 alpha and       13 beta electrons
 Requested basis set is 6-311+G(2df,2pd)
 There are 60 shells and 186 basis functions

 Total QAlloc Memory Limit   2000 MB
 Mega-Array Size       188 MB
 MEM_STATIC part       192 MB

                       Distance Matrix (Angstroms)
             C (  1)   C (  2)   H (  3)   H (  4)   H (  5)   O (  6)
   C (  2)  1.417972
   H (  3)  1.087815  2.157086
   H (  4)  1.087228  2.158901  1.835477
   H (  5)  1.398207  1.844453  2.018466  2.029392
   O (  6)  2.351116  1.939709  3.042350  3.003803  1.262748
   H (  7)  2.189706  1.084352  3.102932  2.506586  2.520881  2.331812
   H (  8)  2.187569  1.085592  2.499875  3.104684  2.503505  2.372753
   H (  9)  3.299877  2.790104  3.874666  3.981466  2.121023  0.987910
             H (  7)   H (  8)
   H (  8)  1.834704
   H (  9)  3.110668  2.963673
 
 A cutoff of  1.0D-11 yielded   1795 shell pairs
 There are     17418 function pairs (     21640 Cartesian)
 Smallest overlap matrix eigenvalue = 8.84E-05
 Guess from superposition of atomic densities
 Warning:  Energy on first SCF cycle will be non-variational
 SAD guess density has 26.000000 electrons

 -----------------------------------------------------------------------
  General SCF calculation program by
  Eric Jon Sundstrom, Paul Horn, Yuezhi Mao, Dmitri Zuev, Alec White,
  David Stuck, Shaama M.S., Shane Yost, Joonho Lee, David Small,
  Daniel Levine, Susi Lehtola, Hugh Burton, Evgeny Epifanovsky,
  Bang C. Huynh
 -----------------------------------------------------------------------
 Exchange:     0.2220 Hartree-Fock + 1.0000 wB97X-D + LR-HF
 Correlation:  1.0000 wB97X-D
 Using Euler-Maclaurin-Lebedev (75,302) quadrature formula
 Dispersion:   Grimme D
 using 5 threads for integral computing
 -------------------------------------------------------
 OpenMP Integral computing Module                
 Release: version 1.0, May 2013, Q-Chem Inc. Pittsburgh 
 -------------------------------------------------------
 using 5 threads for integral computing
 -------------------------------------------------------
 OpenMP Integral computing Module                
 Release: version 1.0, May 2013, Q-Chem Inc. Pittsburgh 
 -------------------------------------------------------
 A restricted SCF calculation will be
 performed using DIIS
 SCF converges when DIIS error is below 1.0e-08
 ---------------------------------------
  Cycle       Energy         DIIS error
 ---------------------------------------
    1    -155.2109317113      2.89e-02  
    2    -154.8497998891      4.85e-03  
    3    -154.8072230940      6.40e-03  
    4    -154.9316174797      7.11e-04  
    5    -154.9335441040      2.23e-04  
    6    -154.9337288568      3.78e-05  
    7    -154.9337349176      1.54e-05  
    8    -154.9337360300      3.26e-06  
    9    -154.9337360961      6.58e-07  
   10    -154.9337361016      1.90e-07  
   11    -154.9337361020      3.87e-08  
   12    -154.9337361020      1.14e-08  
   13    -154.9337361020      3.47e-09  Convergence criterion met
 ---------------------------------------
 SCF time:   CPU 75.57s  wall 15.00s 
 SCF   energy in the final basis set =     -154.9337361020
 Total energy in the final basis set =     -154.9337361020
 
 --------------------------------------------------------------
 
                    Orbital Energies (a.u.)
 --------------------------------------------------------------
 
 Alpha MOs
 -- Occupied --
-19.2255 -10.3512 -10.2649  -1.0535  -0.8707  -0.6983  -0.6075  -0.5660
 -0.4994  -0.4510  -0.4163  -0.3861  -0.3283
 -- Virtual --
  0.0352   0.0740   0.0883   0.1006   0.1137   0.1301   0.1376   0.1438
  0.1701   0.1859   0.2229   0.2378   0.2628   0.2702   0.2876   0.3090
  0.3292   0.3496   0.3513   0.3919   0.4599   0.4665   0.4860   0.5443
  0.5614   0.5760   0.5838   0.6058   0.6243   0.6433   0.6529   0.6805
  0.6993   0.7233   0.8149   0.8453   0.8507   0.8979   0.9049   0.9434
  1.0002   1.0141   1.0690   1.0890   1.1263   1.1714   1.1922   1.2267
  1.2374   1.2701   1.3023   1.3133   1.3201   1.3812   1.4077   1.4290
  1.4533   1.4686   1.4704   1.5004   1.5450   1.5594   1.5951   1.6264
  1.7165   1.7376   1.7928   1.9079   2.0131   2.2479   2.3138   2.3970
  2.4654   2.6033   2.6334   2.6740   2.6904   2.7507   2.7860   2.8060
  2.8683   2.9106   2.9208   2.9444   3.0148   3.0218   3.0608   3.0793
  3.1009   3.1287   3.1510   3.1965   3.2514   3.2645   3.3111   3.3329
  3.3617   3.3773   3.4033   3.4257   3.4723   3.4776   3.5006   3.5450
  3.5631   3.5806   3.5980   3.6729   3.6900   3.7144   3.7506   3.8276
  3.8661   3.8832   3.9155   3.9320   3.9372   3.9784   4.0130   4.0391
  4.0759   4.1548   4.1802   4.1953   4.2336   4.2554   4.2745   4.2982
  4.3381   4.4032   4.4441   4.5108   4.5297   4.6088   4.6217   4.7038
  4.7577   4.8170   4.8391   4.9222   4.9577   4.9939   5.0732   5.0856
  5.1864   5.2077   5.2272   5.2557   5.2722   5.3107   5.3445   5.3958
  5.4994   5.6007   5.6415   5.7664   5.9033   6.1773   6.1889   6.2721
  6.3893   6.4579   6.6085   6.9680   7.0390   7.1121   7.3602   7.6852
  7.7160   8.1375  24.9524  25.2879  50.4094
 --------------------------------------------------------------
 
          Ground-State Mulliken Net Atomic Charges

     Atom                 Charge (a.u.)
  ----------------------------------------
      1 C                    -0.253352
      2 C                     0.073987
      3 H                     0.052189
      4 H                     0.053686
      5 H                     0.162087
      6 O                    -0.423582
      7 H                     0.076149
      8 H                     0.071759
      9 H                     0.187076
  ----------------------------------------
  Sum of atomic charges =     0.000000

 -----------------------------------------------------------------
                    Cartesian Multipole Moments
 -----------------------------------------------------------------
    Charge (ESU x 10^10)
                 0.0000
    Dipole Moment (Debye)
         X       0.2983      Y       0.9923      Z      -0.6696
       Tot       1.2337
    Quadrupole Moments (Debye-Ang)
        XX     -21.3218     XY      -4.2090     YY     -18.3108
        XZ       1.9348     YZ       0.3592     ZZ     -20.5272
    Octopole Moments (Debye-Ang^2)
       XXX     276.6476    XXY       0.9246    XYY      85.3760
       YYY     -34.4537    XXZ      -6.1651    XYZ      -2.4888
       YYZ      -1.3039    XZZ      89.5050    YZZ     -10.5003
       ZZZ      -8.1646
    Hexadecapole Moments (Debye-Ang^3)
      XXXX   -2619.6907   XXXY     159.8023   XXYY    -446.2106
      XYYY     172.1625   YYYY    -125.0614   XXXZ      15.9937
      XXYZ      14.9404   XYYZ       1.6080   YYYZ       2.4783
      XXZZ    -420.9978   XYZZ      52.2224   YYZZ     -25.2815
      XZZZ      24.9593   YZZZ       1.2398   ZZZZ     -41.0398
 -----------------------------------------------------------------
 Calculating MO derivatives via CPSCF
    1     0    30    0.0353212  
    2     0    30    0.0143950  
    3     0    30    0.0023833  
    4     0    30    0.0004119  
    5     0    30    0.0000560  
    6    24     6    0.0000047  
    7    30     0    0.0000004  Converged
 Time for AOints: 22.2 s (CPU) 4.4 s (wall)
 ------------------------------------------------------------------------------
                     AOints        : Timing summary (seconds)
 ------------------------------------------------------------------------------
     job step          cpu (% of tot)      sys (% of tot)     wall (% of tot)
 ------------------------------------------------------------------------------
  AOints            0.2221E+02 ( 5.0)   0.1000E-05 ( 0.6)   0.4446E+01 ( 5.0)
 ------------------------------------------------------------------------------
   Grand Totals     0.4441E+03          0.1760E-03          0.8892E+02
 ------------------------------------------------------------------------------
 Polarizability Matrix (a.u.)
            1           2           3
    1 -49.3440307   4.3055879  -2.8408049
    2   4.3055879 -38.6959881   1.3936323
    3  -2.8408049   1.3936323 -30.0911791
 Calculating analytic Hessian of the SCF energy
atom: 0 element: 6
atom: 1 element: 6
atom: 2 element: 1
atom: 3 element: 1
atom: 4 element: 1
atom: 5 element: 8
atom: 6 element: 1
atom: 7 element: 1
atom: 8 element: 1
 
 Direct stationary perturbation theory relativistic correction:
 
 rels  =       0.047888661248
 relv  =      -0.196954179352
 rel2e =       0.000000000000
 E_rel =      -0.149065518105
 
 Hessian of the SCF Energy
            1           2           3           4           5           6
    1   0.5742624   0.1792954  -0.0250094  -0.2308173  -0.1569002  -0.0066430
    2   0.1792954   0.1840781   0.0629070  -0.0529415  -0.1710329  -0.0038996
    3  -0.0250094   0.0629070   0.6142374  -0.0130059  -0.0172669  -0.1099928
    4  -0.2308173  -0.0529415  -0.0130059   0.3148752   0.2662451  -0.0720896
    5  -0.1569002  -0.1710329  -0.0172669   0.2662451   0.4126618   0.0604977
    6  -0.0066430  -0.0038996  -0.1099928  -0.0720896   0.0604977   0.6380186
    7  -0.0923494  -0.0351989  -0.0956908  -0.0004098  -0.0019063  -0.0199329
    8  -0.0250781  -0.0302802  -0.0379704  -0.0178592  -0.0052804  -0.0245763
    9  -0.0950193  -0.0490177  -0.2806515   0.0013867   0.0021253   0.0021117
   10  -0.1639112  -0.0214635   0.1394842  -0.0059186   0.0019427   0.0174647
   11  -0.0091850  -0.0245247  -0.0056959  -0.0239811  -0.0016708   0.0199607
   12   0.1371488   0.0017827  -0.2175097   0.0003296  -0.0009375   0.0040606
   13   0.0027883  -0.1052456   0.0137190   0.1088120  -0.0141991   0.0139910
   14   0.0160538  -0.0291219   0.0019470  -0.0037745  -0.0286348   0.0015158
   15   0.0032276  -0.0143441  -0.0273340   0.0142641   0.0023373   0.0049256
   16  -0.0774760   0.0471410  -0.0161757  -0.0096434  -0.0104976   0.0078347
   17   0.0082409   0.0375463  -0.0009799  -0.0472023  -0.0272618   0.0051388
   18  -0.0048523   0.0052136   0.0083822  -0.0005982   0.0063430  -0.0159024
   19   0.0006150  -0.0122216  -0.0188771  -0.0569692  -0.0372098  -0.0441773
   20  -0.0052090   0.0024490  -0.0175183  -0.0407204  -0.1172782  -0.1211776
   21   0.0011612   0.0007217   0.0038517  -0.0434561  -0.1238732  -0.2664634
   22  -0.0056554  -0.0087806   0.0189339  -0.1019017  -0.0529878   0.1088048
   23  -0.0096603   0.0055034   0.0153899  -0.0557607  -0.0785037   0.0730784
   24  -0.0020573  -0.0036674   0.0062749   0.1089346   0.0762225  -0.2558906
   25  -0.0074564   0.0094152  -0.0033781  -0.0180272   0.0055130  -0.0052525
   26   0.0024425   0.0253830  -0.0008125  -0.0240053   0.0170008  -0.0105378
   27  -0.0079563   0.0003038   0.0027418   0.0042349  -0.0054482  -0.0008673
            7           8           9          10          11          12
    1  -0.0923494  -0.0250781  -0.0950193  -0.1639112  -0.0091850   0.1371488
    2  -0.0351989  -0.0302802  -0.0490177  -0.0214635  -0.0245247   0.0017827
    3  -0.0956908  -0.0379704  -0.2806515   0.1394842  -0.0056959  -0.2175097
    4  -0.0004098  -0.0178592   0.0013867  -0.0059186  -0.0239811   0.0003296
    5  -0.0019063  -0.0052804   0.0021253   0.0019427  -0.0016708  -0.0009375
    6  -0.0199329  -0.0245763   0.0021117   0.0174647   0.0199607   0.0040606
    7   0.0933953   0.0322597   0.1044846   0.0094992   0.0044078   0.0173039
    8   0.0322597   0.0426063   0.0501634   0.0014296  -0.0014656   0.0009245
    9   0.1044846   0.0501634   0.2938051  -0.0104087  -0.0025498  -0.0151445
   10   0.0094992   0.0014296  -0.0104087   0.1711573   0.0174514  -0.1496197
   11   0.0044078  -0.0014656  -0.0025498   0.0174514   0.0340178  -0.0040217
   12   0.0173039   0.0009245  -0.0151445  -0.1496197  -0.0040217   0.2263782
   13  -0.0058740   0.0090242   0.0001084  -0.0071056   0.0112710  -0.0035287
   14  -0.0023881   0.0023678  -0.0009113  -0.0013309   0.0005390  -0.0000130
   15  -0.0076903   0.0124124  -0.0029285   0.0064387  -0.0098674   0.0006544
   16  -0.0033218   0.0020121  -0.0001430  -0.0032832   0.0022379  -0.0015025
   17   0.0026332  -0.0041100   0.0000935   0.0019581  -0.0030305   0.0015080
   18   0.0009391  -0.0012920   0.0006140  -0.0012872   0.0016927   0.0001388
   19   0.0003989  -0.0069148   0.0000827  -0.0006067   0.0040065  -0.0010527
   20  -0.0035122   0.0003657   0.0008235   0.0015654  -0.0018297   0.0013523
   21   0.0010012  -0.0005734   0.0011035  -0.0006187   0.0006977   0.0006845
   22  -0.0008621   0.0041003  -0.0001415   0.0003855  -0.0066854   0.0007932
   23   0.0018478  -0.0019961  -0.0003590  -0.0030771  -0.0000329  -0.0016371
   24  -0.0002324   0.0010945   0.0010933  -0.0005419  -0.0013040   0.0012770
   25  -0.0004763   0.0010261  -0.0003501  -0.0002168   0.0004769   0.0001280
   26   0.0018570  -0.0022074  -0.0003678   0.0015244  -0.0020026   0.0010417
   27  -0.0001824  -0.0001827  -0.0000031  -0.0009114   0.0010878  -0.0005393
           13          14          15          16          17          18
    1   0.0027883   0.0160538   0.0032276  -0.0774760   0.0082409  -0.0048523
    2  -0.1052456  -0.0291219  -0.0143441   0.0471410   0.0375463   0.0052136
    3   0.0137190   0.0019470  -0.0273340  -0.0161757  -0.0009799   0.0083822
    4   0.1088120  -0.0037745   0.0142641  -0.0096434  -0.0472023  -0.0005982
    5  -0.0141991  -0.0286348   0.0023373  -0.0104976  -0.0272618   0.0063430
    6   0.0139910   0.0015158   0.0049256   0.0078347   0.0051388  -0.0159024
    7  -0.0058740  -0.0023881  -0.0076903  -0.0033218   0.0026332   0.0009391
    8   0.0090242   0.0023678   0.0124124   0.0020121  -0.0041100  -0.0012920
    9   0.0001084  -0.0009113  -0.0029285  -0.0001430   0.0000935   0.0006140
   10  -0.0071056  -0.0013309   0.0064387  -0.0032832   0.0019581  -0.0012872
   11   0.0112710   0.0005390  -0.0098674   0.0022379  -0.0030305   0.0016927
   12  -0.0035287  -0.0000130   0.0006544  -0.0015025   0.0015080   0.0001388
   13  -0.0980046   0.0346267  -0.0158041  -0.0069128   0.0191088  -0.0106507
   14   0.0346267   0.0876388   0.0081148  -0.0492085  -0.0325427  -0.0123152
   15  -0.0158041   0.0081148   0.0419698  -0.0045171  -0.0119099  -0.0126081
   16  -0.0069128  -0.0492085  -0.0045171   0.4777304  -0.1146121  -0.0370559
   17   0.0191088  -0.0325427  -0.0119099  -0.1146121   0.1685838   0.0201379
   18  -0.0106507  -0.0123152  -0.0126081  -0.0370559   0.0201379   0.0314326
   19  -0.0032542  -0.0013127  -0.0008014  -0.0043964   0.0083039   0.0024689
   20   0.0045784   0.0006095   0.0012289   0.0063192  -0.0107364  -0.0031625
   21  -0.0018111   0.0002246  -0.0005155  -0.0008011   0.0046392   0.0024626
   22  -0.0045615  -0.0010138  -0.0000469  -0.0001329   0.0104083  -0.0063597
   23   0.0057879   0.0004229   0.0001275   0.0018258  -0.0126816   0.0066533
   24  -0.0000948  -0.0005766   0.0000224  -0.0019740   0.0008011   0.0010376
   25   0.0141125   0.0083479   0.0049296  -0.3725640   0.1111612   0.0573960
   26   0.0350477  -0.0012786   0.0119005   0.1147822  -0.1157670  -0.0232708
   27   0.0040709   0.0020139  -0.0041863   0.0543345  -0.0194286  -0.0155572
           19          20          21          22          23          24
    1   0.0006150  -0.0052090   0.0011612  -0.0056554  -0.0096603  -0.0020573
    2  -0.0122216   0.0024490   0.0007217  -0.0087806   0.0055034  -0.0036674
    3  -0.0188771  -0.0175183   0.0038517   0.0189339   0.0153899   0.0062749
    4  -0.0569692  -0.0407204  -0.0434561  -0.1019017  -0.0557607   0.1089346
    5  -0.0372098  -0.1172782  -0.1238732  -0.0529878  -0.0785037   0.0762225
    6  -0.0441773  -0.1211776  -0.2664634   0.1088048   0.0730784  -0.2558906
    7   0.0003989  -0.0035122   0.0010012  -0.0008621   0.0018478  -0.0002324
    8  -0.0069148   0.0003657  -0.0005734   0.0041003  -0.0019961   0.0010945
    9   0.0000827   0.0008235   0.0011035  -0.0001415  -0.0003590   0.0010933
   10  -0.0006067   0.0015654  -0.0006187   0.0003855  -0.0030771  -0.0005419
   11   0.0040065  -0.0018297   0.0006977  -0.0066854  -0.0000329  -0.0013040
   12  -0.0010527   0.0013523   0.0006845   0.0007932  -0.0016371   0.0012770
   13  -0.0032542   0.0045784  -0.0018111  -0.0045615   0.0057879  -0.0000948
   14  -0.0013127   0.0006095   0.0002246  -0.0010138   0.0004229  -0.0005766
   15  -0.0008014   0.0012289  -0.0005155  -0.0000469   0.0001275   0.0000224
   16  -0.0043964   0.0063192  -0.0008011  -0.0001329   0.0018258  -0.0019740
   17   0.0083039  -0.0107364   0.0046392   0.0104083  -0.0126816   0.0008011
   18   0.0024689  -0.0031625   0.0024626  -0.0063597   0.0066533   0.0010376
   19   0.0569508   0.0385836   0.0499126   0.0055622   0.0049791   0.0117544
   20   0.0385836   0.1183131   0.1301876  -0.0000118   0.0106192   0.0086294
   21   0.0499126   0.1301876   0.2728561  -0.0056507  -0.0125589  -0.0142566
   22   0.0055622  -0.0000118  -0.0056507   0.1062449   0.0547394  -0.1159522
   23   0.0049791   0.0106192  -0.0125589   0.0547394   0.0775963  -0.0817975
   24   0.0117544   0.0086294  -0.0142566  -0.1159522  -0.0817975   0.2608021
   25   0.0016995  -0.0015932   0.0002627   0.0009210  -0.0006817   0.0001636
   26   0.0017857  -0.0025122   0.0005348   0.0002315  -0.0009276   0.0005980
   27   0.0006900  -0.0003634   0.0002771  -0.0003810   0.0011034  -0.0003602
           25          26          27
    1  -0.0074564   0.0024425  -0.0079563
    2   0.0094152   0.0253830   0.0003038
    3  -0.0033781  -0.0008125   0.0027418
    4  -0.0180272  -0.0240053   0.0042349
    5   0.0055130   0.0170008  -0.0054482
    6  -0.0052525  -0.0105378  -0.0008673
    7  -0.0004763   0.0018570  -0.0001824
    8   0.0010261  -0.0022074  -0.0001827
    9  -0.0003501  -0.0003678  -0.0000031
   10  -0.0002168   0.0015244  -0.0009114
   11   0.0004769  -0.0020026   0.0010878
   12   0.0001280   0.0010417  -0.0005393
   13   0.0141125   0.0350477   0.0040709
   14   0.0083479  -0.0012786   0.0020139
   15   0.0049296   0.0119005  -0.0041863
   16  -0.3725640   0.1147822   0.0543345
   17   0.1111612  -0.1157670  -0.0194286
   18   0.0573960  -0.0232708  -0.0155572
   19   0.0016995   0.0017857   0.0006900
   20  -0.0015932  -0.0025122  -0.0003634
   21   0.0002627   0.0005348   0.0002771
   22   0.0009210   0.0002315  -0.0003810
   23  -0.0006817  -0.0009276   0.0011034
   24   0.0001636   0.0005980  -0.0003602
   25   0.3820077  -0.1336656  -0.0538992
   26  -0.1336656   0.0823115   0.0209139
   27  -0.0538992   0.0209139   0.0184945
 **********************************************************************
 **                                                                  **
 **                       VIBRATIONAL ANALYSIS                       **
 **                       --------------------                       **
 **                                                                  **
 **        VIBRATIONAL FREQUENCIES (CM**-1) AND NORMAL MODES         **
 **     FORCE CONSTANTS (mDYN/ANGSTROM) AND REDUCED MASSES (AMU)     **
 **                  INFRARED INTENSITIES (KM/MOL)                   **
 **                                                                  **
 **********************************************************************
 

 Mode:                 1                      2                      3
 Frequency:     -1868.83                 356.82                 471.61
 Force Cnst:      2.2693                 0.1889                 0.2153
 Red. Mass:       1.1028                 2.5187                 1.6432
 IR Active:          YES                    YES                    YES
 IR Intens:      863.381                213.079                169.112
 Raman Active:       YES                    YES                    YES
               X      Y      Z        X      Y      Z        X      Y      Z
 C         -0.010  0.059 -0.007    0.066 -0.014  0.026    0.043 -0.026  0.042
 C         -0.064  0.017 -0.010   -0.164  0.236 -0.032    0.067 -0.052  0.057
 H          0.037 -0.066  0.000    0.167 -0.223  0.023    0.347 -0.340 -0.028
 H          0.034 -0.064  0.021    0.012 -0.031 -0.018   -0.221  0.284 -0.166
 H          0.936 -0.141  0.119   -0.288  0.123  0.124    0.050 -0.146  0.410
 O         -0.004 -0.020  0.004    0.091 -0.160 -0.042   -0.096  0.074 -0.130
 H          0.009 -0.033  0.005   -0.184  0.214 -0.015   -0.130  0.085  0.027
 H          0.012 -0.036  0.006   -0.099  0.168 -0.020    0.192 -0.116  0.103
 H         -0.092 -0.241 -0.018    0.105 -0.367  0.647   -0.020 -0.006  0.531
 TransDip   0.645 -0.673  0.133   -0.430  0.158  0.095    0.241 -0.169  0.294

 Mode:                 4                      5                      6
 Frequency:       529.20                 618.97                 824.80
 Force Cnst:      0.2056                 0.5075                 0.4273
 Red. Mass:       1.2461                 2.2483                 1.0660
 IR Active:          YES                    YES                    YES
 IR Intens:       70.766                 38.681                  3.412
 Raman Active:       YES                    YES                    YES
               X      Y      Z        X      Y      Z        X      Y      Z
 C          0.068 -0.038  0.002   -0.195  0.123 -0.036    0.006 -0.010 -0.034
 C          0.039  0.006 -0.023   -0.025 -0.139  0.008    0.011 -0.008 -0.059
 H         -0.264  0.287  0.084   -0.266  0.222 -0.023   -0.278 -0.245  0.143
 H          0.359 -0.357  0.234   -0.134  0.111  0.016    0.221  0.303  0.170
 H          0.096 -0.112 -0.261   -0.002  0.081  0.010   -0.045  0.010  0.211
 O         -0.093  0.030 -0.018    0.165  0.009 -0.030    0.002  0.014  0.009
 H          0.178 -0.067 -0.015    0.088 -0.251  0.041   -0.188 -0.453  0.251
 H         -0.159  0.132 -0.084    0.016 -0.181  0.019    0.119  0.494  0.208
 H         -0.000  0.028  0.579    0.289  0.061  0.739   -0.053 -0.115 -0.026
 TransDip   0.167 -0.078  0.197   -0.094  0.025  0.174   -0.029 -0.033  0.040

 Mode:                 7                      8                      9
 Frequency:       881.54                 924.22                1078.10
 Force Cnst:      0.4684                 0.5964                 0.8158
 Red. Mass:       1.0229                 1.1850                 1.1913
 IR Active:          YES                    YES                    YES
 IR Intens:        6.710                 44.336                 61.641
 Raman Active:       YES                    YES                    YES
               X      Y      Z        X      Y      Z        X      Y      Z
 C         -0.001 -0.013  0.007    0.037 -0.114  0.014    0.019  0.067  0.025
 C          0.005 -0.006 -0.009   -0.024  0.023 -0.002    0.011 -0.034 -0.020
 H          0.233  0.114 -0.124   -0.236  0.641 -0.031    0.174 -0.144  0.003
 H         -0.225 -0.068 -0.185   -0.193  0.614 -0.127   -0.048  0.171 -0.032
 H         -0.069  0.019  0.312    0.145 -0.203  0.022    0.139 -0.195 -0.111
 O          0.006  0.024  0.010    0.015 -0.007  0.001   -0.020 -0.081  0.010
 H          0.492 -0.295  0.039   -0.092  0.110 -0.033   -0.162  0.039 -0.024
 H         -0.482  0.285 -0.163   -0.028  0.035 -0.003   -0.405  0.355 -0.094
 H         -0.090 -0.214 -0.016    0.017 -0.006  0.016    0.272  0.656  0.035
 TransDip  -0.048 -0.058  0.034    0.108  0.184  0.004    0.225  0.113  0.008

 Mode:                10                     11                     12
 Frequency:      1131.34                1218.70                1230.75
 Force Cnst:      0.9063                 1.8936                 1.3002
 Red. Mass:       1.2018                 2.1640                 1.4569
 IR Active:          YES                    YES                    YES
 IR Intens:       26.789                 76.380                  9.158
 Raman Active:       YES                    YES                    YES
               X      Y      Z        X      Y      Z        X      Y      Z
 C         -0.014 -0.050  0.028   -0.200 -0.107  0.003   -0.002  0.016  0.149
 C         -0.040  0.100 -0.033    0.202  0.109  0.004    0.007 -0.036 -0.129
 H          0.016 -0.139  0.026   -0.289 -0.234  0.047    0.396  0.288 -0.084
 H         -0.154  0.093 -0.078   -0.378 -0.249 -0.130   -0.300 -0.230 -0.124
 H          0.078 -0.023 -0.164    0.201 -0.098 -0.082    0.020  0.090 -0.398
 O         -0.025 -0.021  0.002    0.018 -0.019  0.003    0.001  0.019  0.007
 H          0.562 -0.404  0.122    0.046  0.421 -0.115   -0.386 -0.256  0.089
 H          0.410 -0.190  0.088    0.089  0.510  0.078    0.262  0.217  0.119
 H          0.138  0.406  0.034    0.015 -0.071  0.063   -0.064 -0.168  0.053
 TransDip   0.108  0.125 -0.015    0.274 -0.033  0.047   -0.076 -0.010 -0.059

 Mode:                13                     14                     15
 Frequency:      1269.47                1471.84                1540.86
 Force Cnst:      0.9973                 1.4188                 1.9494
 Red. Mass:       1.0503                 1.1116                 1.3935
 IR Active:          YES                    YES                    YES
 IR Intens:       22.729                  5.329                 16.471
 Raman Active:       YES                    YES                    YES
               X      Y      Z        X      Y      Z        X      Y      Z
 C         -0.006  0.014 -0.000   -0.070 -0.035 -0.007    0.106  0.064  0.011
 C          0.001  0.021 -0.044   -0.041 -0.039 -0.003   -0.097 -0.101 -0.004
 H         -0.049  0.351 -0.047    0.455  0.132 -0.260   -0.344 -0.097  0.243
 H          0.026 -0.427  0.009    0.361  0.176  0.354   -0.262 -0.129 -0.313
 H         -0.065 -0.168  0.686   -0.003  0.044  0.009   -0.072 -0.052 -0.041
 O         -0.004 -0.029 -0.008    0.001 -0.003 -0.001    0.003  0.007  0.001
 H         -0.129 -0.003  0.005    0.283  0.255 -0.242    0.321  0.283 -0.331
 H          0.238  0.004  0.077    0.207  0.306  0.262    0.213  0.350  0.351
 H          0.109  0.291 -0.082    0.005  0.013  0.007   -0.015 -0.038 -0.004
 TransDip   0.100  0.018  0.114    0.061  0.041  0.011   -0.127 -0.014 -0.025

 Mode:                16                     17                     18
 Frequency:      1643.80                3108.01                3144.02
 Force Cnst:      1.7034                 5.9994                 6.1624
 Red. Mass:       1.0700                 1.0541                 1.0581
 IR Active:          YES                    YES                    YES
 IR Intens:       65.583                  3.774                  8.410
 Raman Active:       YES                    YES                    YES
               X      Y      Z        X      Y      Z        X      Y      Z
 C          0.021 -0.041  0.001   -0.061 -0.016 -0.013   -0.011 -0.005 -0.000
 C          0.013 -0.024  0.003   -0.002 -0.003  0.001    0.042  0.051 -0.005
 H         -0.084  0.080  0.027    0.280  0.138  0.668    0.030  0.015  0.069
 H         -0.042  0.012 -0.052    0.415  0.029 -0.514    0.055  0.004 -0.067
 H          0.224  0.932  0.141   -0.001 -0.007 -0.000    0.008 -0.006  0.002
 O         -0.030 -0.031 -0.012    0.001 -0.000  0.000   -0.001 -0.001  0.000
 H         -0.031  0.038 -0.025    0.014  0.037  0.067   -0.125 -0.317 -0.559
 H         -0.029  0.044  0.007    0.041  0.029 -0.078   -0.333 -0.242  0.619
 H          0.028  0.172  0.042    0.001 -0.002  0.001    0.004  0.001 -0.002
 TransDip   0.099  0.238  0.030   -0.054 -0.028 -0.012    0.055  0.074 -0.009

 Mode:                19                     20                     21
 Frequency:      3189.21                3238.86                3500.10
 Force Cnst:      6.6823                 6.9173                 7.6833
 Red. Mass:       1.1151                 1.1192                 1.0645
 IR Active:          YES                    YES                    YES
 IR Intens:        5.569                  3.805                  2.863
 Raman Active:       YES                    YES                    YES
               X      Y      Z        X      Y      Z        X      Y      Z
 C          0.018 -0.007 -0.094    0.004 -0.001 -0.021   -0.000 -0.001 -0.001
 C         -0.002  0.003  0.022    0.012 -0.013 -0.097   -0.002 -0.000 -0.000
 H          0.261  0.117  0.580    0.060  0.028  0.132   -0.002  0.004 -0.000
 H         -0.470 -0.029  0.550   -0.105 -0.008  0.121   -0.002  0.002  0.001
 H          0.000 -0.000 -0.005    0.001  0.001 -0.002    0.003  0.027  0.002
 O          0.000  0.000 -0.000   -0.000 -0.000  0.001   -0.057  0.021  0.009
 H         -0.035 -0.084 -0.147    0.152  0.360  0.616    0.003 -0.002  0.001
 H          0.060  0.043 -0.109   -0.295 -0.215  0.526    0.004 -0.001 -0.002
 H         -0.003  0.000 -0.001    0.001  0.001 -0.000    0.924 -0.352 -0.135
 TransDip   0.014 -0.005 -0.074    0.014 -0.006 -0.060   -0.017 -0.041 -0.031

 STANDARD THERMODYNAMIC QUANTITIES AT   298.15 K  AND     1.00 ATM

   This Molecule has  1 Imaginary Frequencies
   Zero point vibrational energy:       44.849 kcal/mol

   Atom    1 Element C  Has Mass   12.00000
   Atom    2 Element C  Has Mass   12.00000
   Atom    3 Element H  Has Mass    1.00783
   Atom    4 Element H  Has Mass    1.00783
   Atom    5 Element H  Has Mass    1.00783
   Atom    6 Element O  Has Mass   15.99491
   Atom    7 Element H  Has Mass    1.00783
   Atom    8 Element H  Has Mass    1.00783
   Atom    9 Element H  Has Mass    1.00783
   Molecular Mass:    46.041890 amu
   Principal axes and moments of inertia in amu*Bohr^2:
                             1           2           3
    Eigenvalues --       71.26521   195.45297   241.82784
          X               0.90137     0.40403    -0.15588
          Y              -0.39198     0.91420     0.10294
          Z               0.18410    -0.03169     0.98240
   Rotational Symmetry Number is   1
   The Molecule is an Asymmetric Top
   Translational Enthalpy:        0.889 kcal/mol
   Rotational Enthalpy:           0.889 kcal/mol
   Vibrational Enthalpy:         45.625 kcal/mol
   gas constant (RT):             0.592 kcal/mol
   Translational Entropy:        37.406  cal/mol.K
   Rotational Entropy:           22.736  cal/mol.K
   Vibrational Entropy:           3.599  cal/mol.K

   Total Enthalpy:               47.995 kcal/mol
   Total Entropy:                63.742  cal/mol.K
Archival summary:
1\1\centos77-c3\FREQ\ProcedureUnspecified\BasisUnspecified\126\shihchen\TueJul2109:18:232020TueJul2109:18:232020\0\\#,FREQ,ProcedureUnspecified,BasisUnspecified,\\0,1\C\H,1,1.08435\H,1,1.08559,2,115.453\C,1,1.41797,2,121.535,3,-164.972,0\H,4,1.08723,1,118.435,2,8.18093,0\H,4,1.08781,1,118.226,2,155.136,0\H,4,1.39821,1,81.8283,2,-98.8616,0\O,7,1.26275,4,124.071,1,4.51429,0\H,8,0.98791,7,140.611,4,-150.277,0\\\@

 Total job time:  220.03s(wall), 834.58s(cpu) 
 Tue Jul 21 09:18:23 2020

        *************************************************************
        *                                                           *
        *  Thank you very much for using Q-Chem.  Have a nice day.  *
        *                                                           *
        *************************************************************


 
User input: 2 of 3 
 
                  Welcome to Q-Chem
     A Quantum Leap Into The Future Of Chemistry


 Q-Chem 5.3 (devel), Q-Chem, Inc., Pleasanton, CA (2020)

 Yihan Shao,  Zhengting Gan,  E. Epifanovsky,  A. T. B. Gilbert,  M. Wormit,  
 J. Kussmann,  A. W. Lange,  A. Behn,  Jia Deng,  Xintian Feng,  D. Ghosh,  
 M. Goldey,  P. R. Horn,  L. D. Jacobson,  I. Kaliman,  T. Kus,  A. Landau,  
 Jie Liu,  E. I. Proynov,  R. M. Richard,  R. P. Steele,  E. J. Sundstrom,  
 H. L. Woodcock III,  P. M. Zimmerman,  D. Zuev,  B. Alam,  B. Albrecht,  
 E. Alguire,  S. A. Baeppler,  D. Barton,  Z. Benda,  Y. A. Bernard,  
 E. J. Berquist,  K. B. Bravaya,  H. Burton,  K. Carter-Fenk,  D. Casanova,  
 Chun-Min Chang,  Yunqing Chen,  A. Chien,  K. D. Closser,  M. P. Coons,  
 S. Coriani,  S. Dasgupta,  A. L. Dempwolff,  M. Diedenhofen,  Hainam Do,  
 R. G. Edgar,  Po-Tung Fang,  S. Faraji,  S. Fatehi,  Qingguo Feng,  
 J. Fosso-Tande,  J. Gayvert,  Qinghui Ge,  A. Ghysels,  G. Gidofalvi,  
 J. Gomes,  J. Gonthier,  A. Gunina,  D. Hait,  M. W. D. Hanson-Heine,  
 P. H. P. Harbach,  A. W. Hauser,  M. F. Herbst,  J. E. Herr,  
 E. G. Hohenstein,  Z. C. Holden,  Kerwin Hui,  B. C. Huynh,  T.-C. Jagau,  
 Hyunjun Ji,  B. Kaduk,  K. Khistyaev,  Jaehoon Kim,  P. Klunzinger,  K. Koh,  
 D. Kosenkov,  L. Koulias,  T. Kowalczyk,  C. M. Krauter,  A. Kunitsa,  
 Ka Un Lao,  A. Laurent,  K. V. Lawler,  Joonho Lee,  D. Lefrancois,  
 S. Lehtola,  D. S. Levine,  Yi-Pei Li,  You-Sheng Lin,  Fenglai Liu,  
 Kuan-Yu Liu,  E. Livshits,  M. Loipersberger,  A. Luenser,  P. Manohar,  
 E. Mansoor,  S. F. Manzer,  Shan-Ping Mao,  Yuezhi Mao,  N. Mardirossian,  
 A. V. Marenich,  T. Markovich,  L. A. Martinez-Martinez,  S. A. Maurer,  
 N. J. Mayhall,  S. C. McKenzie,  J.-M. Mewes,  P. Morgante,  A. F. Morrison,  
 J. W. Mullinax,  K. Nanda,  T. S. Nguyen-Beck,  R. Olivares-Amaya,  
 K. J. Oosterbaan,  J. A. Parkhill,  S. K. Paul,  F. Pavosevic,  Zheng Pei,  
 T. M. Perrine,  F. Plasser,  P. Pokhilko,  S. Prager,  A. Prociuk,  
 E. Ramos,  B. Rana,  D. R. Rehn,  F. Rob,  M. Scheurer,  M. Schneider,  
 N. Sergueev,  S. M. Sharada,  S. Sharma,  D. W. Small,  T. Stauch,  
 C. J. Stein,  T. Stein,  Yu-Chuan Su,  S. P. Veccham,  Zhen Tao,  
 A. J. W. Thom,  A. Tkatchenko,  T. Tsuchimochi,  N. M. Tubman,  L. Vogt,  
 M. L. Vidal,  O. Vydrov,  M. A. Watson,  J. Wenzel,  M. de Wergifosse,  
 T. A. Wesolowski,  A. White,  J. Witte,  A. Yamada,  Jun Yang,  K. Yao,  
 S. Yeganeh,  S. R. Yost,  Zhi-Qiang You,  A. Zech,  Igor Ying Zhang,  
 Xing Zhang,  Yan Zhao,  Ying Zhu,  B. R. Brooks,  G. K. L. Chan,  
 C. J. Cramer,  M. S. Gordon,  W. J. Hehre,  A. Klamt,  M. W. Schmidt,  
 C. D. Sherrill,  D. G. Truhlar,  A. Aspuru-Guzik,  R. Baer,  A. T. Bell,  
 N. A. Besley,  Jeng-Da Chai,  A. E. DePrince, III,  R. A. DiStasio Jr.,  
 A. Dreuw,  B. D. Dunietz,  T. R. Furlani,  Chao-Ping Hsu,  Yousung Jung,  
 Jing Kong,  D. S. Lambrecht,  WanZhen Liang,  C. Ochsenfeld,  
 V. A. Rassolov,  L. V. Slipchenko,  J. E. Subotnik,  T. Van Voorhis,  
 J. M. Herbert,  A. I. Krylov,  P. M. W. Gill,  M. Head-Gordon

 Contributors to earlier versions of Q-Chem not listed above: 
 R. D. Adamson,  B. Austin,  J. Baker,  G. J. O. Beran,  K. Brandhorst,  
 S. T. Brown,  E. F. C. Byrd,  A. K. Chakraborty,  C.-L. Cheng,  
 Siu Hung Chien,  D. M. Chipman,  D. L. Crittenden,  H. Dachsel,  
 R. J. Doerksen,  A. D. Dutoi,  L. Fusti-Molnar,  W. A. Goddard III,  
 A. Golubeva-Zadorozhnaya,  S. R. Gwaltney,  G. Hawkins,  A. Heyden,  
 S. Hirata,  G. Kedziora,  F. J. Keil,  C. Kelley,  Jihan Kim,  R. A. King,  
 R. Z. Khaliullin,  P. P. Korambath,  W. Kurlancheek,  A. M. Lee,  M. S. Lee,  
 S. V. Levchenko,  Ching Yeh Lin,  D. Liotard,  R. C. Lochan,  I. Lotan,  
 P. E. Maslen,  N. Nair,  D. P. O'Neill,  D. Neuhauser,  E. Neuscamman,  
 C. M. Oana,  R. Olson,  B. Peters,  R. Peverati,  P. A. Pieniazek,  
 Y. M. Rhee,  J. Ritchie,  M. A. Rohrdanz,  E. Rosta,  N. J. Russ,  
 H. F. Schaefer III,  N. E. Schultz,  N. Shenvi,  A. C. Simmonett,  A. Sodt,  
 D. Stuck,  K. S. Thanthiriwatte,  V. Vanovschi,  Tao Wang,  A. Warshel,  
 C. F. Williams,  Q. Wu,  X. Xu,  W. Zhang

 Please cite Q-Chem as follows:
 Y. Shao et al., Mol. Phys. 113, 184-215 (2015)
 DOI: 10.1080/00268976.2014.952696

 Q-Chem 5.3.0 for Intel X86 EM64T Linux

 Parts of Q-Chem use Armadillo 9.800.1 (Horizon Scraper).
 http://arma.sourceforge.net/

 Q-Chem begins on Tue Jul 21 09:18:23 2020  

Host: centos77-c3
0

     Scratch files written to /tmp/29705.centos77-h1/qchem77793//
Processing $rem in /opt/qchem-5.3.0-intel2020u1//config/preferences:
Processing $rem in /home/shihchengli/.qchemrc:
The previous job contains 0 fragments, simply inherited here

Checking the input file for inconsistencies... 	...done.

--------------------------------------------------------------
User input:
--------------------------------------------------------------

$molecule
read
$end

$rem
JOBTYPE ts
EXCHANGE omegaB97X-D
BASIS 6-311+G(2df,2pd)
XC_GRID 000075000302
SYM_IGNORE TRUE
GEOM_OPT_HESSIAN READ
GEOM_OPT_MAXCYC 100
$end

--------------------------------------------------------------
 ----------------------------------------------------------------
             Standard Nuclear Orientation (Angstroms)
    I     Atom           X                Y                Z
 ----------------------------------------------------------------
    1      C      -5.5442124276     0.5556646819    -0.0590253767
    2      C      -4.4564313935     1.4615476527     0.0231464318
    3      H      -5.9750906626     0.3565370011    -1.0378171388
    4      H      -6.2449323072     0.5114473557     0.7710954911
    5      H      -4.5254054502    -0.3765120236     0.1602042875
    6      O      -3.3224596779    -0.0688240477     0.3899471992
    7      H      -4.2385397952     2.0048298279     0.9359373263
    8      H      -3.9665441606     1.8354368587    -0.8705685869
    9      H      -2.4071165225    -0.4169900496     0.2599705299
 ----------------------------------------------------------------
 Nuclear Repulsion Energy =          78.14993764 hartrees
 There are       13 alpha and       13 beta electrons
 Requested basis set is 6-311+G(2df,2pd)
 There are 60 shells and 186 basis functions

 Total QAlloc Memory Limit   2000 MB
 Mega-Array Size       188 MB
 MEM_STATIC part       192 MB
 A cutoff of  1.0D-11 yielded   1795 shell pairs
 There are     17418 function pairs (     21640 Cartesian)
 Smallest overlap matrix eigenvalue = 8.84E-05

 Scale SEOQF with 1.000000e-02/1.000000e-01/1.000000e-01

 Standard Electronic Orientation quadrupole field applied
 Nucleus-field energy     =     0.0000000030 hartrees
 Guess from superposition of atomic densities
 Warning:  Energy on first SCF cycle will be non-variational
 SAD guess density has 26.000000 electrons

 -----------------------------------------------------------------------
  General SCF calculation program by
  Eric Jon Sundstrom, Paul Horn, Yuezhi Mao, Dmitri Zuev, Alec White,
  David Stuck, Shaama M.S., Shane Yost, Joonho Lee, David Small,
  Daniel Levine, Susi Lehtola, Hugh Burton, Evgeny Epifanovsky,
  Bang C. Huynh
 -----------------------------------------------------------------------
 Exchange:     0.2220 Hartree-Fock + 1.0000 wB97X-D + LR-HF
 Correlation:  1.0000 wB97X-D
 Using Euler-Maclaurin-Lebedev (75,302) quadrature formula
 Dispersion:   Grimme D
 using 5 threads for integral computing
 -------------------------------------------------------
 OpenMP Integral computing Module                
 Release: version 1.0, May 2013, Q-Chem Inc. Pittsburgh 
 -------------------------------------------------------
 using 5 threads for integral computing
 -------------------------------------------------------
 OpenMP Integral computing Module                
 Release: version 1.0, May 2013, Q-Chem Inc. Pittsburgh 
 -------------------------------------------------------
 A restricted SCF calculation will be
 performed using DIIS
 SCF converges when DIIS error is below 1.0e-08
 ---------------------------------------
  Cycle       Energy         DIIS error
 ---------------------------------------
    1    -155.2109317111      2.89e-02  
    2    -154.8497998890      4.85e-03  
    3    -154.8072230940      6.40e-03  
    4    -154.9316174795      7.11e-04  
    5    -154.9335441038      2.23e-04  
    6    -154.9337288566      3.78e-05  
    7    -154.9337349174      1.54e-05  
    8    -154.9337360298      3.26e-06  
    9    -154.9337360959      6.58e-07  
   10    -154.9337361014      1.90e-07  
   11    -154.9337361018      3.87e-08  
   12    -154.9337361018      1.14e-08  
   13    -154.9337361018      3.47e-09  Convergence criterion met
 ---------------------------------------
 SCF time:   CPU 75.25s  wall 15.00s 
 SCF   energy in the final basis set =     -154.9337361018
 Total energy in the final basis set =     -154.9337361018
 
 --------------------------------------------------------------
 
                    Orbital Energies (a.u.)
 --------------------------------------------------------------
 
 Alpha MOs
 -- Occupied --
-19.2255 -10.3512 -10.2649  -1.0535  -0.8707  -0.6983  -0.6075  -0.5660
 -0.4994  -0.4510  -0.4163  -0.3861  -0.3283
 -- Virtual --
  0.0352   0.0740   0.0883   0.1006   0.1137   0.1301   0.1376   0.1438
  0.1701   0.1859   0.2229   0.2378   0.2628   0.2702   0.2876   0.3090
  0.3292   0.3496   0.3513   0.3919   0.4599   0.4665   0.4860   0.5443
  0.5614   0.5760   0.5838   0.6058   0.6243   0.6433   0.6529   0.6805
  0.6993   0.7233   0.8149   0.8453   0.8507   0.8979   0.9049   0.9434
  1.0002   1.0141   1.0690   1.0890   1.1263   1.1714   1.1922   1.2267
  1.2374   1.2701   1.3023   1.3133   1.3201   1.3812   1.4077   1.4290
  1.4533   1.4686   1.4704   1.5004   1.5450   1.5594   1.5951   1.6264
  1.7165   1.7376   1.7928   1.9079   2.0131   2.2479   2.3138   2.3970
  2.4654   2.6033   2.6334   2.6740   2.6904   2.7507   2.7860   2.8060
  2.8683   2.9106   2.9208   2.9444   3.0148   3.0218   3.0608   3.0793
  3.1009   3.1287   3.1510   3.1965   3.2514   3.2645   3.3111   3.3329
  3.3617   3.3773   3.4033   3.4257   3.4723   3.4776   3.5006   3.5450
  3.5631   3.5806   3.5980   3.6729   3.6900   3.7144   3.7506   3.8276
  3.8661   3.8832   3.9155   3.9320   3.9372   3.9784   4.0130   4.0391
  4.0759   4.1548   4.1802   4.1953   4.2336   4.2554   4.2745   4.2982
  4.3381   4.4032   4.4441   4.5108   4.5297   4.6088   4.6217   4.7038
  4.7577   4.8170   4.8391   4.9222   4.9577   4.9939   5.0732   5.0856
  5.1864   5.2077   5.2272   5.2557   5.2722   5.3107   5.3445   5.3958
  5.4994   5.6007   5.6415   5.7664   5.9033   6.1773   6.1889   6.2721
  6.3893   6.4579   6.6085   6.9680   7.0390   7.1121   7.3602   7.6852
  7.7160   8.1375  24.9524  25.2879  50.4094
 --------------------------------------------------------------
 
          Ground-State Mulliken Net Atomic Charges

     Atom                 Charge (a.u.)
  ----------------------------------------
      1 C                    -0.253352
      2 C                     0.073987
      3 H                     0.052189
      4 H                     0.053686
      5 H                     0.162087
      6 O                    -0.423582
      7 H                     0.076149
      8 H                     0.071759
      9 H                     0.187076
  ----------------------------------------
  Sum of atomic charges =     0.000000

 -----------------------------------------------------------------
                    Cartesian Multipole Moments
 -----------------------------------------------------------------
    Charge (ESU x 10^10)
                 0.0000
    Dipole Moment (Debye)
         X       0.2983      Y       0.9923      Z      -0.6696
       Tot       1.2337
    Quadrupole Moments (Debye-Ang)
        XX     -21.3218     XY      -4.2090     YY     -18.3108
        XZ       1.9348     YZ       0.3592     ZZ     -20.5272
    Octopole Moments (Debye-Ang^2)
       XXX     276.6476    XXY       0.9246    XYY      85.3760
       YYY     -34.4537    XXZ      -6.1651    XYZ      -2.4888
       YYZ      -1.3039    XZZ      89.5050    YZZ     -10.5003
       ZZZ      -8.1646
    Hexadecapole Moments (Debye-Ang^3)
      XXXX   -2619.6907   XXXY     159.8023   XXYY    -446.2106
      XYYY     172.1625   YYYY    -125.0614   XXXZ      15.9937
      XXYZ      14.9404   XYYZ       1.6080   YYYZ       2.4783
      XXZZ    -420.9978   XYZZ      52.2224   YYZZ     -25.2815
      XZZZ      24.9593   YZZZ       1.2398   ZZZZ     -41.0398
 -----------------------------------------------------------------
 Calculating analytic gradient of the SCF energy
 Gradient of SCF Energy
            1           2           3           4           5           6
    1  -0.0021878   0.0090837  -0.0023804  -0.0028326  -0.0043159  -0.0175431
    2  -0.0074236   0.0107199  -0.0008815  -0.0007319  -0.0076883   0.0070668
    3   0.0000346   0.0009487  -0.0020527   0.0013625   0.0009132   0.0009794
            7           8           9
    1   0.0007471   0.0015312   0.0178979
    2   0.0023351   0.0021493  -0.0055459
    3   0.0019704  -0.0023338  -0.0018224
 Max gradient component =       1.790E-02
 RMS gradient           =       6.363E-03
 Gradient time:  CPU 18.15 s  wall 3.63 s
 Geometry Optimization Parameters
   NAtoms,    NIC,     NZ,  NCons,   NDum,   NFix, NCnnct, MaxDiis
        9      63       0       0       0       0       0       0

 Cartesian Hessian read from HESS file


** GEOMETRY OPTIMIZATION IN DELOCALIZED INTERNAL COORDINATES **
   Searching for a Transition State

   Optimization Cycle:   1

                       Coordinates (Angstroms)
     ATOM                X               Y               Z
      1  C        -5.5442124276    0.5556646819   -0.0590253767
      2  C        -4.4564313935    1.4615476527    0.0231464318
      3  H        -5.9750906626    0.3565370011   -1.0378171388
      4  H        -6.2449323072    0.5114473557    0.7710954911
      5  H        -4.5254054502   -0.3765120236    0.1602042875
      6  O        -3.3224596779   -0.0688240477    0.3899471992
      7  H        -4.2385397952    2.0048298279    0.9359373263
      8  H        -3.9665441606    1.8354368587   -0.8705685869
      9  H        -2.4071165225   -0.4169900496    0.2599705299
   Point Group: c1    Number of degrees of freedom:    21


   Energy is   -154.933736102


 Attempting to generate delocalized internal coordinates

 Transforming Cartesian Hessian to Internal Coordinates
 Hessian Transformation does not Include Derivative of B-matrix

 21 Hessian modes will be used to form the next step
  Hessian Eigenvalues:
    -0.121367    0.002073    0.006813    0.015177    0.022623    0.023000
     0.027394    0.037960    0.048388    0.051192    0.062493    0.072237
     0.087378    0.097542    0.144915    0.344613    0.349531    0.355002
     0.357358    0.361732    0.441871

 Transition state search - taking P-RFO step
 Searching for Lamda that Maximizes Along the Lowest mode
 Value Taken    Lamda =   0.00018842
 Searching for Lamda that Minimizes Along All other modes
 Value Taken    Lamda =  -0.00290801
 Step Taken.  Stepsize is  0.265518

                             Maximum     Tolerance    Cnvgd?
         Gradient           0.012133      0.000300      NO
         Displacement       0.187057      0.001200      NO
         Energy change     *********      0.000001      NO


 New Cartesian Coordinates Obtained by Inverse Iteration

 Displacement from previous Coordinates is:  0.182798
 ----------------------------------------------------------------
             Standard Nuclear Orientation (Angstroms)
    I     Atom           X                Y                Z
 ----------------------------------------------------------------
    1      C      -5.5504662470     0.5596059501    -0.0612265866
    2      C      -4.4580190061     1.4325507125     0.0252573848
    3      H      -5.9716394073     0.3651554135    -1.0396965709
    4      H      -6.2391401442     0.5123303880     0.7723384843
    5      H      -4.5273648771    -0.3203104002     0.1473025206
    6      O      -3.3107629573    -0.0627537301     0.4188446926
    7      H      -4.2360803245     1.9727803316     0.9335838763
    8      H      -3.9654486592     1.7941283895    -0.8662717401
    9      H      -2.4218107745    -0.3903497979     0.2427581024
 ----------------------------------------------------------------
 Nuclear Repulsion Energy =          78.73420277 hartrees
 There are       13 alpha and       13 beta electrons
 Applying Cartesian multipole field
    Component          Value
    ---------          -----
     (2,0,0)        1.00000E-12
     (0,2,0)        2.00000E-11
     (0,0,2)       -3.00000E-11
 Nucleus-field energy     =     0.0000000029 hartrees
 Requested basis set is 6-311+G(2df,2pd)
 There are 60 shells and 186 basis functions
 A cutoff of  1.0D-11 yielded   1795 shell pairs
 There are     17418 function pairs (     21640 Cartesian)
 Smallest overlap matrix eigenvalue = 8.44E-05
 Guess MOs from SCF MO coefficient file

 -----------------------------------------------------------------------
  General SCF calculation program by
  Eric Jon Sundstrom, Paul Horn, Yuezhi Mao, Dmitri Zuev, Alec White,
  David Stuck, Shaama M.S., Shane Yost, Joonho Lee, David Small,
  Daniel Levine, Susi Lehtola, Hugh Burton, Evgeny Epifanovsky,
  Bang C. Huynh
 -----------------------------------------------------------------------
 Exchange:     0.2220 Hartree-Fock + 1.0000 wB97X-D + LR-HF
 Correlation:  1.0000 wB97X-D
 Using Euler-Maclaurin-Lebedev (75,302) quadrature formula
 Dispersion:   Grimme D
 using 5 threads for integral computing
 -------------------------------------------------------
 OpenMP Integral computing Module                
 Release: version 1.0, May 2013, Q-Chem Inc. Pittsburgh 
 -------------------------------------------------------
 using 5 threads for integral computing
 -------------------------------------------------------
 OpenMP Integral computing Module                
 Release: version 1.0, May 2013, Q-Chem Inc. Pittsburgh 
 -------------------------------------------------------
 A restricted SCF calculation will be
 performed using DIIS
 SCF converges when DIIS error is below 1.0e-08
 ---------------------------------------
  Cycle       Energy         DIIS error
 ---------------------------------------
    1    -154.9336677072      5.76e-04  
    2    -154.9350804816      1.28e-04  
    3    -154.9351630487      9.71e-05  
    4    -154.9352012615      3.35e-05  
    5    -154.9352062891      1.68e-05  
    6    -154.9352078156      2.80e-06  
    7    -154.9352079720      1.30e-06  
    8    -154.9352079960      5.61e-07  
    9    -154.9352079997      1.64e-07  
   10    -154.9352080003      3.09e-08  
   11    -154.9352080003      8.55e-09  Convergence criterion met
 ---------------------------------------
 SCF time:   CPU 66.27s  wall 13.00s 
 SCF   energy in the final basis set =     -154.9352080003
 Total energy in the final basis set =     -154.9352080003
 
 --------------------------------------------------------------
 
                    Orbital Energies (a.u.)
 --------------------------------------------------------------
 
 Alpha MOs
 -- Occupied --
-19.2190 -10.3509 -10.2630  -1.0565  -0.8800  -0.6994  -0.6113  -0.5716
 -0.5041  -0.4534  -0.4099  -0.3902  -0.3300
 -- Virtual --
  0.0393   0.0741   0.0886   0.0994   0.1136   0.1295   0.1382   0.1444
  0.1735   0.1866   0.2226   0.2416   0.2636   0.2728   0.2921   0.3068
  0.3307   0.3456   0.3560   0.3914   0.4582   0.4649   0.4852   0.5500
  0.5604   0.5761   0.5932   0.6081   0.6270   0.6447   0.6644   0.6864
  0.7047   0.7312   0.8185   0.8458   0.8544   0.9010   0.9111   0.9451
  1.0020   1.0152   1.0673   1.0924   1.1331   1.1728   1.2033   1.2288
  1.2422   1.2672   1.3083   1.3167   1.3199   1.3780   1.4030   1.4326
  1.4532   1.4710   1.4794   1.5066   1.5590   1.5667   1.5979   1.6349
  1.7230   1.7585   1.8159   1.8958   2.0221   2.2605   2.3094   2.4049
  2.4748   2.5856   2.6406   2.6759   2.6913   2.7425   2.7937   2.8078
  2.8677   2.9255   2.9297   2.9653   3.0113   3.0370   3.0550   3.0796
  3.1055   3.1279   3.1528   3.2115   3.2457   3.2752   3.3225   3.3400
  3.3824   3.3926   3.4159   3.4245   3.4841   3.4883   3.5143   3.5503
  3.5707   3.5879   3.6060   3.6885   3.7196   3.7363   3.7639   3.8327
  3.8684   3.8935   3.9157   3.9450   3.9677   3.9864   4.0404   4.0539
  4.0900   4.1792   4.1917   4.2291   4.2426   4.2668   4.3033   4.3110
  4.3530   4.4156   4.4820   4.5256   4.5519   4.6503   4.6675   4.7279
  4.7829   4.8364   4.8852   4.9584   4.9966   5.0226   5.0889   5.1040
  5.2068   5.2308   5.2369   5.2805   5.3002   5.3245   5.3562   5.4406
  5.5122   5.6382   5.6778   5.7890   5.9455   6.2273   6.2357   6.2838
  6.4383   6.4678   6.7004   7.0103   7.0512   7.0938   7.3716   7.6684
  7.7568   8.2097  24.9748  25.3480  50.4635
 --------------------------------------------------------------
 
          Ground-State Mulliken Net Atomic Charges

     Atom                 Charge (a.u.)
  ----------------------------------------
      1 C                    -0.248338
      2 C                     0.098387
      3 H                     0.052210
      4 H                     0.051353
      5 H                     0.164049
      6 O                    -0.446597
      7 H                     0.075691
      8 H                     0.069396
      9 H                     0.183850
  ----------------------------------------
  Sum of atomic charges =     0.000000

 -----------------------------------------------------------------
                    Cartesian Multipole Moments
 -----------------------------------------------------------------
    Charge (ESU x 10^10)
                 0.0000
    Dipole Moment (Debye)
         X       0.1870      Y       1.0733      Z      -0.8250
       Tot       1.3666
    Quadrupole Moments (Debye-Ang)
        XX     -20.3318     XY      -4.5898     YY     -18.4209
        XZ       2.3735     YZ       0.4216     ZZ     -20.4931
    Octopole Moments (Debye-Ang^2)
       XXX     269.5204    XXY       3.0630    XYY      85.5861
       YYY     -34.2849    XXZ      -7.5435    XYZ      -2.6818
       YYZ      -1.4857    XZZ      89.0941    YZZ     -10.3623
       ZZZ      -8.7485
    Hexadecapole Moments (Debye-Ang^3)
      XXXX   -2571.6594   XXXY     146.7060   XXYY    -445.1008
      XYYY     170.9713   YYYY    -121.2325   XXXZ      20.6578
      XXYZ      15.4802   XYYZ       2.2160   YYYZ       2.4297
      XXZZ    -418.2813   XYZZ      51.4976   YYZZ     -24.7772
      XZZZ      26.6896   YZZZ       1.1952   ZZZZ     -41.6165
 -----------------------------------------------------------------
 Calculating analytic gradient of the SCF energy
 Gradient of SCF Energy
            1           2           3           4           5           6
    1   0.0018399  -0.0004917  -0.0001060  -0.0001668  -0.0007389   0.0010846
    2  -0.0004660  -0.0004047   0.0002138   0.0001137   0.0000981  -0.0000683
    3   0.0005045   0.0003645   0.0000594  -0.0001398   0.0002824  -0.0030896
            7           8           9
    1   0.0000942  -0.0001330  -0.0013822
    2   0.0000085   0.0000300   0.0004749
    3  -0.0000189  -0.0000042   0.0020417
 Max gradient component =       3.090E-03
 RMS gradient           =       9.070E-04
 Gradient time:  CPU 18.38 s  wall 3.68 s
 Geometry Optimization Parameters
   NAtoms,    NIC,     NZ,  NCons,   NDum,   NFix, NCnnct, MaxDiis
        9      63       0       0       0       0       0       0

 Cartesian Hessian Update
 Hessian updated using Powell/Murtagh-Sargent update
  Mixing factors:     0.989502 Powell                      0.010498 Murtagh-Sargent


** GEOMETRY OPTIMIZATION IN DELOCALIZED INTERNAL COORDINATES **
   Searching for a Transition State

   Optimization Cycle:   2

                       Coordinates (Angstroms)
     ATOM                X               Y               Z
      1  C        -5.5504662470    0.5596059501   -0.0612265866
      2  C        -4.4580190061    1.4325507125    0.0252573848
      3  H        -5.9716394073    0.3651554135   -1.0396965709
      4  H        -6.2391401442    0.5123303880    0.7723384843
      5  H        -4.5273648771   -0.3203104002    0.1473025206
      6  O        -3.3107629573   -0.0627537301    0.4188446926
      7  H        -4.2360803245    1.9727803316    0.9335838763
      8  H        -3.9654486592    1.7941283895   -0.8662717401
      9  H        -2.4218107745   -0.3903497979    0.2427581024
   Point Group: c1    Number of degrees of freedom:    21


   Energy is   -154.935208000

 Hessian updated using Powell/Murtagh-Sargent update
  Mixing factors:     0.992843 Powell                      0.007157 Murtagh-Sargent

 21 Hessian modes will be used to form the next step
  Hessian Eigenvalues:
    -0.120993   -0.002223    0.006848    0.015547    0.022365    0.022954
     0.027401    0.037746    0.048549    0.051114    0.062570    0.072806
     0.088249    0.097576    0.144618    0.345266    0.349581    0.355304
     0.357459    0.362022    0.444791
**WARNING** Hessian does not have the desired local structure
**WARNING** Hessian does not have the desired local structure

 Transition state search - taking P-RFO step
 Searching for Lamda that Maximizes Along the Lowest mode
 Value Taken    Lamda =   0.00000105
 Searching for Lamda that Minimizes Along All other modes
 Value Taken    Lamda =  -0.00282691
 Calculated Step too Large.  Step scaled by  0.139302
 Step Taken.  Stepsize is  0.300000

                             Maximum     Tolerance    Cnvgd?
         Gradient           0.001003      0.000300      NO
         Displacement       0.263750      0.001200      NO
         Energy change     -0.001472      0.000001      NO


 New Cartesian Coordinates Obtained by Inverse Iteration

 Displacement from previous Coordinates is:  0.147235
 ----------------------------------------------------------------
             Standard Nuclear Orientation (Angstroms)
    I     Atom           X                Y                Z
 ----------------------------------------------------------------
    1      C      -5.5540692375     0.5597392956    -0.0643298861
    2      C      -4.4521532229     1.4205857491     0.0289596485
    3      H      -5.9710495105     0.3656189047    -1.0444442775
    4      H      -6.2444084480     0.5152907572     0.7677859053
    5      H      -4.5193842751    -0.3133660339     0.1515998775
    6      O      -3.3129197652    -0.0595499628     0.4642977618
    7      H      -4.2372293669     1.9689650272     0.9340635134
    8      H      -3.9510920502     1.7740833520    -0.8614111692
    9      H      -2.4384265210    -0.3682298320     0.1963687896
 ----------------------------------------------------------------
 Nuclear Repulsion Energy =          78.77930122 hartrees
 There are       13 alpha and       13 beta electrons
 Applying Cartesian multipole field
    Component          Value
    ---------          -----
     (2,0,0)        1.00000E-12
     (0,2,0)        2.00000E-11
     (0,0,2)       -3.00000E-11
 Nucleus-field energy     =     0.0000000029 hartrees
 Requested basis set is 6-311+G(2df,2pd)
 There are 60 shells and 186 basis functions
 A cutoff of  1.0D-11 yielded   1795 shell pairs
 There are     17438 function pairs (     21670 Cartesian)
 Smallest overlap matrix eigenvalue = 8.54E-05
 Guess MOs from SCF MO coefficient file

 -----------------------------------------------------------------------
  General SCF calculation program by
  Eric Jon Sundstrom, Paul Horn, Yuezhi Mao, Dmitri Zuev, Alec White,
  David Stuck, Shaama M.S., Shane Yost, Joonho Lee, David Small,
  Daniel Levine, Susi Lehtola, Hugh Burton, Evgeny Epifanovsky,
  Bang C. Huynh
 -----------------------------------------------------------------------
 Exchange:     0.2220 Hartree-Fock + 1.0000 wB97X-D + LR-HF
 Correlation:  1.0000 wB97X-D
 Using Euler-Maclaurin-Lebedev (75,302) quadrature formula
 Dispersion:   Grimme D
 using 5 threads for integral computing
 -------------------------------------------------------
 OpenMP Integral computing Module                
 Release: version 1.0, May 2013, Q-Chem Inc. Pittsburgh 
 -------------------------------------------------------
 using 5 threads for integral computing
 -------------------------------------------------------
 OpenMP Integral computing Module                
 Release: version 1.0, May 2013, Q-Chem Inc. Pittsburgh 
 -------------------------------------------------------
 A restricted SCF calculation will be
 performed using DIIS
 SCF converges when DIIS error is below 1.0e-08
 ---------------------------------------
  Cycle       Energy         DIIS error
 ---------------------------------------
    1    -154.9339842146      6.44e-04  
    2    -154.9355583531      1.09e-04  
    3    -154.9356299370      8.15e-05  
    4    -154.9356497019      3.45e-05  
    5    -154.9356550446      6.47e-06  
    6    -154.9356553720      1.99e-06  
    7    -154.9356554291      9.50e-07  
    8    -154.9356554407      2.37e-07  
    9    -154.9356554419      1.45e-07  
   10    -154.9356554421      3.55e-08  
   11    -154.9356554421      1.09e-08  
   12    -154.9356554421      1.88e-09  Convergence criterion met
 ---------------------------------------
 SCF time:   CPU 72.41s  wall 15.00s 
 SCF   energy in the final basis set =     -154.9356554421
 Total energy in the final basis set =     -154.9356554421
 
 --------------------------------------------------------------
 
                    Orbital Energies (a.u.)
 --------------------------------------------------------------
 
 Alpha MOs
 -- Occupied --
-19.2215 -10.3516 -10.2619  -1.0595  -0.8800  -0.6991  -0.6107  -0.5718
 -0.5043  -0.4537  -0.4117  -0.3994  -0.3245
 -- Virtual --
  0.0412   0.0732   0.0886   0.0988   0.1135   0.1290   0.1383   0.1448
  0.1745   0.1864   0.2213   0.2415   0.2612   0.2733   0.2929   0.3013
  0.3298   0.3419   0.3564   0.3915   0.4583   0.4659   0.4845   0.5501
  0.5630   0.5755   0.5961   0.6068   0.6246   0.6433   0.6652   0.6877
  0.7049   0.7349   0.8177   0.8422   0.8564   0.8961   0.9149   0.9373
  0.9985   1.0141   1.0677   1.0944   1.1330   1.1706   1.2052   1.2275
  1.2351   1.2596   1.2969   1.3179   1.3187   1.3708   1.4025   1.4321
  1.4525   1.4709   1.4828   1.5093   1.5468   1.5669   1.5940   1.6469
  1.7241   1.7791   1.8503   1.8787   2.0225   2.2736   2.3099   2.4077
  2.4806   2.5733   2.6405   2.6663   2.6944   2.7445   2.7925   2.8092
  2.8625   2.9220   2.9318   2.9726   3.0133   3.0294   3.0546   3.0773
  3.1039   3.1268   3.1415   3.2194   3.2422   3.2882   3.3224   3.3411
  3.3751   3.3959   3.4136   3.4178   3.4868   3.4903   3.5306   3.5380
  3.5706   3.5864   3.6033   3.6813   3.7177   3.7447   3.7645   3.8344
  3.8625   3.8945   3.9037   3.9475   3.9750   3.9919   4.0461   4.0586
  4.0932   4.1812   4.1918   4.2269   4.2329   4.2619   4.3023   4.3119
  4.3432   4.4095   4.4844   4.4953   4.5289   4.6478   4.6647   4.7166
  4.7815   4.8383   4.8684   4.9638   4.9961   5.0250   5.0806   5.1027
  5.2018   5.2277   5.2522   5.2703   5.2938   5.3374   5.3676   5.4398
  5.5214   5.6397   5.6710   5.7917   5.9798   6.2292   6.2444   6.2847
  6.4607   6.4888   6.6828   7.0186   7.0718   7.0831   7.3746   7.6600
  7.8068   8.1471  24.9741  25.3452  50.4485
 --------------------------------------------------------------
 
          Ground-State Mulliken Net Atomic Charges

     Atom                 Charge (a.u.)
  ----------------------------------------
      1 C                    -0.264970
      2 C                     0.104679
      3 H                     0.054186
      4 H                     0.052293
      5 H                     0.168069
      6 O                    -0.441212
      7 H                     0.076130
      8 H                     0.067284
      9 H                     0.183542
  ----------------------------------------
  Sum of atomic charges =     0.000000

 -----------------------------------------------------------------
                    Cartesian Multipole Moments
 -----------------------------------------------------------------
    Charge (ESU x 10^10)
                 0.0000
    Dipole Moment (Debye)
         X       0.2494      Y       1.0774      Z      -1.0217
       Tot       1.5056
    Quadrupole Moments (Debye-Ang)
        XX     -21.0154     XY      -4.5253     YY     -18.5549
        XZ       2.8375     YZ       0.5277     ZZ     -20.6399
    Octopole Moments (Debye-Ang^2)
       XXX     274.7416    XXY       2.6110    XYY      86.1649
       YYY     -34.3043    XXZ      -8.7250    XYZ      -3.0546
       YYZ      -1.6963    XZZ      89.5517    YZZ     -10.3210
       ZZZ      -9.6314
    Hexadecapole Moments (Debye-Ang^3)
      XXXX   -2606.5799   XXXY     148.8650   XXYY    -447.6314
      XYYY     170.8667   YYYY    -120.1460   XXXZ      23.9404
      XXYZ      16.9271   XYYZ       2.7690   YYYZ       2.5327
      XXZZ    -420.0944   XYZZ      51.2726   YYZZ     -24.8711
      XZZZ      29.4743   YZZZ       1.2169   ZZZZ     -43.2371
 -----------------------------------------------------------------
 Calculating analytic gradient of the SCF energy
 Gradient of SCF Energy
            1           2           3           4           5           6
    1   0.0016800  -0.0008922  -0.0000810   0.0000015  -0.0008685  -0.0005630
    2   0.0001154  -0.0007560   0.0001355   0.0000728   0.0004933   0.0002769
    3   0.0006570   0.0000685   0.0000691   0.0000387  -0.0002093  -0.0026203
            7           8           9
    1   0.0000468  -0.0002358   0.0009121
    2  -0.0001073   0.0000029  -0.0002335
    3   0.0000315  -0.0000373   0.0020019
 Max gradient component =       2.620E-03
 RMS gradient           =       8.152E-04
 Gradient time:  CPU 18.30 s  wall 3.67 s
 Geometry Optimization Parameters
   NAtoms,    NIC,     NZ,  NCons,   NDum,   NFix, NCnnct, MaxDiis
        9      63       0       0       0       0       0       0

 Cartesian Hessian Update
 Hessian updated using Powell/Murtagh-Sargent update
  Mixing factors:     0.986249 Powell                      0.013751 Murtagh-Sargent


** GEOMETRY OPTIMIZATION IN DELOCALIZED INTERNAL COORDINATES **
   Searching for a Transition State

   Optimization Cycle:   3

                       Coordinates (Angstroms)
     ATOM                X               Y               Z
      1  C        -5.5540692375    0.5597392956   -0.0643298861
      2  C        -4.4521532229    1.4205857491    0.0289596485
      3  H        -5.9710495105    0.3656189047   -1.0444442775
      4  H        -6.2444084480    0.5152907572    0.7677859053
      5  H        -4.5193842751   -0.3133660339    0.1515998775
      6  O        -3.3129197652   -0.0595499628    0.4642977618
      7  H        -4.2372293669    1.9689650272    0.9340635134
      8  H        -3.9510920502    1.7740833520   -0.8614111692
      9  H        -2.4384265210   -0.3682298320    0.1963687896
   Point Group: c1    Number of degrees of freedom:    21


   Energy is   -154.935655442

 Hessian updated using Powell/Murtagh-Sargent update
  Mixing factors:     0.979675 Powell                      0.020325 Murtagh-Sargent

 21 Hessian modes will be used to form the next step
  Hessian Eigenvalues:
    -0.120993   -0.001562    0.006949    0.015638    0.022420    0.022963
     0.027443    0.037768    0.048568    0.051148    0.062570    0.072824
     0.088261    0.097576    0.144692    0.345336    0.349588    0.355321
     0.357466    0.362041    0.445679
**WARNING** Hessian does not have the desired local structure
**WARNING** Hessian does not have the desired local structure

 Transition state search - taking P-RFO step
 Searching for Lamda that Maximizes Along the Lowest mode
 Value Taken    Lamda =   0.00000049
 Searching for Lamda that Minimizes Along All other modes
 Value Taken    Lamda =  -0.00270149
 Calculated Step too Large.  Step scaled by  0.196088
 Step Taken.  Stepsize is  0.300000

                             Maximum     Tolerance    Cnvgd?
         Gradient           0.001245      0.000300      NO
         Displacement       0.254951      0.001200      NO
         Energy change     -0.000447      0.000001      NO


 New Cartesian Coordinates Obtained by Inverse Iteration

 Displacement from previous Coordinates is:  0.195794
 ----------------------------------------------------------------
             Standard Nuclear Orientation (Angstroms)
    I     Atom           X                Y                Z
 ----------------------------------------------------------------
    1      C      -5.5553689825     0.5577167008    -0.0663977615
    2      C      -4.4438202697     1.4050462295     0.0363483289
    3      H      -5.9622414556     0.3616995536    -1.0502789210
    4      H      -6.2558209853     0.5242345498     0.7574932734
    5      H      -4.5065450970    -0.3086829019     0.1676468629
    6      O      -3.3136579027    -0.0544570340     0.5107328460
    7      H      -4.2393212336     1.9657862988     0.9363992950
    8      H      -3.9315907126     1.7487052024    -0.8519916390
    9      H      -2.4723657585    -0.3369113419     0.1329378787
 ----------------------------------------------------------------
 Nuclear Repulsion Energy =          78.90792405 hartrees
 There are       13 alpha and       13 beta electrons
 Applying Cartesian multipole field
    Component          Value
    ---------          -----
     (2,0,0)        1.00000E-12
     (0,2,0)        2.00000E-11
     (0,0,2)       -3.00000E-11
 Nucleus-field energy     =     0.0000000028 hartrees
 Requested basis set is 6-311+G(2df,2pd)
 There are 60 shells and 186 basis functions
 A cutoff of  1.0D-11 yielded   1796 shell pairs
 There are     17443 function pairs (     21676 Cartesian)
 Smallest overlap matrix eigenvalue = 8.65E-05
 Guess MOs from SCF MO coefficient file

 -----------------------------------------------------------------------
  General SCF calculation program by
  Eric Jon Sundstrom, Paul Horn, Yuezhi Mao, Dmitri Zuev, Alec White,
  David Stuck, Shaama M.S., Shane Yost, Joonho Lee, David Small,
  Daniel Levine, Susi Lehtola, Hugh Burton, Evgeny Epifanovsky,
  Bang C. Huynh
 -----------------------------------------------------------------------
 Exchange:     0.2220 Hartree-Fock + 1.0000 wB97X-D + LR-HF
 Correlation:  1.0000 wB97X-D
 Using Euler-Maclaurin-Lebedev (75,302) quadrature formula
 Dispersion:   Grimme D
 using 5 threads for integral computing
 -------------------------------------------------------
 OpenMP Integral computing Module                
 Release: version 1.0, May 2013, Q-Chem Inc. Pittsburgh 
 -------------------------------------------------------
 using 5 threads for integral computing
 -------------------------------------------------------
 OpenMP Integral computing Module                
 Release: version 1.0, May 2013, Q-Chem Inc. Pittsburgh 
 -------------------------------------------------------
 A restricted SCF calculation will be
 performed using DIIS
 SCF converges when DIIS error is below 1.0e-08
 ---------------------------------------
  Cycle       Energy         DIIS error
 ---------------------------------------
    1    -154.9337825823      7.76e-04  
    2    -154.9360980796      1.27e-04  
    3    -154.9362088552      7.76e-05  
    4    -154.9362266787      4.37e-05  
    5    -154.9362343456      9.03e-06  
    6    -154.9362348897      2.43e-06  
    7    -154.9362349771      1.14e-06  
    8    -154.9362349941      3.01e-07  
    9    -154.9362349961      1.86e-07  
   10    -154.9362349965      4.80e-08  
   11    -154.9362349965      1.31e-08  
   12    -154.9362349965      2.26e-09  Convergence criterion met
 ---------------------------------------
 SCF time:   CPU 71.76s  wall 15.00s 
 SCF   energy in the final basis set =     -154.9362349965
 Total energy in the final basis set =     -154.9362349965
 
 --------------------------------------------------------------
 
                    Orbital Energies (a.u.)
 --------------------------------------------------------------
 
 Alpha MOs
 -- Occupied --
-19.2254 -10.3522 -10.2599  -1.0654  -0.8797  -0.6985  -0.6107  -0.5719
 -0.5044  -0.4537  -0.4172  -0.4089  -0.3185
 -- Virtual --
  0.0440   0.0720   0.0887   0.0982   0.1134   0.1286   0.1384   0.1457
  0.1759   0.1866   0.2197   0.2418   0.2579   0.2742   0.2937   0.2959
  0.3287   0.3386   0.3572   0.3926   0.4586   0.4661   0.4858   0.5501
  0.5658   0.5752   0.5963   0.6064   0.6199   0.6428   0.6637   0.6885
  0.7045   0.7409   0.8178   0.8391   0.8568   0.8929   0.9168   0.9274
  0.9906   1.0145   1.0688   1.0950   1.1339   1.1670   1.2030   1.2182
  1.2283   1.2567   1.2890   1.3151   1.3178   1.3622   1.4079   1.4335
  1.4512   1.4706   1.4838   1.5068   1.5321   1.5691   1.5918   1.6589
  1.7244   1.8026   1.8643   1.8981   2.0292   2.2774   2.3152   2.4134
  2.4813   2.5624   2.6400   2.6623   2.6946   2.7475   2.7895   2.8106
  2.8597   2.9190   2.9345   2.9805   3.0131   3.0253   3.0580   3.0777
  3.1008   3.1292   3.1327   3.2239   3.2454   3.3126   3.3227   3.3419
  3.3704   3.4010   3.4023   3.4124   3.4771   3.4942   3.5377   3.5520
  3.5722   3.5827   3.6070   3.6679   3.7159   3.7561   3.7632   3.8362
  3.8586   3.8849   3.8965   3.9507   3.9635   3.9892   4.0564   4.0656
  4.1009   4.1767   4.1923   4.2095   4.2336   4.2623   4.3007   4.3094
  4.3360   4.4039   4.4517   4.4901   4.5128   4.6336   4.6612   4.7102
  4.7781   4.8348   4.8553   4.9689   4.9971   5.0255   5.0730   5.1030
  5.1918   5.2189   5.2368   5.2828   5.3016   5.3578   5.3870   5.4394
  5.5450   5.6404   5.6797   5.8009   6.0157   6.2277   6.2548   6.2854
  6.4654   6.5615   6.6653   7.0138   7.0837   7.1081   7.3695   7.6483
  7.8645   8.1017  24.9719  25.3421  50.4403
 --------------------------------------------------------------
 
          Ground-State Mulliken Net Atomic Charges

     Atom                 Charge (a.u.)
  ----------------------------------------
[...]
    4  -0.0001088  -0.0165809   0.0024680  -0.0087100  -0.0256384   0.0001838
    5  -0.0036421  -0.0061109   0.0023836   0.0027117  -0.0001986  -0.0007839
    6  -0.0217395  -0.0250990   0.0016791   0.0177889   0.0175737   0.0048112
    7   0.0799964   0.0319740   0.0911146   0.0091762   0.0049803   0.0188734
    8   0.0319740   0.0417631   0.0626119   0.0005230  -0.0020233  -0.0002069
    9   0.0911146   0.0626119   0.3146637  -0.0088500  -0.0023877  -0.0140823
   10   0.0091762   0.0005230  -0.0088500   0.1983777   0.0046747  -0.1585787
   11   0.0049803  -0.0020233  -0.0023877   0.0046747   0.0297610   0.0131510
   12   0.0188734  -0.0002069  -0.0140823  -0.1585787   0.0131510   0.2100731
   13  -0.0041121   0.0061777   0.0000415  -0.0061936   0.0108239  -0.0045928
   14  -0.0040096   0.0047705  -0.0015345  -0.0020850   0.0012270  -0.0007151
   15  -0.0066027   0.0127064  -0.0032955   0.0055814  -0.0098330   0.0019567
   16  -0.0039605   0.0038411  -0.0007565  -0.0036913   0.0037007  -0.0022475
   17   0.0044361  -0.0066581   0.0004660   0.0028477  -0.0044148   0.0030122
   18   0.0009306  -0.0016193   0.0004045  -0.0027225   0.0045707  -0.0016578
   19  -0.0004002  -0.0068606   0.0003815  -0.0001439   0.0038715  -0.0012978
   20  -0.0027700   0.0001111   0.0006020   0.0011191  -0.0013141   0.0013122
   21   0.0010225  -0.0012851   0.0012851  -0.0007858   0.0014046   0.0005076
   22  -0.0005913   0.0042350  -0.0005331  -0.0002153  -0.0069147   0.0008662
   23   0.0015362  -0.0015775  -0.0000141  -0.0023176  -0.0002635  -0.0014757
   24  -0.0001997   0.0010603   0.0012242  -0.0008287  -0.0012165   0.0012522
   25  -0.0009477   0.0015353  -0.0003213   0.0000315  -0.0002602   0.0000576
   26   0.0006068  -0.0006089  -0.0002223   0.0005731  -0.0010106   0.0004613
   27  -0.0007200   0.0003895  -0.0000028  -0.0003062   0.0000271  -0.0002457
           13          14          15          16          17          18
    1   0.0008906   0.0189434   0.0038383  -0.0701576   0.0035164  -0.0149946
    2  -0.1056867  -0.0419800  -0.0211963   0.0420145   0.0729256   0.0029195
    3   0.0233085   0.0049560  -0.0277376  -0.0234434  -0.0066363   0.0179095
    4   0.1361341   0.0123682   0.0272145  -0.0273663  -0.0941669   0.0085228
    5  -0.0332740  -0.0392389   0.0000220   0.0097677  -0.0030552   0.0043686
    6   0.0305569   0.0088912   0.0075154   0.0055035  -0.0027401  -0.0324259
    7  -0.0041121  -0.0040096  -0.0066027  -0.0039605   0.0044361   0.0009306
    8   0.0061777   0.0047705   0.0127064   0.0038411  -0.0066581  -0.0016193
    9   0.0000415  -0.0015345  -0.0032955  -0.0007565   0.0004660   0.0004045
   10  -0.0061936  -0.0020850   0.0055814  -0.0036913   0.0028477  -0.0027225
   11   0.0108239   0.0012270  -0.0098330   0.0037007  -0.0044148   0.0045707
   12  -0.0045928  -0.0007151   0.0019567  -0.0022475   0.0030122  -0.0016578
   13  -0.1211156   0.0157526  -0.0383815   0.0011189   0.0821477  -0.0079379
   14   0.0157526   0.0915949   0.0053656  -0.0456323  -0.0213790  -0.0155804
   15  -0.0383815   0.0053656   0.0514527  -0.0041332  -0.0051790  -0.0325546
   16   0.0011189  -0.0456323  -0.0041332   0.3486940  -0.1018669  -0.2156182
   17   0.0821477  -0.0213790  -0.0051790  -0.1018669   0.0670220   0.0899731
   18  -0.0079379  -0.0155804  -0.0325546  -0.2156182   0.0899731   0.3113980
   19  -0.0032786  -0.0013495  -0.0000096  -0.0053331   0.0105150   0.0046775
   20   0.0057995   0.0017107   0.0008182   0.0084024  -0.0158380  -0.0064649
   21  -0.0028305  -0.0003512  -0.0004926  -0.0018209   0.0064670   0.0033467
   22  -0.0048482  -0.0012087  -0.0014391   0.0014041   0.0131799  -0.0090618
   23   0.0075360   0.0015802   0.0015805   0.0004398  -0.0187153   0.0123377
   24  -0.0002717  -0.0006991  -0.0002301  -0.0020194   0.0033389  -0.0017662
   25   0.0014045   0.0072208   0.0139321  -0.2407082   0.0793908   0.2362041
   26   0.0107234   0.0017146   0.0157156   0.0793329  -0.0698873  -0.0905050
   27   0.0001076  -0.0003324   0.0033856   0.2445356  -0.0887018  -0.2646540
           19          20          21          22          23          24
    1   0.0004475  -0.0038514   0.0007033  -0.0087024  -0.0100705  -0.0028166
    2  -0.0144330   0.0025588  -0.0010779  -0.0088121   0.0067929  -0.0037056
    3  -0.0201724  -0.0158376   0.0030922   0.0198174   0.0126758   0.0073132
    4  -0.0490512  -0.0372373  -0.0259474  -0.1155960  -0.0576809   0.1207642
    5  -0.0310325  -0.1327481  -0.1373417  -0.0522485  -0.0736066   0.0677335
    6  -0.0290875  -0.1340482  -0.2600091   0.1215819   0.0629436  -0.2463087
    7  -0.0004002  -0.0027700   0.0010225  -0.0005913   0.0015362  -0.0001997
    8  -0.0068606   0.0001111  -0.0012851   0.0042350  -0.0015775   0.0010603
    9   0.0003815   0.0006020   0.0012851  -0.0005331  -0.0000141   0.0012242
   10  -0.0001439   0.0011191  -0.0007858  -0.0002153  -0.0023176  -0.0008287
   11   0.0038715  -0.0013141   0.0014046  -0.0069147  -0.0002635  -0.0012165
   12  -0.0012978   0.0013122   0.0005076   0.0008662  -0.0014757   0.0012522
   13  -0.0032786   0.0057995  -0.0028305  -0.0048482   0.0075360  -0.0002717
   14  -0.0013495   0.0017107  -0.0003512  -0.0012087   0.0015802  -0.0006991
   15  -0.0000096   0.0008182  -0.0004926  -0.0014391   0.0015805  -0.0002301
   16  -0.0053331   0.0084024  -0.0018209   0.0014041   0.0004398  -0.0020194
   17   0.0105150  -0.0158380   0.0064670   0.0131799  -0.0187153   0.0033389
   18   0.0046775  -0.0064649   0.0033467  -0.0090618   0.0123377  -0.0017662
   19   0.0527077   0.0291391   0.0338748   0.0039369   0.0074169   0.0123180
   20   0.0291391   0.1385403   0.1440781  -0.0000757   0.0106019   0.0081791
   21   0.0338748   0.1440781   0.2659201  -0.0041337  -0.0135446  -0.0137542
   22   0.0039369  -0.0000757  -0.0041337   0.1239864   0.0527801  -0.1267232
   23   0.0074169   0.0106019  -0.0135446   0.0527801   0.0746862  -0.0754764
   24   0.0123180   0.0081791  -0.0137542  -0.1267232  -0.0754764   0.2521099
   25   0.0011148  -0.0005257  -0.0000822   0.0006258   0.0003600  -0.0002229
   26   0.0027330  -0.0036225   0.0016509  -0.0009352   0.0005015   0.0007858
   27  -0.0006845   0.0013611   0.0001042  -0.0003746   0.0009732   0.0001596
           25          26          27
    1  -0.0064370   0.0012187  -0.0047415
    2   0.0017117   0.0100619  -0.0006411
    3  -0.0065875   0.0002981  -0.0022548
    4  -0.0041226  -0.0069497   0.0048350
    5  -0.0021297   0.0055932  -0.0042606
    6  -0.0003284  -0.0193693   0.0056746
    7  -0.0009477   0.0006068  -0.0007200
    8   0.0015353  -0.0006089   0.0003895
    9  -0.0003213  -0.0002223  -0.0000028
   10   0.0000315   0.0005731  -0.0003062
   11  -0.0002602  -0.0010106   0.0000271
   12   0.0000576   0.0004613  -0.0002457
   13   0.0014045   0.0107234   0.0001076
   14   0.0072208   0.0017146  -0.0003324
   15   0.0139321   0.0157156   0.0033856
   16  -0.2407082   0.0793329   0.2445356
   17   0.0793908  -0.0698873  -0.0887018
   18   0.2362041  -0.0905050  -0.2646540
   19   0.0011148   0.0027330  -0.0006845
   20  -0.0005257  -0.0036225   0.0013611
   21  -0.0000822   0.0016509   0.0001042
   22   0.0006258  -0.0009352  -0.0003746
   23   0.0003600   0.0005015   0.0009732
   24  -0.0002229   0.0007858   0.0001596
   25   0.2490389  -0.0873031  -0.2426515
   26  -0.0873031   0.0572580   0.0911850
   27  -0.2426515   0.0911850   0.2578333
 **********************************************************************
 **                                                                  **
 **                       VIBRATIONAL ANALYSIS                       **
 **                       --------------------                       **
 **                                                                  **
 **        VIBRATIONAL FREQUENCIES (CM**-1) AND NORMAL MODES         **
 **     FORCE CONSTANTS (mDYN/ANGSTROM) AND REDUCED MASSES (AMU)     **
 **                  INFRARED INTENSITIES (KM/MOL)                   **
 **                                                                  **
 **********************************************************************
 

 Mode:                 1                      2                      3
 Frequency:     -2010.99                 358.69                 453.40
 Force Cnst:      2.6949                 0.0905                 0.3224
 Red. Mass:       1.1310                 1.1941                 2.6616
 IR Active:          YES                    YES                    YES
 IR Intens:      778.857                 10.058                418.011
 Raman Active:       YES                    YES                    YES
               X      Y      Z        X      Y      Z        X      Y      Z
 C         -0.010  0.055 -0.011    0.020 -0.000  0.019    0.002  0.010 -0.002
 C         -0.071  0.023 -0.017   -0.045  0.080 -0.050   -0.169  0.216 -0.045
 H          0.027 -0.053  0.003   -0.181  0.169  0.053    0.271 -0.424 -0.000
 H          0.024 -0.053  0.023    0.204 -0.269  0.206   -0.149  0.069 -0.152
 H          0.962 -0.047  0.205   -0.019 -0.008 -0.355   -0.393  0.299  0.164
 O         -0.003 -0.039  0.006   -0.014 -0.060  0.005    0.166 -0.157  0.040
 H          0.009 -0.035  0.010    0.076  0.042 -0.047   -0.200  0.103  0.032
 H          0.014 -0.043  0.006   -0.120  0.042 -0.109   -0.029  0.168  0.032
 H         -0.028 -0.093  0.001    0.560  0.025  0.534   -0.146 -0.407 -0.163
 TransDip   0.717 -0.488  0.216   -0.034  0.096  0.002   -0.610  0.176 -0.162

 Mode:                 4                      5                      6
 Frequency:       547.81                 609.09                 735.35
 Force Cnst:      0.4622                 0.3092                 0.3561
 Red. Mass:       2.6141                 1.4148                 1.1176
 IR Active:          YES                    YES                    YES
 IR Intens:       95.768                 15.783                 61.027
 Raman Active:       YES                    YES                    YES
               X      Y      Z        X      Y      Z        X      Y      Z
 C         -0.180  0.112 -0.095   -0.107  0.074  0.013    0.016  0.002  0.030
 C         -0.043 -0.118 -0.029   -0.014 -0.089  0.036   -0.010  0.034  0.022
 H         -0.471  0.478 -0.070    0.183 -0.248 -0.020    0.183 -0.047 -0.020
 H          0.079 -0.207  0.168   -0.336  0.419 -0.224   -0.105 -0.014 -0.090
 H         -0.046  0.183 -0.230   -0.008  0.008  0.052    0.047 -0.027 -0.169
 O          0.199 -0.017  0.124    0.066  0.011 -0.057   -0.015 -0.069  0.014
 H          0.149 -0.206 -0.009   -0.112 -0.045  0.022   -0.012  0.393 -0.217
 H         -0.103 -0.151 -0.077    0.124 -0.181  0.090    0.040 -0.348 -0.100
 H         -0.121  0.238 -0.279    0.546  0.060  0.394    0.018  0.714 -0.247
 TransDip  -0.268  0.109 -0.121    0.104 -0.024  0.070    0.008  0.233 -0.092

 Mode:                 7                      8                      9
 Frequency:       828.43                 838.35                1036.68
 Force Cnst:      0.4294                 0.5106                 0.6895
 Red. Mass:       1.0619                 1.2330                 1.0890
 IR Active:          YES                    YES                    YES
 IR Intens:       11.866                 64.053                 10.467
 Raman Active:       YES                    YES                    YES
               X      Y      Z        X      Y      Z        X      Y      Z
 C         -0.013  0.004  0.018    0.027 -0.121  0.022    0.002  0.009  0.031
 C         -0.010 -0.002  0.053   -0.035  0.041 -0.013    0.014 -0.005 -0.060
 H          0.344  0.269 -0.172   -0.205  0.655 -0.082    0.199 -0.137 -0.008
 H         -0.266 -0.338 -0.222   -0.185  0.615 -0.192   -0.149  0.110 -0.121
 H         -0.024  0.020  0.050    0.105 -0.158  0.054    0.011 -0.019  0.044
 O          0.010  0.029 -0.014    0.028 -0.017  0.010   -0.018 -0.024  0.030
 H          0.408  0.156 -0.125   -0.032  0.064 -0.026    0.386 -0.434  0.154
 H         -0.310 -0.250 -0.231   -0.058  0.059 -0.024   -0.398  0.449 -0.151
 H         -0.034 -0.333  0.080    0.026 -0.016  0.007    0.051  0.366 -0.047
 TransDip  -0.022 -0.107  0.014    0.053  0.250 -0.025    0.066  0.077 -0.018

 Mode:                10                     11                     12
 Frequency:      1148.82                1237.89                1246.30
 Force Cnst:      0.9311                 1.3041                 1.7982
 Red. Mass:       1.1973                 1.4444                 1.9649
 IR Active:          YES                    YES                    YES
 IR Intens:        4.725                  5.598                125.233
 Raman Active:       YES                    YES                    YES
               X      Y      Z        X      Y      Z        X      Y      Z
 C         -0.039 -0.074  0.001    0.065  0.001 -0.124   -0.173 -0.086 -0.061
 C         -0.022  0.092 -0.016   -0.065 -0.000  0.126    0.179  0.094  0.064
 H         -0.107 -0.071  0.019   -0.263 -0.338  0.076   -0.439 -0.317  0.065
 H         -0.092 -0.025 -0.044    0.350  0.448  0.137   -0.245 -0.120 -0.104
 H         -0.009  0.107 -0.057   -0.054  0.018  0.064    0.170 -0.123  0.062
 O         -0.013  0.023 -0.005   -0.002  0.006 -0.009    0.019 -0.024  0.005
 H          0.586 -0.325  0.163    0.385  0.068 -0.001    0.184  0.474 -0.165
 H          0.565 -0.330  0.181   -0.398 -0.274 -0.184   -0.089  0.429  0.001
 H         -0.009  0.058 -0.010    0.014 -0.020  0.019    0.047 -0.045  0.033
 TransDip  -0.034  0.058 -0.017   -0.075 -0.004 -0.012    0.346 -0.039  0.083

 Mode:                13                     14                     15
 Frequency:      1407.26                1463.41                1532.29
 Force Cnst:      1.2238                 1.3991                 2.0058
 Red. Mass:       1.0489                 1.1089                 1.4500
 IR Active:          YES                    YES                    YES
 IR Intens:       20.207                  7.086                 30.038
 Raman Active:       YES                    YES                    YES
               X      Y      Z        X      Y      Z        X      Y      Z
 C          0.015  0.020 -0.035   -0.068 -0.031 -0.015    0.115  0.072  0.020
 C         -0.015  0.012 -0.009   -0.041 -0.040 -0.002   -0.110 -0.094 -0.009
 H         -0.139  0.164 -0.012    0.459  0.111 -0.223   -0.344 -0.096  0.222
 H          0.052 -0.248  0.016    0.344  0.170  0.367   -0.245 -0.116 -0.326
 H         -0.211 -0.179  0.843   -0.019  0.023  0.061   -0.055 -0.195 -0.135
 O          0.002 -0.021 -0.025    0.001 -0.004 -0.002    0.007  0.008  0.006
 H          0.019 -0.005 -0.002    0.300  0.260 -0.250    0.338  0.249 -0.316
 H          0.063 -0.033  0.022    0.175  0.331  0.265    0.178  0.342  0.340
 H          0.178  0.241  0.052    0.022  0.017  0.013   -0.033 -0.046 -0.015
 TransDip   0.023 -0.012  0.142    0.077  0.028  0.024   -0.163 -0.040 -0.052

 Mode:                16                     17                     18
 Frequency:      1638.59                3154.43                3164.38
 Force Cnst:      1.7105                 6.1589                 6.2726
 Red. Mass:       1.0813                 1.0505                 1.0632
 IR Active:          YES                    YES                    YES
 IR Intens:       43.177                 10.602                  8.418
 Raman Active:       YES                    YES                    YES
               X      Y      Z        X      Y      Z        X      Y      Z
 C          0.032 -0.036  0.003   -0.051 -0.011 -0.015   -0.035 -0.009 -0.007
 C          0.011 -0.047  0.009   -0.020 -0.023  0.007    0.039  0.045 -0.011
 H         -0.130  0.086  0.039    0.199  0.137  0.593    0.115  0.078  0.341
 H         -0.055 -0.018 -0.087    0.386 -0.012 -0.414    0.245 -0.007 -0.263
 H          0.085  0.944  0.153   -0.003 -0.004 -0.000    0.007 -0.010  0.003
 O         -0.029 -0.017 -0.017    0.001 -0.000 -0.000   -0.000 -0.000  0.000
 H         -0.000  0.076 -0.075    0.038  0.163  0.255   -0.064 -0.272 -0.423
 H         -0.026  0.091  0.043    0.207  0.126 -0.338   -0.343 -0.208  0.558
 H          0.062  0.077  0.053    0.001 -0.002  0.002    0.000  0.002 -0.002
 TransDip   0.014  0.210 -0.002   -0.081 -0.066 -0.004    0.055  0.069 -0.027

 Mode:                19                     20                     21
 Frequency:      3239.15                3262.94                3841.71
 Force Cnst:      6.9013                 7.0046                 9.2760
 Red. Mass:       1.1164                 1.1166                 1.0667
 IR Active:          YES                    YES                    YES
 IR Intens:        1.579                  9.409                 24.471
 Raman Active:       YES                    YES                    YES
               X      Y      Z        X      Y      Z        X      Y      Z
 C          0.020 -0.011 -0.080    0.014 -0.007 -0.052   -0.000  0.000  0.000
 C         -0.007  0.013  0.052    0.013 -0.018 -0.080    0.001  0.000 -0.000
 H          0.185  0.115  0.512    0.125  0.075  0.338    0.000 -0.001 -0.000
 H         -0.433  0.014  0.441   -0.285  0.010  0.287    0.000 -0.000 -0.001
 H          0.000 -0.001 -0.001    0.000  0.001 -0.002    0.001 -0.012 -0.004
 O          0.000  0.000 -0.001   -0.000 -0.000  0.000    0.042 -0.016 -0.044
 H         -0.065 -0.247 -0.376    0.098  0.363  0.550   -0.002  0.004  0.002
 H          0.154  0.094 -0.245   -0.254 -0.155  0.398   -0.003 -0.000  0.003
 H         -0.002 -0.002  0.003    0.003  0.003 -0.003   -0.674  0.257  0.689
 TransDip   0.006  0.000 -0.040    0.025 -0.019 -0.093   -0.113  0.068  0.088

 STANDARD THERMODYNAMIC QUANTITIES AT   298.15 K  AND     1.00 ATM

   This Molecule has  1 Imaginary Frequencies
   Zero point vibrational energy:       45.382 kcal/mol

   Atom    1 Element C  Has Mass   12.00000
   Atom    2 Element C  Has Mass   12.00000
   Atom    3 Element H  Has Mass    1.00783
   Atom    4 Element H  Has Mass    1.00783
   Atom    5 Element H  Has Mass    1.00783
   Atom    6 Element O  Has Mass   15.99491
   Atom    7 Element H  Has Mass    1.00783
   Atom    8 Element H  Has Mass    1.00783
   Atom    9 Element H  Has Mass    1.00783
   Molecular Mass:    46.041890 amu
   Principal axes and moments of inertia in amu*Bohr^2:
                             1           2           3
    Eigenvalues --       65.99617   196.77626   234.12015
          X               0.91303     0.34614    -0.21577
          Y              -0.31994     0.93588     0.14753
          Z               0.25300    -0.06566     0.96523
   Rotational Symmetry Number is   1
   The Molecule is an Asymmetric Top
   Translational Enthalpy:        0.889 kcal/mol
   Rotational Enthalpy:           0.889 kcal/mol
   Vibrational Enthalpy:         46.196 kcal/mol
   gas constant (RT):             0.592 kcal/mol
   Translational Entropy:        37.406  cal/mol.K
   Rotational Entropy:           22.635  cal/mol.K
   Vibrational Entropy:           3.776  cal/mol.K

   Total Enthalpy:               48.566 kcal/mol
   Total Entropy:                63.817  cal/mol.K
Archival summary:
1\1\centos77-c3\FREQ\ProcedureUnspecified\BasisUnspecified\126\shihchen\TueJul2109:24:592020TueJul2109:24:592020\0\\#,FREQ,ProcedureUnspecified,BasisUnspecified,\\0,1\C\H,1,1.08092\H,1,1.08285,2,114.612\C,1,1.41132,2,121.053,3,-158.707,0\H,4,1.08179,1,118.306,2,4.12185,0\H,4,1.08237,1,118.247,2,153.406,0\H,4,1.42001,1,73.3671,2,-101.28,0\O,7,1.24537,4,129.64,1,4.34102,0\H,8,0.96364,7,114.27,4,-109.293,0\\\@

 Total job time:  225.35s(wall), 851.01s(cpu) 
 Tue Jul 21 09:24:59 2020

        *************************************************************
        *                                                           *
        *  Thank you very much for using Q-Chem.  Have a nice day.  *
        *                                                           *
        *************************************************************


