2
# Point -3 Energy = 0.05899176999997735
N       0.0000000000     0.0000000000     -0.5392419424
O       0.0000000000     0.0000000000     0.4597339331
2
# Point -2 Energy = 0.023245479999957297
N       0.0000000000     0.0000000000     -0.5628512452
O       0.0000000000     0.0000000000     0.4833432359
2
# Point -1 Energy = 0.005165849999968941
N       0.0000000000     0.0000000000     -0.5864605480
O       0.0000000000     0.0000000000     0.5069525387
2
# Point 0 Energy = 0
N       0.0000000000     0.0000000000     -0.6100698508
O       0.0000000000     0.0000000000     0.5305618415
2
# Point 1 Energy = 0.004141769999961298
N       0.0000000000     0.0000000000     -0.6336791536
O       0.0000000000     0.0000000000     0.5541711443
2
# Point 2 Energy = 0.014903639999971574
N       0.0000000000     0.0000000000     -0.6572884564
O       0.0000000000     0.0000000000     0.5777804471
2
# Point 3 Energy = 0.030231129999975792
N       0.0000000000     0.0000000000     -0.6808977592
O       0.0000000000     0.0000000000     0.6013897499
2
# Point 4 Energy = 0.048602559999949335
N       0.0000000000     0.0000000000     -0.7045070621
O       0.0000000000     0.0000000000     0.6249990528
2
# Point 5 Energy = 0.06881664999997383
N       0.0000000000     0.0000000000     -0.7281163649
O       0.0000000000     0.0000000000     0.6486083556

    This sampling was finished on:   2020-07-13 14:54:56
=------------------------------------------------------------------------------=
Sampling finished.
=------------------------------------------------------------------------------=