                  Welcome to Q-Chem
     A Quantum Leap Into The Future Of Chemistry


 Q-Chem 5.2 (devel), Q-Chem, Inc., Pleasanton, CA (2019)

 Yihan Shao,  Zhengting Gan,  E. Epifanovsky,  A. T. B. Gilbert,  M. Wormit,  
 J. Kussmann,  A. W. Lange,  A. Behn,  Jia Deng,  Xintian Feng,  D. Ghosh,  
 M. Goldey,  P. R. Horn,  L. D. Jacobson,  I. Kaliman,  T. Kus,  A. Landau,  
 Jie Liu,  E. I. Proynov,  R. M. Richard,  R. P. Steele,  E. J. Sundstrom,  
 H. L. Woodcock III,  P. M. Zimmerman,  D. Zuev,  B. Alam,  B. Albrecht,  
 E. Alguire,  S. A. Baeppler,  D. Barton,  Z. Benda,  Y. A. Bernard,  
 E. J. Berquist,  K. B. Bravaya,  H. Burton,  K. Carter-Fenk,  D. Casanova,  
 Chun-Min Chang,  Yunqing Chen,  A. Chien,  K. D. Closser,  M. P. Coons,  
 S. Coriani,  S. Dasgupta,  A. L. Dempwolff,  M. Diedenhofen,  Hainam Do,  
 R. G. Edgar,  Po-Tung Fang,  S. Faraji,  S. Fatehi,  Qingguo Feng,  
 J. Fosso-Tande,  J. Gayvert,  Qinghui Ge,  A. Ghysels,  G. Gidofalvi,  
 J. Gomes,  J. Gonthier,  A. Gunina,  D. Hait,  M. W. D. Hanson-Heine,  
 P. H. P. Harbach,  A. W. Hauser,  M. F. Herbst,  J. E. Herr,  
 E. G. Hohenstein,  Z. C. Holden,  Kerwin Hui,  B. C. Huynh,  T.-C. Jagau,  
 Hyunjun Ji,  B. Kaduk,  K. Khistyaev,  Jaehoon Kim,  P. Klunzinger,  K. Koh,  
 D. Kosenkov,  L. Koulias,  T. Kowalczyk,  C. M. Krauter,  A. Kunitsa,  
 Ka Un Lao,  A. Laurent,  K. V. Lawler,  Joonho Lee,  D. Lefrancois,  
 S. Lehtola,  D. S. Levine,  Yi-Pei Li,  You-Sheng Lin,  Fenglai Liu,  
 Kuan-Yu Liu,  E. Livshits,  M. Loipersberger,  A. Luenser,  P. Manohar,  
 E. Mansoor,  S. F. Manzer,  Shan-Ping Mao,  Yuezhi Mao,  N. Mardirossian,  
 A. V. Marenich,  T. Markovich,  L. A. Martinez-Martinez,  S. A. Maurer,  
 N. J. Mayhall,  S. C. McKenzie,  J.-M. Mewes,  P. Morgante,  A. F. Morrison,  
 J. W. Mullinax,  K. Nanda,  T. S. Nguyen-Beck,  R. Olivares-Amaya,  
 J. A. Parkhill,  S. K. Paul,  Zheng Pei,  T. M. Perrine,  F. Plasser,  
 P. Pokhilko,  S. Prager,  A. Prociuk,  E. Ramos,  B. Rana,  D. R. Rehn,  
 F. Rob,  M. Scheurer,  M. Schneider,  N. Sergueev,  S. M. Sharada,  
 S. Sharma,  D. W. Small,  T. Stauch,  C. J. Stein,  T. Stein,  Yu-Chuan Su,  
 S. P. Veccham,  A. J. W. Thom,  A. Tkatchenko,  T. Tsuchimochi,  
 N. M. Tubman,  L. Vogt,  M. L. Vidal,  O. Vydrov,  M. A. Watson,  J. Wenzel,  
 M. de Wergifosse,  T. A. Wesolowski,  A. White,  J. Witte,  A. Yamada,  
 Jun Yang,  K. Yao,  S. Yeganeh,  S. R. Yost,  Zhi-Qiang You,  A. Zech,  
 Igor Ying Zhang,  Xing Zhang,  Yan Zhao,  Ying Zhu,  B. R. Brooks,  
 G. K. L. Chan,  C. J. Cramer,  M. S. Gordon,  W. J. Hehre,  A. Klamt,  
 M. W. Schmidt,  C. D. Sherrill,  D. G. Truhlar,  A. Aspuru-Guzik,  R. Baer,  
 A. T. Bell,  N. A. Besley,  Jeng-Da Chai,  A. E. DePrince, III,  
 R. A. DiStasio Jr.,  A. Dreuw,  B. D. Dunietz,  T. R. Furlani,  
 Chao-Ping Hsu,  Yousung Jung,  Jing Kong,  D. S. Lambrecht,  WanZhen Liang,  
 C. Ochsenfeld,  V. A. Rassolov,  L. V. Slipchenko,  J. E. Subotnik,  
 T. Van Voorhis,  J. M. Herbert,  A. I. Krylov,  P. M. W. Gill,  M. Head-Gordon

 Contributors to earlier versions of Q-Chem not listed above: 
 R. D. Adamson,  B. Austin,  J. Baker,  G. J. O. Beran,  K. Brandhorst,  
 S. T. Brown,  E. F. C. Byrd,  A. K. Chakraborty,  C.-L. Cheng,  
 Siu Hung Chien,  D. M. Chipman,  D. L. Crittenden,  H. Dachsel,  
 R. J. Doerksen,  A. D. Dutoi,  L. Fusti-Molnar,  W. A. Goddard III,  
 A. Golubeva-Zadorozhnaya,  S. R. Gwaltney,  G. Hawkins,  A. Heyden,  
 S. Hirata,  G. Kedziora,  F. J. Keil,  C. Kelley,  Jihan Kim,  R. A. King,  
 R. Z. Khaliullin,  P. P. Korambath,  W. Kurlancheek,  A. M. Lee,  M. S. Lee,  
 S. V. Levchenko,  Ching Yeh Lin,  D. Liotard,  R. C. Lochan,  I. Lotan,  
 P. E. Maslen,  N. Nair,  D. P. O'Neill,  D. Neuhauser,  E. Neuscamman,  
 C. M. Oana,  R. Olson,  B. Peters,  R. Peverati,  P. A. Pieniazek,  
 Y. M. Rhee,  J. Ritchie,  M. A. Rohrdanz,  E. Rosta,  N. J. Russ,  
 H. F. Schaefer III,  N. E. Schultz,  N. Shenvi,  A. C. Simmonett,  A. Sodt,  
 D. Stuck,  K. S. Thanthiriwatte,  V. Vanovschi,  Tao Wang,  A. Warshel,  
 C. F. Williams,  Q. Wu,  X. Xu,  W. Zhang

 Please cite Q-Chem as follows:
 Y. Shao et al., Mol. Phys. 113, 184-215 (2015)
 DOI: 10.1080/00268976.2014.952696

 Q-Chem 5.2.2 for Intel X86 EM64T Linux

 Parts of Q-Chem use Armadillo 9.800.1 (Horizon Scraper).
 http://arma.sourceforge.net/

 Q-Chem begins on Wed Mar 11 15:06:13 2020  

Host: cn0318
0

     Scratch files written to /tmp/ypli/6315831.srvc1/qchem181696//

Checking the input file for inconsistencies... 	...done.

--------------------------------------------------------------
User input:
--------------------------------------------------------------
$comment
Optimize C3H8 at omegaB97X-D/6-311+G(2df,2pd)
$end

$rem
JOBTYPE opt
EXCHANGE omegaB97X-D
BASIS 6-311+G(2df,2pd)
XC_GRID 000075000302
$end

$molecule
0 1
C         -1.63410        0.50899        0.00500
C         -0.25573        1.15782       -0.07731
H         -1.75819       -0.01173        0.97846
H         -1.76614       -0.22301       -0.82017
H         -2.41867        1.28975       -0.08324
C          0.85418        0.11763        0.03997
H         -0.15075        1.89871        0.74440
H         -0.15868        1.68802       -1.04923
H          0.78573       -0.41184        1.01420
H          1.84262        0.61953       -0.02336
H          0.77777       -0.62312       -0.78442
$end

--------------------------------------------------------------
 ----------------------------------------------------------------
             Standard Nuclear Orientation (Angstroms)
    I     Atom           X                Y                Z
 ----------------------------------------------------------------
    1      C       1.2595569107    -0.2661044543     0.0000009587
    2      C      -0.0000009861     0.5948096333    -0.0000004947
    3      H       1.2877186831    -0.9090909320    -0.9055084683
    4      H       1.2877142660    -0.9090915594     0.9055057000
    5      H       2.1570452448     0.3876823995    -0.0000024403
    6      C      -1.2595546209    -0.2661053937    -0.0000015280
    7      H      -0.0000003850     1.2426994099    -0.9029871801
    8      H      -0.0000023015     1.2427010702     0.9029922600
    9      H      -1.2877219250    -0.9090893943    -0.9054992665
   10      H      -2.1570448014     0.3876830342     0.0000007656
   11      H      -1.2877166033    -0.9090927400     0.9055050141
 ----------------------------------------------------------------
 Molecular Point Group                 C1    NOp =  1
 Largest Abelian Subgroup              C1    NOp =  1
 Nuclear Repulsion Energy =          82.28498342 hartrees
 There are       13 alpha and       13 beta electrons
 Requested basis set is 6-311+G(2df,2pd)
 There are 72 shells and 214 basis functions

 Total QAlloc Memory Limit   2000 MB
 Mega-Array Size       188 MB
 MEM_STATIC part       192 MB
 A cutoff of  1.0D-11 yielded   2573 shell pairs
 There are     22933 function pairs (     28212 Cartesian)
 Smallest overlap matrix eigenvalue = 8.46E-05

 Scale SEOQF with 1.000000e-01/1.000000e-01/1.000000e-01

 Standard Electronic Orientation quadrupole field applied
 Nucleus-field energy     =     0.0000000014 hartrees
 Guess from superposition of atomic densities
 Warning:  Energy on first SCF cycle will be non-variational
 SAD guess density has 26.000000 electrons

 -----------------------------------------------------------------------
  General SCF calculation program by
  Eric Jon Sundstrom, Paul Horn, Yuezhi Mao, Dmitri Zuev, Alec White,
  David Stuck, Shaama M.S., Shane Yost, Joonho Lee, David Small,
  Daniel Levine, Susi Lehtola, Hugh Burton, Evgeny Epifanovsky,
  Bang C. Huynh
 -----------------------------------------------------------------------
 Exchange:     0.2220 Hartree-Fock + 1.0000 wB97X-D + LR-HF
 Correlation:  1.0000 wB97X-D
 Using Euler-Maclaurin-Lebedev (75,302) quadrature formula
 Dispersion:   Grimme D
 using 2 threads for integral computing
 -------------------------------------------------------
 OpenMP Integral computing Module                
 Release: version 1.0, May 2013, Q-Chem Inc. Pittsburgh 
 -------------------------------------------------------
 using 2 threads for integral computing
 -------------------------------------------------------
 OpenMP Integral computing Module                
 Release: version 1.0, May 2013, Q-Chem Inc. Pittsburgh 
 -------------------------------------------------------
 A restricted SCF calculation will be
 performed using DIIS
 SCF converges when DIIS error is below 1.0e-08
 ---------------------------------------
  Cycle       Energy         DIIS error
 ---------------------------------------
    1    -119.6031248549      2.78e-02  
    2    -119.1000457350      2.70e-03  
    3    -119.1179127270      2.14e-03  
    4    -119.1435274971      1.13e-04  
    5    -119.1436084863      4.81e-05  
    6    -119.1436207518      1.29e-05  
    7    -119.1436216984      2.46e-06  
    8    -119.1436217481      3.84e-07  
    9    -119.1436217499      6.72e-08  
   10    -119.1436217499      1.02e-08  
   11    -119.1436217499      1.33e-09  Convergence criterion met
 ---------------------------------------
 SCF time:   CPU 129.38s  wall 67.00s 
 SCF   energy in the final basis set =     -119.1436217499
 Total energy in the final basis set =     -119.1436217499
 
 --------------------------------------------------------------
 
                    Orbital Energies (a.u.)
 --------------------------------------------------------------
 
 Alpha MOs
 -- Occupied --
-10.2786 -10.2717 -10.2717  -0.8798  -0.7717  -0.6698  -0.5466  -0.5207
 -0.4804  -0.4624  -0.4156  -0.4122  -0.4083
 -- Virtual --
  0.0691   0.0863   0.0907   0.0977   0.1252   0.1302   0.1331   0.1393
  0.1419   0.1692   0.1710   0.1903   0.2272   0.2361   0.2408   0.2626
  0.2763   0.2799   0.3084   0.3116   0.3345   0.3427   0.4590   0.4674
  0.4695   0.5043   0.5101   0.5171   0.5415   0.5559   0.5796   0.5810
  0.6184   0.6224   0.6378   0.6411   0.6548   0.6557   0.6969   0.7157
  0.7167   0.7659   0.8146   0.8644   0.8691   0.8694   0.8785   0.9460
  0.9925   1.0424   1.0496   1.1316   1.1352   1.1703   1.1816   1.2027
  1.2229   1.2249   1.2646   1.2676   1.2831   1.2834   1.3234   1.3805
  1.3869   1.3916   1.3931   1.4401   1.4607   1.4621   1.4654   1.4712
  1.5071   1.5703   1.5945   1.6166   1.6204   1.6236   1.6649   1.6781
  1.7095   2.3908   2.4961   2.4964   2.5163   2.5561   2.5644   2.6205
  2.6421   2.7213   2.8255   2.8366   2.8421   2.8859   2.9167   2.9228
  2.9252   2.9259   2.9920   3.0033   3.0262   3.0282   3.0417   3.0997
  3.1204   3.1212   3.1821   3.1862   3.1930   3.2104   3.2775   3.2844
  3.3013   3.3072   3.3209   3.3338   3.3497   3.3691   3.3830   3.4550
  3.4552   3.4618   3.5043   3.5127   3.5576   3.5627   3.5738   3.6040
  3.6165   3.6488   3.6724   3.7213   3.7919   3.7976   3.8847   3.8939
  3.9197   3.9381   3.9471   3.9472   3.9593   3.9891   4.0329   4.0443
  4.0481   4.0847   4.0848   4.1198   4.1249   4.1262   4.1521   4.1754
  4.1899   4.2143   4.2397   4.3594   4.3629   4.3794   4.3935   4.3941
  4.4156   4.5513   4.5563   4.5584   4.6336   4.7605   4.8097   4.8612
  4.9042   4.9227   4.9284   4.9326   4.9521   4.9804   4.9827   5.0584
  5.0781   5.2052   5.2134   5.2372   5.2507   5.2691   5.2765   5.3085
  5.3105   5.3414   5.4295   5.4564   5.4925   5.5255   5.5860   5.7175
  5.9340   6.3165   6.3274   6.3348   6.3673   6.4097  25.1415  25.3744
 25.3786
 --------------------------------------------------------------
 
          Ground-State Mulliken Net Atomic Charges

     Atom                 Charge (a.u.)
  ----------------------------------------
      1 C                    -0.124736
      2 C                    -0.014728
      3 H                     0.032748
      4 H                     0.032748
      5 H                     0.035625
      6 C                    -0.124736
      7 H                     0.030979
      8 H                     0.030979
      9 H                     0.032749
     10 H                     0.035625
     11 H                     0.032748
  ----------------------------------------
  Sum of atomic charges =     0.000000

 -----------------------------------------------------------------
                    Cartesian Multipole Moments
 -----------------------------------------------------------------
    Charge (ESU x 10^10)
                -0.0000
    Dipole Moment (Debye)
         X      -0.0000      Y       0.1036      Z      -0.0000
       Tot       0.1036
    Quadrupole Moments (Debye-Ang)
        XX     -22.6057     XY       0.0000     YY     -22.0472
        XZ       0.0000     YZ      -0.0000     ZZ     -21.3026
    Octopole Moments (Debye-Ang^2)
       XXX      -0.0000    XXY       1.8691    XYY      -0.0000
       YYY       0.3833    XXZ      -0.0001    XYZ      -0.0000
       YYZ      -0.0000    XZZ      -0.0000    YZZ      -0.5286
       ZZZ      -0.0000
    Hexadecapole Moments (Debye-Ang^3)
      XXXX    -204.2648   XXXY       0.0001   XXYY     -45.5472
      XYYY       0.0001   YYYY     -74.3825   XXXZ       0.0000
      XXYZ       0.0000   XYYZ       0.0000   YYYZ      -0.0000
      XXZZ     -42.4334   XYZZ       0.0000   YYZZ     -17.4161
      XZZZ       0.0000   YZZZ      -0.0000   ZZZZ     -45.4879
 -----------------------------------------------------------------
 Calculating analytic gradient of the SCF energy
 Gradient of SCF Energy
            1           2           3           4           5           6
    1  -0.0081382  -0.0000012  -0.0012122  -0.0012129   0.0073513   0.0081412
    2  -0.0017459  -0.0029861  -0.0057063  -0.0057055   0.0104376  -0.0017487
    3   0.0000021  -0.0000024  -0.0110726   0.0110710  -0.0000005  -0.0000044
            7           8           9          10          11
    1  -0.0000000  -0.0000000   0.0012120  -0.0073523   0.0012123
    2   0.0042120   0.0042139  -0.0057033   0.0104383  -0.0057061
    3  -0.0116047   0.0116074  -0.0110673  -0.0000001   0.0110715
 Max gradient component =       1.161E-02
 RMS gradient           =       6.524E-03
 Gradient time:  CPU 36.55 s  wall 23.29 s
 Geometry Optimization Parameters
   NAtoms,    NIC,     NZ,  NCons,   NDum,   NFix, NCnnct, MaxDiis
       11      68       0       0       0       0       0       0


** GEOMETRY OPTIMIZATION IN DELOCALIZED INTERNAL COORDINATES **
   Searching for a Minimum

   Optimization Cycle:   1

                       Coordinates (Angstroms)
     ATOM                X               Y               Z
      1  C         1.2595569107   -0.2661044543    0.0000009587
      2  C        -0.0000009861    0.5948096333   -0.0000004947
      3  H         1.2877186831   -0.9090909320   -0.9055084683
      4  H         1.2877142660   -0.9090915594    0.9055057000
      5  H         2.1570452448    0.3876823995   -0.0000024403
      6  C        -1.2595546209   -0.2661053937   -0.0000015280
      7  H        -0.0000003850    1.2426994099   -0.9029871801
      8  H        -0.0000023015    1.2427010702    0.9029922600
      9  H        -1.2877219250   -0.9090893943   -0.9054992665
     10  H        -2.1570448014    0.3876830342    0.0000007656
     11  H        -1.2877166033   -0.9090927400    0.9055050141
   Point Group: c1    Number of degrees of freedom:    27


   Energy is   -119.143621750


 Attempting to generate delocalized internal coordinates
 Initial Hessian constructed with Jon Baker's OPTIMIZE code

 25 Hessian modes will be used to form the next step
  Hessian Eigenvalues:
     0.039050    0.050775    0.057764    0.057765    0.058856    0.058856
     0.081472    0.120371    0.160000    0.160000    0.160000    0.160000
     0.160000    0.160000    0.219627    0.298272    0.298275    0.324546
     0.324553    0.325014    0.325016    0.325018    0.325026    0.325606
     0.325608

 Minimum search - taking simple RFO step
 Searching for Lamda that Minimizes Along All modes
 Value Taken    Lamda =  -0.00484027
 Step Taken.  Stepsize is  0.153478

                             Maximum     Tolerance    Cnvgd?
         Gradient           0.032175      0.000300      NO
         Displacement       0.108923      0.001200      NO
         Energy change     *********      0.000001      NO


 New Cartesian Coordinates Obtained by Inverse Iteration

 Displacement from previous Coordinates is:  0.169534
 ----------------------------------------------------------------
             Standard Nuclear Orientation (Angstroms)
    I     Atom           X                Y                Z
 ----------------------------------------------------------------
    1      C       1.2720344020    -0.2571638974     0.0000004035
    2      C      -0.0000007620     0.5887316208     0.0000001312
    3      H       1.3101302456    -0.8989302515    -0.8817098039
    4      H       1.3101300634    -0.8989312867     0.8817093659
    5      H       2.1691621467     0.3637002747    -0.0000013226
    6      C      -1.2720348013    -0.2571640523     0.0000004878
    7      H      -0.0000003192     1.2404608098    -0.8765399323
    8      H      -0.0000005652     1.2404592651     0.8765416051
    9      H      -1.3101333824    -0.8989305600    -0.8817090257
   10      H      -2.1691628651     0.3637003035     0.0000032610
   11      H      -1.3101306810    -0.8989311525     0.8817101503
 ----------------------------------------------------------------
 Molecular Point Group                 C1    NOp =  1
 Largest Abelian Subgroup              C1    NOp =  1
 Nuclear Repulsion Energy =          82.61521056 hartrees
 There are       13 alpha and       13 beta electrons
 Applying Cartesian multipole field
    Component          Value
    ---------          -----
     (2,0,0)        1.00000E-11
     (0,2,0)        2.00000E-11
     (0,0,2)       -3.00000E-11
 Nucleus-field energy     =     0.0000000015 hartrees
 Requested basis set is 6-311+G(2df,2pd)
 There are 72 shells and 214 basis functions
 A cutoff of  1.0D-11 yielded   2573 shell pairs
 There are     22933 function pairs (     28212 Cartesian)
 Smallest overlap matrix eigenvalue = 8.79E-05
 Guess MOs from SCF MO coefficient file

 -----------------------------------------------------------------------
  General SCF calculation program by
  Eric Jon Sundstrom, Paul Horn, Yuezhi Mao, Dmitri Zuev, Alec White,
  David Stuck, Shaama M.S., Shane Yost, Joonho Lee, David Small,
  Daniel Levine, Susi Lehtola, Hugh Burton, Evgeny Epifanovsky,
  Bang C. Huynh
 -----------------------------------------------------------------------
 Exchange:     0.2220 Hartree-Fock + 1.0000 wB97X-D + LR-HF
 Correlation:  1.0000 wB97X-D
 Using Euler-Maclaurin-Lebedev (75,302) quadrature formula
 Dispersion:   Grimme D
 using 2 threads for integral computing
 -------------------------------------------------------
 OpenMP Integral computing Module                
 Release: version 1.0, May 2013, Q-Chem Inc. Pittsburgh 
 -------------------------------------------------------
 using 2 threads for integral computing
 -------------------------------------------------------
 OpenMP Integral computing Module                
 Release: version 1.0, May 2013, Q-Chem Inc. Pittsburgh 
 -------------------------------------------------------
 A restricted SCF calculation will be
 performed using DIIS
 SCF converges when DIIS error is below 1.0e-08
 ---------------------------------------
  Cycle       Energy         DIIS error
 ---------------------------------------
    1    -119.1454036348      4.37e-04  
    2    -119.1460143189      7.22e-05  
    3    -119.1460331339      4.66e-05  
    4    -119.1460451775      5.85e-06  
    5    -119.1460454582      1.51e-06  
    6    -119.1460454785      4.72e-07  
    7    -119.1460454803      1.40e-07  
    8    -119.1460454804      2.57e-08  
    9    -119.1460454805      3.89e-09  Convergence criterion met
 ---------------------------------------
 SCF time:   CPU 116.06s  wall 59.00s 
 SCF   energy in the final basis set =     -119.1460454805
 Total energy in the final basis set =     -119.1460454805
 
 --------------------------------------------------------------
 
                    Orbital Energies (a.u.)
 --------------------------------------------------------------
 
 Alpha MOs
 -- Occupied --
-10.2744 -10.2653 -10.2653  -0.8802  -0.7772  -0.6776  -0.5460  -0.5234
 -0.4819  -0.4644  -0.4189  -0.4164  -0.4084
 -- Virtual --
  0.0692   0.0860   0.0912   0.0990   0.1250   0.1301   0.1333   0.1426
  0.1432   0.1708   0.1721   0.1912   0.2331   0.2413   0.2445   0.2644
  0.2817   0.2840   0.3093   0.3125   0.3340   0.3492   0.4581   0.4664
  0.4708   0.5099   0.5124   0.5181   0.5452   0.5618   0.5848   0.5853
  0.6244   0.6247   0.6423   0.6423   0.6545   0.6564   0.7087   0.7254
  0.7271   0.7664   0.8229   0.8647   0.8677   0.8730   0.8779   0.9595
  1.0009   1.0512   1.0562   1.1393   1.1396   1.1792   1.1805   1.2127
  1.2334   1.2335   1.2694   1.2769   1.2859   1.2897   1.3269   1.3749
  1.3799   1.3948   1.3980   1.4475   1.4668   1.4711   1.4780   1.4797
  1.5224   1.5785   1.6115   1.6210   1.6414   1.6433   1.6849   1.6923
  1.7452   2.3743   2.4649   2.4803   2.4987   2.5455   2.5612   2.5965
  2.6273   2.7128   2.8220   2.8293   2.8425   2.9096   2.9270   2.9322
  2.9328   2.9414   3.0050   3.0159   3.0541   3.0730   3.0742   3.1005
  3.1324   3.1355   3.1803   3.1948   3.2031   3.2185   3.2812   3.3100
  3.3341   3.3348   3.3352   3.3575   3.3608   3.3688   3.3978   3.4419
  3.4730   3.4847   3.4888   3.5153   3.5626   3.5774   3.5976   3.6182
  3.6213   3.6794   3.6901   3.7010   3.7827   3.7948   3.8818   3.8925
  3.9396   3.9481   3.9511   3.9546   3.9572   3.9856   4.0529   4.0630
  4.0765   4.1015   4.1065   4.1464   4.1510   4.1543   4.1894   4.1988
  4.2138   4.2401   4.2607   4.3735   4.3981   4.4077   4.4128   4.4278
  4.4313   4.5875   4.5894   4.5925   4.6723   4.8065   4.8219   4.8963
  4.9497   4.9586   4.9596   4.9627   5.0399   5.0483   5.0547   5.1084
  5.1191   5.2472   5.2479   5.2733   5.3155   5.3476   5.3510   5.3688
  5.3786   5.3844   5.4496   5.4923   5.5546   5.5565   5.6273   5.7395
  5.9489   6.3829   6.3841   6.3925   6.4154   6.4617  25.2030  25.4427
 25.4519
 --------------------------------------------------------------
 
          Ground-State Mulliken Net Atomic Charges

     Atom                 Charge (a.u.)
  ----------------------------------------
      1 C                    -0.122532
      2 C                    -0.012462
      3 H                     0.032232
      4 H                     0.032232
      5 H                     0.034723
      6 C                    -0.122532
      7 H                     0.029576
      8 H                     0.029576
      9 H                     0.032232
     10 H                     0.034723
     11 H                     0.032232
  ----------------------------------------
  Sum of atomic charges =     0.000000

 -----------------------------------------------------------------
                    Cartesian Multipole Moments
 -----------------------------------------------------------------
    Charge (ESU x 10^10)
                 0.0000
    Dipole Moment (Debye)
         X      -0.0000      Y       0.0833      Z      -0.0000
       Tot       0.0833
    Quadrupole Moments (Debye-Ang)
        XX     -22.1531     XY       0.0000     YY     -21.8775
        XZ      -0.0000     YZ      -0.0000     ZZ     -21.3376
    Octopole Moments (Debye-Ang^2)
       XXX       0.0000    XXY       1.5108    XYY       0.0000
       YYY       0.2319    XXZ      -0.0000    XYZ      -0.0000
       YYZ      -0.0000    XZZ       0.0000    YZZ      -0.5355
       ZZZ      -0.0000
    Hexadecapole Moments (Debye-Ang^3)
      XXXX    -203.3534   XXXY       0.0000   XXYY     -45.5024
      XYYY       0.0000   YYYY     -72.0935   XXXZ      -0.0000
      XXYZ       0.0000   XYYZ       0.0000   YYYZ      -0.0000
      XXZZ     -42.3965   XYZZ       0.0000   YYZZ     -17.0411
      XZZZ       0.0000   YZZZ       0.0000   ZZZZ     -44.1030
 -----------------------------------------------------------------
 Calculating analytic gradient of the SCF energy
 Gradient of SCF Energy
            1           2           3           4           5           6
    1   0.0017697  -0.0000004  -0.0001086  -0.0001087   0.0005143  -0.0017690
    2  -0.0012388   0.0017662   0.0005262   0.0005262  -0.0000273  -0.0012389
    3   0.0000005  -0.0000003   0.0000667  -0.0000669  -0.0000002  -0.0000003
            7           8           9          10          11
    1   0.0000000   0.0000000   0.0001085  -0.0005145   0.0001085
    2  -0.0006693  -0.0006693   0.0005262  -0.0000272   0.0005262
    3  -0.0003734   0.0003735   0.0000669   0.0000001  -0.0000667
 Max gradient component =       1.770E-03
 RMS gradient           =       6.815E-04
 Gradient time:  CPU 36.64 s  wall 18.39 s
 Geometry Optimization Parameters
   NAtoms,    NIC,     NZ,  NCons,   NDum,   NFix, NCnnct, MaxDiis
       11      68       0       0       0       0       0       0

 Cartesian Hessian Update
 Hessian updated using BFGS update


** GEOMETRY OPTIMIZATION IN DELOCALIZED INTERNAL COORDINATES **
   Searching for a Minimum

   Optimization Cycle:   2

                       Coordinates (Angstroms)
     ATOM                X               Y               Z
      1  C         1.2720344020   -0.2571638974    0.0000004035
      2  C        -0.0000007620    0.5887316208    0.0000001312
      3  H         1.3101302456   -0.8989302515   -0.8817098039
      4  H         1.3101300634   -0.8989312867    0.8817093659
      5  H         2.1691621467    0.3637002747   -0.0000013226
      6  C        -1.2720348013   -0.2571640523    0.0000004878
      7  H        -0.0000003192    1.2404608098   -0.8765399323
      8  H        -0.0000005652    1.2404592651    0.8765416051
      9  H        -1.3101333824   -0.8989305600   -0.8817090257
     10  H        -2.1691628651    0.3637003035    0.0000032610
     11  H        -1.3101306810   -0.8989311525    0.8817101503
   Point Group: c1    Number of degrees of freedom:    27


   Energy is   -119.146045480

 Hessian updated using BFGS update

 20 Hessian modes will be used to form the next step
  Hessian Eigenvalues:
     0.039050    0.050449    0.057752    0.057764    0.058856    0.058856
     0.081472    0.157742    0.163099    0.221979    0.292144    0.298274
     0.323540    0.324550    0.324749    0.325015    0.325017    0.325024
     0.325607    0.342216

 Minimum search - taking simple RFO step
 Searching for Lamda that Minimizes Along All modes
 Value Taken    Lamda =  -0.00005622
 Step Taken.  Stepsize is  0.018162

                             Maximum     Tolerance    Cnvgd?
         Gradient           0.001980      0.000300      NO
         Displacement       0.009521      0.001200      NO
         Energy change     -0.002424      0.000001      NO


 New Cartesian Coordinates Obtained by Inverse Iteration

 Displacement from previous Coordinates is:  0.031823
 ----------------------------------------------------------------
             Standard Nuclear Orientation (Angstroms)
    I     Atom           X                Y                Z
 ----------------------------------------------------------------
    1      C       1.2670382329    -0.2573944762    -0.0000000878
    2      C      -0.0000006202     0.5902100596     0.0000006584
    3      H       1.3051819736    -0.9009721929    -0.8808526093
    4      H       1.3051830066    -0.9009722002     0.8808522548
    5      H       2.1635318382     0.3628623296    -0.0000011503
    6      C      -1.2670392445    -0.2573943268     0.0000008951
    7      H      -0.0000006789     1.2448721927    -0.8742910337
    8      H      -0.0000003023     1.2448714496     0.8742929023
    9      H      -1.3051848024    -0.9009712678    -0.8808521125
   10      H      -2.1635330038     0.3628623417     0.0000027712
   11      H      -1.3051829178    -0.9009728358     0.8808528323
 ----------------------------------------------------------------
 Molecular Point Group                 C1    NOp =  1
 Largest Abelian Subgroup              C1    NOp =  1
 Nuclear Repulsion Energy =          82.73525353 hartrees
 There are       13 alpha and       13 beta electrons
 Applying Cartesian multipole field
    Component          Value
    ---------          -----
     (2,0,0)        1.00000E-11
     (0,2,0)        2.00000E-11
     (0,0,2)       -3.00000E-11
 Nucleus-field energy     =     0.0000000014 hartrees
 Requested basis set is 6-311+G(2df,2pd)
 There are 72 shells and 214 basis functions
 A cutoff of  1.0D-11 yielded   2573 shell pairs
 There are     22933 function pairs (     28212 Cartesian)
 Smallest overlap matrix eigenvalue = 8.69E-05
 Guess MOs from SCF MO coefficient file

 -----------------------------------------------------------------------
  General SCF calculation program by
  Eric Jon Sundstrom, Paul Horn, Yuezhi Mao, Dmitri Zuev, Alec White,
  David Stuck, Shaama M.S., Shane Yost, Joonho Lee, David Small,
  Daniel Levine, Susi Lehtola, Hugh Burton, Evgeny Epifanovsky,
  Bang C. Huynh
 -----------------------------------------------------------------------
 Exchange:     0.2220 Hartree-Fock + 1.0000 wB97X-D + LR-HF
 Correlation:  1.0000 wB97X-D
 Using Euler-Maclaurin-Lebedev (75,302) quadrature formula
 Dispersion:   Grimme D
 using 2 threads for integral computing
 -------------------------------------------------------
 OpenMP Integral computing Module                
 Release: version 1.0, May 2013, Q-Chem Inc. Pittsburgh 
 -------------------------------------------------------
 using 2 threads for integral computing
 -------------------------------------------------------
 OpenMP Integral computing Module                
 Release: version 1.0, May 2013, Q-Chem Inc. Pittsburgh 
 -------------------------------------------------------
 A restricted SCF calculation will be
 performed using DIIS
 SCF converges when DIIS error is below 1.0e-08
 ---------------------------------------
  Cycle       Energy         DIIS error
 ---------------------------------------
    1    -119.1460649593      4.27e-05  
    2    -119.1460732671      7.83e-06  
    3    -119.1460736589      5.16e-06  
    4    -119.1460738109      8.36e-07  
    5    -119.1460738180      1.07e-07  
    6    -119.1460738181      1.83e-08  
    7    -119.1460738181      7.45e-09  Convergence criterion met
 ---------------------------------------
 SCF time:   CPU 91.83s  wall 46.00s 
 SCF   energy in the final basis set =     -119.1460738181
 Total energy in the final basis set =     -119.1460738181
 
 --------------------------------------------------------------
 
                    Orbital Energies (a.u.)
 --------------------------------------------------------------
 
 Alpha MOs
 -- Occupied --
-10.2740 -10.2650 -10.2650  -0.8811  -0.7771  -0.6777  -0.5459  -0.5241
 -0.4826  -0.4638  -0.4184  -0.4177  -0.4078
 -- Virtual --
  0.0691   0.0860   0.0910   0.0990   0.1251   0.1300   0.1335   0.1426
  0.1431   0.1706   0.1721   0.1913   0.2328   0.2414   0.2445   0.2644
  0.2816   0.2845   0.3108   0.3127   0.3346   0.3499   0.4584   0.4666
  0.4708   0.5098   0.5127   0.5178   0.5451   0.5613   0.5845   0.5846
  0.6250   0.6256   0.6423   0.6439   0.6563   0.6568   0.7090   0.7260
  0.7269   0.7671   0.8217   0.8654   0.8681   0.8733   0.8794   0.9589
  1.0023   1.0525   1.0573   1.1396   1.1401   1.1814   1.1814   1.2132
  1.2333   1.2334   1.2689   1.2777   1.2860   1.2914   1.3273   1.3776
  1.3822   1.3953   1.3991   1.4472   1.4663   1.4715   1.4785   1.4791
  1.5218   1.5793   1.6123   1.6230   1.6416   1.6433   1.6852   1.6935
  1.7445   2.3754   2.4675   2.4793   2.4984   2.5447   2.5609   2.5998
  2.6283   2.7134   2.8228   2.8334   2.8410   2.9104   2.9281   2.9326
  2.9328   2.9413   3.0030   3.0165   3.0549   3.0725   3.0747   3.1009
  3.1337   3.1361   3.1810   3.1952   3.2049   3.2196   3.2820   3.3094
  3.3335   3.3355   3.3368   3.3617   3.3618   3.3677   3.3992   3.4456
  3.4739   3.4853   3.4912   3.5169   3.5630   3.5776   3.5988   3.6190
  3.6214   3.6797   3.6890   3.7023   3.7839   3.7948   3.8828   3.8943
  3.9394   3.9510   3.9515   3.9550   3.9596   3.9887   4.0546   4.0650
  4.0775   4.1047   4.1070   4.1457   4.1520   4.1577   4.1896   4.2012
  4.2161   4.2436   4.2620   4.3729   4.3989   4.4105   4.4142   4.4272
  4.4342   4.5880   4.5904   4.5918   4.6728   4.8069   4.8279   4.8943
  4.9463   4.9588   4.9624   4.9645   5.0411   5.0491   5.0568   5.1104
  5.1232   5.2490   5.2514   5.2769   5.3131   5.3520   5.3530   5.3732
  5.3808   5.3844   5.4568   5.4973   5.5549   5.5571   5.6300   5.7445
  5.9546   6.3836   6.3852   6.3936   6.4174   6.4635  25.2054  25.4455
 25.4549
 --------------------------------------------------------------
 
          Ground-State Mulliken Net Atomic Charges

     Atom                 Charge (a.u.)
  ----------------------------------------
      1 C                    -0.123034
      2 C                    -0.009960
      3 H                     0.032166
      4 H                     0.032166
      5 H                     0.034457
      6 C                    -0.123034
      7 H                     0.029226
      8 H                     0.029226
      9 H                     0.032166
     10 H                     0.034457
     11 H                     0.032166
  ----------------------------------------
  Sum of atomic charges =     0.000000

 -----------------------------------------------------------------
                    Cartesian Multipole Moments
 -----------------------------------------------------------------
    Charge (ESU x 10^10)
                 0.0000
    Dipole Moment (Debye)
         X      -0.0000      Y       0.0859      Z       0.0000
       Tot       0.0859
    Quadrupole Moments (Debye-Ang)
        XX     -22.1747     XY       0.0000     YY     -21.8409
        XZ      -0.0000     YZ      -0.0000     ZZ     -21.3528
    Octopole Moments (Debye-Ang^2)
       XXX       0.0000    XXY       1.4940    XYY       0.0000
       YYY       0.2444    XXZ      -0.0000    XYZ      -0.0000
       YYZ      -0.0000    XZZ       0.0000    YZZ      -0.5393
       ZZZ      -0.0000
    Hexadecapole Moments (Debye-Ang^3)
      XXXX    -202.2798   XXXY       0.0000   XXYY     -45.2838
      XYYY       0.0000   YYYY     -72.1908   XXXZ       0.0000
      XXYZ       0.0000   XYYZ       0.0000   YYYZ      -0.0000
      XXZZ     -42.1915   XYZZ       0.0000   YYZZ     -17.0653
      XZZZ       0.0000   YZZZ      -0.0000   ZZZZ     -44.0957
 -----------------------------------------------------------------
 Calculating analytic gradient of the SCF energy
 Gradient of SCF Energy
            1           2           3           4           5           6
    1   0.0002342  -0.0000001  -0.0000096  -0.0000097  -0.0002754  -0.0002340
    2  -0.0005598   0.0010106   0.0001544   0.0001544   0.0000010  -0.0005597
    3   0.0000001   0.0000000   0.0000803  -0.0000804  -0.0000000  -0.0000000
            7           8           9          10          11
    1   0.0000000  -0.0000000   0.0000096   0.0002754   0.0000096
    2  -0.0002552  -0.0002552   0.0001543   0.0000010   0.0001544
    3   0.0000803  -0.0000803   0.0000803   0.0000000  -0.0000803
 Max gradient component =       1.011E-03
 RMS gradient           =       2.567E-04
 Gradient time:  CPU 35.68 s  wall 17.91 s
 Geometry Optimization Parameters
   NAtoms,    NIC,     NZ,  NCons,   NDum,   NFix, NCnnct, MaxDiis
       11      68       0       0       0       0       0       0

 Cartesian Hessian Update
 Hessian updated using BFGS update


** GEOMETRY OPTIMIZATION IN DELOCALIZED INTERNAL COORDINATES **
   Searching for a Minimum

   Optimization Cycle:   3

                       Coordinates (Angstroms)
     ATOM                X               Y               Z
      1  C         1.2670382329   -0.2573944762   -0.0000000878
      2  C        -0.0000006202    0.5902100596    0.0000006584
      3  H         1.3051819736   -0.9009721929   -0.8808526093
      4  H         1.3051830066   -0.9009722002    0.8808522548
      5  H         2.1635318382    0.3628623296   -0.0000011503
      6  C        -1.2670392445   -0.2573943268    0.0000008951
      7  H        -0.0000006789    1.2448721927   -0.8742910337
      8  H        -0.0000003023    1.2448714496    0.8742929023
      9  H        -1.3051848024   -0.9009712678   -0.8808521125
     10  H        -2.1635330038    0.3628623417    0.0000027712
     11  H        -1.3051829178   -0.9009728358    0.8808528323
   Point Group: c1    Number of degrees of freedom:    27


   Energy is   -119.146073818

 Hessian updated using BFGS update

 20 Hessian modes will be used to form the next step
  Hessian Eigenvalues:
     0.039050    0.045927    0.057049    0.057764    0.058856    0.081472
     0.120371    0.153229    0.160000    0.170015    0.242498    0.296465
     0.298274    0.324549    0.324600    0.325015    0.325017    0.325024
     0.325830    0.334897

 Minimum search - taking simple RFO step
 Searching for Lamda that Minimizes Along All modes
 Value Taken    Lamda =  -0.00000359
 Step Taken.  Stepsize is  0.006590

                             Maximum     Tolerance    Cnvgd?
         Gradient           0.000440      0.000300      NO
         Displacement       0.005923      0.001200      NO
         Energy change     -0.000028      0.000001      NO


 New Cartesian Coordinates Obtained by Inverse Iteration

 Displacement from previous Coordinates is:  0.004270
 ----------------------------------------------------------------
             Standard Nuclear Orientation (Angstroms)
    I     Atom           X                Y                Z
 ----------------------------------------------------------------
    1      C       1.2672036082    -0.2569503514    -0.0000001851
    2      C      -0.0000005762     0.5897576004     0.0000007366
    3      H       1.3052739905    -0.9012762219    -0.8806648105
    4      H       1.3052754760    -0.9012759810     0.8806645344
    5      H       2.1646159549     0.3625441726    -0.0000010694
    6      C      -1.2672047926    -0.2569501964     0.0000009887
    7      H      -0.0000008715     1.2455801103    -0.8738719855
    8      H      -0.0000001930     1.2455795534     0.8738738742
    9      H      -1.3052768457    -0.9012749783    -0.8806643427
   10      H      -2.1646171460     0.3625442992     0.0000025978
   11      H      -1.3052751232    -0.9012769334     0.8806649819
 ----------------------------------------------------------------
 Molecular Point Group                 C1    NOp =  1
 Largest Abelian Subgroup              C1    NOp =  1
 Nuclear Repulsion Energy =          82.72993600 hartrees
 There are       13 alpha and       13 beta electrons
 Applying Cartesian multipole field
    Component          Value
    ---------          -----
     (2,0,0)        1.00000E-11
     (0,2,0)        2.00000E-11
     (0,0,2)       -3.00000E-11
 Nucleus-field energy     =     0.0000000014 hartrees
 Requested basis set is 6-311+G(2df,2pd)
 There are 72 shells and 214 basis functions
 A cutoff of  1.0D-11 yielded   2573 shell pairs
 There are     22933 function pairs (     28212 Cartesian)
 Smallest overlap matrix eigenvalue = 8.69E-05
 Guess MOs from SCF MO coefficient file

 -----------------------------------------------------------------------
  General SCF calculation program by
  Eric Jon Sundstrom, Paul Horn, Yuezhi Mao, Dmitri Zuev, Alec White,
  David Stuck, Shaama M.S., Shane Yost, Joonho Lee, David Small,
  Daniel Levine, Susi Lehtola, Hugh Burton, Evgeny Epifanovsky,
  Bang C. Huynh
 -----------------------------------------------------------------------
 Exchange:     0.2220 Hartree-Fock + 1.0000 wB97X-D + LR-HF
 Correlation:  1.0000 wB97X-D
 Using Euler-Maclaurin-Lebedev (75,302) quadrature formula
 Dispersion:   Grimme D
 using 2 threads for integral computing
 -------------------------------------------------------
 OpenMP Integral computing Module                
 Release: version 1.0, May 2013, Q-Chem Inc. Pittsburgh 
 -------------------------------------------------------
 using 2 threads for integral computing
 -------------------------------------------------------
 OpenMP Integral computing Module                
 Release: version 1.0, May 2013, Q-Chem Inc. Pittsburgh 
 -------------------------------------------------------
 A restricted SCF calculation will be
 performed using DIIS
 SCF converges when DIIS error is below 1.0e-08
 ---------------------------------------
  Cycle       Energy         DIIS error
 ---------------------------------------
    1    -119.1460751920      1.30e-05  
    2    -119.1460758098      1.53e-06  
    3    -119.1460758274      6.10e-07  
    4    -119.1460758294      2.36e-07  
    5    -119.1460758297      3.47e-08  
    6    -119.1460758297      6.63e-09  Convergence criterion met
 ---------------------------------------
 SCF time:   CPU 78.81s  wall 40.00s 
 SCF   energy in the final basis set =     -119.1460758297
 Total energy in the final basis set =     -119.1460758297
 
 --------------------------------------------------------------
 
                    Orbital Energies (a.u.)
 --------------------------------------------------------------
 
 Alpha MOs
 -- Occupied --
-10.2740 -10.2651 -10.2651  -0.8811  -0.7771  -0.6777  -0.5457  -0.5242
 -0.4826  -0.4636  -0.4187  -0.4177  -0.4075
 -- Virtual --
  0.0691   0.0860   0.0910   0.0990   0.1251   0.1300   0.1335   0.1426
  0.1431   0.1706   0.1721   0.1913   0.2327   0.2413   0.2444   0.2642
  0.2816   0.2844   0.3109   0.3127   0.3344   0.3500   0.4585   0.4666
  0.4708   0.5100   0.5127   0.5178   0.5452   0.5613   0.5844   0.5844
  0.6251   0.6258   0.6420   0.6438   0.6562   0.6567   0.7088   0.7259
  0.7268   0.7670   0.8216   0.8652   0.8681   0.8734   0.8794   0.9589
  1.0022   1.0523   1.0575   1.1392   1.1400   1.1811   1.1814   1.2134
  1.2333   1.2335   1.2686   1.2778   1.2858   1.2916   1.3275   1.3771
  1.3817   1.3954   1.3990   1.4471   1.4664   1.4714   1.4783   1.4790
  1.5219   1.5792   1.6120   1.6233   1.6416   1.6431   1.6848   1.6935
  1.7454   2.3755   2.4669   2.4796   2.4987   2.5446   2.5607   2.5999
  2.6280   2.7138   2.8229   2.8322   2.8406   2.9108   2.9284   2.9322
  2.9326   2.9409   3.0025   3.0165   3.0551   3.0725   3.0751   3.1012
  3.1334   3.1363   3.1811   3.1950   3.2044   3.2198   3.2818   3.3093
  3.3337   3.3352   3.3373   3.3611   3.3626   3.3676   3.3994   3.4453
  3.4736   3.4849   3.4912   3.5162   3.5629   3.5774   3.5984   3.6188
  3.6212   3.6790   3.6888   3.7017   3.7835   3.7943   3.8822   3.8935
  3.9392   3.9508   3.9516   3.9551   3.9592   3.9886   4.0544   4.0644
  4.0781   4.1050   4.1064   4.1462   4.1522   4.1580   4.1899   4.2015
  4.2164   4.2439   4.2619   4.3727   4.3990   4.4100   4.4139   4.4268
  4.4346   4.5874   4.5897   4.5913   4.6719   4.8063   4.8264   4.8927
  4.9439   4.9579   4.9617   4.9623   5.0407   5.0491   5.0585   5.1096
  5.1225   5.2483   5.2491   5.2763   5.3114   5.3512   5.3522   5.3728
  5.3802   5.3829   5.4565   5.4968   5.5540   5.5571   5.6295   5.7451
  5.9540   6.3833   6.3851   6.3930   6.4166   6.4632  25.2048  25.4443
 25.4542
 --------------------------------------------------------------
 
          Ground-State Mulliken Net Atomic Charges

     Atom                 Charge (a.u.)
  ----------------------------------------
      1 C                    -0.123163
      2 C                    -0.009617
      3 H                     0.032151
      4 H                     0.032151
      5 H                     0.034524
      6 C                    -0.123163
      7 H                     0.029145
      8 H                     0.029145
      9 H                     0.032151
     10 H                     0.034524
     11 H                     0.032151
  ----------------------------------------
  Sum of atomic charges =     0.000000

 -----------------------------------------------------------------
                    Cartesian Multipole Moments
 -----------------------------------------------------------------
    Charge (ESU x 10^10)
                 0.0000
    Dipole Moment (Debye)
         X      -0.0000      Y       0.0853      Z       0.0000
       Tot       0.0853
    Quadrupole Moments (Debye-Ang)
        XX     -22.1671     XY       0.0000     YY     -21.8406
        XZ       0.0000     YZ      -0.0000     ZZ     -21.3623
    Octopole Moments (Debye-Ang^2)
       XXX       0.0000    XXY       1.4914    XYY       0.0000
       YYY       0.2405    XXZ      -0.0000    XYZ      -0.0000
       YYZ      -0.0000    XZZ       0.0000    YZZ      -0.5424
       ZZZ      -0.0000
    Hexadecapole Moments (Debye-Ang^3)
      XXXX    -202.2692   XXXY       0.0000   XXYY     -45.3007
      XYYY       0.0000   YYYY     -72.1833   XXXZ       0.0000
      XXYZ       0.0000   XYYZ       0.0000   YYYZ      -0.0000
      XXZZ     -42.2163   XYZZ       0.0000   YYZZ     -17.0696
      XZZZ       0.0000   YZZZ      -0.0000   ZZZZ     -44.1148
 -----------------------------------------------------------------
 Calculating analytic gradient of the SCF energy
 Gradient of SCF Energy
            1           2           3           4           5           6
    1   0.0000252  -0.0000000  -0.0000120  -0.0000120  -0.0000083  -0.0000252
    2  -0.0000936   0.0001498   0.0000088   0.0000088   0.0000307  -0.0000936
    3   0.0000000   0.0000000  -0.0000037   0.0000037  -0.0000000  -0.0000000
            7           8           9          10          11
    1   0.0000000  -0.0000000   0.0000119   0.0000083   0.0000120
    2  -0.0000296  -0.0000296   0.0000088   0.0000306   0.0000088
    3   0.0000131  -0.0000131  -0.0000037   0.0000000   0.0000037
 Max gradient component =       1.498E-04
 RMS gradient           =       3.746E-05
 Gradient time:  CPU 37.08 s  wall 18.62 s
 Geometry Optimization Parameters
   NAtoms,    NIC,     NZ,  NCons,   NDum,   NFix, NCnnct, MaxDiis
       11      68       0       0       0       0       0       0

 Cartesian Hessian Update
 Hessian updated using BFGS update


** GEOMETRY OPTIMIZATION IN DELOCALIZED INTERNAL COORDINATES **
   Searching for a Minimum

   Optimization Cycle:   4

                       Coordinates (Angstroms)
     ATOM                X               Y               Z
      1  C         1.2672036082   -0.2569503514   -0.0000001851
      2  C        -0.0000005762    0.5897576004    0.0000007366
      3  H         1.3052739905   -0.9012762219   -0.8806648105
      4  H         1.3052754760   -0.9012759810    0.8806645344
      5  H         2.1646159549    0.3625441726   -0.0000010694
      6  C        -1.2672047926   -0.2569501964    0.0000009887
      7  H        -0.0000008715    1.2455801103   -0.8738719855
      8  H        -0.0000001930    1.2455795534    0.8738738742
      9  H        -1.3052768457   -0.9012749783   -0.8806643427
     10  H        -2.1646171460    0.3625442992    0.0000025978
     11  H        -1.3052751232   -0.9012769334    0.8806649819
   Point Group: c1    Number of degrees of freedom:    27


   Energy is   -119.146075830

 Hessian updated using BFGS update

 22 Hessian modes will be used to form the next step
  Hessian Eigenvalues:
     0.005784    0.039050    0.043212    0.057201    0.057764    0.058856
     0.120371    0.147602    0.160000    0.160000    0.168214    0.232772
     0.296779    0.298274    0.321864    0.324550    0.325015    0.325017
     0.325024    0.325607    0.328343    0.341212

 Minimum search - taking simple RFO step
 Searching for Lamda that Minimizes Along All modes
 Value Taken    Lamda =  -0.00000009
 Step Taken.  Stepsize is  0.001051

                             Maximum     Tolerance    Cnvgd?
         Gradient           0.000068      0.000300     YES
         Displacement       0.000894      0.001200     YES
         Energy change     -0.000002      0.000001      NO


                       Distance Matrix (Angstroms)
             C (  1)   C (  2)   H (  3)   H (  4)   H (  5)   C (  6)
   C (  2)  1.524048
   H (  3)  1.091868  2.168524
   H (  4)  1.091868  2.168524  1.761329
   H (  5)  1.090469  2.176509  1.763882  1.763882
   C (  6)  2.534408  1.524047  2.794347  2.794348  3.487286
   H (  7)  2.151059  1.092592  2.512525  3.064496  2.495790  2.151060
   H (  8)  2.151060  1.092592  3.064496  2.512525  2.495791  2.151059
   H (  9)  2.794348  2.168524  2.610551  3.149169  3.796441  1.091868
   H ( 10)  3.487287  2.176509  3.796441  3.796441  4.329233  1.090469
   H ( 11)  2.794347  2.168524  3.149166  2.610551  3.796441  1.091868
             H (  7)   H (  8)   H (  9)   H ( 10)
   H (  8)  1.747746
   H (  9)  2.512524  3.064496
   H ( 10)  2.495791  2.495790  1.763882
   H ( 11)  3.064496  2.512525  1.761329  1.763882
 
 Final energy is   -119.146075829709     


 ******************************
 **  OPTIMIZATION CONVERGED  **
 ******************************

                       Coordinates (Angstroms)
     ATOM                X               Y               Z
      1  C         1.2672036082   -0.2569503514   -0.0000001851
      2  C        -0.0000005762    0.5897576004    0.0000007366
      3  H         1.3052739905   -0.9012762219   -0.8806648105
      4  H         1.3052754760   -0.9012759810    0.8806645344
      5  H         2.1646159549    0.3625441726   -0.0000010694
      6  C        -1.2672047926   -0.2569501964    0.0000009887
      7  H        -0.0000008715    1.2455801103   -0.8738719855
      8  H        -0.0000001930    1.2455795534    0.8738738742
      9  H        -1.3052768457   -0.9012749783   -0.8806643427
     10  H        -2.1646171460    0.3625442992    0.0000025978
     11  H        -1.3052751232   -0.9012769334    0.8806649819

Z-matrix Print:
$molecule
0 1
C 
H  1 1.092592
H  1 1.092592 2 106.225172
C  1 1.524047 2 109.479832 3 -118.120648 0
H  4 1.090469 1 111.632560 2 58.035697 0
H  4 1.091868 1 110.906148 2 178.334222 0
H  4 1.091868 1 110.906145 2 -62.262822 0
C  1 1.524048 2 109.479837 3 118.120642 0
H  8 1.090469 1 111.632553 2 -58.035793 0
H  8 1.091868 1 110.906147 2 62.262731 0
H  8 1.091868 1 110.906145 2 -178.334311 0
$end

 
 --------------------------------------------------------------
 
                    Orbital Energies (a.u.)
 --------------------------------------------------------------
 
 Alpha MOs
 -- Occupied --
-10.2740 -10.2651 -10.2651  -0.8811  -0.7771  -0.6777  -0.5457  -0.5242
 -0.4826  -0.4636  -0.4187  -0.4177  -0.4075
 -- Virtual --
  0.0691   0.0860   0.0910   0.0990   0.1251   0.1300   0.1335   0.1426
  0.1431   0.1706   0.1721   0.1913   0.2327   0.2413   0.2444   0.2642
  0.2816   0.2844   0.3109   0.3127   0.3344   0.3500   0.4585   0.4666
  0.4708   0.5100   0.5127   0.5178   0.5452   0.5613   0.5844   0.5844
  0.6251   0.6258   0.6420   0.6438   0.6562   0.6567   0.7088   0.7259
  0.7268   0.7670   0.8216   0.8652   0.8681   0.8734   0.8794   0.9589
  1.0022   1.0523   1.0575   1.1392   1.1400   1.1811   1.1814   1.2134
  1.2333   1.2335   1.2686   1.2778   1.2858   1.2916   1.3275   1.3771
  1.3817   1.3954   1.3990   1.4471   1.4664   1.4714   1.4783   1.4790
  1.5219   1.5792   1.6120   1.6233   1.6416   1.6431   1.6848   1.6935
  1.7454   2.3755   2.4669   2.4796   2.4987   2.5446   2.5607   2.5999
  2.6280   2.7138   2.8229   2.8322   2.8406   2.9108   2.9284   2.9322
  2.9326   2.9409   3.0025   3.0165   3.0551   3.0725   3.0751   3.1012
  3.1334   3.1363   3.1811   3.1950   3.2044   3.2198   3.2818   3.3093
  3.3337   3.3352   3.3373   3.3611   3.3626   3.3676   3.3994   3.4453
  3.4736   3.4849   3.4912   3.5162   3.5629   3.5774   3.5984   3.6188
  3.6212   3.6790   3.6888   3.7017   3.7835   3.7943   3.8822   3.8935
  3.9392   3.9508   3.9516   3.9551   3.9592   3.9886   4.0544   4.0644
  4.0781   4.1050   4.1064   4.1462   4.1522   4.1580   4.1899   4.2015
  4.2164   4.2439   4.2619   4.3727   4.3990   4.4100   4.4139   4.4268
  4.4346   4.5874   4.5897   4.5913   4.6719   4.8063   4.8264   4.8927
  4.9439   4.9579   4.9617   4.9623   5.0407   5.0491   5.0585   5.1096
  5.1225   5.2483   5.2491   5.2763   5.3114   5.3512   5.3522   5.3728
  5.3802   5.3829   5.4565   5.4968   5.5540   5.5571   5.6295   5.7451
  5.9540   6.3833   6.3851   6.3930   6.4166   6.4632  25.2048  25.4443
 25.4542
 --------------------------------------------------------------
 
          Ground-State Mulliken Net Atomic Charges

     Atom                 Charge (a.u.)
  ----------------------------------------
      1 C                    -0.123163
      2 C                    -0.009617
      3 H                     0.032151
      4 H                     0.032151
      5 H                     0.034524
      6 C                    -0.123163
      7 H                     0.029145
      8 H                     0.029145
      9 H                     0.032151
     10 H                     0.034524
     11 H                     0.032151
  ----------------------------------------
  Sum of atomic charges =     0.000000

 -----------------------------------------------------------------
                    Cartesian Multipole Moments
 -----------------------------------------------------------------
    Charge (ESU x 10^10)
                 0.0000
    Dipole Moment (Debye)
         X      -0.0000      Y       0.0853      Z       0.0000
       Tot       0.0853
    Quadrupole Moments (Debye-Ang)
        XX     -22.1671     XY       0.0000     YY     -21.8406
        XZ       0.0000     YZ      -0.0000     ZZ     -21.3623
    Octopole Moments (Debye-Ang^2)
       XXX       0.0000    XXY       1.4914    XYY       0.0000
       YYY       0.2405    XXZ      -0.0000    XYZ      -0.0000
       YYZ      -0.0000    XZZ       0.0000    YZZ      -0.5424
       ZZZ      -0.0000
    Hexadecapole Moments (Debye-Ang^3)
      XXXX    -202.2692   XXXY       0.0000   XXYY     -45.3007
      XYYY       0.0000   YYYY     -72.1833   XXXZ       0.0000
      XXYZ       0.0000   XYYZ       0.0000   YYYZ      -0.0000
      XXZZ     -42.2163   XYZZ       0.0000   YYZZ     -17.0696
      XZZZ       0.0000   YZZZ      -0.0000   ZZZZ     -44.1148
 -----------------------------------------------------------------
Archival summary:
1\1\cn0318\OPT\ProcedureUnspecified\BasisUnspecified\38\r0852400\WedMar1115:11:062020WedMar1115:11:062020\0\\#,OPT,ProcedureUnspecified,BasisUnspecified,\\0,1\C\H,1,1.09259\H,1,1.09259,2,106.225\C,1,1.52405,2,109.48,3,-118.121,0\H,4,1.09047,1,111.633,2,58.0357,0\H,4,1.09187,1,110.906,2,178.334,0\H,4,1.09187,1,110.906,2,-62.2628,0\C,1,1.52405,2,109.48,3,118.121,0\H,8,1.09047,1,111.633,2,-58.0358,0\H,8,1.09187,1,110.906,2,62.2627,0\H,8,1.09187,1,110.906,2,-178.334,0\\\@

 Total job time:  292.81s(wall), 563.99s(cpu) 
 Wed Mar 11 15:11:06 2020

        *************************************************************
        *                                                           *
        *  Thank you very much for using Q-Chem.  Have a nice day.  *
        *                                                           *
        *************************************************************


 
User input: 2 of 3 
 
                  Welcome to Q-Chem
     A Quantum Leap Into The Future Of Chemistry


 Q-Chem 5.2 (devel), Q-Chem, Inc., Pleasanton, CA (2019)

 Yihan Shao,  Zhengting Gan,  E. Epifanovsky,  A. T. B. Gilbert,  M. Wormit,  
 J. Kussmann,  A. W. Lange,  A. Behn,  Jia Deng,  Xintian Feng,  D. Ghosh,  
 M. Goldey,  P. R. Horn,  L. D. Jacobson,  I. Kaliman,  T. Kus,  A. Landau,  
 Jie Liu,  E. I. Proynov,  R. M. Richard,  R. P. Steele,  E. J. Sundstrom,  
 H. L. Woodcock III,  P. M. Zimmerman,  D. Zuev,  B. Alam,  B. Albrecht,  
 E. Alguire,  S. A. Baeppler,  D. Barton,  Z. Benda,  Y. A. Bernard,  
 E. J. Berquist,  K. B. Bravaya,  H. Burton,  K. Carter-Fenk,  D. Casanova,  
 Chun-Min Chang,  Yunqing Chen,  A. Chien,  K. D. Closser,  M. P. Coons,  
 S. Coriani,  S. Dasgupta,  A. L. Dempwolff,  M. Diedenhofen,  Hainam Do,  
 R. G. Edgar,  Po-Tung Fang,  S. Faraji,  S. Fatehi,  Qingguo Feng,  
 J. Fosso-Tande,  J. Gayvert,  Qinghui Ge,  A. Ghysels,  G. Gidofalvi,  
 J. Gomes,  J. Gonthier,  A. Gunina,  D. Hait,  M. W. D. Hanson-Heine,  
 P. H. P. Harbach,  A. W. Hauser,  M. F. Herbst,  J. E. Herr,  
 E. G. Hohenstein,  Z. C. Holden,  Kerwin Hui,  B. C. Huynh,  T.-C. Jagau,  
 Hyunjun Ji,  B. Kaduk,  K. Khistyaev,  Jaehoon Kim,  P. Klunzinger,  K. Koh,  
 D. Kosenkov,  L. Koulias,  T. Kowalczyk,  C. M. Krauter,  A. Kunitsa,  
 Ka Un Lao,  A. Laurent,  K. V. Lawler,  Joonho Lee,  D. Lefrancois,  
 S. Lehtola,  D. S. Levine,  Yi-Pei Li,  You-Sheng Lin,  Fenglai Liu,  
 Kuan-Yu Liu,  E. Livshits,  M. Loipersberger,  A. Luenser,  P. Manohar,  
 E. Mansoor,  S. F. Manzer,  Shan-Ping Mao,  Yuezhi Mao,  N. Mardirossian,  
 A. V. Marenich,  T. Markovich,  L. A. Martinez-Martinez,  S. A. Maurer,  
 N. J. Mayhall,  S. C. McKenzie,  J.-M. Mewes,  P. Morgante,  A. F. Morrison,  
 J. W. Mullinax,  K. Nanda,  T. S. Nguyen-Beck,  R. Olivares-Amaya,  
 J. A. Parkhill,  S. K. Paul,  Zheng Pei,  T. M. Perrine,  F. Plasser,  
 P. Pokhilko,  S. Prager,  A. Prociuk,  E. Ramos,  B. Rana,  D. R. Rehn,  
 F. Rob,  M. Scheurer,  M. Schneider,  N. Sergueev,  S. M. Sharada,  
 S. Sharma,  D. W. Small,  T. Stauch,  C. J. Stein,  T. Stein,  Yu-Chuan Su,  
 S. P. Veccham,  A. J. W. Thom,  A. Tkatchenko,  T. Tsuchimochi,  
 N. M. Tubman,  L. Vogt,  M. L. Vidal,  O. Vydrov,  M. A. Watson,  J. Wenzel,  
 M. de Wergifosse,  T. A. Wesolowski,  A. White,  J. Witte,  A. Yamada,  
 Jun Yang,  K. Yao,  S. Yeganeh,  S. R. Yost,  Zhi-Qiang You,  A. Zech,  
 Igor Ying Zhang,  Xing Zhang,  Yan Zhao,  Ying Zhu,  B. R. Brooks,  
 G. K. L. Chan,  C. J. Cramer,  M. S. Gordon,  W. J. Hehre,  A. Klamt,  
 M. W. Schmidt,  C. D. Sherrill,  D. G. Truhlar,  A. Aspuru-Guzik,  R. Baer,  
 A. T. Bell,  N. A. Besley,  Jeng-Da Chai,  A. E. DePrince, III,  
 R. A. DiStasio Jr.,  A. Dreuw,  B. D. Dunietz,  T. R. Furlani,  
 Chao-Ping Hsu,  Yousung Jung,  Jing Kong,  D. S. Lambrecht,  WanZhen Liang,  
 C. Ochsenfeld,  V. A. Rassolov,  L. V. Slipchenko,  J. E. Subotnik,  
 T. Van Voorhis,  J. M. Herbert,  A. I. Krylov,  P. M. W. Gill,  M. Head-Gordon

 Contributors to earlier versions of Q-Chem not listed above: 
 R. D. Adamson,  B. Austin,  J. Baker,  G. J. O. Beran,  K. Brandhorst,  
 S. T. Brown,  E. F. C. Byrd,  A. K. Chakraborty,  C.-L. Cheng,  
 Siu Hung Chien,  D. M. Chipman,  D. L. Crittenden,  H. Dachsel,  
 R. J. Doerksen,  A. D. Dutoi,  L. Fusti-Molnar,  W. A. Goddard III,  
 A. Golubeva-Zadorozhnaya,  S. R. Gwaltney,  G. Hawkins,  A. Heyden,  
 S. Hirata,  G. Kedziora,  F. J. Keil,  C. Kelley,  Jihan Kim,  R. A. King,  
 R. Z. Khaliullin,  P. P. Korambath,  W. Kurlancheek,  A. M. Lee,  M. S. Lee,  
 S. V. Levchenko,  Ching Yeh Lin,  D. Liotard,  R. C. Lochan,  I. Lotan,  
 P. E. Maslen,  N. Nair,  D. P. O'Neill,  D. Neuhauser,  E. Neuscamman,  
 C. M. Oana,  R. Olson,  B. Peters,  R. Peverati,  P. A. Pieniazek,  
 Y. M. Rhee,  J. Ritchie,  M. A. Rohrdanz,  E. Rosta,  N. J. Russ,  
 H. F. Schaefer III,  N. E. Schultz,  N. Shenvi,  A. C. Simmonett,  A. Sodt,  
 D. Stuck,  K. S. Thanthiriwatte,  V. Vanovschi,  Tao Wang,  A. Warshel,  
 C. F. Williams,  Q. Wu,  X. Xu,  W. Zhang

 Please cite Q-Chem as follows:
 Y. Shao et al., Mol. Phys. 113, 184-215 (2015)
 DOI: 10.1080/00268976.2014.952696

 Q-Chem 5.2.2 for Intel X86 EM64T Linux

 Parts of Q-Chem use Armadillo 9.800.1 (Horizon Scraper).
 http://arma.sourceforge.net/

 Q-Chem begins on Wed Mar 11 15:11:06 2020  

Host: cn0318
0

     Scratch files written to /tmp/ypli/6315831.srvc1/qchem181696//
The previous job contains 0 fragments, simply inherited here

Checking the input file for inconsistencies... 	...done.

--------------------------------------------------------------
User input:
--------------------------------------------------------------

$comment
Now calculate the frequency of C3H8 at omegaB97X-D/6-311+G(2df,2pd)
$end

$rem
JOBTYPE freq
EXCHANGE omegaB97X-D
BASIS 6-311+G(2df,2pd)
XC_GRID 000075000302
$end

$molecule
read
$end

--------------------------------------------------------------
 Atom   6: ( -1.2672041882, -0.0000000116,  0.2594997446)
         ->( -1.2672042126, -0.0000000181,  0.2594997522)
 Atom   1: (  1.2672042126,  0.0000000181,  0.2594997522)
         ->(  1.2672042126,  0.0000000000,  0.2594997522)
 Atom   2: ( -0.0000000211,  0.0000000043, -0.5872081259)
         ->(  0.0000000000,  0.0000000000, -0.5872081259)
 Atom  11: ( -1.3052748996,  0.8806642175,  0.9038261365)
         ->( -1.3052750505,  0.8806643351,  0.9038259677)
 Atom   4: (  1.3052756996,  0.8806650098,  0.9038250324)
         ->(  1.3052750505,  0.8806643351,  0.9038259677)
 Atom   9: ( -1.3052757857, -0.8806651071,  0.9038248759)
         ->( -1.3052750505, -0.8806643351,  0.9038259677)
 Atom  10: ( -2.1646165776,  0.0000009270, -0.3599946989)
         ->( -2.1646165232,  0.0000006841, -0.3599948239)
 Atom   5: (  2.1646165232, -0.0000006841, -0.3599948239)
         ->(  2.1646165232,  0.0000000000, -0.3599948239)
 Atom   8: ( -0.0000000910,  0.8738728833, -1.2430304235)
         ->( -0.0000000606,  0.8738729764, -1.2430302913)
 Atom   7: (  0.0000000606, -0.8738729764, -1.2430302913)
         ->(  0.0000000000, -0.8738729764, -1.2430302913)
 ----------------------------------------------------------------
             Standard Nuclear Orientation (Angstroms)
    I     Atom           X                Y                Z
 ----------------------------------------------------------------
    1      C       1.2672042126     0.0000000000     0.2594997522
    2      C       0.0000000000     0.0000000000    -0.5872081259
    3      H       1.3052750505    -0.8806643351     0.9038259677
    4      H       1.3052750505     0.8806643351     0.9038259677
    5      H       2.1646165232     0.0000000000    -0.3599948239
    6      C      -1.2672042126    -0.0000000181     0.2594997522
    7      H       0.0000000000    -0.8738729764    -1.2430302913
    8      H      -0.0000000606     0.8738729764    -1.2430302913
    9      H      -1.3052750505    -0.8806643351     0.9038259677
   10      H      -2.1646165232     0.0000006841    -0.3599948239
   11      H      -1.3052750505     0.8806643351     0.9038259677
 ----------------------------------------------------------------
 Molecular Point Group                 C2v   NOp =  4
 Largest Abelian Subgroup              C2v   NOp =  4
 Nuclear Repulsion Energy =          82.72993600 hartrees
 There are       13 alpha and       13 beta electrons
 Requested basis set is 6-311+G(2df,2pd)
 There are 72 shells and 214 basis functions

 Total QAlloc Memory Limit   2000 MB
 Mega-Array Size       188 MB
 MEM_STATIC part       192 MB

                       Distance Matrix (Angstroms)
             C (  1)   C (  2)   H (  3)   H (  4)   H (  5)   C (  6)
   C (  2)  1.524047
   H (  3)  1.091868  2.168524
   H (  4)  1.091868  2.168524  1.761329
   H (  5)  1.090469  2.176509  1.763882  1.763882
   C (  6)  2.534408  1.524047  2.794347  2.794347  3.487286
   H (  7)  2.151060  1.092592  2.512525  3.064496  2.495791  2.151060
   H (  8)  2.151060  1.092592  3.064496  2.512525  2.495791  2.151059
   H (  9)  2.794347  2.168524  2.610550  3.149167  3.796440  1.091868
   H ( 10)  3.487286  2.176509  3.796441  3.796440  4.329233  1.090469
   H ( 11)  2.794347  2.168524  3.149167  2.610550  3.796440  1.091868
             H (  7)   H (  8)   H (  9)   H ( 10)
   H (  8)  1.747746
   H (  9)  2.512525  3.064496
   H ( 10)  2.495791  2.495790  1.763883
   H ( 11)  3.064496  2.512525  1.761329  1.763882
 
 A cutoff of  1.0D-11 yielded   2573 shell pairs
 There are     22933 function pairs (     28212 Cartesian)
 Smallest overlap matrix eigenvalue = 8.69E-05
 Guess from superposition of atomic densities
 Warning:  Energy on first SCF cycle will be non-variational
 SAD guess density has 26.000000 electrons

 -----------------------------------------------------------------------
  General SCF calculation program by
  Eric Jon Sundstrom, Paul Horn, Yuezhi Mao, Dmitri Zuev, Alec White,
  David Stuck, Shaama M.S., Shane Yost, Joonho Lee, David Small,
  Daniel Levine, Susi Lehtola, Hugh Burton, Evgeny Epifanovsky,
  Bang C. Huynh
 -----------------------------------------------------------------------
 Exchange:     0.2220 Hartree-Fock + 1.0000 wB97X-D + LR-HF
 Correlation:  1.0000 wB97X-D
 Using Euler-Maclaurin-Lebedev (75,302) quadrature formula
 Dispersion:   Grimme D
 using 2 threads for integral computing
 -------------------------------------------------------
 OpenMP Integral computing Module                
 Release: version 1.0, May 2013, Q-Chem Inc. Pittsburgh 
 -------------------------------------------------------
 using 2 threads for integral computing
 -------------------------------------------------------
 OpenMP Integral computing Module                
 Release: version 1.0, May 2013, Q-Chem Inc. Pittsburgh 
 -------------------------------------------------------
 A restricted SCF calculation will be
 performed using DIIS
 SCF converges when DIIS error is below 1.0e-08
 ---------------------------------------
  Cycle       Energy         DIIS error
 ---------------------------------------
    1    -119.6869508510      2.86e-02  
    2    -119.0991661587      2.81e-03  
    3    -119.1192332824      2.17e-03  
    4    -119.1453811073      1.20e-04  
    5    -119.1454664109      5.08e-05  
    6    -119.1454788719      1.36e-05  
    7    -119.1454793336      2.48e-06  
    8    -119.1454791662      4.12e-07  
    9    -119.1454790990      7.24e-08  
   10    -119.1454790886      1.03e-08  
   11    -119.1454790873      1.38e-09  Convergence criterion met
 ---------------------------------------
 SCF time:   CPU 90.48s  wall 46.00s 
 SCF   energy in the final basis set =     -119.1454790873
 Total energy in the final basis set =     -119.1454790873
 
 --------------------------------------------------------------
             Orbital Energies (a.u.) and Symmetries
 --------------------------------------------------------------
 
 Alpha MOs, Restricted
 -- Occupied --                  
-10.274 -10.265 -10.265  -0.881  -0.777  -0.678  -0.546  -0.524
  1 A1    1 B1    2 A1    3 A1    2 B1    4 A1    1 B2    5 A1                 
 -0.483  -0.464  -0.419  -0.418  -0.408
  3 B1    1 A2    4 B1    6 A1    2 B2                                         
 -- Virtual --                   
  0.069   0.086   0.091   0.099   0.125   0.130   0.133   0.143
  7 A1    5 B1    8 A1    3 B2    9 A1    6 B1    2 A2   10 A1                 
  0.143   0.171   0.172   0.191   0.233   0.241   0.244   0.264
  4 B2   11 A1    7 B1    8 B1    5 B2   12 A1    3 A2    6 B2                 
  0.280   0.284   0.311   0.312   0.334   0.349   0.458   0.467
 13 A1    9 B1   14 A1   10 B1   15 A1   11 B1   16 A1    7 B2                 
  0.471   0.510   0.513   0.518   0.545   0.561   0.584   0.585
  4 A2   17 A1    8 B2   12 B1   13 B1   18 A1    5 A2    9 B2                 
  0.625   0.626   0.642   0.644   0.656   0.657   0.708   0.724
 14 B1   19 A1   10 B2   15 B1    6 A2   20 A1   21 A1   16 B1                 
  0.725   0.766   0.822   0.865   0.868   0.873   0.879   0.959
 22 A1   23 A1   11 B2   17 B1    7 A2   24 A1   18 B1   12 B2                 
  1.002   1.052   1.057   1.139   1.140   1.181   1.181   1.213
  8 A2   25 A1   13 B2   26 A1   19 B1   14 B2   20 B1    9 A2                 
  1.233   1.233   1.269   1.278   1.286   1.292   1.328   1.377
 27 A1   15 B2   10 A2   16 B2   28 A1   21 B1   29 A1   22 B1                 
  1.382   1.395   1.399   1.447   1.465   1.471   1.478   1.479
 11 A2   23 B1   30 A1   17 B2   31 A1   12 A2   24 B1   18 B2                 
  1.521   1.579   1.612   1.623   1.641   1.642   1.682   1.693
 32 A1   25 B1   33 A1   26 B1   19 B2   34 A1   27 B1   13 A2                 
  1.744   2.375   2.467   2.479   2.498   2.544   2.561   2.599
 35 A1   14 A2   36 A1   20 B2   28 B1   37 A1   29 B1   38 A1                 
  2.628   2.713   2.822   2.832   2.841   2.911   2.928   2.932
 21 B2   30 B1   39 A1   31 B1   22 B2   15 A2   32 B1   23 B2                 
  2.933   2.941   3.002   3.017   3.055   3.072   3.075   3.101
 40 A1   16 A2   24 B2   33 B1   17 A2   41 A1   25 B2   42 A1                 
  3.133   3.136   3.181   3.195   3.204   3.220   3.282   3.309
 34 B1   18 A2   43 A1   19 A2   35 B1   26 B2   44 A1   27 B2                 
  3.334   3.335   3.337   3.361   3.363   3.368   3.399   3.445
 36 B1   45 A1   20 A2   21 A2   28 B2   46 A1   29 B2   22 A2                 
  3.474   3.485   3.491   3.516   3.563   3.576   3.598   3.618
 30 B2   37 B1   38 B1   47 A1   31 B2   48 A1   39 B1   23 A2                 
  3.620   3.679   3.688   3.702   3.784   3.794   3.882   3.893
 32 B2   49 A1   40 B1   50 A1   24 A2   33 B2   51 A1   52 A1                 
  3.939   3.951   3.952   3.955   3.959   3.988   4.054   4.064
 34 B2   25 A2   41 B1   53 A1   42 B1   43 B1   26 A2   35 B2                 
  4.078   4.105   4.106   4.146   4.152   4.158   4.190   4.202
 54 A1   55 A1   44 B1   27 A2   36 B2   56 A1   37 B2   45 B1                 
  4.216   4.244   4.262   4.373   4.399   4.410   4.414   4.427
 28 A2   46 B1   57 A1   29 A2   38 B2   58 A1   47 B1   59 A1                 
  4.435   4.587   4.590   4.591   4.672   4.806   4.826   4.893
 39 B2   30 A2   60 A1   48 B1   49 B1   61 A1   50 B1   40 B2                 
  4.944   4.958   4.962   4.962   5.041   5.049   5.059   5.110
 41 B2   51 B1   62 A1   31 A2   32 A2   63 A1   52 B1   42 B2                 
  5.122   5.248   5.249   5.276   5.311   5.351   5.352   5.372
 53 B1   54 B1   33 A2   64 A1   43 B2   34 A2   65 A1   66 A1                 
  5.380   5.383   5.456   5.496   5.554   5.557   5.629   5.744
 55 B1   44 B2   56 B1   67 A1   68 A1   35 A2   45 B2   57 B1                 
  5.953   6.383   6.384   6.392   6.415   6.462  25.205  25.444
 69 A1   46 B2   36 A2   70 A1   58 B1   47 B2   71 A1   59 B1                 
 25.454
 72 A1                                                                         
 
 Beta MOs, Restricted
 -- Occupied --                  
-10.274 -10.265 -10.265  -0.881  -0.777  -0.678  -0.546  -0.524
  1 A1    1 B1    2 A1    3 A1    2 B1    4 A1    1 B2    5 A1                 
 -0.483  -0.464  -0.419  -0.418  -0.408
  3 B1    1 A2    4 B1    6 A1    2 B2                                         
 -- Virtual --                   
  0.069   0.086   0.091   0.099   0.125   0.130   0.133   0.143
  7 A1    5 B1    8 A1    3 B2    9 A1    6 B1    2 A2   10 A1                 
  0.143   0.171   0.172   0.191   0.233   0.241   0.244   0.264
  4 B2   11 A1    7 B1    8 B1    5 B2   12 A1    3 A2    6 B2                 
  0.280   0.284   0.311   0.312   0.334   0.349   0.458   0.467
 13 A1    9 B1   14 A1   10 B1   15 A1   11 B1   16 A1    7 B2                 
  0.471   0.510   0.513   0.518   0.545   0.561   0.584   0.585
  4 A2   17 A1    8 B2   12 B1   13 B1   18 A1    5 A2    9 B2                 
  0.625   0.626   0.642   0.644   0.656   0.657   0.708   0.724
 14 B1   19 A1   10 B2   15 B1    6 A2   20 A1   21 A1   16 B1                 
  0.725   0.766   0.822   0.865   0.868   0.873   0.879   0.959
 22 A1   23 A1   11 B2   17 B1    7 A2   24 A1   18 B1   12 B2                 
  1.002   1.052   1.057   1.139   1.140   1.181   1.181   1.213
  8 A2   25 A1   13 B2   26 A1   19 B1   14 B2   20 B1    9 A2                 
  1.233   1.233   1.269   1.278   1.286   1.292   1.328   1.377
 27 A1   15 B2   10 A2   16 B2   28 A1   21 B1   29 A1   22 B1                 
  1.382   1.395   1.399   1.447   1.465   1.471   1.478   1.479
 11 A2   23 B1   30 A1   17 B2   31 A1   12 A2   24 B1   18 B2                 
  1.521   1.579   1.612   1.623   1.641   1.642   1.682   1.693
 32 A1   25 B1   33 A1   26 B1   19 B2   34 A1   27 B1   13 A2                 
  1.744   2.375   2.467   2.479   2.498   2.544   2.561   2.599
 35 A1   14 A2   36 A1   20 B2   28 B1   37 A1   29 B1   38 A1                 
  2.628   2.713   2.822   2.832   2.841   2.911   2.928   2.932
 21 B2   30 B1   39 A1   31 B1   22 B2   15 A2   32 B1   23 B2                 
  2.933   2.941   3.002   3.017   3.055   3.072   3.075   3.101
 40 A1   16 A2   24 B2   33 B1   17 A2   41 A1   25 B2   42 A1                 
  3.133   3.136   3.181   3.195   3.204   3.220   3.282   3.309
 34 B1   18 A2   43 A1   19 A2   35 B1   26 B2   44 A1   27 B2                 
  3.334   3.335   3.337   3.361   3.363   3.368   3.399   3.445
 36 B1   45 A1   20 A2   21 A2   28 B2   46 A1   29 B2   22 A2                 
  3.474   3.485   3.491   3.516   3.563   3.576   3.598   3.618
 30 B2   37 B1   38 B1   47 A1   31 B2   48 A1   39 B1   23 A2                 
  3.620   3.679   3.688   3.702   3.784   3.794   3.882   3.893
 32 B2   49 A1   40 B1   50 A1   24 A2   33 B2   51 A1   52 A1                 
  3.939   3.951   3.952   3.955   3.959   3.988   4.054   4.064
 34 B2   25 A2   41 B1   53 A1   42 B1   43 B1   26 A2   35 B2                 
  4.078   4.105   4.106   4.146   4.152   4.158   4.190   4.202
 54 A1   55 A1   44 B1   27 A2   36 B2   56 A1   37 B2   45 B1                 
  4.216   4.244   4.262   4.373   4.399   4.410   4.414   4.427
 28 A2   46 B1   57 A1   29 A2   38 B2   58 A1   47 B1   59 A1                 
  4.435   4.587   4.590   4.591   4.672   4.806   4.826   4.893
 39 B2   30 A2   60 A1   48 B1   49 B1   61 A1   50 B1   40 B2                 
  4.944   4.958   4.962   4.962   5.041   5.049   5.059   5.110
 41 B2   51 B1   62 A1   31 A2   32 A2   63 A1   52 B1   42 B2                 
  5.122   5.248   5.249   5.276   5.311   5.351   5.352   5.372
 53 B1   54 B1   33 A2   64 A1   43 B2   34 A2   65 A1   66 A1                 
  5.380   5.383   5.456   5.496   5.554   5.557   5.629   5.744
 55 B1   44 B2   56 B1   67 A1   68 A1   35 A2   45 B2   57 B1                 
  5.953   6.383   6.384   6.392   6.415   6.462  25.205  25.444
 69 A1   46 B2   36 A2   70 A1   58 B1   47 B2   71 A1   59 B1                 
 25.454
 72 A1                                                                         
 --------------------------------------------------------------
 
          Ground-State Mulliken Net Atomic Charges

     Atom                 Charge (a.u.)
  ----------------------------------------
      1 C                    -0.103787
      2 C                     0.016539
      3 H                     0.023351
      4 H                     0.023351
      5 H                     0.028596
      6 C                    -0.103784
      7 H                     0.020218
      8 H                     0.020218
      9 H                     0.023356
     10 H                     0.028596
     11 H                     0.023347
  ----------------------------------------
  Sum of atomic charges =     0.000000

 -----------------------------------------------------------------
                    Cartesian Multipole Moments
 -----------------------------------------------------------------
    Charge (ESU x 10^10)
                 0.0000
    Dipole Moment (Debye)
         X      -0.0000      Y      -0.0000      Z      -0.0861
       Tot       0.0861
    Quadrupole Moments (Debye-Ang)
        XX     -22.1674     XY       0.0000     YY     -21.3638
        XZ      -0.0000     YZ       0.0000     ZZ     -21.8442
    Octopole Moments (Debye-Ang^2)
       XXX      -0.0000    XXY      -0.0000    XYY      -0.0000
       YYY      -0.0000    XXZ      -1.5492    XYZ      -0.0000
       YYZ       0.4825    XZZ       0.0000    YZZ       0.0000
       ZZZ      -0.4087
    Hexadecapole Moments (Debye-Ang^3)
      XXXX    -202.2787   XXXY       0.0001   XXYY     -42.2157
      XYYY       0.0000   YYYY     -44.1099   XXXZ      -0.0000
      XXYZ      -0.0000   XYYZ      -0.0000   YYYZ       0.0000
      XXZZ     -45.3135   XYZZ       0.0000   YYZZ     -17.0809
      XZZZ      -0.0000   YZZZ       0.0000   ZZZZ     -72.1939
 -----------------------------------------------------------------
 Calculating MO derivatives via CPSCF
    1     0    36    0.0336007  
    2     0    36    0.0065323  
    3     0    36    0.0014380  
    4     0    36    0.0001615  
    5     2    34    0.0000184  
    6    34     2    0.0000017  
    7    36     0    0.0000001  Converged
 Time for AOints: 36.9 s (CPU) 18.5 s (wall)
 ------------------------------------------------------------------------------
                     AOints        : Timing summary (seconds)
 ------------------------------------------------------------------------------
     job step          cpu (% of tot)      sys (% of tot)     wall (% of tot)
 ------------------------------------------------------------------------------
  AOints            0.3690E+02 ( 5.7)   0.4000E-05 ( 2.8)   0.1850E+02 ( 5.7)
 ------------------------------------------------------------------------------
   Grand Totals     0.6506E+03          0.1440E-03          0.3263E+03
 ------------------------------------------------------------------------------
 Polarizability Matrix (a.u.)
            1           2           3
    1 -42.8720213   0.0000178  -0.0000008
    2   0.0000178 -36.3678647   0.0000113
    3  -0.0000008   0.0000113 -38.3422520
 Calculating analytic Hessian of the SCF energy
atom: 0 element: 6
atom: 1 element: 6
atom: 2 element: 1
atom: 3 element: 1
atom: 4 element: 1
atom: 5 element: 6
atom: 6 element: 1
atom: 7 element: 1
atom: 8 element: 1
atom: 9 element: 1
atom: 10 element: 1
 
 Direct stationary perturbation theory relativistic correction:
 
 rels  =       0.026534324553
 relv  =      -0.116195518140
 rel2e =       0.000000000000
 E_rel =      -0.089661193587
 
 Hessian of the SCF Energy
            1           2           3           4           5           6
    1   0.5144981   0.0000000  -0.0490774  -0.1592770  -0.0000000  -0.0541527
    2   0.0000000   0.5700132  -0.0000000   0.0000000  -0.0821147   0.0000000
    3  -0.0490774  -0.0000000   0.5436337  -0.0578174   0.0000000  -0.1214187
    4  -0.1592770   0.0000000  -0.0578174   0.4609137  -0.0000000   0.0000000
    5  -0.0000000  -0.0821147   0.0000000  -0.0000000   0.6009173  -0.0000000
    6  -0.0541527   0.0000000  -0.1214187   0.0000000  -0.0000000   0.5453382
    7  -0.0479721   0.0044671  -0.0023418  -0.0016513   0.0241526  -0.0168973
    8   0.0051977  -0.2212520   0.1240851  -0.0003284   0.0007438  -0.0006832
    9  -0.0029295   0.1236877  -0.1366720  -0.0006349   0.0162348  -0.0123874
   10  -0.0479721  -0.0044671  -0.0023418  -0.0016513  -0.0241526  -0.0168973
   11  -0.0051977  -0.2212520  -0.1240851   0.0003284   0.0007438   0.0006832
   12  -0.0029295  -0.1236877  -0.1366720  -0.0006349  -0.0162348  -0.0123874
   13  -0.2238280   0.0000000   0.1249085  -0.0202376  -0.0000000   0.0176598
   14   0.0000000  -0.0484139  -0.0000000   0.0000000  -0.0014426  -0.0000000
   15   0.1264421   0.0000000  -0.1375757  -0.0174620  -0.0000000   0.0126353
   16  -0.0317681  -0.0000000   0.0160562  -0.1592770  -0.0000000   0.0541527
   17  -0.0000000   0.0000918  -0.0000000  -0.0000000  -0.0821147  -0.0000000
   18  -0.0160562  -0.0000000   0.0123826   0.0578174   0.0000000  -0.1214187
   19  -0.0017107  -0.0241208  -0.0179712  -0.0476396  -0.0000000   0.0000000
   20   0.0000781   0.0009559   0.0011572  -0.0000000  -0.2183889  -0.1222602
   21  -0.0009865  -0.0154404  -0.0115670  -0.0000000  -0.1208488  -0.1391108
   22  -0.0017107   0.0241208  -0.0179712  -0.0476396   0.0000000  -0.0000000
   23  -0.0000781   0.0009559  -0.0011571   0.0000000  -0.2183889   0.1222602
   24  -0.0009865   0.0154404  -0.0115670  -0.0000000   0.1208488  -0.1391108
   25   0.0018105  -0.0011731   0.0006054  -0.0016513  -0.0241526   0.0168973
   26   0.0000033   0.0003052  -0.0003640   0.0003284   0.0007438  -0.0006832
[...]
 21 B2   30 B1   39 A1   31 B1   22 B2   15 A2   32 B1   23 B2                 
  2.933   2.941   3.002   3.017   3.055   3.072   3.075   3.101
 40 A1   16 A2   24 B2   33 B1   17 A2   41 A1   25 B2   42 A1                 
  3.133   3.136   3.181   3.195   3.204   3.220   3.282   3.309
 34 B1   18 A2   43 A1   19 A2   35 B1   26 B2   44 A1   27 B2                 
  3.334   3.335   3.337   3.361   3.363   3.368   3.399   3.445
 36 B1   45 A1   20 A2   21 A2   28 B2   46 A1   29 B2   22 A2                 
  3.474   3.485   3.491   3.516   3.563   3.576   3.598   3.618
 30 B2   37 B1   38 B1   47 A1   31 B2   48 A1   39 B1   23 A2                 
  3.620   3.679   3.688   3.702   3.784   3.794   3.882   3.893
 32 B2   49 A1   40 B1   50 A1   24 A2   33 B2   51 A1   52 A1                 
  3.939   3.951   3.952   3.955   3.959   3.988   4.054   4.064
 34 B2   25 A2   41 B1   53 A1   42 B1   43 B1   26 A2   35 B2                 
  4.078   4.105   4.106   4.146   4.152   4.158   4.190   4.202
 54 A1   55 A1   44 B1   27 A2   36 B2   56 A1   37 B2   45 B1                 
  4.216   4.244   4.262   4.373   4.399   4.410   4.414   4.427
 28 A2   46 B1   57 A1   29 A2   38 B2   58 A1   47 B1   59 A1                 
  4.435   4.587   4.590   4.591   4.672   4.806   4.826   4.893
 39 B2   30 A2   60 A1   48 B1   49 B1   61 A1   50 B1   40 B2                 
  4.944   4.958   4.962   4.962   5.041   5.049   5.059   5.110
 41 B2   51 B1   62 A1   31 A2   32 A2   63 A1   52 B1   42 B2                 
  5.122   5.248   5.249   5.276   5.311   5.351   5.352   5.372
 53 B1   54 B1   33 A2   64 A1   43 B2   34 A2   65 A1   66 A1                 
  5.380   5.383   5.456   5.496   5.554   5.557   5.629   5.744
 55 B1   44 B2   56 B1   67 A1   68 A1   35 A2   45 B2   57 B1                 
  5.953   6.383   6.384   6.392   6.415   6.462  25.205  25.444
 69 A1   46 B2   36 A2   70 A1   58 B1   47 B2   71 A1   59 B1                 
 25.454
 72 A1                                                                         
 --------------------------------------------------------------
 
          Ground-State Mulliken Net Atomic Charges

     Atom                 Charge (a.u.)
  ----------------------------------------
      1 C                    -0.103787
      2 C                     0.016539
      3 H                     0.023351
      4 H                     0.023351
      5 H                     0.028596
      6 C                    -0.103784
      7 H                     0.020218
      8 H                     0.020218
      9 H                     0.023356
     10 H                     0.028596
     11 H                     0.023347
  ----------------------------------------
  Sum of atomic charges =     0.000000

 -----------------------------------------------------------------
                    Cartesian Multipole Moments
 -----------------------------------------------------------------
    Charge (ESU x 10^10)
                 0.0000
    Dipole Moment (Debye)
         X      -0.0000      Y      -0.0000      Z      -0.0861
       Tot       0.0861
    Quadrupole Moments (Debye-Ang)
        XX     -22.1674     XY       0.0000     YY     -21.3638
        XZ      -0.0000     YZ       0.0000     ZZ     -21.8442
    Octopole Moments (Debye-Ang^2)
       XXX      -0.0000    XXY      -0.0000    XYY      -0.0000
       YYY      -0.0000    XXZ      -1.5492    XYZ      -0.0000
       YYZ       0.4825    XZZ       0.0000    YZZ       0.0000
       ZZZ      -0.4087
    Hexadecapole Moments (Debye-Ang^3)
      XXXX    -202.2787   XXXY       0.0001   XXYY     -42.2157
      XYYY       0.0000   YYYY     -44.1099   XXXZ      -0.0000
      XXYZ      -0.0000   XYYZ      -0.0000   YYYZ       0.0000
      XXZZ     -45.3135   XYZZ       0.0000   YYZZ     -17.0809
      XZZZ      -0.0000   YZZZ       0.0000   ZZZZ     -72.1939
 -----------------------------------------------------------------
 Calculating analytic gradient of the SCF energy
 Gradient of SCF Energy
            1           2           3           4           5           6
    1   0.0000087   0.0000000  -0.0000101  -0.0000101   0.0000058  -0.0000087
    2  -0.0000000   0.0000000  -0.0000143   0.0000143  -0.0000000  -0.0000002
    3   0.0000952  -0.0001440  -0.0000036  -0.0000036  -0.0000392   0.0000952
            7           8           9          10          11
    1  -0.0000000  -0.0000000   0.0000100  -0.0000058   0.0000101
    2   0.0000043  -0.0000043  -0.0000143   0.0000001   0.0000144
    3   0.0000233   0.0000233  -0.0000037  -0.0000392  -0.0000036
 Max gradient component =       1.440E-04
 RMS gradient           =       3.674E-05
 Gradient time:  CPU 36.23 s  wall 18.19 s
 Geometry Optimization Parameters
   NAtoms,    NIC,     NZ,  NCons,   NDum,   NFix, NCnnct, MaxDiis
       11      68       0       0       0       0       0       0


** GEOMETRY OPTIMIZATION IN DELOCALIZED INTERNAL COORDINATES **
   Searching for a Minimum

   Optimization Cycle:   1

                       Coordinates (Angstroms)
     ATOM                X               Y               Z
      1  C         1.2672042126    0.0000000000    0.2594997522
      2  C         0.0000000000    0.0000000000   -0.5872081259
      3  H         1.3052750505   -0.8806643351    0.9038259677
      4  H         1.3052750505    0.8806643351    0.9038259677
      5  H         2.1646165232    0.0000000000   -0.3599948239
      6  C        -1.2672042126    0.0000000000    0.2594997522
      7  H         0.0000000000   -0.8738729764   -1.2430302913
      8  H         0.0000000000    0.8738729764   -1.2430302913
      9  H        -1.3052750505   -0.8806643351    0.9038259677
     10  H        -2.1646165232    0.0000000000   -0.3599948239
     11  H        -1.3052750505    0.8806643351    0.9038259677
   Point Group: c2v   Number of degrees of freedom:     9


   Energy is   -119.145479087


 Attempting to generate delocalized internal coordinates
 Initial Hessian constructed with Jon Baker's OPTIMIZE code

  9 Hessian modes will be used to form the next step
  Hessian Eigenvalues:
     0.049978    0.057018    0.160000    0.160000    0.218913    0.299800
     0.345148    0.345977    0.347585

 Minimum search - taking simple RFO step
 Searching for Lamda that Minimizes Along All modes
 Value Taken    Lamda =  -0.00000009
 Step Taken.  Stepsize is  0.000876

                             Maximum     Tolerance    Cnvgd?
         Gradient           0.000069      0.000300     YES
         Displacement       0.000724      0.001200     YES
         Energy change     *********      0.000001      NO


                       Distance Matrix (Angstroms)
             C (  1)   C (  2)   H (  3)   H (  4)   H (  5)   C (  6)
   C (  2)  1.524047
   H (  3)  1.091868  2.168524
   H (  4)  1.091868  2.168524  1.761329
   H (  5)  1.090469  2.176509  1.763882  1.763882
   C (  6)  2.534408  1.524047  2.794347  2.794347  3.487286
   H (  7)  2.151060  1.092592  2.512525  3.064496  2.495791  2.151060
   H (  8)  2.151060  1.092592  3.064496  2.512525  2.495791  2.151059
   H (  9)  2.794347  2.168524  2.610550  3.149167  3.796440  1.091868
   H ( 10)  3.487286  2.176509  3.796441  3.796440  4.329233  1.090469
   H ( 11)  2.794347  2.168524  3.149167  2.610550  3.796440  1.091868
             H (  7)   H (  8)   H (  9)   H ( 10)
   H (  8)  1.747746
   H (  9)  2.512525  3.064496
   H ( 10)  2.495791  2.495790  1.763883
   H ( 11)  3.064496  2.512525  1.761329  1.763882
 
 Final energy is   -119.145479087345     


 ******************************
 **  OPTIMIZATION CONVERGED  **
 ******************************

                       Coordinates (Angstroms)
     ATOM                X               Y               Z
      1  C         1.2672042126    0.0000000000    0.2594997522
      2  C         0.0000000000    0.0000000000   -0.5872081259
      3  H         1.3052750505   -0.8806643351    0.9038259677
      4  H         1.3052750505    0.8806643351    0.9038259677
      5  H         2.1646165232    0.0000000000   -0.3599948239
      6  C        -1.2672042126    0.0000000000    0.2594997522
      7  H         0.0000000000   -0.8738729764   -1.2430302913
      8  H         0.0000000000    0.8738729764   -1.2430302913
      9  H        -1.3052750505   -0.8806643351    0.9038259677
     10  H        -2.1646165232    0.0000000000   -0.3599948239
     11  H        -1.3052750505    0.8806643351    0.9038259677

Z-matrix Print:
$molecule
0 1
C 
H  1 1.092592
H  1 1.092592 2 106.225180
C  1 1.524047 2 109.479828 3 -118.120645 0
H  4 1.090469 1 111.632553 2 58.035718 0
H  4 1.091868 1 110.906147 2 178.334317 0
H  4 1.091868 1 110.906145 2 -62.262800 0
C  1 1.524047 2 109.479833 3 118.120649 0
H  8 1.090469 1 111.632553 2 -58.035761 0
H  8 1.091868 1 110.906146 2 62.262797 0
H  8 1.091868 1 110.906146 2 -178.334320 0
$end

 
 --------------------------------------------------------------
             Orbital Energies (a.u.) and Symmetries
 --------------------------------------------------------------
 
 Alpha MOs, Restricted
 -- Occupied --                  
-10.274 -10.265 -10.265  -0.881  -0.777  -0.678  -0.546  -0.524
  1 A1    1 B1    2 A1    3 A1    2 B1    4 A1    1 B2    5 A1                 
 -0.483  -0.464  -0.419  -0.418  -0.408
  3 B1    1 A2    4 B1    6 A1    2 B2                                         
 -- Virtual --                   
  0.069   0.086   0.091   0.099   0.125   0.130   0.133   0.143
  7 A1    5 B1    8 A1    3 B2    9 A1    6 B1    2 A2   10 A1                 
  0.143   0.171   0.172   0.191   0.233   0.241   0.244   0.264
  4 B2   11 A1    7 B1    8 B1    5 B2   12 A1    3 A2    6 B2                 
  0.280   0.284   0.311   0.312   0.334   0.349   0.458   0.467
 13 A1    9 B1   14 A1   10 B1   15 A1   11 B1   16 A1    7 B2                 
  0.471   0.510   0.513   0.518   0.545   0.561   0.584   0.585
  4 A2   17 A1    8 B2   12 B1   13 B1   18 A1    5 A2    9 B2                 
  0.625   0.626   0.642   0.644   0.656   0.657   0.708   0.724
 14 B1   19 A1   10 B2   15 B1    6 A2   20 A1   21 A1   16 B1                 
  0.725   0.766   0.822   0.865   0.868   0.873   0.879   0.959
 22 A1   23 A1   11 B2   17 B1    7 A2   24 A1   18 B1   12 B2                 
  1.002   1.052   1.057   1.139   1.140   1.181   1.181   1.213
  8 A2   25 A1   13 B2   26 A1   19 B1   14 B2   20 B1    9 A2                 
  1.233   1.233   1.269   1.278   1.286   1.292   1.328   1.377
 27 A1   15 B2   10 A2   16 B2   28 A1   21 B1   29 A1   22 B1                 
  1.382   1.395   1.399   1.447   1.465   1.471   1.478   1.479
 11 A2   23 B1   30 A1   17 B2   31 A1   12 A2   24 B1   18 B2                 
  1.521   1.579   1.612   1.623   1.641   1.642   1.682   1.693
 32 A1   25 B1   33 A1   26 B1   19 B2   34 A1   27 B1   13 A2                 
  1.744   2.375   2.467   2.479   2.498   2.544   2.561   2.599
 35 A1   14 A2   36 A1   20 B2   28 B1   37 A1   29 B1   38 A1                 
  2.628   2.713   2.822   2.832   2.841   2.911   2.928   2.932
 21 B2   30 B1   39 A1   31 B1   22 B2   15 A2   32 B1   23 B2                 
  2.933   2.941   3.002   3.017   3.055   3.072   3.075   3.101
 40 A1   16 A2   24 B2   33 B1   17 A2   41 A1   25 B2   42 A1                 
  3.133   3.136   3.181   3.195   3.204   3.220   3.282   3.309
 34 B1   18 A2   43 A1   19 A2   35 B1   26 B2   44 A1   27 B2                 
  3.334   3.335   3.337   3.361   3.363   3.368   3.399   3.445
 36 B1   45 A1   20 A2   21 A2   28 B2   46 A1   29 B2   22 A2                 
  3.474   3.485   3.491   3.516   3.563   3.576   3.598   3.618
 30 B2   37 B1   38 B1   47 A1   31 B2   48 A1   39 B1   23 A2                 
  3.620   3.679   3.688   3.702   3.784   3.794   3.882   3.893
 32 B2   49 A1   40 B1   50 A1   24 A2   33 B2   51 A1   52 A1                 
  3.939   3.951   3.952   3.955   3.959   3.988   4.054   4.064
 34 B2   25 A2   41 B1   53 A1   42 B1   43 B1   26 A2   35 B2                 
  4.078   4.105   4.106   4.146   4.152   4.158   4.190   4.202
 54 A1   55 A1   44 B1   27 A2   36 B2   56 A1   37 B2   45 B1                 
  4.216   4.244   4.262   4.373   4.399   4.410   4.414   4.427
 28 A2   46 B1   57 A1   29 A2   38 B2   58 A1   47 B1   59 A1                 
  4.435   4.587   4.590   4.591   4.672   4.806   4.826   4.893
 39 B2   30 A2   60 A1   48 B1   49 B1   61 A1   50 B1   40 B2                 
  4.944   4.958   4.962   4.962   5.041   5.049   5.059   5.110
 41 B2   51 B1   62 A1   31 A2   32 A2   63 A1   52 B1   42 B2                 
  5.122   5.248   5.249   5.276   5.311   5.351   5.352   5.372
 53 B1   54 B1   33 A2   64 A1   43 B2   34 A2   65 A1   66 A1                 
  5.380   5.383   5.456   5.496   5.554   5.557   5.629   5.744
 55 B1   44 B2   56 B1   67 A1   68 A1   35 A2   45 B2   57 B1                 
  5.953   6.383   6.384   6.392   6.415   6.462  25.205  25.444
 69 A1   46 B2   36 A2   70 A1   58 B1   47 B2   71 A1   59 B1                 
 25.454
 72 A1                                                                         
 
 Beta MOs, Restricted
 -- Occupied --                  
-10.274 -10.265 -10.265  -0.881  -0.777  -0.678  -0.546  -0.524
  1 A1    1 B1    2 A1    3 A1    2 B1    4 A1    1 B2    5 A1                 
 -0.483  -0.464  -0.419  -0.418  -0.408
  3 B1    1 A2    4 B1    6 A1    2 B2                                         
 -- Virtual --                   
  0.069   0.086   0.091   0.099   0.125   0.130   0.133   0.143
  7 A1    5 B1    8 A1    3 B2    9 A1    6 B1    2 A2   10 A1                 
  0.143   0.171   0.172   0.191   0.233   0.241   0.244   0.264
  4 B2   11 A1    7 B1    8 B1    5 B2   12 A1    3 A2    6 B2                 
  0.280   0.284   0.311   0.312   0.334   0.349   0.458   0.467
 13 A1    9 B1   14 A1   10 B1   15 A1   11 B1   16 A1    7 B2                 
  0.471   0.510   0.513   0.518   0.545   0.561   0.584   0.585
  4 A2   17 A1    8 B2   12 B1   13 B1   18 A1    5 A2    9 B2                 
  0.625   0.626   0.642   0.644   0.656   0.657   0.708   0.724
 14 B1   19 A1   10 B2   15 B1    6 A2   20 A1   21 A1   16 B1                 
  0.725   0.766   0.822   0.865   0.868   0.873   0.879   0.959
 22 A1   23 A1   11 B2   17 B1    7 A2   24 A1   18 B1   12 B2                 
  1.002   1.052   1.057   1.139   1.140   1.181   1.181   1.213
  8 A2   25 A1   13 B2   26 A1   19 B1   14 B2   20 B1    9 A2                 
  1.233   1.233   1.269   1.278   1.286   1.292   1.328   1.377
 27 A1   15 B2   10 A2   16 B2   28 A1   21 B1   29 A1   22 B1                 
  1.382   1.395   1.399   1.447   1.465   1.471   1.478   1.479
 11 A2   23 B1   30 A1   17 B2   31 A1   12 A2   24 B1   18 B2                 
  1.521   1.579   1.612   1.623   1.641   1.642   1.682   1.693
 32 A1   25 B1   33 A1   26 B1   19 B2   34 A1   27 B1   13 A2                 
  1.744   2.375   2.467   2.479   2.498   2.544   2.561   2.599
 35 A1   14 A2   36 A1   20 B2   28 B1   37 A1   29 B1   38 A1                 
  2.628   2.713   2.822   2.832   2.841   2.911   2.928   2.932
 21 B2   30 B1   39 A1   31 B1   22 B2   15 A2   32 B1   23 B2                 
  2.933   2.941   3.002   3.017   3.055   3.072   3.075   3.101
 40 A1   16 A2   24 B2   33 B1   17 A2   41 A1   25 B2   42 A1                 
  3.133   3.136   3.181   3.195   3.204   3.220   3.282   3.309
 34 B1   18 A2   43 A1   19 A2   35 B1   26 B2   44 A1   27 B2                 
  3.334   3.335   3.337   3.361   3.363   3.368   3.399   3.445
 36 B1   45 A1   20 A2   21 A2   28 B2   46 A1   29 B2   22 A2                 
  3.474   3.485   3.491   3.516   3.563   3.576   3.598   3.618
 30 B2   37 B1   38 B1   47 A1   31 B2   48 A1   39 B1   23 A2                 
  3.620   3.679   3.688   3.702   3.784   3.794   3.882   3.893
 32 B2   49 A1   40 B1   50 A1   24 A2   33 B2   51 A1   52 A1                 
  3.939   3.951   3.952   3.955   3.959   3.988   4.054   4.064
 34 B2   25 A2   41 B1   53 A1   42 B1   43 B1   26 A2   35 B2                 
  4.078   4.105   4.106   4.146   4.152   4.158   4.190   4.202
 54 A1   55 A1   44 B1   27 A2   36 B2   56 A1   37 B2   45 B1                 
  4.216   4.244   4.262   4.373   4.399   4.410   4.414   4.427
 28 A2   46 B1   57 A1   29 A2   38 B2   58 A1   47 B1   59 A1                 
  4.435   4.587   4.590   4.591   4.672   4.806   4.826   4.893
 39 B2   30 A2   60 A1   48 B1   49 B1   61 A1   50 B1   40 B2                 
  4.944   4.958   4.962   4.962   5.041   5.049   5.059   5.110
 41 B2   51 B1   62 A1   31 A2   32 A2   63 A1   52 B1   42 B2                 
  5.122   5.248   5.249   5.276   5.311   5.351   5.352   5.372
 53 B1   54 B1   33 A2   64 A1   43 B2   34 A2   65 A1   66 A1                 
  5.380   5.383   5.456   5.496   5.554   5.557   5.629   5.744
 55 B1   44 B2   56 B1   67 A1   68 A1   35 A2   45 B2   57 B1                 
  5.953   6.383   6.384   6.392   6.415   6.462  25.205  25.444
 69 A1   46 B2   36 A2   70 A1   58 B1   47 B2   71 A1   59 B1                 
 25.454
 72 A1                                                                         
 --------------------------------------------------------------
 
          Ground-State Mulliken Net Atomic Charges

     Atom                 Charge (a.u.)
  ----------------------------------------
      1 C                    -0.103787
      2 C                     0.016539
      3 H                     0.023351
      4 H                     0.023351
      5 H                     0.028596
      6 C                    -0.103784
      7 H                     0.020218
      8 H                     0.020218
      9 H                     0.023356
     10 H                     0.028596
     11 H                     0.023347
  ----------------------------------------
  Sum of atomic charges =     0.000000

 -----------------------------------------------------------------
                    Cartesian Multipole Moments
 -----------------------------------------------------------------
    Charge (ESU x 10^10)
                 0.0000
    Dipole Moment (Debye)
         X      -0.0000      Y      -0.0000      Z      -0.0861
       Tot       0.0861
    Quadrupole Moments (Debye-Ang)
        XX     -22.1674     XY       0.0000     YY     -21.3638
        XZ      -0.0000     YZ       0.0000     ZZ     -21.8442
    Octopole Moments (Debye-Ang^2)
       XXX      -0.0000    XXY      -0.0000    XYY      -0.0000
       YYY      -0.0000    XXZ      -1.5492    XYZ      -0.0000
       YYZ       0.4825    XZZ       0.0000    YZZ       0.0000
       ZZZ      -0.4087
    Hexadecapole Moments (Debye-Ang^3)
      XXXX    -202.2787   XXXY       0.0001   XXYY     -42.2157
      XYYY       0.0000   YYYY     -44.1099   XXXZ      -0.0000
      XXYZ      -0.0000   XYYZ      -0.0000   YYYZ       0.0000
      XXZZ     -45.3135   XYZZ       0.0000   YYZZ     -17.0809
      XZZZ      -0.0000   YZZZ       0.0000   ZZZZ     -72.1939
 -----------------------------------------------------------------
Archival summary:
1\1\cn0318\OPT\ProcedureUnspecified\BasisUnspecified\38\r0852400\WedMar1115:24:122020WedMar1115:24:122020\0\\#,OPT,ProcedureUnspecified,BasisUnspecified,\\0,1\C\H,1,1.09259\H,1,1.09259,2,106.225\C,1,1.52405,2,109.48,3,-118.121,0\H,4,1.09047,1,111.633,2,58.0357,0\H,4,1.09187,1,110.906,2,178.334,0\H,4,1.09187,1,110.906,2,-62.2628,0\C,1,1.52405,2,109.48,3,118.121,0\H,8,1.09047,1,111.633,2,-58.0358,0\H,8,1.09187,1,110.906,2,62.2628,0\H,8,1.09187,1,110.906,2,-178.334,0\\\@

 Total job time:  64.14s(wall), 127.35s(cpu) 
 Wed Mar 11 15:24:12 2020

        *************************************************************
        *                                                           *
        *  Thank you very much for using Q-Chem.  Have a nice day.  *
        *                                                           *
        *************************************************************


