                  Welcome to Q-Chem
     A Quantum Leap Into The Future Of Chemistry


 Q-Chem 5.2 (devel), Q-Chem, Inc., Pleasanton, CA (2019)

 Yihan Shao,  Zhengting Gan,  E. Epifanovsky,  A. T. B. Gilbert,  M. Wormit,  
 J. Kussmann,  A. W. Lange,  A. Behn,  Jia Deng,  Xintian Feng,  D. Ghosh,  
 M. Goldey,  P. R. Horn,  L. D. Jacobson,  I. Kaliman,  T. Kus,  A. Landau,  
 Jie Liu,  E. I. Proynov,  R. M. Richard,  R. P. Steele,  E. J. Sundstrom,  
 H. L. Woodcock III,  P. M. Zimmerman,  D. Zuev,  B. Alam,  B. Albrecht,  
 E. Alguire,  S. A. Baeppler,  D. Barton,  Z. Benda,  Y. A. Bernard,  
 E. J. Berquist,  K. B. Bravaya,  H. Burton,  K. Carter-Fenk,  D. Casanova,  
 Chun-Min Chang,  Yunqing Chen,  A. Chien,  K. D. Closser,  M. P. Coons,  
 S. Coriani,  S. Dasgupta,  A. L. Dempwolff,  M. Diedenhofen,  Hainam Do,  
 R. G. Edgar,  Po-Tung Fang,  S. Faraji,  S. Fatehi,  Qingguo Feng,  
 J. Fosso-Tande,  J. Gayvert,  Qinghui Ge,  A. Ghysels,  G. Gidofalvi,  
 J. Gomes,  J. Gonthier,  A. Gunina,  D. Hait,  M. W. D. Hanson-Heine,  
 P. H. P. Harbach,  A. W. Hauser,  M. F. Herbst,  J. E. Herr,  
 E. G. Hohenstein,  Z. C. Holden,  Kerwin Hui,  B. C. Huynh,  T.-C. Jagau,  
 Hyunjun Ji,  B. Kaduk,  K. Khistyaev,  Jaehoon Kim,  P. Klunzinger,  K. Koh,  
 D. Kosenkov,  L. Koulias,  T. Kowalczyk,  C. M. Krauter,  A. Kunitsa,  
 Ka Un Lao,  A. Laurent,  K. V. Lawler,  Joonho Lee,  D. Lefrancois,  
 S. Lehtola,  D. S. Levine,  Yi-Pei Li,  You-Sheng Lin,  Fenglai Liu,  
 Kuan-Yu Liu,  E. Livshits,  M. Loipersberger,  A. Luenser,  P. Manohar,  
 E. Mansoor,  S. F. Manzer,  Shan-Ping Mao,  Yuezhi Mao,  N. Mardirossian,  
 A. V. Marenich,  T. Markovich,  L. A. Martinez-Martinez,  S. A. Maurer,  
 N. J. Mayhall,  S. C. McKenzie,  J.-M. Mewes,  P. Morgante,  A. F. Morrison,  
 J. W. Mullinax,  K. Nanda,  T. S. Nguyen-Beck,  R. Olivares-Amaya,  
 J. A. Parkhill,  S. K. Paul,  Zheng Pei,  T. M. Perrine,  F. Plasser,  
 P. Pokhilko,  S. Prager,  A. Prociuk,  E. Ramos,  B. Rana,  D. R. Rehn,  
 F. Rob,  M. Scheurer,  M. Schneider,  N. Sergueev,  S. M. Sharada,  
 S. Sharma,  D. W. Small,  T. Stauch,  C. J. Stein,  T. Stein,  Yu-Chuan Su,  
 S. P. Veccham,  A. J. W. Thom,  A. Tkatchenko,  T. Tsuchimochi,  
 N. M. Tubman,  L. Vogt,  M. L. Vidal,  O. Vydrov,  M. A. Watson,  J. Wenzel,  
 M. de Wergifosse,  T. A. Wesolowski,  A. White,  J. Witte,  A. Yamada,  
 Jun Yang,  K. Yao,  S. Yeganeh,  S. R. Yost,  Zhi-Qiang You,  A. Zech,  
 Igor Ying Zhang,  Xing Zhang,  Yan Zhao,  Ying Zhu,  B. R. Brooks,  
 G. K. L. Chan,  C. J. Cramer,  M. S. Gordon,  W. J. Hehre,  A. Klamt,  
 M. W. Schmidt,  C. D. Sherrill,  D. G. Truhlar,  A. Aspuru-Guzik,  R. Baer,  
 A. T. Bell,  N. A. Besley,  Jeng-Da Chai,  A. E. DePrince, III,  
 R. A. DiStasio Jr.,  A. Dreuw,  B. D. Dunietz,  T. R. Furlani,  
 Chao-Ping Hsu,  Yousung Jung,  Jing Kong,  D. S. Lambrecht,  WanZhen Liang,  
 C. Ochsenfeld,  V. A. Rassolov,  L. V. Slipchenko,  J. E. Subotnik,  
 T. Van Voorhis,  J. M. Herbert,  A. I. Krylov,  P. M. W. Gill,  M. Head-Gordon

 Contributors to earlier versions of Q-Chem not listed above: 
 R. D. Adamson,  B. Austin,  J. Baker,  G. J. O. Beran,  K. Brandhorst,  
 S. T. Brown,  E. F. C. Byrd,  A. K. Chakraborty,  C.-L. Cheng,  
 Siu Hung Chien,  D. M. Chipman,  D. L. Crittenden,  H. Dachsel,  
 R. J. Doerksen,  A. D. Dutoi,  L. Fusti-Molnar,  W. A. Goddard III,  
 A. Golubeva-Zadorozhnaya,  S. R. Gwaltney,  G. Hawkins,  A. Heyden,  
 S. Hirata,  G. Kedziora,  F. J. Keil,  C. Kelley,  Jihan Kim,  R. A. King,  
 R. Z. Khaliullin,  P. P. Korambath,  W. Kurlancheek,  A. M. Lee,  M. S. Lee,  
 S. V. Levchenko,  Ching Yeh Lin,  D. Liotard,  R. C. Lochan,  I. Lotan,  
 P. E. Maslen,  N. Nair,  D. P. O'Neill,  D. Neuhauser,  E. Neuscamman,  
 C. M. Oana,  R. Olson,  B. Peters,  R. Peverati,  P. A. Pieniazek,  
 Y. M. Rhee,  J. Ritchie,  M. A. Rohrdanz,  E. Rosta,  N. J. Russ,  
 H. F. Schaefer III,  N. E. Schultz,  N. Shenvi,  A. C. Simmonett,  A. Sodt,  
 D. Stuck,  K. S. Thanthiriwatte,  V. Vanovschi,  Tao Wang,  A. Warshel,  
 C. F. Williams,  Q. Wu,  X. Xu,  W. Zhang

 Please cite Q-Chem as follows:
 Y. Shao et al., Mol. Phys. 113, 184-215 (2015)
 DOI: 10.1080/00268976.2014.952696

 Q-Chem 5.2.2 for Intel X86 EM64T Linux

 Parts of Q-Chem use Armadillo 9.800.1 (Horizon Scraper).
 http://arma.sourceforge.net/

 Q-Chem begins on Sun Apr 12 05:31:29 2020  

Host: cn0913
0

     Scratch files written to /tmp/ypli/6721341.srvc1/qchem225033//
Warning:  Did not find "$end" marker in "$molecule" section

Checking the input file for inconsistencies... 	...done.

--------------------------------------------------------------
User input:
--------------------------------------------------------------
$rem
   JOBTYPE  sp
   EXCHANGE   omegaB97X-D
   BASIS   6-311+G(2df,2pd)
   max_scf_cycles   250
   geom_opt_max_cycles   1500
   basis2 6-31G*
   scf_algorithm rca_diis
   SYM_IGNORE  TRUE
   print_input   true
   geom_opt_dmax   80
   pop_mulliken false
   XC_GRID 000075000302
$end

$molecule
0 1
C       1.4927496430     -0.0000007486     0.2663136118
C       -0.0000001660     0.0000030094     -0.1681372132
H       1.8515250815     -0.8855293202     0.7916460771
H       1.8515315878     0.8855249411     0.7916464926
H       1.9661362317     -0.0000040475     -0.7205062730
C       -1.4927500305     0.0000009478     0.2663131774
H       0.0000009921     -0.8375206570     -0.8745107216
H       -0.0000003456     0.8375302064     -0.8745065598
H       -1.8515243200     -0.8855240340     0.7916524408
H       -1.9661370962     -0.0000099065     -0.7205061643
H       -1.8515316383     0.8855302752     0.7916401512
--------------------------------------------------------------
 ----------------------------------------------------------------
             Standard Nuclear Orientation (Angstroms)
    I     Atom           X                Y                Z
 ----------------------------------------------------------------
    1      C       1.4927496430    -0.0000007486     0.2663136118
    2      C      -0.0000001660     0.0000030094    -0.1681372132
    3      H       1.8515250815    -0.8855293202     0.7916460771
    4      H       1.8515315878     0.8855249411     0.7916464926
    5      H       1.9661362317    -0.0000040475    -0.7205062730
    6      C      -1.4927500305     0.0000009478     0.2663131774
    7      H       0.0000009921    -0.8375206570    -0.8745107216
    8      H      -0.0000003456     0.8375302064    -0.8745065598
    9      H      -1.8515243200    -0.8855240340     0.7916524408
   10      H      -1.9661370962    -0.0000099065    -0.7205061643
   11      H      -1.8515316383     0.8855302752     0.7916401512
 ----------------------------------------------------------------
 Nuclear Repulsion Energy =          80.25154128 hartrees
 There are       13 alpha and       13 beta electrons
 Requested basis set is 6-311+G(2df,2pd)
 There are 72 shells and 214 basis functions

 Total QAlloc Memory Limit   2000 MB
 Mega-Array Size       188 MB
 MEM_STATIC part       192 MB

                       Distance Matrix (Angstroms)
             C (  1)   C (  2)   H (  3)   H (  4)   H (  5)   C (  6)
   C (  2)  1.554686
   H (  3)  1.090346  2.265722
   H (  4)  1.090346  2.265724  1.771054
   H (  5)  1.094490  2.042255  1.756102  1.756104
   C (  6)  2.985500  1.554686  3.499188  3.499192  3.596902
   H (  7)  2.056993  1.095632  2.491290  3.028718  2.142624  2.056995
   H (  8)  2.056996  1.095632  3.028720  2.491293  2.142632  2.056995
   H (  9)  3.499186  2.265722  3.703049  4.104782  4.200631  1.090346
   H ( 10)  3.596903  2.042255  4.200630  4.200639  3.932273  1.094490
   H ( 11)  3.499193  2.265723  4.104788  3.703063  4.200636  1.090346
             H (  7)   H (  8)   H (  9)   H ( 10)
   H (  8)  1.675051
   H (  9)  2.491295  3.028720
   H ( 10)  2.142625  2.142635  1.756102
   H ( 11)  3.028719  2.491288  1.771054  1.756104
 
 A cutoff of  1.0D-09 yielded   2463 shell pairs
 There are     21796 function pairs (     26771 Cartesian)
 Smallest overlap matrix eigenvalue = 8.42E-05

 Scale SEOQF with 1.000000e-01/1.000000e-01/1.000000e-01

 Standard Electronic Orientation quadrupole field applied
 Nucleus-field energy     =     0.0000000014 hartrees
 Requested basis set is 6-31G(d)
 There are 28 shells and 58 basis functions
 A cutoff of  1.0D-09 yielded    393 shell pairs
 There are      1764 function pairs (      1959 Cartesian)
 Smallest overlap matrix eigenvalue = 7.90E-03
 Guess from superposition of atomic densities
 Warning:  Energy on first SCF cycle will be non-variational
 SAD guess density has 26.000000 electrons
 Long-range K will be added via erf
 Coulomb attenuation parameter = 0.2 bohr**(-1)
 A restricted hybrid HF-DFT SCF calculation will be
 performed using Relaxed Constraint Minimization + Pulay DIIS
 Exchange:     0.2220 Hartree-Fock + 1.0000 wB97X-D + LR-HF
 Correlation:  1.0000 wB97X-D
 Using Euler-Maclaurin-Lebedev (75,302) quadrature formula
 Dispersion:   Grimme D
 SCF converges when DIIS error is below 1.0E-04
 using 3 threads for integral computing
 -------------------------------------------------------
 OpenMP Integral computing Module                
 Release: version 1.0, May 2013, Q-Chem Inc. Pittsburgh 
 -------------------------------------------------------
 using 3 threads for integral computing
 -------------------------------------------------------
 OpenMP Integral computing Module                
 Release: version 1.0, May 2013, Q-Chem Inc. Pittsburgh 
 -------------------------------------------------------
 ---------------------------------------
  Cycle       Energy         DIIS Error
 ---------------------------------------
    1    -119.5681130501      9.88E-02
    2    -119.0313064859      8.30E-03
    3    -119.0500891236      2.65E-03
    4    -119.0612693812      1.83E-03
    5    -119.0621132500      3.13E-04 Done RCA. Switching to DIIS
    6    -119.0627138299      2.37E-04
    7    -119.0627382579      4.27E-06 Convergence criterion met
 ---------------------------------------
 SCF time:  CPU 23.95 s  wall 8.15 s
 SCF   energy in the small basis set = -119.06273826
 Total energy in the small basis set = -119.06273826
 ----------------------------------------------------
  Cycle       Energy    
 ----------------------------------------------------
    1     -16.5131786646     -1.65E+01
 Long-range K will be added via erf
 Coulomb attenuation parameter = 0.2 bohr**(-1)
 A restricted hybrid HF-DFT SCF calculation will be
 performed using Relaxed Constraint Minimization + Pulay DIIS
 Exchange:     0.2220 Hartree-Fock + 1.0000 wB97X-D + LR-HF
 Correlation:  1.0000 wB97X-D
 Using Euler-Maclaurin-Lebedev (75,302) quadrature formula
 Dispersion:   Grimme D
 SCF converges when DIIS error is below 1.0E-05
 Basis2 calculation detected. Using small basis as guess for larger.
 SCFMinFind is unable to tell whether the solution found is close.
 Resetting ReadMinima to 0 and attempting to follow guess.
 SCFMinFind following SCF Guess.
 using 3 threads for integral computing
 -------------------------------------------------------
 OpenMP Integral computing Module                
 Release: version 1.0, May 2013, Q-Chem Inc. Pittsburgh 
 -------------------------------------------------------
 using 3 threads for integral computing
 -------------------------------------------------------
 OpenMP Integral computing Module                
 Release: version 1.0, May 2013, Q-Chem Inc. Pittsburgh 
 -------------------------------------------------------
 ---------------------------------------
  Cycle       Energy         DIIS Error
 ---------------------------------------
    1    -119.0826696947      4.21E-03
    2    -119.1045499497      5.70E-04 Done RCA. Switching to DIIS
    3    -119.1053653236      3.85E-04
    4    -119.1061832726      4.80E-05
    5    -119.1061986251      1.47E-05
    6    -119.1061999188      4.20E-06 Convergence criterion met
 ---------------------------------------
 SCF time:  CPU 68.77 s  wall 23.12 s
 SCF   energy in the final basis set = -119.10619992
 Total energy in the final basis set = -119.10619992
 
 --------------------------------------------------------------
 
                    Orbital Energies (a.u.)
 --------------------------------------------------------------
 
 Alpha MOs
 -- Occupied --
-10.2795 -10.2744 -10.2744  -0.8741  -0.7929  -0.6722  -0.5362  -0.5058
 -0.5014  -0.4764  -0.4288  -0.3972  -0.3877
 -- Virtual --
  0.0621   0.0859   0.0954   0.0991   0.1109   0.1276   0.1317   0.1570
  0.1647   0.1740   0.2004   0.2146   0.2240   0.2250   0.2335   0.2561
  0.2582   0.2724   0.2782   0.3022   0.3205   0.3735   0.4644   0.4794
  0.4823   0.4935   0.5306   0.5314   0.5586   0.5681   0.5702   0.5883
  0.5965   0.5992   0.6289   0.6460   0.6617   0.6790   0.6952   0.7100
  0.7252   0.7660   0.8336   0.8412   0.8606   0.8819   0.9511   0.9650
  0.9682   0.9697   1.0260   1.0933   1.1387   1.1568   1.1649   1.1733
  1.2390   1.2404   1.2595   1.2808   1.2973   1.3000   1.3066   1.3204
  1.3582   1.3849   1.4154   1.4452   1.4492   1.4547   1.4575   1.4589
  1.4866   1.6010   1.6030   1.6300   1.6530   1.6689   1.7011   1.7530
  1.8010   2.4301   2.4426   2.4725   2.4988   2.5382   2.5700   2.6299
  2.6558   2.6752   2.7148   2.8057   2.8532   2.8739   2.9244   2.9376
  2.9527   2.9752   3.0033   3.0049   3.0520   3.0589   3.0979   3.0979
  3.1352   3.1467   3.1554   3.1803   3.1848   3.1919   3.2235   3.2633
  3.2721   3.2999   3.3067   3.3332   3.3348   3.3466   3.3828   3.4208
  3.4289   3.4415   3.5315   3.5575   3.5662   3.5731   3.6028   3.6238
  3.6264   3.6707   3.7029   3.7208   3.7315   3.7453   3.7477   3.8135
  3.8563   3.8745   3.8968   3.9298   3.9377   3.9915   4.0119   4.0522
  4.0900   4.1088   4.1438   4.1516   4.1558   4.1761   4.1856   4.2287
  4.2329   4.2390   4.2551   4.3368   4.3717   4.3893   4.4670   4.4747
  4.4968   4.5405   4.5615   4.6349   4.7383   4.7916   4.8814   4.8878
  4.8998   4.9249   4.9564   4.9855   5.0164   5.0389   5.0988   5.1075
  5.1516   5.1652   5.2093   5.2472   5.2911   5.3002   5.3315   5.3368
  5.3476   5.4145   5.4590   5.4629   5.5987   5.6669   5.6713   5.8638
  5.9517   6.3646   6.3886   6.3921   6.4118   6.4644  25.1977  25.3819
 25.4207
 --------------------------------------------------------------
 
 -----------------------------------------------------------------
                    Cartesian Multipole Moments
 -----------------------------------------------------------------
    Charge (ESU x 10^10)
                -0.0000
    Dipole Moment (Debye)
         X      -0.0000      Y      -0.0000      Z      -0.2890
       Tot       0.2890
    Quadrupole Moments (Debye-Ang)
        XX     -21.7476     XY      -0.0000     YY     -21.5235
        XZ       0.0000     YZ       0.0000     ZZ     -21.8264
    Octopole Moments (Debye-Ang^2)
       XXX       0.0000    XXY      -0.0000    XYY       0.0000
       YYY      -0.0000    XXZ      -2.0546    XYZ      -0.0000
       YYZ      -1.0930    XZZ       0.0000    YZZ      -0.0000
       ZZZ      -6.5500
    Hexadecapole Moments (Debye-Ang^3)
      XXXX    -272.5573   XXXY       0.0001   XXYY     -49.9877
      XYYY       0.0000   YYYY     -43.9095   XXXZ       0.0000
      XXYZ       0.0001   XYYZ      -0.0000   YYYZ       0.0000
      XXZZ     -51.0673   XYZZ       0.0000   YYZZ     -15.0607
      XZZZ      -0.0000   YZZZ       0.0000   ZZZZ     -54.2595
 -----------------------------------------------------------------
Archival summary:
1\1\cn0913\SP\ProcedureUnspecified\BasisUnspecified\38\r0852400\SunApr1205:32:032020SunApr1205:32:032020\0\\#,ProcedureUnspecified,BasisUnspecified,\\0,1\C\H,1,1.09563\H,1,1.09563,2,99.7112\C,1,1.55469,2,100.379,3,102.543,0\H,4,1.09035,1,116.781,2,63.5327,0\H,4,1.09035,1,116.781,2,-165.53,0\H,4,1.09449,1,99.4004,2,-50.9987,0\C,1,1.55469,2,100.379,3,-102.543,0\H,8,1.09035,1,116.781,2,-63.5323,0\H,8,1.09035,1,116.781,2,165.531,0\H,8,1.09449,1,99.4003,2,50.9991,0\\\@

 Total job time:  34.48s(wall), 96.71s(cpu) 
 Sun Apr 12 05:32:03 2020

        *************************************************************
        *                                                           *
        *  Thank you very much for using Q-Chem.  Have a nice day.  *
        *                                                           *
        *************************************************************


