                  Welcome to Q-Chem
     A Quantum Leap Into The Future Of Chemistry


 Q-Chem 5.3 (devel), Q-Chem, Inc., Pleasanton, CA (2020)

 Yihan Shao,  Zhengting Gan,  E. Epifanovsky,  A. T. B. Gilbert,  M. Wormit,  
 J. Kussmann,  A. W. Lange,  A. Behn,  Jia Deng,  Xintian Feng,  D. Ghosh,  
 M. Goldey,  P. R. Horn,  L. D. Jacobson,  I. Kaliman,  T. Kus,  A. Landau,  
 Jie Liu,  E. I. Proynov,  R. M. Richard,  R. P. Steele,  E. J. Sundstrom,  
 H. L. Woodcock III,  P. M. Zimmerman,  D. Zuev,  B. Alam,  B. Albrecht,  
 E. Alguire,  S. A. Baeppler,  D. Barton,  Z. Benda,  Y. A. Bernard,  
 E. J. Berquist,  K. B. Bravaya,  H. Burton,  K. Carter-Fenk,  D. Casanova,  
 Chun-Min Chang,  Yunqing Chen,  A. Chien,  K. D. Closser,  M. P. Coons,  
 S. Coriani,  S. Dasgupta,  A. L. Dempwolff,  M. Diedenhofen,  Hainam Do,  
 R. G. Edgar,  Po-Tung Fang,  S. Faraji,  S. Fatehi,  Qingguo Feng,  
 J. Fosso-Tande,  J. Gayvert,  Qinghui Ge,  A. Ghysels,  G. Gidofalvi,  
 J. Gomes,  J. Gonthier,  A. Gunina,  D. Hait,  M. W. D. Hanson-Heine,  
 P. H. P. Harbach,  A. W. Hauser,  M. F. Herbst,  J. E. Herr,  
 E. G. Hohenstein,  Z. C. Holden,  Kerwin Hui,  B. C. Huynh,  T.-C. Jagau,  
 Hyunjun Ji,  B. Kaduk,  K. Khistyaev,  Jaehoon Kim,  P. Klunzinger,  K. Koh,  
 D. Kosenkov,  L. Koulias,  T. Kowalczyk,  C. M. Krauter,  A. Kunitsa,  
 Ka Un Lao,  A. Laurent,  K. V. Lawler,  Joonho Lee,  D. Lefrancois,  
 S. Lehtola,  D. S. Levine,  Yi-Pei Li,  You-Sheng Lin,  Fenglai Liu,  
 Kuan-Yu Liu,  E. Livshits,  M. Loipersberger,  A. Luenser,  P. Manohar,  
 E. Mansoor,  S. F. Manzer,  Shan-Ping Mao,  Yuezhi Mao,  N. Mardirossian,  
 A. V. Marenich,  T. Markovich,  L. A. Martinez-Martinez,  S. A. Maurer,  
 N. J. Mayhall,  S. C. McKenzie,  J.-M. Mewes,  P. Morgante,  A. F. Morrison,  
 J. W. Mullinax,  K. Nanda,  T. S. Nguyen-Beck,  R. Olivares-Amaya,  
 K. J. Oosterbaan,  J. A. Parkhill,  S. K. Paul,  F. Pavosevic,  Zheng Pei,  
 T. M. Perrine,  F. Plasser,  P. Pokhilko,  S. Prager,  A. Prociuk,  
 E. Ramos,  B. Rana,  D. R. Rehn,  F. Rob,  M. Scheurer,  M. Schneider,  
 N. Sergueev,  S. M. Sharada,  S. Sharma,  D. W. Small,  T. Stauch,  
 C. J. Stein,  T. Stein,  Yu-Chuan Su,  S. P. Veccham,  Zhen Tao,  
 A. J. W. Thom,  A. Tkatchenko,  T. Tsuchimochi,  N. M. Tubman,  L. Vogt,  
 M. L. Vidal,  O. Vydrov,  M. A. Watson,  J. Wenzel,  M. de Wergifosse,  
 T. A. Wesolowski,  A. White,  J. Witte,  A. Yamada,  Jun Yang,  K. Yao,  
 S. Yeganeh,  S. R. Yost,  Zhi-Qiang You,  A. Zech,  Igor Ying Zhang,  
 Xing Zhang,  Yan Zhao,  Ying Zhu,  B. R. Brooks,  G. K. L. Chan,  
 C. J. Cramer,  M. S. Gordon,  W. J. Hehre,  A. Klamt,  M. W. Schmidt,  
 C. D. Sherrill,  D. G. Truhlar,  A. Aspuru-Guzik,  R. Baer,  A. T. Bell,  
 N. A. Besley,  Jeng-Da Chai,  A. E. DePrince, III,  R. A. DiStasio Jr.,  
 A. Dreuw,  B. D. Dunietz,  T. R. Furlani,  Chao-Ping Hsu,  Yousung Jung,  
 Jing Kong,  D. S. Lambrecht,  WanZhen Liang,  C. Ochsenfeld,  
 V. A. Rassolov,  L. V. Slipchenko,  J. E. Subotnik,  T. Van Voorhis,  
 J. M. Herbert,  A. I. Krylov,  P. M. W. Gill,  M. Head-Gordon

 Contributors to earlier versions of Q-Chem not listed above: 
 R. D. Adamson,  B. Austin,  J. Baker,  G. J. O. Beran,  K. Brandhorst,  
 S. T. Brown,  E. F. C. Byrd,  A. K. Chakraborty,  C.-L. Cheng,  
 Siu Hung Chien,  D. M. Chipman,  D. L. Crittenden,  H. Dachsel,  
 R. J. Doerksen,  A. D. Dutoi,  L. Fusti-Molnar,  W. A. Goddard III,  
 A. Golubeva-Zadorozhnaya,  S. R. Gwaltney,  G. Hawkins,  A. Heyden,  
 S. Hirata,  G. Kedziora,  F. J. Keil,  C. Kelley,  Jihan Kim,  R. A. King,  
 R. Z. Khaliullin,  P. P. Korambath,  W. Kurlancheek,  A. M. Lee,  M. S. Lee,  
 S. V. Levchenko,  Ching Yeh Lin,  D. Liotard,  R. C. Lochan,  I. Lotan,  
 P. E. Maslen,  N. Nair,  D. P. O'Neill,  D. Neuhauser,  E. Neuscamman,  
 C. M. Oana,  R. Olson,  B. Peters,  R. Peverati,  P. A. Pieniazek,  
 Y. M. Rhee,  J. Ritchie,  M. A. Rohrdanz,  E. Rosta,  N. J. Russ,  
 H. F. Schaefer III,  N. E. Schultz,  N. Shenvi,  A. C. Simmonett,  A. Sodt,  
 D. Stuck,  K. S. Thanthiriwatte,  V. Vanovschi,  Tao Wang,  A. Warshel,  
 C. F. Williams,  Q. Wu,  X. Xu,  W. Zhang

 Please cite Q-Chem as follows:
 Y. Shao et al., Mol. Phys. 113, 184-215 (2015)
 DOI: 10.1080/00268976.2014.952696

 Q-Chem 5.3.0 for Intel X86 EM64T Linux

 Parts of Q-Chem use Armadillo 9.800.1 (Horizon Scraper).
 http://arma.sourceforge.net/

 Q-Chem begins on Thu Jul  2 04:18:15 2020  

Host: centos77-c1
0

     Scratch files written to /tmp/26650.centos77-h1/qchem72682//
Processing $rem in /opt/qchem-5.3.0-intel2020u1//config/preferences:
Processing $rem in /home/shihchengli/.qchemrc:

Checking the input file for inconsistencies... 	...done.

--------------------------------------------------------------
User input:
--------------------------------------------------------------
$rem
   JOBTYPE  sp
   EXCHANGE   omegaB97X-D
   BASIS   6-311+G(2df,2pd)
   max_scf_cycles   250
   geom_opt_max_cycles   1500
   basis2 6-31G*
   scf_algorithm rca_diis
   SYM_IGNORE  TRUE
   print_input   true
   geom_opt_dmax   80
   pop_mulliken false
   XC_GRID 000075000302
$end

$molecule
0 1
C       1.2619501241     -0.2053536192     0.1037358831
C       -0.0000019144     0.5996164528     -0.1830014480
H       1.4970550334     0.0254086392     1.1480804895
H       2.1463527198     0.0142432088     -0.4919145729
H       1.0724238726     -1.2775700534     0.0441218103
C       -1.2619501705     -0.2053614458     0.1037325565
H       -0.0000009588     0.6594122801     -1.2732608018
H       -0.0000058361     1.6275641193     0.1892840082
H       -1.4970288146     0.0253443929     1.1480949549
H       -1.0724282854     -1.2775754727     0.0440563846
H       -2.1463658307     0.0142721640     -0.4918842453
$end
--------------------------------------------------------------
 ----------------------------------------------------------------
             Standard Nuclear Orientation (Angstroms)
    I     Atom           X                Y                Z
 ----------------------------------------------------------------
    1      C       1.2619501241    -0.2053536192     0.1037358831
    2      C      -0.0000019144     0.5996164528    -0.1830014480
    3      H       1.4970550334     0.0254086392     1.1480804895
    4      H       2.1463527198     0.0142432088    -0.4919145729
    5      H       1.0724238726    -1.2775700534     0.0441218103
    6      C      -1.2619501705    -0.2053614458     0.1037325565
    7      H      -0.0000009588     0.6594122801    -1.2732608018
    8      H      -0.0000058361     1.6275641193     0.1892840082
    9      H      -1.4970288146     0.0253443929     1.1480949549
   10      H      -1.0724282854    -1.2775754727     0.0440563846
   11      H      -2.1463658307     0.0142721640    -0.4918842453
 ----------------------------------------------------------------
 Nuclear Repulsion Energy =          82.93688107 hartrees
 There are       13 alpha and       13 beta electrons
 Requested basis set is 6-311+G(2df,2pd)
 There are 72 shells and 214 basis functions

 Total QAlloc Memory Limit   2000 MB
 Mega-Array Size       188 MB
 MEM_STATIC part       192 MB

                       Distance Matrix (Angstroms)
             C (  1)   C (  2)   H (  3)   H (  4)   H (  5)   C (  6)
   C (  2)  1.524047
   H (  3)  1.095071  2.083908
   H (  4)  1.088664  2.246092  1.763887
   H (  5)  1.090469  2.173824  1.759770  1.763360
   C (  6)  2.523900  1.524047  2.959058  3.466922  2.569530
   H (  7)  2.058266  1.091898  2.916510  2.373516  2.576333  2.058266
   H (  8)  2.226980  1.093285  2.393195  2.770143  3.100158  2.226980
   H (  9)  2.959032  2.083914  2.994084  3.995495  3.085195  1.095071
   H ( 10)  2.569542  2.173822  3.085268  3.509503  2.144852  1.090469
   H ( 11)  3.466932  2.246089  3.995513  4.292719  3.509525  1.088664
             H (  7)   H (  8)   H (  9)   H ( 10)
   H (  8)  1.753954
   H (  9)  2.916522  2.393220
   H ( 10)  2.576305  3.100164  1.759769
   H ( 11)  2.373528  2.770120  1.763886  1.763362
 
 A cutoff of  1.0D-09 yielded   2537 shell pairs
 There are     22557 function pairs (     27736 Cartesian)
 Smallest overlap matrix eigenvalue = 8.67E-05

 Scale SEOQF with 1.000000e-01/1.000000e-01/1.000000e-01

 Standard Electronic Orientation quadrupole field applied
 Nucleus-field energy     =     0.0000000013 hartrees
 Requested basis set is 6-31G(d)
 There are 28 shells and 58 basis functions
 A cutoff of  1.0D-09 yielded    402 shell pairs
 There are      1773 function pairs (      1968 Cartesian)
 Smallest overlap matrix eigenvalue = 6.31E-03
 Guess from superposition of atomic densities
 Warning:  Energy on first SCF cycle will be non-variational
 SAD guess density has 26.000000 electrons
 Long-range K will be added via erf
 Coulomb attenuation parameter = 0.2 bohr**(-1)
 A restricted hybrid HF-DFT SCF calculation will be
 performed using Relaxed Constraint Minimization + Pulay DIIS
 Exchange:     0.2220 Hartree-Fock + 1.0000 wB97X-D + LR-HF
 Correlation:  1.0000 wB97X-D
 Using Euler-Maclaurin-Lebedev (75,302) quadrature formula
 Dispersion:   Grimme D
 SCF converges when DIIS error is below 1.0E-04
 using 3 threads for integral computing
 -------------------------------------------------------
 OpenMP Integral computing Module                
 Release: version 1.0, May 2013, Q-Chem Inc. Pittsburgh 
 -------------------------------------------------------
 using 3 threads for integral computing
 -------------------------------------------------------
 OpenMP Integral computing Module                
 Release: version 1.0, May 2013, Q-Chem Inc. Pittsburgh 
 -------------------------------------------------------
 ---------------------------------------
  Cycle       Energy         DIIS Error
 ---------------------------------------
    1    -119.6358331523      1.01E-01
    2    -119.0512829063      9.01E-03
    3    -119.0723644908      2.47E-03
    4    -119.0861959859      1.70E-03
    5    -119.0869063839      2.69E-04 Done RCA. Switching to DIIS
    6    -119.0874270956      2.00E-04
    7    -119.0874444250      4.73E-06 Convergence criterion met
 ---------------------------------------
 SCF time:  CPU 18.59 s  wall 6.65 s
 SCF   energy in the small basis set = -119.08744443
 Total energy in the small basis set = -119.08744443
 ----------------------------------------------------
  Cycle       Energy    
 ----------------------------------------------------
    1     -16.5438184867     -1.65E+01
 Long-range K will be added via erf
 Coulomb attenuation parameter = 0.2 bohr**(-1)
 A restricted hybrid HF-DFT SCF calculation will be
 performed using Relaxed Constraint Minimization + Pulay DIIS
 Exchange:     0.2220 Hartree-Fock + 1.0000 wB97X-D + LR-HF
 Correlation:  1.0000 wB97X-D
 Using Euler-Maclaurin-Lebedev (75,302) quadrature formula
 Dispersion:   Grimme D
 SCF converges when DIIS error is below 1.0E-05
 Basis2 calculation detected. Using small basis as guess for larger.
 SCFMinFind is unable to tell whether the solution found is close.
 Resetting ReadMinima to 0 and attempting to follow guess.
 SCFMinFind following SCF Guess.
 using 3 threads for integral computing
 -------------------------------------------------------
 OpenMP Integral computing Module                
 Release: version 1.0, May 2013, Q-Chem Inc. Pittsburgh 
 -------------------------------------------------------
 using 3 threads for integral computing
 -------------------------------------------------------
 OpenMP Integral computing Module                
 Release: version 1.0, May 2013, Q-Chem Inc. Pittsburgh 
 -------------------------------------------------------
 ---------------------------------------
  Cycle       Energy         DIIS Error
 ---------------------------------------
    1    -119.1071000083      4.21E-03
    2    -119.1291185126      6.04E-04 Done RCA. Switching to DIIS
    3    -119.1299585838      4.26E-04
    4    -119.1309524882      4.53E-05
    5    -119.1309672778      1.05E-05
    6    -119.1309680116      4.18E-06 Convergence criterion met
 ---------------------------------------
 SCF time:  CPU 50.87 s  wall 17.18 s
 SCF   energy in the final basis set = -119.13096801
 Total energy in the final basis set = -119.13096801
 
 --------------------------------------------------------------
 
                    Orbital Energies (a.u.)
 --------------------------------------------------------------
 
 Alpha MOs
 -- Occupied --
-10.2732 -10.2653 -10.2653  -0.8836  -0.7764  -0.6784  -0.5475  -0.5295
 -0.4758  -0.4670  -0.4324  -0.4190  -0.3835
 -- Virtual --
  0.0702   0.0865   0.0916   0.1004   0.1230   0.1311   0.1316   0.1361
  0.1437   0.1681   0.1732   0.1876   0.2108   0.2401   0.2633   0.2701
  0.2872   0.2909   0.3103   0.3255   0.3421   0.3569   0.4542   0.4720
  0.4790   0.4998   0.5040   0.5181   0.5448   0.5568   0.5644   0.5862
  0.6160   0.6309   0.6364   0.6438   0.6527   0.6546   0.7019   0.7102
  0.7360   0.7575   0.8601   0.8752   0.8773   0.8950   0.9320   0.9508
  0.9812   0.9935   1.0760   1.1327   1.1401   1.1978   1.2026   1.2350
  1.2353   1.2567   1.2631   1.2755   1.2997   1.3036   1.3415   1.3472
  1.3886   1.4060   1.4144   1.4267   1.4462   1.4646   1.4814   1.4872
  1.5257   1.5513   1.5848   1.6138   1.6370   1.6497   1.6574   1.7320
  1.7359   2.3298   2.4176   2.4503   2.5127   2.5506   2.5774   2.5941
  2.6464   2.7313   2.7743   2.7919   2.8752   2.8936   2.9206   2.9363
  2.9529   2.9581   2.9881   2.9999   3.0662   3.0813   3.0871   3.1167
  3.1410   3.1551   3.1831   3.1910   3.2292   3.2368   3.2387   3.2889
  3.3286   3.3308   3.3428   3.3574   3.3773   3.3896   3.4031   3.4310
  3.4478   3.4790   3.5043   3.5452   3.5567   3.5848   3.5881   3.6221
  3.6364   3.6549   3.7227   3.7361   3.7586   3.8019   3.8162   3.8181
  3.8755   3.9159   3.9576   3.9721   4.0107   4.0340   4.0578   4.0706
  4.0784   4.1100   4.1234   4.1427   4.1650   4.2031   4.2086   4.2191
  4.2440   4.2872   4.3004   4.3282   4.3904   4.4114   4.4165   4.4564
  4.5098   4.5188   4.5640   4.6131   4.6549   4.7794   4.8243   4.8925
  4.9118   4.9459   4.9757   5.0037   5.0217   5.0641   5.0656   5.1277
  5.1941   5.2093   5.2297   5.2556   5.2730   5.3081   5.3533   5.3533
  5.3775   5.4344   5.4428   5.4531   5.5226   5.5497   5.6457   5.7461
  5.9470   6.3760   6.3914   6.3927   6.4134   6.4988  25.1462  25.4231
 25.4421
 --------------------------------------------------------------
 
 -----------------------------------------------------------------
                    Cartesian Multipole Moments
 -----------------------------------------------------------------
    Charge (ESU x 10^10)
                -0.0000
    Dipole Moment (Debye)
         X      -0.0000      Y       0.0447      Z      -0.0654
       Tot       0.0792
    Quadrupole Moments (Debye-Ang)
        XX     -22.1383     XY      -0.0000     YY     -21.4637
        XZ      -0.0000     YZ       0.5254     ZZ     -21.8697
    Octopole Moments (Debye-Ang^2)
       XXX      -0.0000    XXY      -0.0971    XYY       0.0000
       YYY      -2.5632    XXZ      -2.3710    XYZ       0.0000
       YYZ      -0.0264    XZZ       0.0000    YZZ      -0.1447
       ZZZ      -1.0633
    Hexadecapole Moments (Debye-Ang^3)
      XXXX    -199.0760   XXXY      -0.0004   XXYY     -46.2469
      XYYY      -0.0002   YYYY     -63.2476   XXXZ      -0.0002
      XXYZ       1.6277   XYYZ       0.0000   YYYZ       5.5026
      XXZZ     -40.9996   XYZZ      -0.0000   YYZZ     -20.5294
      XZZZ      -0.0002   YZZZ       4.9175   ZZZZ     -46.9520
 -----------------------------------------------------------------
Archival summary:
1\1\centos77-c1\SP\ProcedureUnspecified\BasisUnspecified\38\shihchen\ThuJul204:18:422020ThuJul204:18:422020\0\\#,ProcedureUnspecified,BasisUnspecified,\\0,1\C\H,1,1.0919\H,1,1.09329,2,106.769\C,1,1.52405,2,102.52,3,-121.984,0\H,4,1.08866,1,117.593,2,40.5117,0\H,4,1.09047,1,111.416,2,-84.9565,0\H,4,1.09507,1,104.235,2,159.687,0\C,1,1.52405,2,102.52,3,121.984,0\H,8,1.08866,1,117.593,2,-40.5151,0\H,8,1.09047,1,111.416,2,84.9529,0\H,8,1.09507,1,104.235,2,-159.691,0\\\@

 Total job time:  26.79s(wall), 73.25s(cpu) 
 Thu Jul  2 04:18:42 2020

        *************************************************************
        *                                                           *
        *  Thank you very much for using Q-Chem.  Have a nice day.  *
        *                                                           *
        *************************************************************


