                  Welcome to Q-Chem
     A Quantum Leap Into The Future Of Chemistry


 Q-Chem 5.3 (devel), Q-Chem, Inc., Pleasanton, CA (2020)

 Yihan Shao,  Zhengting Gan,  E. Epifanovsky,  A. T. B. Gilbert,  M. Wormit,  
 J. Kussmann,  A. W. Lange,  A. Behn,  Jia Deng,  Xintian Feng,  D. Ghosh,  
 M. Goldey,  P. R. Horn,  L. D. Jacobson,  I. Kaliman,  T. Kus,  A. Landau,  
 Jie Liu,  E. I. Proynov,  R. M. Richard,  R. P. Steele,  E. J. Sundstrom,  
 H. L. Woodcock III,  P. M. Zimmerman,  D. Zuev,  B. Alam,  B. Albrecht,  
 E. Alguire,  S. A. Baeppler,  D. Barton,  Z. Benda,  Y. A. Bernard,  
 E. J. Berquist,  K. B. Bravaya,  H. Burton,  K. Carter-Fenk,  D. Casanova,  
 Chun-Min Chang,  Yunqing Chen,  A. Chien,  K. D. Closser,  M. P. Coons,  
 S. Coriani,  S. Dasgupta,  A. L. Dempwolff,  M. Diedenhofen,  Hainam Do,  
 R. G. Edgar,  Po-Tung Fang,  S. Faraji,  S. Fatehi,  Qingguo Feng,  
 J. Fosso-Tande,  J. Gayvert,  Qinghui Ge,  A. Ghysels,  G. Gidofalvi,  
 J. Gomes,  J. Gonthier,  A. Gunina,  D. Hait,  M. W. D. Hanson-Heine,  
 P. H. P. Harbach,  A. W. Hauser,  M. F. Herbst,  J. E. Herr,  
 E. G. Hohenstein,  Z. C. Holden,  Kerwin Hui,  B. C. Huynh,  T.-C. Jagau,  
 Hyunjun Ji,  B. Kaduk,  K. Khistyaev,  Jaehoon Kim,  P. Klunzinger,  K. Koh,  
 D. Kosenkov,  L. Koulias,  T. Kowalczyk,  C. M. Krauter,  A. Kunitsa,  
 Ka Un Lao,  A. Laurent,  K. V. Lawler,  Joonho Lee,  D. Lefrancois,  
 S. Lehtola,  D. S. Levine,  Yi-Pei Li,  You-Sheng Lin,  Fenglai Liu,  
 Kuan-Yu Liu,  E. Livshits,  M. Loipersberger,  A. Luenser,  P. Manohar,  
 E. Mansoor,  S. F. Manzer,  Shan-Ping Mao,  Yuezhi Mao,  N. Mardirossian,  
 A. V. Marenich,  T. Markovich,  L. A. Martinez-Martinez,  S. A. Maurer,  
 N. J. Mayhall,  S. C. McKenzie,  J.-M. Mewes,  P. Morgante,  A. F. Morrison,  
 J. W. Mullinax,  K. Nanda,  T. S. Nguyen-Beck,  R. Olivares-Amaya,  
 K. J. Oosterbaan,  J. A. Parkhill,  S. K. Paul,  F. Pavosevic,  Zheng Pei,  
 T. M. Perrine,  F. Plasser,  P. Pokhilko,  S. Prager,  A. Prociuk,  
 E. Ramos,  B. Rana,  D. R. Rehn,  F. Rob,  M. Scheurer,  M. Schneider,  
 N. Sergueev,  S. M. Sharada,  S. Sharma,  D. W. Small,  T. Stauch,  
 C. J. Stein,  T. Stein,  Yu-Chuan Su,  S. P. Veccham,  Zhen Tao,  
 A. J. W. Thom,  A. Tkatchenko,  T. Tsuchimochi,  N. M. Tubman,  L. Vogt,  
 M. L. Vidal,  O. Vydrov,  M. A. Watson,  J. Wenzel,  M. de Wergifosse,  
 T. A. Wesolowski,  A. White,  J. Witte,  A. Yamada,  Jun Yang,  K. Yao,  
 S. Yeganeh,  S. R. Yost,  Zhi-Qiang You,  A. Zech,  Igor Ying Zhang,  
 Xing Zhang,  Yan Zhao,  Ying Zhu,  B. R. Brooks,  G. K. L. Chan,  
 C. J. Cramer,  M. S. Gordon,  W. J. Hehre,  A. Klamt,  M. W. Schmidt,  
 C. D. Sherrill,  D. G. Truhlar,  A. Aspuru-Guzik,  R. Baer,  A. T. Bell,  
 N. A. Besley,  Jeng-Da Chai,  A. E. DePrince, III,  R. A. DiStasio Jr.,  
 A. Dreuw,  B. D. Dunietz,  T. R. Furlani,  Chao-Ping Hsu,  Yousung Jung,  
 Jing Kong,  D. S. Lambrecht,  WanZhen Liang,  C. Ochsenfeld,  
 V. A. Rassolov,  L. V. Slipchenko,  J. E. Subotnik,  T. Van Voorhis,  
 J. M. Herbert,  A. I. Krylov,  P. M. W. Gill,  M. Head-Gordon

 Contributors to earlier versions of Q-Chem not listed above: 
 R. D. Adamson,  B. Austin,  J. Baker,  G. J. O. Beran,  K. Brandhorst,  
 S. T. Brown,  E. F. C. Byrd,  A. K. Chakraborty,  C.-L. Cheng,  
 Siu Hung Chien,  D. M. Chipman,  D. L. Crittenden,  H. Dachsel,  
 R. J. Doerksen,  A. D. Dutoi,  L. Fusti-Molnar,  W. A. Goddard III,  
 A. Golubeva-Zadorozhnaya,  S. R. Gwaltney,  G. Hawkins,  A. Heyden,  
 S. Hirata,  G. Kedziora,  F. J. Keil,  C. Kelley,  Jihan Kim,  R. A. King,  
 R. Z. Khaliullin,  P. P. Korambath,  W. Kurlancheek,  A. M. Lee,  M. S. Lee,  
 S. V. Levchenko,  Ching Yeh Lin,  D. Liotard,  R. C. Lochan,  I. Lotan,  
 P. E. Maslen,  N. Nair,  D. P. O'Neill,  D. Neuhauser,  E. Neuscamman,  
 C. M. Oana,  R. Olson,  B. Peters,  R. Peverati,  P. A. Pieniazek,  
 Y. M. Rhee,  J. Ritchie,  M. A. Rohrdanz,  E. Rosta,  N. J. Russ,  
 H. F. Schaefer III,  N. E. Schultz,  N. Shenvi,  A. C. Simmonett,  A. Sodt,  
 D. Stuck,  K. S. Thanthiriwatte,  V. Vanovschi,  Tao Wang,  A. Warshel,  
 C. F. Williams,  Q. Wu,  X. Xu,  W. Zhang

 Please cite Q-Chem as follows:
 Y. Shao et al., Mol. Phys. 113, 184-215 (2015)
 DOI: 10.1080/00268976.2014.952696

 Q-Chem 5.3.0 for Intel X86 EM64T Linux

 Parts of Q-Chem use Armadillo 9.800.1 (Horizon Scraper).
 http://arma.sourceforge.net/

 Q-Chem begins on Thu Jul  2 03:52:25 2020  

Host: centos77-c1
0

     Scratch files written to /tmp/26650.centos77-h1/qchem70364//
Processing $rem in /opt/qchem-5.3.0-intel2020u1//config/preferences:
Processing $rem in /home/shihchengli/.qchemrc:

Checking the input file for inconsistencies... 	...done.

--------------------------------------------------------------
User input:
--------------------------------------------------------------
$rem
   JOBTYPE  sp
   EXCHANGE   omegaB97X-D
   BASIS   6-311+G(2df,2pd)
   max_scf_cycles   250
   geom_opt_max_cycles   1500
   basis2 6-31G*
   scf_algorithm rca_diis
   SYM_IGNORE  TRUE
   print_input   true
   geom_opt_dmax   80
   pop_mulliken false
   XC_GRID 000075000302
$end

$molecule
0 1
C       0.8373858747     -0.9509478064     0.2540415231
C       0.0000085166     0.0000189620     -0.5928217325
H       0.2619724598     -1.1953072430     1.1414797148
H       1.7963280629     -0.5308999375     0.5857975851
H       1.0352377612     -1.8863300028     -0.2703979531
C       -0.8373959883     0.9509295884     0.2540782252
H       -0.5108246344     -0.7131688823     -1.2441029118
H       0.5108624944     0.7132523078     -1.2440385737
H       -1.7962692045     0.5308027782     0.5859286567
H       -1.0353706716     1.8862760792     -0.2703788370
H       -0.2619347315     1.1953748223     1.1414593222
$end
--------------------------------------------------------------
 ----------------------------------------------------------------
             Standard Nuclear Orientation (Angstroms)
    I     Atom           X                Y                Z
 ----------------------------------------------------------------
    1      C       0.8373858747    -0.9509478064     0.2540415231
    2      C       0.0000085166     0.0000189620    -0.5928217325
    3      H       0.2619724598    -1.1953072430     1.1414797148
    4      H       1.7963280629    -0.5308999375     0.5857975851
    5      H       1.0352377612    -1.8863300028    -0.2703979531
    6      C      -0.8373959883     0.9509295884     0.2540782252
    7      H      -0.5108246344    -0.7131688823    -1.2441029118
    8      H       0.5108624944     0.7132523078    -1.2440385737
    9      H      -1.7962692045     0.5308027782     0.5859286567
   10      H      -1.0353706716     1.8862760792    -0.2703788370
   11      H      -0.2619347315     1.1953748223     1.1414593222
 ----------------------------------------------------------------
 Nuclear Repulsion Energy =          82.83353764 hartrees
 There are       13 alpha and       13 beta electrons
 Requested basis set is 6-311+G(2df,2pd)
 There are 72 shells and 214 basis functions

 Total QAlloc Memory Limit   2000 MB
 Mega-Array Size       188 MB
 MEM_STATIC part       192 MB

                       Distance Matrix (Angstroms)
             C (  1)   C (  2)   H (  3)   H (  4)   H (  5)   C (  6)
   C (  2)  1.524046
   H (  3)  1.085522  2.122553
   H (  4)  1.098213  2.213093  1.761950
   H (  5)  1.090469  2.175769  1.751813  1.774689
   C (  6)  2.534173  1.524046  2.569518  3.040125  3.439749
   H (  7)  2.029445  1.092591  2.553562  2.950375  2.171340  2.262834
   H (  8)  2.262835  1.092592  3.065166  2.559030  2.825026  2.029445
   H (  9)  3.040045  2.213097  2.743073  3.746194  3.820112  1.098212
   H ( 10)  3.439778  2.175763  3.629408  3.820248  4.303484  1.090469
   H ( 11)  2.569575  2.122551  2.447415  2.743215  3.629449  1.085520
             H (  7)   H (  8)   H (  9)   H ( 10)
   H (  8)  1.754572
   H (  9)  2.559072  2.950411
   H ( 10)  2.824960  2.171367  1.774693
   H ( 11)  3.065190  2.553480  1.761946  1.751809
 
 A cutoff of  1.0D-09 yielded   2533 shell pairs
 There are     22491 function pairs (     27651 Cartesian)
 Smallest overlap matrix eigenvalue = 9.29E-05

 Scale SEOQF with 1.000000e-01/1.000000e-01/1.000000e-01

 Standard Electronic Orientation quadrupole field applied
 Nucleus-field energy     =     0.0000000012 hartrees
 Requested basis set is 6-31G(d)
 There are 28 shells and 58 basis functions
 A cutoff of  1.0D-09 yielded    402 shell pairs
 There are      1773 function pairs (      1968 Cartesian)
 Smallest overlap matrix eigenvalue = 6.58E-03
 Guess from superposition of atomic densities
 Warning:  Energy on first SCF cycle will be non-variational
 SAD guess density has 26.000000 electrons
 Long-range K will be added via erf
 Coulomb attenuation parameter = 0.2 bohr**(-1)
 A restricted hybrid HF-DFT SCF calculation will be
 performed using Relaxed Constraint Minimization + Pulay DIIS
 Exchange:     0.2220 Hartree-Fock + 1.0000 wB97X-D + LR-HF
 Correlation:  1.0000 wB97X-D
 Using Euler-Maclaurin-Lebedev (75,302) quadrature formula
 Dispersion:   Grimme D
 SCF converges when DIIS error is below 1.0E-04
 using 3 threads for integral computing
 -------------------------------------------------------
 OpenMP Integral computing Module                
 Release: version 1.0, May 2013, Q-Chem Inc. Pittsburgh 
 -------------------------------------------------------
 using 3 threads for integral computing
 -------------------------------------------------------
 OpenMP Integral computing Module                
 Release: version 1.0, May 2013, Q-Chem Inc. Pittsburgh 
 -------------------------------------------------------
 ---------------------------------------
  Cycle       Energy         DIIS Error
 ---------------------------------------
    1    -119.6328125274      1.01E-01
    2    -119.0532867053      9.02E-03
    3    -119.0744659279      2.48E-03
    4    -119.0883603295      1.71E-03
    5    -119.0890752280      2.70E-04 Done RCA. Switching to DIIS
    6    -119.0895997305      2.00E-04
    7    -119.0896171166      4.67E-06 Convergence criterion met
 ---------------------------------------
 SCF time:  CPU 21.92 s  wall 8.42 s
 SCF   energy in the small basis set = -119.08961712
 Total energy in the small basis set = -119.08961712
 ----------------------------------------------------
  Cycle       Energy    
 ----------------------------------------------------
    1     -16.5428994589     -1.65E+01
 Long-range K will be added via erf
 Coulomb attenuation parameter = 0.2 bohr**(-1)
 A restricted hybrid HF-DFT SCF calculation will be
 performed using Relaxed Constraint Minimization + Pulay DIIS
 Exchange:     0.2220 Hartree-Fock + 1.0000 wB97X-D + LR-HF
 Correlation:  1.0000 wB97X-D
 Using Euler-Maclaurin-Lebedev (75,302) quadrature formula
 Dispersion:   Grimme D
 SCF converges when DIIS error is below 1.0E-05
 Basis2 calculation detected. Using small basis as guess for larger.
 SCFMinFind is unable to tell whether the solution found is close.
 Resetting ReadMinima to 0 and attempting to follow guess.
 SCFMinFind following SCF Guess.
 using 3 threads for integral computing
 -------------------------------------------------------
 OpenMP Integral computing Module                
 Release: version 1.0, May 2013, Q-Chem Inc. Pittsburgh 
 -------------------------------------------------------
 using 3 threads for integral computing
 -------------------------------------------------------
 OpenMP Integral computing Module                
 Release: version 1.0, May 2013, Q-Chem Inc. Pittsburgh 
 -------------------------------------------------------
 ---------------------------------------
  Cycle       Energy         DIIS Error
 ---------------------------------------
    1    -119.1091715669      4.21E-03
    2    -119.1312285163      6.04E-04 Done RCA. Switching to DIIS
    3    -119.1320743539      4.26E-04
    4    -119.1330698705      4.56E-05
    5    -119.1330848261      1.06E-05
    6    -119.1330855765      4.10E-06 Convergence criterion met
 ---------------------------------------
 SCF time:  CPU 51.89 s  wall 17.63 s
 SCF   energy in the final basis set = -119.13308558
 Total energy in the final basis set = -119.13308558
 
 --------------------------------------------------------------
 
                    Orbital Energies (a.u.)
 --------------------------------------------------------------
 
 Alpha MOs
 -- Occupied --
-10.2728 -10.2655 -10.2655  -0.8829  -0.7782  -0.6779  -0.5467  -0.5287
 -0.4803  -0.4676  -0.4238  -0.4141  -0.3949
 -- Virtual --
  0.0696   0.0866   0.0907   0.1003   0.1228   0.1314   0.1319   0.1388
  0.1456   0.1692   0.1735   0.1918   0.2183   0.2362   0.2454   0.2498
  0.2887   0.3124   0.3194   0.3223   0.3317   0.3382   0.4641   0.4695
  0.4795   0.4933   0.5181   0.5241   0.5386   0.5522   0.5866   0.5894
  0.6065   0.6161   0.6315   0.6401   0.6505   0.6591   0.6995   0.7127
  0.7231   0.7688   0.7858   0.8867   0.8868   0.8950   0.9584   0.9802
  1.0107   1.0489   1.0860   1.1244   1.1303   1.1358   1.1627   1.2049
  1.2116   1.2466   1.2643   1.2905   1.3183   1.3243   1.3615   1.3680
  1.3788   1.3815   1.4207   1.4350   1.4530   1.4605   1.4678   1.5178
  1.5269   1.5431   1.5691   1.5999   1.6443   1.6520   1.6587   1.6779
  1.6980   2.3296   2.3475   2.4345   2.5007   2.5593   2.5831   2.6722
  2.6977   2.6991   2.7471   2.8272   2.8329   2.9152   2.9278   2.9422
  2.9629   2.9865   2.9871   3.0504   3.0636   3.0782   3.0970   3.0974
  3.1210   3.1481   3.1541   3.1710   3.1886   3.2705   3.2713   3.2953
  3.3237   3.3329   3.3399   3.3529   3.3629   3.3851   3.4023   3.4192
  3.4423   3.4863   3.5342   3.5666   3.5840   3.5907   3.5945   3.6326
  3.6338   3.6624   3.6719   3.6728   3.7561   3.7775   3.7864   3.8580
  3.8835   3.8868   3.9456   3.9473   3.9802   4.0125   4.0356   4.0458
  4.1014   4.1026   4.1193   4.1620   4.1648   4.1908   4.2159   4.2216
  4.2385   4.2497   4.3132   4.3468   4.3741   4.4097   4.4196   4.4596
  4.4819   4.4962   4.5359   4.6534   4.6877   4.7491   4.8315   4.9124
  4.9601   4.9704   4.9772   4.9995   5.0052   5.0343   5.1103   5.1422
  5.1628   5.1817   5.2146   5.2533   5.2621   5.3047   5.3432   5.3582
  5.3824   5.4034   5.4450   5.4555   5.4802   5.6091   5.6628   5.7029
  6.0184   6.3474   6.3642   6.4045   6.4388   6.5075  25.1350  25.4001
 25.4775
 --------------------------------------------------------------
 
 -----------------------------------------------------------------
                    Cartesian Multipole Moments
 -----------------------------------------------------------------
    Charge (ESU x 10^10)
                -0.0000
    Dipole Moment (Debye)
         X       0.0000      Y       0.0000      Z      -0.0459
       Tot       0.0459
    Quadrupole Moments (Debye-Ang)
        XX     -22.1270     XY       0.4237     YY     -21.3774
        XZ      -0.0000     YZ       0.0000     ZZ     -21.9624
    Octopole Moments (Debye-Ang^2)
       XXX       0.0002    XXY       0.0000    XYY      -0.0001
       YYY       0.0000    XXZ       0.4705    XYZ       0.5388
       YYZ      -1.7875    XZZ      -0.0001    YZZ      -0.0000
       ZZZ       0.2855
    Hexadecapole Moments (Debye-Ang^3)
      XXXX    -110.7291   XXXY      40.8597   XXYY     -42.2956
      XYYY      38.1564   YYYY    -132.8091   XXXZ       0.0009
      XXYZ      -0.0003   XYYZ       0.0005   YYYZ      -0.0002
      XXZZ     -31.2041   XYZZ      14.1231   YYZZ     -32.9151
      XZZZ       0.0010   YZZZ      -0.0003   ZZZZ     -71.4477
 -----------------------------------------------------------------
Archival summary:
1\1\centos77-c1\SP\ProcedureUnspecified\BasisUnspecified\38\shihchen\ThuJul203:52:542020ThuJul203:52:542020\0\\#,ProcedureUnspecified,BasisUnspecified,\\0,1\C\H,1,1.09259\H,1,1.09259,2,106.824\C,1,1.52405,2,100.417,3,-124.554,0\H,4,1.08552,1,107.667,2,-92.3036,0\H,4,1.09047,1,111.573,2,25.101,0\H,4,1.09821,1,114.14,2,148.352,0\C,1,1.52405,2,118.791,3,112.44,0\H,8,1.08552,1,107.667,2,151.806,0\H,8,1.09047,1,111.572,2,-90.7905,0\H,8,1.09821,1,114.14,2,32.4614,0\\\@

 Total job time:  28.99s(wall), 77.44s(cpu) 
 Thu Jul  2 03:52:54 2020

        *************************************************************
        *                                                           *
        *  Thank you very much for using Q-Chem.  Have a nice day.  *
        *                                                           *
        *************************************************************


