                  Welcome to Q-Chem
     A Quantum Leap Into The Future Of Chemistry


 Q-Chem 5.2 (devel), Q-Chem, Inc., Pleasanton, CA (2019)

 Yihan Shao,  Zhengting Gan,  E. Epifanovsky,  A. T. B. Gilbert,  M. Wormit,  
 J. Kussmann,  A. W. Lange,  A. Behn,  Jia Deng,  Xintian Feng,  D. Ghosh,  
 M. Goldey,  P. R. Horn,  L. D. Jacobson,  I. Kaliman,  T. Kus,  A. Landau,  
 Jie Liu,  E. I. Proynov,  R. M. Richard,  R. P. Steele,  E. J. Sundstrom,  
 H. L. Woodcock III,  P. M. Zimmerman,  D. Zuev,  B. Alam,  B. Albrecht,  
 E. Alguire,  S. A. Baeppler,  D. Barton,  Z. Benda,  Y. A. Bernard,  
 E. J. Berquist,  K. B. Bravaya,  H. Burton,  K. Carter-Fenk,  D. Casanova,  
 Chun-Min Chang,  Yunqing Chen,  A. Chien,  K. D. Closser,  M. P. Coons,  
 S. Coriani,  S. Dasgupta,  A. L. Dempwolff,  M. Diedenhofen,  Hainam Do,  
 R. G. Edgar,  Po-Tung Fang,  S. Faraji,  S. Fatehi,  Qingguo Feng,  
 J. Fosso-Tande,  J. Gayvert,  Qinghui Ge,  A. Ghysels,  G. Gidofalvi,  
 J. Gomes,  J. Gonthier,  A. Gunina,  D. Hait,  M. W. D. Hanson-Heine,  
 P. H. P. Harbach,  A. W. Hauser,  M. F. Herbst,  J. E. Herr,  
 E. G. Hohenstein,  Z. C. Holden,  Kerwin Hui,  B. C. Huynh,  T.-C. Jagau,  
 Hyunjun Ji,  B. Kaduk,  K. Khistyaev,  Jaehoon Kim,  P. Klunzinger,  K. Koh,  
 D. Kosenkov,  L. Koulias,  T. Kowalczyk,  C. M. Krauter,  A. Kunitsa,  
 Ka Un Lao,  A. Laurent,  K. V. Lawler,  Joonho Lee,  D. Lefrancois,  
 S. Lehtola,  D. S. Levine,  Yi-Pei Li,  You-Sheng Lin,  Fenglai Liu,  
 Kuan-Yu Liu,  E. Livshits,  M. Loipersberger,  A. Luenser,  P. Manohar,  
 E. Mansoor,  S. F. Manzer,  Shan-Ping Mao,  Yuezhi Mao,  N. Mardirossian,  
 A. V. Marenich,  T. Markovich,  L. A. Martinez-Martinez,  S. A. Maurer,  
 N. J. Mayhall,  S. C. McKenzie,  J.-M. Mewes,  P. Morgante,  A. F. Morrison,  
 J. W. Mullinax,  K. Nanda,  T. S. Nguyen-Beck,  R. Olivares-Amaya,  
 J. A. Parkhill,  S. K. Paul,  Zheng Pei,  T. M. Perrine,  F. Plasser,  
 P. Pokhilko,  S. Prager,  A. Prociuk,  E. Ramos,  B. Rana,  D. R. Rehn,  
 F. Rob,  M. Scheurer,  M. Schneider,  N. Sergueev,  S. M. Sharada,  
 S. Sharma,  D. W. Small,  T. Stauch,  C. J. Stein,  T. Stein,  Yu-Chuan Su,  
 S. P. Veccham,  A. J. W. Thom,  A. Tkatchenko,  T. Tsuchimochi,  
 N. M. Tubman,  L. Vogt,  M. L. Vidal,  O. Vydrov,  M. A. Watson,  J. Wenzel,  
 M. de Wergifosse,  T. A. Wesolowski,  A. White,  J. Witte,  A. Yamada,  
 Jun Yang,  K. Yao,  S. Yeganeh,  S. R. Yost,  Zhi-Qiang You,  A. Zech,  
 Igor Ying Zhang,  Xing Zhang,  Yan Zhao,  Ying Zhu,  B. R. Brooks,  
 G. K. L. Chan,  C. J. Cramer,  M. S. Gordon,  W. J. Hehre,  A. Klamt,  
 M. W. Schmidt,  C. D. Sherrill,  D. G. Truhlar,  A. Aspuru-Guzik,  R. Baer,  
 A. T. Bell,  N. A. Besley,  Jeng-Da Chai,  A. E. DePrince, III,  
 R. A. DiStasio Jr.,  A. Dreuw,  B. D. Dunietz,  T. R. Furlani,  
 Chao-Ping Hsu,  Yousung Jung,  Jing Kong,  D. S. Lambrecht,  WanZhen Liang,  
 C. Ochsenfeld,  V. A. Rassolov,  L. V. Slipchenko,  J. E. Subotnik,  
 T. Van Voorhis,  J. M. Herbert,  A. I. Krylov,  P. M. W. Gill,  M. Head-Gordon

 Contributors to earlier versions of Q-Chem not listed above: 
 R. D. Adamson,  B. Austin,  J. Baker,  G. J. O. Beran,  K. Brandhorst,  
 S. T. Brown,  E. F. C. Byrd,  A. K. Chakraborty,  C.-L. Cheng,  
 Siu Hung Chien,  D. M. Chipman,  D. L. Crittenden,  H. Dachsel,  
 R. J. Doerksen,  A. D. Dutoi,  L. Fusti-Molnar,  W. A. Goddard III,  
 A. Golubeva-Zadorozhnaya,  S. R. Gwaltney,  G. Hawkins,  A. Heyden,  
 S. Hirata,  G. Kedziora,  F. J. Keil,  C. Kelley,  Jihan Kim,  R. A. King,  
 R. Z. Khaliullin,  P. P. Korambath,  W. Kurlancheek,  A. M. Lee,  M. S. Lee,  
 S. V. Levchenko,  Ching Yeh Lin,  D. Liotard,  R. C. Lochan,  I. Lotan,  
 P. E. Maslen,  N. Nair,  D. P. O'Neill,  D. Neuhauser,  E. Neuscamman,  
 C. M. Oana,  R. Olson,  B. Peters,  R. Peverati,  P. A. Pieniazek,  
 Y. M. Rhee,  J. Ritchie,  M. A. Rohrdanz,  E. Rosta,  N. J. Russ,  
 H. F. Schaefer III,  N. E. Schultz,  N. Shenvi,  A. C. Simmonett,  A. Sodt,  
 D. Stuck,  K. S. Thanthiriwatte,  V. Vanovschi,  Tao Wang,  A. Warshel,  
 C. F. Williams,  Q. Wu,  X. Xu,  W. Zhang

 Please cite Q-Chem as follows:
 Y. Shao et al., Mol. Phys. 113, 184-215 (2015)
 DOI: 10.1080/00268976.2014.952696

 Q-Chem 5.2.2 for Intel X86 EM64T Linux

 Parts of Q-Chem use Armadillo 9.800.1 (Horizon Scraper).
 http://arma.sourceforge.net/

 Q-Chem begins on Sun Apr 12 13:39:48 2020  

Host: cn0909
0

     Scratch files written to /tmp/ypli/6724609.srvc1/qchem74172//
Warning:  Did not find "$end" marker in "$molecule" section

Checking the input file for inconsistencies... 	...done.

--------------------------------------------------------------
User input:
--------------------------------------------------------------
$rem
   JOBTYPE  sp
   EXCHANGE   omegaB97X-D
   BASIS   6-311+G(2df,2pd)
   max_scf_cycles   250
   geom_opt_max_cycles   1500
   basis2 6-31G*
   scf_algorithm rca_diis
   SYM_IGNORE  TRUE
   print_input   true
   geom_opt_dmax   80
   pop_mulliken false
   XC_GRID 000075000302
$end

$molecule
0 1
C       1.2560915525     0.2470518912     -0.0236792138
C       -0.0000034294     -0.5894041797     0.1891564460
H       1.6116724088     0.4696376874     -1.0266540155
H       2.0107642117     -0.3739401413     0.4736599209
H       1.2034043996     1.1846664357     0.5306301582
C       -1.2560906374     0.2470602696     -0.0236882058
H       -0.0000082585     -1.3258656085     0.9976239066
H       -0.0000017340     -1.1396178574     -0.7536060183
H       -1.6117004908     0.4695726906     -1.0266698574
H       -1.2033676056     1.1847162986     0.5305467898
H       -2.0107604776     -0.3738768202     0.4737251081
--------------------------------------------------------------
 ----------------------------------------------------------------
             Standard Nuclear Orientation (Angstroms)
    I     Atom           X                Y                Z
 ----------------------------------------------------------------
    1      C       1.2560915525     0.2470518912    -0.0236792138
    2      C      -0.0000034294    -0.5894041797     0.1891564460
    3      H       1.6116724088     0.4696376874    -1.0266540155
    4      H       2.0107642117    -0.3739401413     0.4736599209
    5      H       1.2034043996     1.1846664357     0.5306301582
    6      C      -1.2560906374     0.2470602696    -0.0236882058
    7      H      -0.0000082585    -1.3258656085     0.9976239066
    8      H      -0.0000017340    -1.1396178574    -0.7536060183
    9      H      -1.6117004908     0.4695726906    -1.0266698574
   10      H      -1.2033676056     1.1847162986     0.5305467898
   11      H      -2.0107604776    -0.3738768202     0.4737251081
 ----------------------------------------------------------------
 Nuclear Repulsion Energy =          82.90074492 hartrees
 There are       13 alpha and       13 beta electrons
 Requested basis set is 6-311+G(2df,2pd)
 There are 72 shells and 214 basis functions

 Total QAlloc Memory Limit   2000 MB
 Mega-Array Size       188 MB
 MEM_STATIC part       192 MB

                       Distance Matrix (Angstroms)
             C (  1)   C (  2)   H (  3)   H (  4)   H (  5)   C (  6)
   C (  2)  1.524051
   H (  3)  1.087171  2.279751
   H (  4)  1.096589  2.042193  1.766873
   H (  5)  1.090484  2.170742  1.761557  1.756226
   C (  6)  2.512182  1.524051  3.046235  3.362341  2.689887
   H (  7)  2.257192  1.093616  3.149452  2.285587  2.822952  2.257192
   H (  8)  2.008337  1.091575  2.293851  2.477019  2.915432  2.008337
   H (  9)  3.046266  2.279744  3.223373  4.010580  3.295657  1.087172
   H ( 10)  2.689855  2.170746  3.295552  3.572575  2.406772  1.090484
   H ( 11)  3.362333  2.042199  4.010570  4.021525  3.572555  1.096590
             H (  7)   H (  8)   H (  9)   H ( 10)
   H (  8)  1.761106
   H (  9)  3.149431  2.293825
   H ( 10)  2.822987  2.915419  1.761559
   H ( 11)  2.285580  2.477065  1.766873  1.756224
 
 A cutoff of  1.0D-09 yielded   2522 shell pairs
 There are     22468 function pairs (     27647 Cartesian)
 Smallest overlap matrix eigenvalue = 8.60E-05

 Scale SEOQF with 1.000000e-01/1.000000e-01/1.000000e-01

 Standard Electronic Orientation quadrupole field applied
 Nucleus-field energy     =     0.0000000014 hartrees
 Requested basis set is 6-31G(d)
 There are 28 shells and 58 basis functions
 A cutoff of  1.0D-09 yielded    403 shell pairs
 There are      1774 function pairs (      1969 Cartesian)
 Smallest overlap matrix eigenvalue = 5.87E-03
 Guess from superposition of atomic densities
 Warning:  Energy on first SCF cycle will be non-variational
 SAD guess density has 26.000000 electrons
 Long-range K will be added via erf
 Coulomb attenuation parameter = 0.2 bohr**(-1)
 A restricted hybrid HF-DFT SCF calculation will be
 performed using Relaxed Constraint Minimization + Pulay DIIS
 Exchange:     0.2220 Hartree-Fock + 1.0000 wB97X-D + LR-HF
 Correlation:  1.0000 wB97X-D
 Using Euler-Maclaurin-Lebedev (75,302) quadrature formula
 Dispersion:   Grimme D
 SCF converges when DIIS error is below 1.0E-04
 using 3 threads for integral computing
 -------------------------------------------------------
 OpenMP Integral computing Module                
 Release: version 1.0, May 2013, Q-Chem Inc. Pittsburgh 
 -------------------------------------------------------
 using 3 threads for integral computing
 -------------------------------------------------------
 OpenMP Integral computing Module                
 Release: version 1.0, May 2013, Q-Chem Inc. Pittsburgh 
 -------------------------------------------------------
 ---------------------------------------
  Cycle       Energy         DIIS Error
 ---------------------------------------
    1    -119.6424469785      1.01E-01
    2    -119.0382042884      9.20E-03
    3    -119.0600358617      2.46E-03
    4    -119.0746558947      1.68E-03
    5    -119.0753502757      2.64E-04 Done RCA. Switching to DIIS
    6    -119.0758617717      1.95E-04
    7    -119.0758782169      5.44E-06 Convergence criterion met
 ---------------------------------------
 SCF time:  CPU 26.49 s  wall 9.07 s
 SCF   energy in the small basis set = -119.07587822
 Total energy in the small basis set = -119.07587822
 ----------------------------------------------------
  Cycle       Energy    
 ----------------------------------------------------
    1     -16.5437446740     -1.65E+01
 Long-range K will be added via erf
 Coulomb attenuation parameter = 0.2 bohr**(-1)
 A restricted hybrid HF-DFT SCF calculation will be
 performed using Relaxed Constraint Minimization + Pulay DIIS
 Exchange:     0.2220 Hartree-Fock + 1.0000 wB97X-D + LR-HF
 Correlation:  1.0000 wB97X-D
 Using Euler-Maclaurin-Lebedev (75,302) quadrature formula
 Dispersion:   Grimme D
 SCF converges when DIIS error is below 1.0E-05
 Basis2 calculation detected. Using small basis as guess for larger.
 SCFMinFind is unable to tell whether the solution found is close.
 Resetting ReadMinima to 0 and attempting to follow guess.
 SCFMinFind following SCF Guess.
 using 3 threads for integral computing
 -------------------------------------------------------
 OpenMP Integral computing Module                
 Release: version 1.0, May 2013, Q-Chem Inc. Pittsburgh 
 -------------------------------------------------------
 using 3 threads for integral computing
 -------------------------------------------------------
 OpenMP Integral computing Module                
 Release: version 1.0, May 2013, Q-Chem Inc. Pittsburgh 
 -------------------------------------------------------
 ---------------------------------------
  Cycle       Energy         DIIS Error
 ---------------------------------------
    1    -119.0956987682      4.21E-03
    2    -119.1177668467      6.17E-04 Done RCA. Switching to DIIS
    3    -119.1186260743      4.39E-04
    4    -119.1196811094      4.55E-05
    5    -119.1196961237      9.33E-06 Convergence criterion met
 ---------------------------------------
 SCF time:  CPU 70.41 s  wall 24.07 s
 SCF   energy in the final basis set = -119.11969612
 Total energy in the final basis set = -119.11969612
 
 --------------------------------------------------------------
 
                    Orbital Energies (a.u.)
 --------------------------------------------------------------
 
 Alpha MOs
 -- Occupied --
-10.2749 -10.2632 -10.2632  -0.8842  -0.7778  -0.6769  -0.5473  -0.5210
 -0.4967  -0.4633  -0.4378  -0.3934  -0.3873
 -- Virtual --
  0.0693   0.0872   0.0895   0.0978   0.1233   0.1292   0.1337   0.1345
  0.1445   0.1689   0.1731   0.1917   0.2117   0.2386   0.2431   0.2772
  0.2827   0.3000   0.3059   0.3152   0.3373   0.3558   0.4552   0.4729
  0.4772   0.5027   0.5132   0.5138   0.5254   0.5509   0.5808   0.6016
  0.6113   0.6192   0.6315   0.6447   0.6582   0.6741   0.6948   0.7115
  0.7287   0.7500   0.8721   0.8832   0.8983   0.9060   0.9327   0.9701
  0.9711   1.0018   1.0691   1.1161   1.1422   1.2049   1.2055   1.2258
  1.2306   1.2535   1.2584   1.2596   1.3199   1.3203   1.3436   1.3504
  1.3617   1.4044   1.4401   1.4545   1.4553   1.4700   1.4792   1.4972
  1.5182   1.5350   1.5572   1.5963   1.6301   1.6495   1.6713   1.6753
  1.7041   2.3649   2.4096   2.4446   2.4630   2.5437   2.6107   2.6200
  2.6635   2.6785   2.8125   2.8193   2.8746   2.9100   2.9152   2.9214
  2.9559   2.9895   3.0269   3.0291   3.0621   3.0695   3.0705   3.1046
  3.1226   3.1408   3.1880   3.1900   3.2024   3.2444   3.2488   3.2842
  3.3187   3.3267   3.3307   3.3526   3.3855   3.3993   3.4194   3.4499
  3.4716   3.4841   3.5379   3.5559   3.5773   3.5859   3.5934   3.6195
  3.6320   3.6673   3.6734   3.7209   3.7389   3.7525   3.7869   3.8037
  3.9118   3.9175   3.9178   3.9261   3.9951   4.0089   4.0231   4.0719
  4.0919   4.0957   4.1189   4.1420   4.1604   4.1984   4.2171   4.2341
  4.2374   4.2824   4.2898   4.3270   4.3369   4.4229   4.4361   4.4545
  4.4727   4.5068   4.5265   4.6525   4.6924   4.8121   4.8501   4.8572
  4.9041   4.9125   4.9543   4.9997   5.0346   5.0833   5.1358   5.1501
  5.1957   5.2007   5.2160   5.2270   5.2617   5.3382   5.3596   5.3970
  5.4338   5.4565   5.4667   5.4821   5.5271   5.5454   5.6521   5.7371
  5.9768   6.3744   6.3783   6.4020   6.4281   6.4908  25.1132  25.4292
 25.4479
 --------------------------------------------------------------
 
 -----------------------------------------------------------------
                    Cartesian Multipole Moments
 -----------------------------------------------------------------
    Charge (ESU x 10^10)
                -0.0000
    Dipole Moment (Debye)
         X       0.0000      Y      -0.2040      Z      -0.0672
       Tot       0.2148
    Quadrupole Moments (Debye-Ang)
        XX     -22.8093     XY       0.0000     YY     -21.6816
        XZ      -0.0000     YZ      -0.5539     ZZ     -21.1045
    Octopole Moments (Debye-Ang^2)
       XXX       0.0000    XXY      -0.4923    XYY       0.0001
       YYY       1.1098    XXZ      -1.8695    XYZ      -0.0000
       YYZ       0.4802    XZZ      -0.0001    YZZ      -0.1083
       ZZZ      -3.8401
    Hexadecapole Moments (Debye-Ang^3)
      XXXX    -210.4514   XXXY       0.0003   XXYY     -45.3111
      XYYY       0.0002   YYYY     -70.1833   XXXZ      -0.0003
      XXYZ      -1.4794   XYYZ      -0.0001   YYYZ       2.4430
      XXZZ     -39.7081   XYZZ       0.0003   YYZZ     -17.7083
      XZZZ      -0.0003   YZZZ       1.8053   ZZZZ     -44.7429
 -----------------------------------------------------------------
Archival summary:
1\1\cn0909\SP\ProcedureUnspecified\BasisUnspecified\38\r0852400\SunApr1213:40:252020SunApr1213:40:252020\0\\#,ProcedureUnspecified,BasisUnspecified,\\0,1\C\H,1,1.09158\H,1,1.09362,2,107.4\C,1,1.52405,2,98.9766,3,-123.447,0\H,4,1.08717,1,120.714,2,-24.4048,0\H,4,1.09048,1,111.168,2,-152.365,0\H,4,1.09659,1,101.132,2,94.5107,0\C,1,1.52405,2,98.9765,3,123.447,0\H,8,1.08717,1,120.715,2,24.41,0\H,8,1.09048,1,111.167,2,152.37,0\H,8,1.09659,1,101.132,2,-94.5057,0\\\@

 Total job time:  37.15s(wall), 101.74s(cpu) 
 Sun Apr 12 13:40:25 2020

        *************************************************************
        *                                                           *
        *  Thank you very much for using Q-Chem.  Have a nice day.  *
        *                                                           *
        *************************************************************


