                  Welcome to Q-Chem
     A Quantum Leap Into The Future Of Chemistry


 Q-Chem 5.3 (devel), Q-Chem, Inc., Pleasanton, CA (2020)

 Yihan Shao,  Zhengting Gan,  E. Epifanovsky,  A. T. B. Gilbert,  M. Wormit,  
 J. Kussmann,  A. W. Lange,  A. Behn,  Jia Deng,  Xintian Feng,  D. Ghosh,  
 M. Goldey,  P. R. Horn,  L. D. Jacobson,  I. Kaliman,  T. Kus,  A. Landau,  
 Jie Liu,  E. I. Proynov,  R. M. Richard,  R. P. Steele,  E. J. Sundstrom,  
 H. L. Woodcock III,  P. M. Zimmerman,  D. Zuev,  B. Alam,  B. Albrecht,  
 E. Alguire,  S. A. Baeppler,  D. Barton,  Z. Benda,  Y. A. Bernard,  
 E. J. Berquist,  K. B. Bravaya,  H. Burton,  K. Carter-Fenk,  D. Casanova,  
 Chun-Min Chang,  Yunqing Chen,  A. Chien,  K. D. Closser,  M. P. Coons,  
 S. Coriani,  S. Dasgupta,  A. L. Dempwolff,  M. Diedenhofen,  Hainam Do,  
 R. G. Edgar,  Po-Tung Fang,  S. Faraji,  S. Fatehi,  Qingguo Feng,  
 J. Fosso-Tande,  J. Gayvert,  Qinghui Ge,  A. Ghysels,  G. Gidofalvi,  
 J. Gomes,  J. Gonthier,  A. Gunina,  D. Hait,  M. W. D. Hanson-Heine,  
 P. H. P. Harbach,  A. W. Hauser,  M. F. Herbst,  J. E. Herr,  
 E. G. Hohenstein,  Z. C. Holden,  Kerwin Hui,  B. C. Huynh,  T.-C. Jagau,  
 Hyunjun Ji,  B. Kaduk,  K. Khistyaev,  Jaehoon Kim,  P. Klunzinger,  K. Koh,  
 D. Kosenkov,  L. Koulias,  T. Kowalczyk,  C. M. Krauter,  A. Kunitsa,  
 Ka Un Lao,  A. Laurent,  K. V. Lawler,  Joonho Lee,  D. Lefrancois,  
 S. Lehtola,  D. S. Levine,  Yi-Pei Li,  You-Sheng Lin,  Fenglai Liu,  
 Kuan-Yu Liu,  E. Livshits,  M. Loipersberger,  A. Luenser,  P. Manohar,  
 E. Mansoor,  S. F. Manzer,  Shan-Ping Mao,  Yuezhi Mao,  N. Mardirossian,  
 A. V. Marenich,  T. Markovich,  L. A. Martinez-Martinez,  S. A. Maurer,  
 N. J. Mayhall,  S. C. McKenzie,  J.-M. Mewes,  P. Morgante,  A. F. Morrison,  
 J. W. Mullinax,  K. Nanda,  T. S. Nguyen-Beck,  R. Olivares-Amaya,  
 K. J. Oosterbaan,  J. A. Parkhill,  S. K. Paul,  F. Pavosevic,  Zheng Pei,  
 T. M. Perrine,  F. Plasser,  P. Pokhilko,  S. Prager,  A. Prociuk,  
 E. Ramos,  B. Rana,  D. R. Rehn,  F. Rob,  M. Scheurer,  M. Schneider,  
 N. Sergueev,  S. M. Sharada,  S. Sharma,  D. W. Small,  T. Stauch,  
 C. J. Stein,  T. Stein,  Yu-Chuan Su,  S. P. Veccham,  Zhen Tao,  
 A. J. W. Thom,  A. Tkatchenko,  T. Tsuchimochi,  N. M. Tubman,  L. Vogt,  
 M. L. Vidal,  O. Vydrov,  M. A. Watson,  J. Wenzel,  M. de Wergifosse,  
 T. A. Wesolowski,  A. White,  J. Witte,  A. Yamada,  Jun Yang,  K. Yao,  
 S. Yeganeh,  S. R. Yost,  Zhi-Qiang You,  A. Zech,  Igor Ying Zhang,  
 Xing Zhang,  Yan Zhao,  Ying Zhu,  B. R. Brooks,  G. K. L. Chan,  
 C. J. Cramer,  M. S. Gordon,  W. J. Hehre,  A. Klamt,  M. W. Schmidt,  
 C. D. Sherrill,  D. G. Truhlar,  A. Aspuru-Guzik,  R. Baer,  A. T. Bell,  
 N. A. Besley,  Jeng-Da Chai,  A. E. DePrince, III,  R. A. DiStasio Jr.,  
 A. Dreuw,  B. D. Dunietz,  T. R. Furlani,  Chao-Ping Hsu,  Yousung Jung,  
 Jing Kong,  D. S. Lambrecht,  WanZhen Liang,  C. Ochsenfeld,  
 V. A. Rassolov,  L. V. Slipchenko,  J. E. Subotnik,  T. Van Voorhis,  
 J. M. Herbert,  A. I. Krylov,  P. M. W. Gill,  M. Head-Gordon

 Contributors to earlier versions of Q-Chem not listed above: 
 R. D. Adamson,  B. Austin,  J. Baker,  G. J. O. Beran,  K. Brandhorst,  
 S. T. Brown,  E. F. C. Byrd,  A. K. Chakraborty,  C.-L. Cheng,  
 Siu Hung Chien,  D. M. Chipman,  D. L. Crittenden,  H. Dachsel,  
 R. J. Doerksen,  A. D. Dutoi,  L. Fusti-Molnar,  W. A. Goddard III,  
 A. Golubeva-Zadorozhnaya,  S. R. Gwaltney,  G. Hawkins,  A. Heyden,  
 S. Hirata,  G. Kedziora,  F. J. Keil,  C. Kelley,  Jihan Kim,  R. A. King,  
 R. Z. Khaliullin,  P. P. Korambath,  W. Kurlancheek,  A. M. Lee,  M. S. Lee,  
 S. V. Levchenko,  Ching Yeh Lin,  D. Liotard,  R. C. Lochan,  I. Lotan,  
 P. E. Maslen,  N. Nair,  D. P. O'Neill,  D. Neuhauser,  E. Neuscamman,  
 C. M. Oana,  R. Olson,  B. Peters,  R. Peverati,  P. A. Pieniazek,  
 Y. M. Rhee,  J. Ritchie,  M. A. Rohrdanz,  E. Rosta,  N. J. Russ,  
 H. F. Schaefer III,  N. E. Schultz,  N. Shenvi,  A. C. Simmonett,  A. Sodt,  
 D. Stuck,  K. S. Thanthiriwatte,  V. Vanovschi,  Tao Wang,  A. Warshel,  
 C. F. Williams,  Q. Wu,  X. Xu,  W. Zhang

 Please cite Q-Chem as follows:
 Y. Shao et al., Mol. Phys. 113, 184-215 (2015)
 DOI: 10.1080/00268976.2014.952696

 Q-Chem 5.3.0 for Intel X86 EM64T Linux

 Parts of Q-Chem use Armadillo 9.800.1 (Horizon Scraper).
 http://arma.sourceforge.net/

 Q-Chem begins on Thu Jul  2 04:15:01 2020  

Host: centos77-c1
0

     Scratch files written to /tmp/26650.centos77-h1/qchem72401//
Processing $rem in /opt/qchem-5.3.0-intel2020u1//config/preferences:
Processing $rem in /home/shihchengli/.qchemrc:

Checking the input file for inconsistencies... 	...done.

--------------------------------------------------------------
User input:
--------------------------------------------------------------
$rem
   JOBTYPE  sp
   EXCHANGE   omegaB97X-D
   BASIS   6-311+G(2df,2pd)
   max_scf_cycles   250
   geom_opt_max_cycles   1500
   basis2 6-31G*
   scf_algorithm rca_diis
   SYM_IGNORE  TRUE
   print_input   true
   geom_opt_dmax   80
   pop_mulliken false
   XC_GRID 000075000302
$end

$molecule
0 1
C       1.2653647254     -0.1298136499     0.2025631521
C       -0.0000006502     0.4273439034     -0.4386428165
H       1.0206341759     -0.3615042262     1.2431016555
H       2.1149032467     0.5530620700     0.2079471814
H       1.5815874107     -1.0575917486     -0.2753000519
C       -1.2653639082     -0.1298198524     0.2025624676
H       0.0000004142     0.0466814018     -1.4623425045
H       -0.0000034968     1.5177022834     -0.5145838821
H       -1.0206270242     -0.3615454261     1.2430913362
H       -1.5816009875     -1.0575799120     -0.2753265965
H       -2.1148939667     0.5530658226     0.2079750775
$end
--------------------------------------------------------------
 ----------------------------------------------------------------
             Standard Nuclear Orientation (Angstroms)
    I     Atom           X                Y                Z
 ----------------------------------------------------------------
    1      C       1.2653647254    -0.1298136499     0.2025631521
    2      C      -0.0000006502     0.4273439034    -0.4386428165
    3      H       1.0206341759    -0.3615042262     1.2431016555
    4      H       2.1149032467     0.5530620700     0.2079471814
    5      H       1.5815874107    -1.0575917486    -0.2753000519
    6      C      -1.2653639082    -0.1298198524     0.2025624676
    7      H       0.0000004142     0.0466814018    -1.4623425045
    8      H      -0.0000034968     1.5177022834    -0.5145838821
    9      H      -1.0206270242    -0.3615454261     1.2430913362
   10      H      -1.5816009875    -1.0575799120    -0.2753265965
   11      H      -2.1148939667     0.5530658226     0.2079750775
 ----------------------------------------------------------------
 Nuclear Repulsion Energy =          82.88956334 hartrees
 There are       13 alpha and       13 beta electrons
 Requested basis set is 6-311+G(2df,2pd)
 There are 72 shells and 214 basis functions

 Total QAlloc Memory Limit   2000 MB
 Mega-Array Size       188 MB
 MEM_STATIC part       192 MB

                       Distance Matrix (Angstroms)
             C (  1)   C (  2)   H (  3)   H (  4)   H (  5)   C (  6)
   C (  2)  1.524047
   H (  3)  1.093752  2.119491
   H (  4)  1.089983  2.215108  1.762215
   H (  5)  1.090469  2.175577  1.762030  1.764131
   C (  6)  2.530729  1.524047  2.522338  3.448560  3.032201
   H (  7)  2.098621  1.092184  2.920229  2.742098  2.264930  2.098621
   H (  8)  2.197673  1.093000  2.768136  2.434217  3.031637  2.197673
   H (  9)  2.522332  2.119494  2.041261  3.426307  3.092170  1.093752
   H ( 10)  3.032217  2.175576  3.092212  4.061018  3.163188  1.090469
   H ( 11)  3.448551  2.215106  3.426290  4.229797  4.061003  1.089983
             H (  7)   H (  8)   H (  9)   H ( 10)
   H (  8)  1.749900
   H (  9)  2.920223  2.768152
   H ( 10)  2.264920  3.031629  1.762030
   H ( 11)  2.742109  2.434210  1.762214  1.764132
 
 A cutoff of  1.0D-09 yielded   2536 shell pairs
 There are     22606 function pairs (     27813 Cartesian)
 Smallest overlap matrix eigenvalue = 8.32E-05

 Scale SEOQF with 1.000000e-01/1.000000e-01/1.000000e-01

 Standard Electronic Orientation quadrupole field applied
 Nucleus-field energy     =     0.0000000009 hartrees
 Requested basis set is 6-31G(d)
 There are 28 shells and 58 basis functions
 A cutoff of  1.0D-09 yielded    402 shell pairs
 There are      1773 function pairs (      1968 Cartesian)
 Smallest overlap matrix eigenvalue = 6.44E-03
 Guess from superposition of atomic densities
 Warning:  Energy on first SCF cycle will be non-variational
 SAD guess density has 26.000000 electrons
 Long-range K will be added via erf
 Coulomb attenuation parameter = 0.2 bohr**(-1)
 A restricted hybrid HF-DFT SCF calculation will be
 performed using Relaxed Constraint Minimization + Pulay DIIS
 Exchange:     0.2220 Hartree-Fock + 1.0000 wB97X-D + LR-HF
 Correlation:  1.0000 wB97X-D
 Using Euler-Maclaurin-Lebedev (75,302) quadrature formula
 Dispersion:   Grimme D
 SCF converges when DIIS error is below 1.0E-04
 using 3 threads for integral computing
 -------------------------------------------------------
 OpenMP Integral computing Module                
 Release: version 1.0, May 2013, Q-Chem Inc. Pittsburgh 
 -------------------------------------------------------
 using 3 threads for integral computing
 -------------------------------------------------------
 OpenMP Integral computing Module                
 Release: version 1.0, May 2013, Q-Chem Inc. Pittsburgh 
 -------------------------------------------------------
 ---------------------------------------
  Cycle       Energy         DIIS Error
 ---------------------------------------
    1    -119.6341349245      1.01E-01
    2    -119.0562531651      9.02E-03
    3    -119.0773482266      2.46E-03
    4    -119.0912151771      1.69E-03
    5    -119.0919179577      2.66E-04 Done RCA. Switching to DIIS
    6    -119.0924340507      1.98E-04
    7    -119.0924510110      4.27E-06 Convergence criterion met
 ---------------------------------------
 SCF time:  CPU 20.11 s  wall 7.42 s
 SCF   energy in the small basis set = -119.09245101
 Total energy in the small basis set = -119.09245101
 ----------------------------------------------------
  Cycle       Energy    
 ----------------------------------------------------
    1     -16.5449346605     -1.65E+01
 Long-range K will be added via erf
 Coulomb attenuation parameter = 0.2 bohr**(-1)
 A restricted hybrid HF-DFT SCF calculation will be
 performed using Relaxed Constraint Minimization + Pulay DIIS
 Exchange:     0.2220 Hartree-Fock + 1.0000 wB97X-D + LR-HF
 Correlation:  1.0000 wB97X-D
 Using Euler-Maclaurin-Lebedev (75,302) quadrature formula
 Dispersion:   Grimme D
 SCF converges when DIIS error is below 1.0E-05
 Basis2 calculation detected. Using small basis as guess for larger.
 SCFMinFind is unable to tell whether the solution found is close.
 Resetting ReadMinima to 0 and attempting to follow guess.
 SCFMinFind following SCF Guess.
 using 3 threads for integral computing
 -------------------------------------------------------
 OpenMP Integral computing Module                
 Release: version 1.0, May 2013, Q-Chem Inc. Pittsburgh 
 -------------------------------------------------------
 using 3 threads for integral computing
 -------------------------------------------------------
 OpenMP Integral computing Module                
 Release: version 1.0, May 2013, Q-Chem Inc. Pittsburgh 
 -------------------------------------------------------
 ---------------------------------------
  Cycle       Energy         DIIS Error
 ---------------------------------------
    1    -119.1120349211      4.21E-03
    2    -119.1340609829      6.02E-04 Done RCA. Switching to DIIS
    3    -119.1348969386      4.24E-04
    4    -119.1358838627      4.55E-05
    5    -119.1358986876      1.06E-05
    6    -119.1358994195      4.11E-06 Convergence criterion met
 ---------------------------------------
 SCF time:  CPU 48.71 s  wall 16.26 s
 SCF   energy in the final basis set = -119.13589942
 Total energy in the final basis set = -119.13589942
 
 --------------------------------------------------------------
 
                    Orbital Energies (a.u.)
 --------------------------------------------------------------
 
 Alpha MOs
 -- Occupied --
-10.2725 -10.2647 -10.2647  -0.8828  -0.7760  -0.6785  -0.5463  -0.5319
 -0.4744  -0.4641  -0.4228  -0.4168  -0.3998
 -- Virtual --
  0.0719   0.0870   0.0917   0.1001   0.1235   0.1303   0.1328   0.1332
  0.1462   0.1647   0.1743   0.1895   0.2022   0.2355   0.2627   0.2766
  0.2881   0.3070   0.3179   0.3224   0.3306   0.3616   0.4529   0.4732
  0.4910   0.4978   0.5059   0.5145   0.5362   0.5429   0.5723   0.5991
  0.6076   0.6116   0.6355   0.6360   0.6544   0.6584   0.6944   0.7119
  0.7378   0.7518   0.8626   0.8758   0.9011   0.9185   0.9548   0.9628
  0.9899   1.0084   1.0333   1.1269   1.1346   1.1891   1.2147   1.2304
  1.2549   1.2589   1.2690   1.2741   1.2768   1.3136   1.3438   1.3719
  1.3790   1.3965   1.4247   1.4340   1.4583   1.4628   1.4774   1.4943
  1.5125   1.5518   1.5704   1.6009   1.6083   1.6399   1.6738   1.7128
  1.7181   2.3192   2.3923   2.4021   2.4901   2.5333   2.6538   2.6744
  2.6819   2.7184   2.7747   2.7908   2.8038   2.8645   2.9192   2.9313
  2.9747   2.9896   3.0165   3.0259   3.0575   3.0682   3.0869   3.1146
  3.1377   3.1493   3.1736   3.1795   3.1920   3.2422   3.2547   3.2700
  3.3159   3.3187   3.3484   3.3659   3.3772   3.4173   3.4321   3.4566
  3.4597   3.5070   3.5113   3.5265   3.5421   3.5860   3.6029   3.6053
  3.6542   3.6898   3.7017   3.7197   3.7278   3.7401   3.8048   3.8579
  3.8786   3.8998   3.9103   3.9492   4.0190   4.0306   4.0812   4.0943
  4.1068   4.1307   4.1405   4.1568   4.1611   4.1947   4.2123   4.2177
  4.2548   4.2618   4.2782   4.3167   4.3647   4.3783   4.4423   4.4677
  4.4813   4.5319   4.5599   4.5771   4.7880   4.7955   4.8262   4.8828
  4.9186   4.9544   4.9763   4.9817   5.0412   5.0445   5.0632   5.0735
  5.1527   5.1944   5.2139   5.2370   5.2609   5.2817   5.3577   5.3577
  5.3815   5.3905   5.4299   5.4935   5.5666   5.5708   5.6025   5.7415
  5.9672   6.3473   6.3852   6.3886   6.4114   6.5159  25.1004  25.4328
 25.4509
 --------------------------------------------------------------
 
 -----------------------------------------------------------------
                    Cartesian Multipole Moments
 -----------------------------------------------------------------
    Charge (ESU x 10^10)
                 0.0000
    Dipole Moment (Debye)
         X      -0.0000      Y       0.0219      Z      -0.0951
       Tot       0.0976
    Quadrupole Moments (Debye-Ang)
        XX     -22.0526     XY      -0.0000     YY     -21.4202
        XZ      -0.0000     YZ       0.3877     ZZ     -21.9411
    Octopole Moments (Debye-Ang^2)
       XXX       0.0000    XXY       0.4827    XYY      -0.0000
       YYY      -1.3227    XXZ      -0.8535    XYZ      -0.0000
       YYZ      -1.0360    XZZ      -0.0000    YZZ      -1.4877
       ZZZ      -0.1773
    Hexadecapole Moments (Debye-Ang^3)
      XXXX    -200.2407   XXXY      -0.0002   XXYY     -40.8584
      XYYY      -0.0003   YYYY     -53.4942   XXXZ      -0.0001
      XXYZ       3.3822   XYYZ      -0.0000   YYYZ       6.9045
      XXZZ     -45.6244   XYZZ      -0.0000   YYZZ     -19.7588
      XZZZ      -0.0000   YZZZ       6.5975   ZZZZ     -58.7273
 -----------------------------------------------------------------
Archival summary:
1\1\centos77-c1\SP\ProcedureUnspecified\BasisUnspecified\38\shihchen\ThuJul204:15:282020ThuJul204:15:282020\0\\#,ProcedureUnspecified,BasisUnspecified,\\0,1\C\H,1,1.09218\H,1,1.093,2,106.414\C,1,1.52405,2,105.482,3,-120.512,0\H,4,1.08998,1,114.845,2,97.281,0\H,4,1.09047,1,111.557,2,-26.0349,0\H,4,1.09375,1,106.973,2,-143.395,0\C,1,1.52405,2,105.482,3,120.512,0\H,8,1.08998,1,114.844,2,-97.283,0\H,8,1.09047,1,111.557,2,26.0328,0\H,8,1.09375,1,106.973,2,143.393,0\\\@

 Total job time:  26.52s(wall), 72.33s(cpu) 
 Thu Jul  2 04:15:28 2020

        *************************************************************
        *                                                           *
        *  Thank you very much for using Q-Chem.  Have a nice day.  *
        *                                                           *
        *************************************************************


