                  Welcome to Q-Chem
     A Quantum Leap Into The Future Of Chemistry


 Q-Chem 5.3 (devel), Q-Chem, Inc., Pleasanton, CA (2020)

 Yihan Shao,  Zhengting Gan,  E. Epifanovsky,  A. T. B. Gilbert,  M. Wormit,  
 J. Kussmann,  A. W. Lange,  A. Behn,  Jia Deng,  Xintian Feng,  D. Ghosh,  
 M. Goldey,  P. R. Horn,  L. D. Jacobson,  I. Kaliman,  T. Kus,  A. Landau,  
 Jie Liu,  E. I. Proynov,  R. M. Richard,  R. P. Steele,  E. J. Sundstrom,  
 H. L. Woodcock III,  P. M. Zimmerman,  D. Zuev,  B. Alam,  B. Albrecht,  
 E. Alguire,  S. A. Baeppler,  D. Barton,  Z. Benda,  Y. A. Bernard,  
 E. J. Berquist,  K. B. Bravaya,  H. Burton,  K. Carter-Fenk,  D. Casanova,  
 Chun-Min Chang,  Yunqing Chen,  A. Chien,  K. D. Closser,  M. P. Coons,  
 S. Coriani,  S. Dasgupta,  A. L. Dempwolff,  M. Diedenhofen,  Hainam Do,  
 R. G. Edgar,  Po-Tung Fang,  S. Faraji,  S. Fatehi,  Qingguo Feng,  
 J. Fosso-Tande,  J. Gayvert,  Qinghui Ge,  A. Ghysels,  G. Gidofalvi,  
 J. Gomes,  J. Gonthier,  A. Gunina,  D. Hait,  M. W. D. Hanson-Heine,  
 P. H. P. Harbach,  A. W. Hauser,  M. F. Herbst,  J. E. Herr,  
 E. G. Hohenstein,  Z. C. Holden,  Kerwin Hui,  B. C. Huynh,  T.-C. Jagau,  
 Hyunjun Ji,  B. Kaduk,  K. Khistyaev,  Jaehoon Kim,  P. Klunzinger,  K. Koh,  
 D. Kosenkov,  L. Koulias,  T. Kowalczyk,  C. M. Krauter,  A. Kunitsa,  
 Ka Un Lao,  A. Laurent,  K. V. Lawler,  Joonho Lee,  D. Lefrancois,  
 S. Lehtola,  D. S. Levine,  Yi-Pei Li,  You-Sheng Lin,  Fenglai Liu,  
 Kuan-Yu Liu,  E. Livshits,  M. Loipersberger,  A. Luenser,  P. Manohar,  
 E. Mansoor,  S. F. Manzer,  Shan-Ping Mao,  Yuezhi Mao,  N. Mardirossian,  
 A. V. Marenich,  T. Markovich,  L. A. Martinez-Martinez,  S. A. Maurer,  
 N. J. Mayhall,  S. C. McKenzie,  J.-M. Mewes,  P. Morgante,  A. F. Morrison,  
 J. W. Mullinax,  K. Nanda,  T. S. Nguyen-Beck,  R. Olivares-Amaya,  
 K. J. Oosterbaan,  J. A. Parkhill,  S. K. Paul,  F. Pavosevic,  Zheng Pei,  
 T. M. Perrine,  F. Plasser,  P. Pokhilko,  S. Prager,  A. Prociuk,  
 E. Ramos,  B. Rana,  D. R. Rehn,  F. Rob,  M. Scheurer,  M. Schneider,  
 N. Sergueev,  S. M. Sharada,  S. Sharma,  D. W. Small,  T. Stauch,  
 C. J. Stein,  T. Stein,  Yu-Chuan Su,  S. P. Veccham,  Zhen Tao,  
 A. J. W. Thom,  A. Tkatchenko,  T. Tsuchimochi,  N. M. Tubman,  L. Vogt,  
 M. L. Vidal,  O. Vydrov,  M. A. Watson,  J. Wenzel,  M. de Wergifosse,  
 T. A. Wesolowski,  A. White,  J. Witte,  A. Yamada,  Jun Yang,  K. Yao,  
 S. Yeganeh,  S. R. Yost,  Zhi-Qiang You,  A. Zech,  Igor Ying Zhang,  
 Xing Zhang,  Yan Zhao,  Ying Zhu,  B. R. Brooks,  G. K. L. Chan,  
 C. J. Cramer,  M. S. Gordon,  W. J. Hehre,  A. Klamt,  M. W. Schmidt,  
 C. D. Sherrill,  D. G. Truhlar,  A. Aspuru-Guzik,  R. Baer,  A. T. Bell,  
 N. A. Besley,  Jeng-Da Chai,  A. E. DePrince, III,  R. A. DiStasio Jr.,  
 A. Dreuw,  B. D. Dunietz,  T. R. Furlani,  Chao-Ping Hsu,  Yousung Jung,  
 Jing Kong,  D. S. Lambrecht,  WanZhen Liang,  C. Ochsenfeld,  
 V. A. Rassolov,  L. V. Slipchenko,  J. E. Subotnik,  T. Van Voorhis,  
 J. M. Herbert,  A. I. Krylov,  P. M. W. Gill,  M. Head-Gordon

 Contributors to earlier versions of Q-Chem not listed above: 
 R. D. Adamson,  B. Austin,  J. Baker,  G. J. O. Beran,  K. Brandhorst,  
 S. T. Brown,  E. F. C. Byrd,  A. K. Chakraborty,  C.-L. Cheng,  
 Siu Hung Chien,  D. M. Chipman,  D. L. Crittenden,  H. Dachsel,  
 R. J. Doerksen,  A. D. Dutoi,  L. Fusti-Molnar,  W. A. Goddard III,  
 A. Golubeva-Zadorozhnaya,  S. R. Gwaltney,  G. Hawkins,  A. Heyden,  
 S. Hirata,  G. Kedziora,  F. J. Keil,  C. Kelley,  Jihan Kim,  R. A. King,  
 R. Z. Khaliullin,  P. P. Korambath,  W. Kurlancheek,  A. M. Lee,  M. S. Lee,  
 S. V. Levchenko,  Ching Yeh Lin,  D. Liotard,  R. C. Lochan,  I. Lotan,  
 P. E. Maslen,  N. Nair,  D. P. O'Neill,  D. Neuhauser,  E. Neuscamman,  
 C. M. Oana,  R. Olson,  B. Peters,  R. Peverati,  P. A. Pieniazek,  
 Y. M. Rhee,  J. Ritchie,  M. A. Rohrdanz,  E. Rosta,  N. J. Russ,  
 H. F. Schaefer III,  N. E. Schultz,  N. Shenvi,  A. C. Simmonett,  A. Sodt,  
 D. Stuck,  K. S. Thanthiriwatte,  V. Vanovschi,  Tao Wang,  A. Warshel,  
 C. F. Williams,  Q. Wu,  X. Xu,  W. Zhang

 Please cite Q-Chem as follows:
 Y. Shao et al., Mol. Phys. 113, 184-215 (2015)
 DOI: 10.1080/00268976.2014.952696

 Q-Chem 5.3.0 for Intel X86 EM64T Linux

 Parts of Q-Chem use Armadillo 9.800.1 (Horizon Scraper).
 http://arma.sourceforge.net/

 Q-Chem begins on Thu Jul  2 05:56:27 2020  

Host: centos77-c1
0

     Scratch files written to /tmp/26650.centos77-h1/qchem81726//
Processing $rem in /opt/qchem-5.3.0-intel2020u1//config/preferences:
Processing $rem in /home/shihchengli/.qchemrc:

Checking the input file for inconsistencies... 	...done.

--------------------------------------------------------------
User input:
--------------------------------------------------------------
$rem
   JOBTYPE  sp
   EXCHANGE   omegaB97X-D
   BASIS   6-311+G(2df,2pd)
   max_scf_cycles   250
   geom_opt_max_cycles   1500
   basis2 6-31G*
   scf_algorithm rca_diis
   SYM_IGNORE  TRUE
   print_input   true
   geom_opt_dmax   80
   pop_mulliken false
   XC_GRID 000075000302
$end

$molecule
0 1
C       1.2651160355     -0.0000000011     0.2459580756
C       -0.0000002084     0.0000000138     -0.6240710067
H       1.3040622734     -0.8740660387     0.8840656740
H       1.3040622377     0.8740660736     0.8840657702
H       2.1884574341     0.0000000240     -0.3944273125
C       -1.2651165684     -0.0000001850     0.2459583285
H       -0.0000002254     -0.6982454116     -1.1371039464
H       -0.0000003204     0.6982450719     -1.1371036527
H       -1.3040624643     -0.8740635775     0.8840639682
H       -2.1884557047     0.0000005722     -0.3944255393
H       -1.3040625494     0.8740641243     0.8840646600
$end
--------------------------------------------------------------
 ----------------------------------------------------------------
             Standard Nuclear Orientation (Angstroms)
    I     Atom           X                Y                Z
 ----------------------------------------------------------------
    1      C       1.2651160355    -0.0000000011     0.2459580756
    2      C      -0.0000002084     0.0000000138    -0.6240710067
    3      H       1.3040622734    -0.8740660387     0.8840656740
    4      H       1.3040622377     0.8740660736     0.8840657702
    5      H       2.1884574341     0.0000000240    -0.3944273125
    6      C      -1.2651165684    -0.0000001850     0.2459583285
    7      H      -0.0000002254    -0.6982454116    -1.1371039464
    8      H      -0.0000003204     0.6982450719    -1.1371036527
    9      H      -1.3040624643    -0.8740635775     0.8840639682
   10      H      -2.1884557047     0.0000005722    -0.3944255393
   11      H      -1.3040625494     0.8740641243     0.8840646600
 ----------------------------------------------------------------
 Nuclear Repulsion Energy =          84.56056339 hartrees
 There are       13 alpha and       13 beta electrons
 Requested basis set is 6-311+G(2df,2pd)
 There are 72 shells and 214 basis functions

 Total QAlloc Memory Limit   2000 MB
 Mega-Array Size       188 MB
 MEM_STATIC part       192 MB

                       Distance Matrix (Angstroms)
             C (  1)   C (  2)   H (  3)   H (  4)   H (  5)   C (  6)
   C (  2)  1.535405
   H (  3)  1.082908  2.176935
   H (  4)  1.082908  2.176935  1.748132
   H (  5)  1.123678  2.200473  1.783449  1.783449
   C (  6)  2.530233  1.535406  2.787804  2.787804  3.512445
   H (  7)  2.000232  0.866458  2.411767  2.873651  2.414221  2.000232
   H (  8)  2.000231  0.866458  2.873650  2.411767  2.414221  2.000231
   H (  9)  2.787803  2.176933  2.608125  3.139788  3.820500  1.082905
   H ( 10)  3.512442  2.200471  3.820499  3.820499  4.376913  1.123676
   H ( 11)  2.787803  2.176934  3.139789  2.608125  3.820501  1.082906
             H (  7)   H (  8)   H (  9)   H ( 10)
   H (  8)  1.396490
   H (  9)  2.411765  2.873648
   H ( 10)  2.414220  2.414219  1.783445
   H ( 11)  2.873649  2.411765  1.748128  1.783445
 
 A cutoff of  1.0D-09 yielded   2544 shell pairs
 There are     22638 function pairs (     27819 Cartesian)
 Smallest overlap matrix eigenvalue = 8.80E-05

 Scale SEOQF with 1.000000e-01/1.000000e-01/1.000000e-01

 Standard Electronic Orientation quadrupole field applied
 Nucleus-field energy     =     0.0000000006 hartrees
 Requested basis set is 6-31G(d)
 There are 28 shells and 58 basis functions
 A cutoff of  1.0D-09 yielded    402 shell pairs
 There are      1773 function pairs (      1968 Cartesian)
 Smallest overlap matrix eigenvalue = 5.94E-03
 Guess from superposition of atomic densities
 Warning:  Energy on first SCF cycle will be non-variational
 SAD guess density has 26.000000 electrons
 Long-range K will be added via erf
 Coulomb attenuation parameter = 0.2 bohr**(-1)
 A restricted hybrid HF-DFT SCF calculation will be
 performed using Relaxed Constraint Minimization + Pulay DIIS
 Exchange:     0.2220 Hartree-Fock + 1.0000 wB97X-D + LR-HF
 Correlation:  1.0000 wB97X-D
 Using Euler-Maclaurin-Lebedev (75,302) quadrature formula
 Dispersion:   Grimme D
 SCF converges when DIIS error is below 1.0E-04
 using 3 threads for integral computing
 -------------------------------------------------------
 OpenMP Integral computing Module                
 Release: version 1.0, May 2013, Q-Chem Inc. Pittsburgh 
 -------------------------------------------------------
 using 3 threads for integral computing
 -------------------------------------------------------
 OpenMP Integral computing Module                
 Release: version 1.0, May 2013, Q-Chem Inc. Pittsburgh 
 -------------------------------------------------------
 ---------------------------------------
  Cycle       Energy         DIIS Error
 ---------------------------------------
    1    -119.8041232260      1.12E-01
    2    -118.9502589517      1.04E-02
    3    -118.9794246377      3.37E-03
    4    -118.9957126221      2.29E-03
    5    -118.9970116363      4.56E-04 Done RCA. Switching to DIIS
    6    -118.9978566047      3.24E-04
    7    -118.9979004297      7.41E-06 Convergence criterion met
 ---------------------------------------
 SCF time:  CPU 20.56 s  wall 7.58 s
 SCF   energy in the small basis set = -118.99790043
 Total energy in the small basis set = -118.99790043
 ----------------------------------------------------
  Cycle       Energy    
 ----------------------------------------------------
    1     -16.7022408887     -1.67E+01
 Long-range K will be added via erf
 Coulomb attenuation parameter = 0.2 bohr**(-1)
 A restricted hybrid HF-DFT SCF calculation will be
 performed using Relaxed Constraint Minimization + Pulay DIIS
 Exchange:     0.2220 Hartree-Fock + 1.0000 wB97X-D + LR-HF
 Correlation:  1.0000 wB97X-D
 Using Euler-Maclaurin-Lebedev (75,302) quadrature formula
 Dispersion:   Grimme D
 SCF converges when DIIS error is below 1.0E-05
 Basis2 calculation detected. Using small basis as guess for larger.
 SCFMinFind is unable to tell whether the solution found is close.
 Resetting ReadMinima to 0 and attempting to follow guess.
 SCFMinFind following SCF Guess.
 using 3 threads for integral computing
 -------------------------------------------------------
 OpenMP Integral computing Module                
 Release: version 1.0, May 2013, Q-Chem Inc. Pittsburgh 
 -------------------------------------------------------
 using 3 threads for integral computing
 -------------------------------------------------------
 OpenMP Integral computing Module                
 Release: version 1.0, May 2013, Q-Chem Inc. Pittsburgh 
 -------------------------------------------------------
 ---------------------------------------
  Cycle       Energy         DIIS Error
 ---------------------------------------
    1    -119.0232835013      4.23E-03
    2    -119.0454242332      6.11E-04 Done RCA. Switching to DIIS
    3    -119.0463597307      4.01E-04
    4    -119.0472193052      4.35E-05
    5    -119.0472324633      7.64E-06 Convergence criterion met
 ---------------------------------------
 SCF time:  CPU 43.39 s  wall 14.50 s
 SCF   energy in the final basis set = -119.04723246
 Total energy in the final basis set = -119.04723246
 
 --------------------------------------------------------------
 
                    Orbital Energies (a.u.)
 --------------------------------------------------------------
 
 Alpha MOs
 -- Occupied --
-10.2647 -10.2647 -10.2219  -0.8983  -0.7718  -0.7143  -0.5728  -0.5169
 -0.4804  -0.4637  -0.4330  -0.4275  -0.4084
 -- Virtual --
  0.0681   0.0870   0.0915   0.1008   0.1259   0.1305   0.1340   0.1412
  0.1468   0.1676   0.1738   0.1919   0.2384   0.2460   0.2493   0.2781
  0.2833   0.3079   0.3091   0.3119   0.3494   0.3507   0.4543   0.4680
  0.4726   0.5146   0.5150   0.5215   0.5454   0.5719   0.5896   0.6097
  0.6209   0.6267   0.6357   0.6661   0.6738   0.7035   0.7155   0.7294
  0.7757   0.8049   0.8457   0.8711   0.8881   0.9004   0.9090   0.9734
  1.0038   1.0483   1.0908   1.1307   1.1351   1.1898   1.2112   1.2161
  1.2479   1.2802   1.2935   1.2950   1.3203   1.3235   1.3454   1.3793
  1.3815   1.3863   1.3869   1.4603   1.4755   1.4758   1.5149   1.5339
  1.5405   1.5749   1.6145   1.6536   1.6855   1.6990   1.7160   1.7453
  1.9004   2.3386   2.3951   2.4368   2.5202   2.5287   2.6002   2.6232
  2.6764   2.7083   2.8279   2.8382   2.8759   2.8975   2.9296   2.9305
  2.9561   2.9839   3.0236   3.0346   3.0582   3.0726   3.0743   3.0981
  3.1703   3.1734   3.1804   3.2411   3.2454   3.2585   3.2880   3.3081
  3.3309   3.3438   3.3674   3.3702   3.4037   3.4097   3.4619   3.4660
  3.4907   3.5021   3.5317   3.5394   3.5753   3.5768   3.5824   3.6173
  3.6908   3.7061   3.7408   3.7795   3.8272   3.8528   3.8632   3.9157
  3.9186   3.9221   3.9742   3.9841   3.9946   4.0137   4.0715   4.1206
  4.1210   4.1405   4.1552   4.1690   4.2162   4.2172   4.2272   4.2774
  4.3009   4.3659   4.3891   4.3979   4.4139   4.4231   4.4644   4.5104
  4.6745   4.7113   4.7191   4.7329   4.8116   4.8227   4.8718   4.9416
  4.9462   5.0102   5.0329   5.1180   5.1190   5.1318   5.2007   5.2173
  5.2792   5.2852   5.2857   5.2935   5.3532   5.3775   5.4478   5.4580
  5.5167   5.6683   5.8147   5.8298   5.9648   6.1087   6.1337   6.2052
  6.3535   6.3898   6.4227   6.4279   6.7095   7.1044  25.3944  25.4211
 25.4702
 --------------------------------------------------------------
 
 -----------------------------------------------------------------
                    Cartesian Multipole Moments
 -----------------------------------------------------------------
    Charge (ESU x 10^10)
                 0.0000
    Dipole Moment (Debye)
         X      -0.0000      Y      -0.0000      Z      -0.2603
       Tot       0.2603
    Quadrupole Moments (Debye-Ang)
        XX     -22.2428     XY      -0.0000     YY     -21.0688
        XZ      -0.0000     YZ      -0.0000     ZZ     -21.1290
    Octopole Moments (Debye-Ang^2)
       XXX      -0.0000    XXY       0.0000    XYY      -0.0000
       YYY      -0.0000    XXZ      -1.7551    XYZ       0.0000
       YYZ       0.5094    XZZ      -0.0000    YZZ      -0.0000
       ZZZ      -1.3690
    Hexadecapole Moments (Debye-Ang^3)
      XXXX    -207.0730   XXXY      -0.0000   XXYY     -41.9593
      XYYY       0.0000   YYYY     -39.5410   XXXZ      -0.0000
      XXYZ      -0.0000   XYYZ       0.0000   YYYZ      -0.0000
      XXZZ     -44.4617   XYZZ       0.0000   YYZZ     -15.7721
      XZZZ      -0.0000   YZZZ      -0.0000   ZZZZ     -65.1322
 -----------------------------------------------------------------
Archival summary:
1\1\centos77-c1\SP\ProcedureUnspecified\BasisUnspecified\38\shihchen\ThuJul205:56:522020ThuJul205:56:522020\0\\#,ProcedureUnspecified,BasisUnspecified,\\0,1\C\H,1,0.866458\H,1,0.866458,2,107.387\C,1,1.53541,2,109.604,3,118.995,0\H,4,1.08291,1,111.317,2,-178.763,0\H,4,1.08291,1,111.317,2,61.1449,0\H,4,1.12368,1,110.74,2,-58.8092,0\C,1,1.53541,2,109.604,3,-118.995,0\H,8,1.0829,1,111.317,2,178.763,0\H,8,1.08291,1,111.317,2,-61.1449,0\H,8,1.12368,1,110.74,2,58.8091,0\\\@

 Total job time:  25.01s(wall), 67.53s(cpu) 
 Thu Jul  2 05:56:52 2020

        *************************************************************
        *                                                           *
        *  Thank you very much for using Q-Chem.  Have a nice day.  *
        *                                                           *
        *************************************************************


