                  Welcome to Q-Chem
     A Quantum Leap Into The Future Of Chemistry


 Q-Chem 5.3 (devel), Q-Chem, Inc., Pleasanton, CA (2020)

 Yihan Shao,  Zhengting Gan,  E. Epifanovsky,  A. T. B. Gilbert,  M. Wormit,  
 J. Kussmann,  A. W. Lange,  A. Behn,  Jia Deng,  Xintian Feng,  D. Ghosh,  
 M. Goldey,  P. R. Horn,  L. D. Jacobson,  I. Kaliman,  T. Kus,  A. Landau,  
 Jie Liu,  E. I. Proynov,  R. M. Richard,  R. P. Steele,  E. J. Sundstrom,  
 H. L. Woodcock III,  P. M. Zimmerman,  D. Zuev,  B. Alam,  B. Albrecht,  
 E. Alguire,  S. A. Baeppler,  D. Barton,  Z. Benda,  Y. A. Bernard,  
 E. J. Berquist,  K. B. Bravaya,  H. Burton,  K. Carter-Fenk,  D. Casanova,  
 Chun-Min Chang,  Yunqing Chen,  A. Chien,  K. D. Closser,  M. P. Coons,  
 S. Coriani,  S. Dasgupta,  A. L. Dempwolff,  M. Diedenhofen,  Hainam Do,  
 R. G. Edgar,  Po-Tung Fang,  S. Faraji,  S. Fatehi,  Qingguo Feng,  
 J. Fosso-Tande,  J. Gayvert,  Qinghui Ge,  A. Ghysels,  G. Gidofalvi,  
 J. Gomes,  J. Gonthier,  A. Gunina,  D. Hait,  M. W. D. Hanson-Heine,  
 P. H. P. Harbach,  A. W. Hauser,  M. F. Herbst,  J. E. Herr,  
 E. G. Hohenstein,  Z. C. Holden,  Kerwin Hui,  B. C. Huynh,  T.-C. Jagau,  
 Hyunjun Ji,  B. Kaduk,  K. Khistyaev,  Jaehoon Kim,  P. Klunzinger,  K. Koh,  
 D. Kosenkov,  L. Koulias,  T. Kowalczyk,  C. M. Krauter,  A. Kunitsa,  
 Ka Un Lao,  A. Laurent,  K. V. Lawler,  Joonho Lee,  D. Lefrancois,  
 S. Lehtola,  D. S. Levine,  Yi-Pei Li,  You-Sheng Lin,  Fenglai Liu,  
 Kuan-Yu Liu,  E. Livshits,  M. Loipersberger,  A. Luenser,  P. Manohar,  
 E. Mansoor,  S. F. Manzer,  Shan-Ping Mao,  Yuezhi Mao,  N. Mardirossian,  
 A. V. Marenich,  T. Markovich,  L. A. Martinez-Martinez,  S. A. Maurer,  
 N. J. Mayhall,  S. C. McKenzie,  J.-M. Mewes,  P. Morgante,  A. F. Morrison,  
 J. W. Mullinax,  K. Nanda,  T. S. Nguyen-Beck,  R. Olivares-Amaya,  
 K. J. Oosterbaan,  J. A. Parkhill,  S. K. Paul,  F. Pavosevic,  Zheng Pei,  
 T. M. Perrine,  F. Plasser,  P. Pokhilko,  S. Prager,  A. Prociuk,  
 E. Ramos,  B. Rana,  D. R. Rehn,  F. Rob,  M. Scheurer,  M. Schneider,  
 N. Sergueev,  S. M. Sharada,  S. Sharma,  D. W. Small,  T. Stauch,  
 C. J. Stein,  T. Stein,  Yu-Chuan Su,  S. P. Veccham,  Zhen Tao,  
 A. J. W. Thom,  A. Tkatchenko,  T. Tsuchimochi,  N. M. Tubman,  L. Vogt,  
 M. L. Vidal,  O. Vydrov,  M. A. Watson,  J. Wenzel,  M. de Wergifosse,  
 T. A. Wesolowski,  A. White,  J. Witte,  A. Yamada,  Jun Yang,  K. Yao,  
 S. Yeganeh,  S. R. Yost,  Zhi-Qiang You,  A. Zech,  Igor Ying Zhang,  
 Xing Zhang,  Yan Zhao,  Ying Zhu,  B. R. Brooks,  G. K. L. Chan,  
 C. J. Cramer,  M. S. Gordon,  W. J. Hehre,  A. Klamt,  M. W. Schmidt,  
 C. D. Sherrill,  D. G. Truhlar,  A. Aspuru-Guzik,  R. Baer,  A. T. Bell,  
 N. A. Besley,  Jeng-Da Chai,  A. E. DePrince, III,  R. A. DiStasio Jr.,  
 A. Dreuw,  B. D. Dunietz,  T. R. Furlani,  Chao-Ping Hsu,  Yousung Jung,  
 Jing Kong,  D. S. Lambrecht,  WanZhen Liang,  C. Ochsenfeld,  
 V. A. Rassolov,  L. V. Slipchenko,  J. E. Subotnik,  T. Van Voorhis,  
 J. M. Herbert,  A. I. Krylov,  P. M. W. Gill,  M. Head-Gordon

 Contributors to earlier versions of Q-Chem not listed above: 
 R. D. Adamson,  B. Austin,  J. Baker,  G. J. O. Beran,  K. Brandhorst,  
 S. T. Brown,  E. F. C. Byrd,  A. K. Chakraborty,  C.-L. Cheng,  
 Siu Hung Chien,  D. M. Chipman,  D. L. Crittenden,  H. Dachsel,  
 R. J. Doerksen,  A. D. Dutoi,  L. Fusti-Molnar,  W. A. Goddard III,  
 A. Golubeva-Zadorozhnaya,  S. R. Gwaltney,  G. Hawkins,  A. Heyden,  
 S. Hirata,  G. Kedziora,  F. J. Keil,  C. Kelley,  Jihan Kim,  R. A. King,  
 R. Z. Khaliullin,  P. P. Korambath,  W. Kurlancheek,  A. M. Lee,  M. S. Lee,  
 S. V. Levchenko,  Ching Yeh Lin,  D. Liotard,  R. C. Lochan,  I. Lotan,  
 P. E. Maslen,  N. Nair,  D. P. O'Neill,  D. Neuhauser,  E. Neuscamman,  
 C. M. Oana,  R. Olson,  B. Peters,  R. Peverati,  P. A. Pieniazek,  
 Y. M. Rhee,  J. Ritchie,  M. A. Rohrdanz,  E. Rosta,  N. J. Russ,  
 H. F. Schaefer III,  N. E. Schultz,  N. Shenvi,  A. C. Simmonett,  A. Sodt,  
 D. Stuck,  K. S. Thanthiriwatte,  V. Vanovschi,  Tao Wang,  A. Warshel,  
 C. F. Williams,  Q. Wu,  X. Xu,  W. Zhang

 Please cite Q-Chem as follows:
 Y. Shao et al., Mol. Phys. 113, 184-215 (2015)
 DOI: 10.1080/00268976.2014.952696

 Q-Chem 5.3.0 for Intel X86 EM64T Linux

 Parts of Q-Chem use Armadillo 9.800.1 (Horizon Scraper).
 http://arma.sourceforge.net/

 Q-Chem begins on Thu Jul  2 04:26:53 2020  

Host: centos77-c1
0

     Scratch files written to /tmp/26650.centos77-h1/qchem73490//
Processing $rem in /opt/qchem-5.3.0-intel2020u1//config/preferences:
Processing $rem in /home/shihchengli/.qchemrc:

Checking the input file for inconsistencies... 	...done.

--------------------------------------------------------------
User input:
--------------------------------------------------------------
$rem
   JOBTYPE  sp
   EXCHANGE   omegaB97X-D
   BASIS   6-311+G(2df,2pd)
   max_scf_cycles   250
   geom_opt_max_cycles   1500
   basis2 6-31G*
   scf_algorithm rca_diis
   SYM_IGNORE  TRUE
   print_input   true
   geom_opt_dmax   80
   pop_mulliken false
   XC_GRID 000075000302
$end

$molecule
0 1
C       1.1917934782     0.0000003096     0.2589421317
C       0.0000000440     -0.0000011738     -0.6786399968
H       1.1408183173     -0.8776794046     0.9070826152
H       1.1408158594     0.8776802786     0.9070820818
H       2.1621569453     0.0000018820     -0.2363613883
C       -1.1917933415     -0.0000001681     0.2589422210
H       -0.0000002411     -0.8785521697     -1.3269026974
H       0.0000000523     0.8785493608     -1.3269033165
H       -1.1408191346     -0.8776809785     0.9070812717
H       -2.1621567834     0.0000039880     -0.2363615043
H       -1.1408152564     0.8776787417     0.9070836009
$end
--------------------------------------------------------------
 ----------------------------------------------------------------
             Standard Nuclear Orientation (Angstroms)
    I     Atom           X                Y                Z
 ----------------------------------------------------------------
    1      C       1.1917934782     0.0000003096     0.2589421317
    2      C       0.0000000440    -0.0000011738    -0.6786399968
    3      H       1.1408183173    -0.8776794046     0.9070826152
    4      H       1.1408158594     0.8776802786     0.9070820818
    5      H       2.1621569453     0.0000018820    -0.2363613883
    6      C      -1.1917933415    -0.0000001681     0.2589422210
    7      H      -0.0000002411    -0.8785521697    -1.3269026974
    8      H       0.0000000523     0.8785493608    -1.3269033165
    9      H      -1.1408191346    -0.8776809785     0.9070812717
   10      H      -2.1621567834     0.0000039880    -0.2363615043
   11      H      -1.1408152564     0.8776787417     0.9070836009
 ----------------------------------------------------------------
 Nuclear Repulsion Energy =          83.85321142 hartrees
 There are       13 alpha and       13 beta electrons
 Requested basis set is 6-311+G(2df,2pd)
 There are 72 shells and 214 basis functions

 Total QAlloc Memory Limit   2000 MB
 Mega-Array Size       188 MB
 MEM_STATIC part       192 MB

                       Distance Matrix (Angstroms)
             C (  1)   C (  2)   H (  3)   H (  4)   H (  5)   C (  6)
   C (  2)  1.516388
   H (  3)  1.092248  2.141565
   H (  4)  1.092248  2.141565  1.755360
   H (  5)  1.089464  2.206928  1.766613  1.766613
   C (  6)  2.383587  1.516388  2.575167  2.575165  3.390326
   H (  7)  2.169592  1.091832  2.508417  3.062107  2.576055  2.169592
   H (  8)  2.169591  1.091832  3.062107  2.508416  2.576053  2.169591
   H (  9)  2.575168  2.141565  2.281637  2.878741  3.603809  1.092248
   H ( 10)  3.390326  2.206928  3.603809  3.603805  4.324314  1.089464
   H ( 11)  2.575164  2.141565  2.878738  2.281631  3.603805  1.092248
             H (  7)   H (  8)   H (  9)   H ( 10)
   H (  8)  1.757102
   H (  9)  2.508416  3.062107
   H ( 10)  2.576055  2.576052  1.766613
   H ( 11)  3.062107  2.508417  1.755360  1.766612
 
 A cutoff of  1.0D-09 yielded   2552 shell pairs
 There are     22682 function pairs (     27887 Cartesian)
 Smallest overlap matrix eigenvalue = 8.30E-05

 Scale SEOQF with 1.000000e-01/1.000000e-01/1.000000e-01

 Standard Electronic Orientation quadrupole field applied
 Nucleus-field energy     =     0.0000000003 hartrees
 Requested basis set is 6-31G(d)
 There are 28 shells and 58 basis functions
 A cutoff of  1.0D-09 yielded    402 shell pairs
 There are      1773 function pairs (      1968 Cartesian)
 Smallest overlap matrix eigenvalue = 6.78E-03
 Guess from superposition of atomic densities
 Warning:  Energy on first SCF cycle will be non-variational
 SAD guess density has 26.000000 electrons
 Long-range K will be added via erf
 Coulomb attenuation parameter = 0.2 bohr**(-1)
 A restricted hybrid HF-DFT SCF calculation will be
 performed using Relaxed Constraint Minimization + Pulay DIIS
 Exchange:     0.2220 Hartree-Fock + 1.0000 wB97X-D + LR-HF
 Correlation:  1.0000 wB97X-D
 Using Euler-Maclaurin-Lebedev (75,302) quadrature formula
 Dispersion:   Grimme D
 SCF converges when DIIS error is below 1.0E-04
 using 3 threads for integral computing
 -------------------------------------------------------
 OpenMP Integral computing Module                
 Release: version 1.0, May 2013, Q-Chem Inc. Pittsburgh 
 -------------------------------------------------------
 using 3 threads for integral computing
 -------------------------------------------------------
 OpenMP Integral computing Module                
 Release: version 1.0, May 2013, Q-Chem Inc. Pittsburgh 
 -------------------------------------------------------
 ---------------------------------------
  Cycle       Energy         DIIS Error
 ---------------------------------------
    1    -119.6649126317      1.02E-01
    2    -119.0617485678      9.13E-03
    3    -119.0831464146      2.43E-03
    4    -119.0976846615      1.66E-03
    5    -119.0983519588      2.49E-04 Done RCA. Switching to DIIS
    6    -119.0988522205      1.84E-04
    7    -119.0988668533      4.82E-06 Convergence criterion met
 ---------------------------------------
 SCF time:  CPU 21.33 s  wall 8.04 s
 SCF   energy in the small basis set = -119.09886685
 Total energy in the small basis set = -119.09886685
 ----------------------------------------------------
  Cycle       Energy    
 ----------------------------------------------------
    1     -16.5514627790     -1.66E+01
 Long-range K will be added via erf
 Coulomb attenuation parameter = 0.2 bohr**(-1)
 A restricted hybrid HF-DFT SCF calculation will be
 performed using Relaxed Constraint Minimization + Pulay DIIS
 Exchange:     0.2220 Hartree-Fock + 1.0000 wB97X-D + LR-HF
 Correlation:  1.0000 wB97X-D
 Using Euler-Maclaurin-Lebedev (75,302) quadrature formula
 Dispersion:   Grimme D
 SCF converges when DIIS error is below 1.0E-05
 Basis2 calculation detected. Using small basis as guess for larger.
 SCFMinFind is unable to tell whether the solution found is close.
 Resetting ReadMinima to 0 and attempting to follow guess.
 SCFMinFind following SCF Guess.
 using 3 threads for integral computing
 -------------------------------------------------------
 OpenMP Integral computing Module                
 Release: version 1.0, May 2013, Q-Chem Inc. Pittsburgh 
 -------------------------------------------------------
 using 3 threads for integral computing
 -------------------------------------------------------
 OpenMP Integral computing Module                
 Release: version 1.0, May 2013, Q-Chem Inc. Pittsburgh 
 -------------------------------------------------------
 ---------------------------------------
  Cycle       Energy         DIIS Error
 ---------------------------------------
    1    -119.1181395127      4.21E-03
    2    -119.1401427242      6.05E-04 Done RCA. Switching to DIIS
    3    -119.1409563123      4.33E-04
    4    -119.1419822309      4.56E-05
    5    -119.1419970530      8.72E-06 Convergence criterion met
 ---------------------------------------
 SCF time:  CPU 43.11 s  wall 14.39 s
 SCF   energy in the final basis set = -119.14199705
 Total energy in the final basis set = -119.14199705
 
 --------------------------------------------------------------
 
                    Orbital Energies (a.u.)
 --------------------------------------------------------------
 
 Alpha MOs
 -- Occupied --
-10.2737 -10.2638 -10.2638  -0.8890  -0.7698  -0.6817  -0.5510  -0.5316
 -0.4742  -0.4559  -0.4274  -0.4123  -0.4118
 -- Virtual --
  0.0708   0.0848   0.0890   0.0989   0.1268   0.1314   0.1342   0.1391
  0.1395   0.1693   0.1702   0.1931   0.2211   0.2448   0.2549   0.2727
  0.2744   0.2898   0.3162   0.3163   0.3360   0.3503   0.4663   0.4670
  0.4722   0.4986   0.4993   0.5160   0.5483   0.5705   0.5785   0.5899
  0.6309   0.6347   0.6370   0.6420   0.6614   0.6645   0.7148   0.7233
  0.7316   0.7736   0.8118   0.8436   0.8878   0.8947   0.9048   0.9383
  1.0517   1.0532   1.0555   1.0876   1.1577   1.1845   1.2131   1.2138
  1.2228   1.2391   1.2614   1.2832   1.3097   1.3126   1.3376   1.3785
  1.3987   1.4096   1.4293   1.4380   1.4409   1.4433   1.4736   1.4905
  1.5077   1.5683   1.6090   1.6120   1.6487   1.6777   1.7081   1.7264
  1.7405   2.4373   2.4538   2.4662   2.5080   2.5316   2.5797   2.5798
  2.6589   2.7229   2.8158   2.8372   2.8539   2.9165   2.9213   2.9217
  2.9291   2.9295   2.9947   3.0149   3.0461   3.0491   3.0671   3.1112
  3.1343   3.1358   3.1874   3.2120   3.2453   3.2460   3.2754   3.3052
  3.3279   3.3358   3.3599   3.3661   3.3933   3.4007   3.4045   3.4269
  3.4564   3.4886   3.5151   3.5175   3.5782   3.5918   3.6088   3.6167
  3.6241   3.6551   3.7361   3.7396   3.7657   3.8019   3.8623   3.8967
  3.9309   3.9560   3.9690   3.9713   3.9923   4.0374   4.0545   4.0858
  4.0988   4.1137   4.1310   4.1447   4.1526   4.1760   4.1890   4.2100
  4.2344   4.2820   4.3105   4.3774   4.3783   4.3881   4.4275   4.4363
  4.4370   4.5784   4.6118   4.6227   4.6378   4.8437   4.8663   4.9124
  4.9152   4.9522   4.9670   5.0086   5.0563   5.0690   5.0725   5.0743
  5.1118   5.2580   5.2715   5.2905   5.3155   5.3692   5.3723   5.3732
  5.3828   5.4062   5.5161   5.5166   5.5571   5.6012   5.6746   5.7274
  5.9691   6.3781   6.4060   6.4158   6.4448   6.4629  25.1920  25.4543
 25.4581
 --------------------------------------------------------------
 
 -----------------------------------------------------------------
                    Cartesian Multipole Moments
 -----------------------------------------------------------------
    Charge (ESU x 10^10)
                -0.0000
    Dipole Moment (Debye)
         X      -0.0000      Y       0.0000      Z      -0.0618
       Tot       0.0618
    Quadrupole Moments (Debye-Ang)
        XX     -22.3433     XY      -0.0000     YY     -21.3239
        XZ      -0.0000     YZ      -0.0000     ZZ     -21.8383
    Octopole Moments (Debye-Ang^2)
       XXX      -0.0000    XXY       0.0000    XYY      -0.0000
       YYY       0.0000    XXZ      -1.0111    XYZ       0.0000
       YYZ       0.7327    XZZ      -0.0000    YZZ       0.0000
       ZZZ       0.5781
    Hexadecapole Moments (Debye-Ang^3)
      XXXX    -181.1490   XXXY      -0.0000   XXYY     -39.4740
      XYYY      -0.0000   YYYY     -43.9466   XXXZ       0.0000
      XXYZ      -0.0000   XYYZ       0.0000   YYYZ      -0.0000
      XXZZ     -43.8507   XYZZ      -0.0000   YYZZ     -17.7140
      XZZZ       0.0000   YZZZ      -0.0000   ZZZZ     -76.8484
 -----------------------------------------------------------------
Archival summary:
1\1\centos77-c1\SP\ProcedureUnspecified\BasisUnspecified\38\shihchen\ThuJul204:27:182020ThuJul204:27:182020\0\\#,ProcedureUnspecified,BasisUnspecified,\\0,1\C\H,1,1.09183\H,1,1.09183,2,107.154\C,1,1.51639,2,111.537,3,122.335,0\H,4,1.08946,1,114.767,2,-59.8892,0\H,4,1.09225,1,109.282,2,178.465,0\H,4,1.09225,1,109.282,2,61.7565,0\C,1,1.51639,2,111.537,3,-122.335,0\H,8,1.08946,1,114.767,2,59.8891,0\H,8,1.09225,1,109.282,2,-178.465,0\H,8,1.09225,1,109.282,2,-61.7566,0\\\@

 Total job time:  25.45s(wall), 68.15s(cpu) 
 Thu Jul  2 04:27:18 2020

        *************************************************************
        *                                                           *
        *  Thank you very much for using Q-Chem.  Have a nice day.  *
        *                                                           *
        *************************************************************


