                  Welcome to Q-Chem
     A Quantum Leap Into The Future Of Chemistry


 Q-Chem 5.3 (devel), Q-Chem, Inc., Pleasanton, CA (2020)

 Yihan Shao,  Zhengting Gan,  E. Epifanovsky,  A. T. B. Gilbert,  M. Wormit,  
 J. Kussmann,  A. W. Lange,  A. Behn,  Jia Deng,  Xintian Feng,  D. Ghosh,  
 M. Goldey,  P. R. Horn,  L. D. Jacobson,  I. Kaliman,  T. Kus,  A. Landau,  
 Jie Liu,  E. I. Proynov,  R. M. Richard,  R. P. Steele,  E. J. Sundstrom,  
 H. L. Woodcock III,  P. M. Zimmerman,  D. Zuev,  B. Alam,  B. Albrecht,  
 E. Alguire,  S. A. Baeppler,  D. Barton,  Z. Benda,  Y. A. Bernard,  
 E. J. Berquist,  K. B. Bravaya,  H. Burton,  K. Carter-Fenk,  D. Casanova,  
 Chun-Min Chang,  Yunqing Chen,  A. Chien,  K. D. Closser,  M. P. Coons,  
 S. Coriani,  S. Dasgupta,  A. L. Dempwolff,  M. Diedenhofen,  Hainam Do,  
 R. G. Edgar,  Po-Tung Fang,  S. Faraji,  S. Fatehi,  Qingguo Feng,  
 J. Fosso-Tande,  J. Gayvert,  Qinghui Ge,  A. Ghysels,  G. Gidofalvi,  
 J. Gomes,  J. Gonthier,  A. Gunina,  D. Hait,  M. W. D. Hanson-Heine,  
 P. H. P. Harbach,  A. W. Hauser,  M. F. Herbst,  J. E. Herr,  
 E. G. Hohenstein,  Z. C. Holden,  Kerwin Hui,  B. C. Huynh,  T.-C. Jagau,  
 Hyunjun Ji,  B. Kaduk,  K. Khistyaev,  Jaehoon Kim,  P. Klunzinger,  K. Koh,  
 D. Kosenkov,  L. Koulias,  T. Kowalczyk,  C. M. Krauter,  A. Kunitsa,  
 Ka Un Lao,  A. Laurent,  K. V. Lawler,  Joonho Lee,  D. Lefrancois,  
 S. Lehtola,  D. S. Levine,  Yi-Pei Li,  You-Sheng Lin,  Fenglai Liu,  
 Kuan-Yu Liu,  E. Livshits,  M. Loipersberger,  A. Luenser,  P. Manohar,  
 E. Mansoor,  S. F. Manzer,  Shan-Ping Mao,  Yuezhi Mao,  N. Mardirossian,  
 A. V. Marenich,  T. Markovich,  L. A. Martinez-Martinez,  S. A. Maurer,  
 N. J. Mayhall,  S. C. McKenzie,  J.-M. Mewes,  P. Morgante,  A. F. Morrison,  
 J. W. Mullinax,  K. Nanda,  T. S. Nguyen-Beck,  R. Olivares-Amaya,  
 K. J. Oosterbaan,  J. A. Parkhill,  S. K. Paul,  F. Pavosevic,  Zheng Pei,  
 T. M. Perrine,  F. Plasser,  P. Pokhilko,  S. Prager,  A. Prociuk,  
 E. Ramos,  B. Rana,  D. R. Rehn,  F. Rob,  M. Scheurer,  M. Schneider,  
 N. Sergueev,  S. M. Sharada,  S. Sharma,  D. W. Small,  T. Stauch,  
 C. J. Stein,  T. Stein,  Yu-Chuan Su,  S. P. Veccham,  Zhen Tao,  
 A. J. W. Thom,  A. Tkatchenko,  T. Tsuchimochi,  N. M. Tubman,  L. Vogt,  
 M. L. Vidal,  O. Vydrov,  M. A. Watson,  J. Wenzel,  M. de Wergifosse,  
 T. A. Wesolowski,  A. White,  J. Witte,  A. Yamada,  Jun Yang,  K. Yao,  
 S. Yeganeh,  S. R. Yost,  Zhi-Qiang You,  A. Zech,  Igor Ying Zhang,  
 Xing Zhang,  Yan Zhao,  Ying Zhu,  B. R. Brooks,  G. K. L. Chan,  
 C. J. Cramer,  M. S. Gordon,  W. J. Hehre,  A. Klamt,  M. W. Schmidt,  
 C. D. Sherrill,  D. G. Truhlar,  A. Aspuru-Guzik,  R. Baer,  A. T. Bell,  
 N. A. Besley,  Jeng-Da Chai,  A. E. DePrince, III,  R. A. DiStasio Jr.,  
 A. Dreuw,  B. D. Dunietz,  T. R. Furlani,  Chao-Ping Hsu,  Yousung Jung,  
 Jing Kong,  D. S. Lambrecht,  WanZhen Liang,  C. Ochsenfeld,  
 V. A. Rassolov,  L. V. Slipchenko,  J. E. Subotnik,  T. Van Voorhis,  
 J. M. Herbert,  A. I. Krylov,  P. M. W. Gill,  M. Head-Gordon

 Contributors to earlier versions of Q-Chem not listed above: 
 R. D. Adamson,  B. Austin,  J. Baker,  G. J. O. Beran,  K. Brandhorst,  
 S. T. Brown,  E. F. C. Byrd,  A. K. Chakraborty,  C.-L. Cheng,  
 Siu Hung Chien,  D. M. Chipman,  D. L. Crittenden,  H. Dachsel,  
 R. J. Doerksen,  A. D. Dutoi,  L. Fusti-Molnar,  W. A. Goddard III,  
 A. Golubeva-Zadorozhnaya,  S. R. Gwaltney,  G. Hawkins,  A. Heyden,  
 S. Hirata,  G. Kedziora,  F. J. Keil,  C. Kelley,  Jihan Kim,  R. A. King,  
 R. Z. Khaliullin,  P. P. Korambath,  W. Kurlancheek,  A. M. Lee,  M. S. Lee,  
 S. V. Levchenko,  Ching Yeh Lin,  D. Liotard,  R. C. Lochan,  I. Lotan,  
 P. E. Maslen,  N. Nair,  D. P. O'Neill,  D. Neuhauser,  E. Neuscamman,  
 C. M. Oana,  R. Olson,  B. Peters,  R. Peverati,  P. A. Pieniazek,  
 Y. M. Rhee,  J. Ritchie,  M. A. Rohrdanz,  E. Rosta,  N. J. Russ,  
 H. F. Schaefer III,  N. E. Schultz,  N. Shenvi,  A. C. Simmonett,  A. Sodt,  
 D. Stuck,  K. S. Thanthiriwatte,  V. Vanovschi,  Tao Wang,  A. Warshel,  
 C. F. Williams,  Q. Wu,  X. Xu,  W. Zhang

 Please cite Q-Chem as follows:
 Y. Shao et al., Mol. Phys. 113, 184-215 (2015)
 DOI: 10.1080/00268976.2014.952696

 Q-Chem 5.3.0 for Intel X86 EM64T Linux

 Parts of Q-Chem use Armadillo 9.800.1 (Horizon Scraper).
 http://arma.sourceforge.net/

 Q-Chem begins on Thu Jul  2 03:33:04 2020  

Host: centos77-c1
0

     Scratch files written to /tmp/26650.centos77-h1/qchem68643//
Processing $rem in /opt/qchem-5.3.0-intel2020u1//config/preferences:
Processing $rem in /home/shihchengli/.qchemrc:

Checking the input file for inconsistencies... 	...done.

--------------------------------------------------------------
User input:
--------------------------------------------------------------
$rem
   JOBTYPE  sp
   EXCHANGE   omegaB97X-D
   BASIS   6-311+G(2df,2pd)
   max_scf_cycles   250
   geom_opt_max_cycles   1500
   basis2 6-31G*
   scf_algorithm rca_diis
   SYM_IGNORE  TRUE
   print_input   true
   geom_opt_dmax   80
   pop_mulliken false
   XC_GRID 000075000302
$end

$molecule
0 1
C       0.8172196779     0.9683466689     0.2554861996
C       0.0000096576     -0.0000209189     -0.5913653845
H       1.7123550936     0.5237987830     0.7110514307
H       0.1792283802     1.3187356558     1.0605950287
H       1.1224992477     1.8437301003     -0.3186488247
C       -0.8172296768     -0.9683275459     0.2555270985
H       0.5217818505     -0.7055279643     -1.2423434493
H       -0.5217373235     0.7054388008     -1.2424130640
H       -0.1792015806     -1.3188008351     1.0605721251
H       -1.1226421597     -1.8436715999     -0.3185970457
H       -1.7122832276     -0.5237004788     0.7111809046
$end
--------------------------------------------------------------
 ----------------------------------------------------------------
             Standard Nuclear Orientation (Angstroms)
    I     Atom           X                Y                Z
 ----------------------------------------------------------------
    1      C       0.8172196779     0.9683466689     0.2554861996
    2      C       0.0000096576    -0.0000209189    -0.5913653845
    3      H       1.7123550936     0.5237987830     0.7110514307
    4      H       0.1792283802     1.3187356558     1.0605950287
    5      H       1.1224992477     1.8437301003    -0.3186488247
    6      C      -0.8172296768    -0.9683275459     0.2555270985
    7      H       0.5217818505    -0.7055279643    -1.2423434493
    8      H      -0.5217373235     0.7054388008    -1.2424130640
    9      H      -0.1792015806    -1.3188008351     1.0605721251
   10      H      -1.1226421597    -1.8436715999    -0.3185970457
   11      H      -1.7122832276    -0.5237004788     0.7111809046
 ----------------------------------------------------------------
 Nuclear Repulsion Energy =          82.81581432 hartrees
 There are       13 alpha and       13 beta electrons
 Requested basis set is 6-311+G(2df,2pd)
 There are 72 shells and 214 basis functions

 Total QAlloc Memory Limit   2000 MB
 Mega-Array Size       188 MB
 MEM_STATIC part       192 MB

                       Distance Matrix (Angstroms)
             C (  1)   C (  2)   H (  3)   H (  4)   H (  5)   C (  6)
   C (  2)  1.524049
   H (  3)  1.098376  2.214228
   H (  4)  1.085360  2.121370  1.761983
   H (  5)  1.090469  2.175724  1.774945  1.751483
   C (  6)  2.534193  1.524049  2.971993  2.621397  3.464086
   H (  7)  2.265532  1.092593  2.597010  3.085209  2.777191  2.026236
   H (  8)  2.026235  1.092592  2.973245  2.484217  2.202853  2.265532
   H (  9)  2.621462  2.121366  2.663705  2.661780  3.687584  1.085361
   H ( 10)  3.464113  2.175729  3.834358  3.687527  4.317128  1.090469
   H ( 11)  2.971910  2.214230  3.581257  2.663546  3.834223  1.098378
             H (  7)   H (  8)   H (  9)   H ( 10)
   H (  8)  1.754924
   H (  9)  2.484130  3.085226
   H ( 10)  2.202909  2.777136  1.751479
   H ( 11)  2.973275  2.597058  1.761987  1.774949
 
 A cutoff of  1.0D-09 yielded   2533 shell pairs
 There are     22509 function pairs (     27669 Cartesian)
 Smallest overlap matrix eigenvalue = 9.45E-05

 Scale SEOQF with 1.000000e-01/1.000000e-01/1.000000e-01

 Standard Electronic Orientation quadrupole field applied
 Nucleus-field energy     =     0.0000000012 hartrees
 Requested basis set is 6-31G(d)
 There are 28 shells and 58 basis functions
 A cutoff of  1.0D-09 yielded    402 shell pairs
 There are      1773 function pairs (      1968 Cartesian)
 Smallest overlap matrix eigenvalue = 6.79E-03
 Guess from superposition of atomic densities
 Warning:  Energy on first SCF cycle will be non-variational
 SAD guess density has 26.000000 electrons
 Long-range K will be added via erf
 Coulomb attenuation parameter = 0.2 bohr**(-1)
 A restricted hybrid HF-DFT SCF calculation will be
 performed using Relaxed Constraint Minimization + Pulay DIIS
 Exchange:     0.2220 Hartree-Fock + 1.0000 wB97X-D + LR-HF
 Correlation:  1.0000 wB97X-D
 Using Euler-Maclaurin-Lebedev (75,302) quadrature formula
 Dispersion:   Grimme D
 SCF converges when DIIS error is below 1.0E-04
 using 3 threads for integral computing
 -------------------------------------------------------
 OpenMP Integral computing Module                
 Release: version 1.0, May 2013, Q-Chem Inc. Pittsburgh 
 -------------------------------------------------------
 using 3 threads for integral computing
 -------------------------------------------------------
 OpenMP Integral computing Module                
 Release: version 1.0, May 2013, Q-Chem Inc. Pittsburgh 
 -------------------------------------------------------
 ---------------------------------------
  Cycle       Energy         DIIS Error
 ---------------------------------------
    1    -119.6307435770      1.01E-01
    2    -119.0553852470      9.00E-03
    3    -119.0765194832      2.48E-03
    4    -119.0903812638      1.70E-03
    5    -119.0910959291      2.71E-04 Done RCA. Switching to DIIS
    6    -119.0916198808      2.00E-04
    7    -119.0916372913      4.72E-06 Convergence criterion met
 ---------------------------------------
 SCF time:  CPU 19.07 s  wall 6.92 s
 SCF   energy in the small basis set = -119.09163729
 Total energy in the small basis set = -119.09163729
 ----------------------------------------------------
  Cycle       Energy    
 ----------------------------------------------------
    1     -16.5413185001     -1.65E+01
 Long-range K will be added via erf
 Coulomb attenuation parameter = 0.2 bohr**(-1)
 A restricted hybrid HF-DFT SCF calculation will be
 performed using Relaxed Constraint Minimization + Pulay DIIS
 Exchange:     0.2220 Hartree-Fock + 1.0000 wB97X-D + LR-HF
 Correlation:  1.0000 wB97X-D
 Using Euler-Maclaurin-Lebedev (75,302) quadrature formula
 Dispersion:   Grimme D
 SCF converges when DIIS error is below 1.0E-05
 Basis2 calculation detected. Using small basis as guess for larger.
 SCFMinFind is unable to tell whether the solution found is close.
 Resetting ReadMinima to 0 and attempting to follow guess.
 SCFMinFind following SCF Guess.
 using 3 threads for integral computing
 -------------------------------------------------------
 OpenMP Integral computing Module                
 Release: version 1.0, May 2013, Q-Chem Inc. Pittsburgh 
 -------------------------------------------------------
 using 3 threads for integral computing
 -------------------------------------------------------
 OpenMP Integral computing Module                
 Release: version 1.0, May 2013, Q-Chem Inc. Pittsburgh 
 -------------------------------------------------------
 ---------------------------------------
  Cycle       Energy         DIIS Error
 ---------------------------------------
    1    -119.1110957438      4.21E-03
    2    -119.1331545903      6.03E-04 Done RCA. Switching to DIIS
    3    -119.1339989112      4.24E-04
    4    -119.1349864444      4.56E-05
    5    -119.1350013727      1.05E-05
    6    -119.1350021090      4.06E-06 Convergence criterion met
 ---------------------------------------
 SCF time:  CPU 49.92 s  wall 16.81 s
 SCF   energy in the final basis set = -119.13500211
 Total energy in the final basis set = -119.13500211
 
 --------------------------------------------------------------
 
                    Orbital Energies (a.u.)
 --------------------------------------------------------------
 
 Alpha MOs
 -- Occupied --
-10.2735 -10.2658 -10.2658  -0.8830  -0.7786  -0.6777  -0.5472  -0.5274
 -0.4824  -0.4658  -0.4245  -0.4143  -0.3962
 -- Virtual --
  0.0693   0.0861   0.0907   0.0995   0.1238   0.1315   0.1318   0.1411
  0.1447   0.1715   0.1726   0.1919   0.2272   0.2321   0.2436   0.2495
  0.2852   0.3055   0.3168   0.3172   0.3317   0.3418   0.4624   0.4666
  0.4753   0.4987   0.5166   0.5216   0.5427   0.5549   0.5826   0.5960
  0.6040   0.6242   0.6310   0.6372   0.6585   0.6654   0.7046   0.7125
  0.7234   0.7683   0.7879   0.8650   0.8821   0.8976   0.9345   0.9632
  1.0080   1.0551   1.0699   1.1297   1.1337   1.1612   1.1662   1.1954
  1.2105   1.2408   1.2610   1.2926   1.3057   1.3187   1.3663   1.3712
  1.3770   1.3870   1.4111   1.4285   1.4541   1.4675   1.4679   1.5152
  1.5296   1.5491   1.5702   1.6064   1.6444   1.6557   1.6560   1.6768
  1.7143   2.3471   2.3848   2.4538   2.4980   2.5635   2.5705   2.6682
  2.6766   2.6888   2.7506   2.8311   2.8325   2.9137   2.9292   2.9333
  2.9600   2.9759   2.9860   3.0526   3.0612   3.0626   3.0883   3.0995
  3.1182   3.1306   3.1541   3.1769   3.2031   3.2634   3.2797   3.3009
  3.3182   3.3310   3.3513   3.3515   3.3731   3.3867   3.4086   3.4248
  3.4412   3.4787   3.5436   3.5732   3.5862   3.5909   3.5960   3.6115
  3.6357   3.6614   3.6651   3.6695   3.7716   3.7739   3.7755   3.8774
  3.8823   3.8986   3.9388   3.9552   3.9996   4.0342   4.0403   4.0563
  4.0750   4.0989   4.1202   4.1493   4.1650   4.1885   4.1937   4.1942
  4.2162   4.2822   4.3158   4.3267   4.3930   4.4102   4.4250   4.4281
  4.4735   4.5408   4.5543   4.6402   4.6730   4.7611   4.8271   4.9050
  4.9666   4.9831   4.9872   4.9937   5.0025   5.0427   5.1087   5.1251
  5.1408   5.1850   5.2190   5.2581   5.2872   5.3227   5.3642   5.3646
  5.3829   5.3939   5.4479   5.4547   5.4887   5.6150   5.6798   5.6967
  6.0180   6.3611   6.3712   6.4007   6.4350   6.4995  25.1579  25.4037
 25.4714
 --------------------------------------------------------------
 
 -----------------------------------------------------------------
                    Cartesian Multipole Moments
 -----------------------------------------------------------------
    Charge (ESU x 10^10)
                -0.0000
    Dipole Moment (Debye)
         X       0.0000      Y      -0.0000      Z      -0.0534
       Tot       0.0534
    Quadrupole Moments (Debye-Ang)
        XX     -22.1330     XY      -0.4013     YY     -21.3789
        XZ      -0.0000     YZ      -0.0000     ZZ     -21.9369
    Octopole Moments (Debye-Ang^2)
       XXX       0.0002    XXY      -0.0001    XYY      -0.0001
       YYY      -0.0001    XXZ       0.5606    XYZ      -0.7390
       YYZ      -1.6714    XZZ      -0.0001    YZZ       0.0001
       ZZZ      -0.0013
    Hexadecapole Moments (Debye-Ang^3)
      XXXX    -108.6608   XXXY     -40.2480   XXYY     -41.7007
      XYYY     -37.8313   YYYY    -137.3468   XXXZ       0.0012
      XXYZ       0.0004   XYYZ       0.0005   YYYZ       0.0002
      XXZZ     -29.9880   XYZZ     -13.9888   YYZZ     -33.2301
      XZZZ       0.0010   YZZZ       0.0004   ZZZZ     -71.9584
 -----------------------------------------------------------------
Archival summary:
1\1\centos77-c1\SP\ProcedureUnspecified\BasisUnspecified\38\shihchen\ThuJul203:33:312020ThuJul203:33:312020\0\\#,ProcedureUnspecified,BasisUnspecified,\\0,1\C\H,1,1.09259\H,1,1.09259,2,106.855\C,1,1.52405,2,119.031,3,-112.306,0\H,4,1.08536,1,107.584,2,-160.272,0\H,4,1.09047,1,111.57,2,82.3976,0\H,4,1.09838,1,114.223,2,-40.9302,0\C,1,1.52405,2,100.189,3,124.725,0\H,8,1.08536,1,107.585,2,83.8462,0\H,8,1.09047,1,111.569,2,-33.4845,0\H,8,1.09838,1,114.223,2,-156.812,0\\\@

 Total job time:  26.59s(wall), 72.52s(cpu) 
 Thu Jul  2 03:33:31 2020

        *************************************************************
        *                                                           *
        *  Thank you very much for using Q-Chem.  Have a nice day.  *
        *                                                           *
        *************************************************************


