                  Welcome to Q-Chem
     A Quantum Leap Into The Future Of Chemistry


 Q-Chem 5.3 (devel), Q-Chem, Inc., Pleasanton, CA (2020)

 Yihan Shao,  Zhengting Gan,  E. Epifanovsky,  A. T. B. Gilbert,  M. Wormit,  
 J. Kussmann,  A. W. Lange,  A. Behn,  Jia Deng,  Xintian Feng,  D. Ghosh,  
 M. Goldey,  P. R. Horn,  L. D. Jacobson,  I. Kaliman,  T. Kus,  A. Landau,  
 Jie Liu,  E. I. Proynov,  R. M. Richard,  R. P. Steele,  E. J. Sundstrom,  
 H. L. Woodcock III,  P. M. Zimmerman,  D. Zuev,  B. Alam,  B. Albrecht,  
 E. Alguire,  S. A. Baeppler,  D. Barton,  Z. Benda,  Y. A. Bernard,  
 E. J. Berquist,  K. B. Bravaya,  H. Burton,  K. Carter-Fenk,  D. Casanova,  
 Chun-Min Chang,  Yunqing Chen,  A. Chien,  K. D. Closser,  M. P. Coons,  
 S. Coriani,  S. Dasgupta,  A. L. Dempwolff,  M. Diedenhofen,  Hainam Do,  
 R. G. Edgar,  Po-Tung Fang,  S. Faraji,  S. Fatehi,  Qingguo Feng,  
 J. Fosso-Tande,  J. Gayvert,  Qinghui Ge,  A. Ghysels,  G. Gidofalvi,  
 J. Gomes,  J. Gonthier,  A. Gunina,  D. Hait,  M. W. D. Hanson-Heine,  
 P. H. P. Harbach,  A. W. Hauser,  M. F. Herbst,  J. E. Herr,  
 E. G. Hohenstein,  Z. C. Holden,  Kerwin Hui,  B. C. Huynh,  T.-C. Jagau,  
 Hyunjun Ji,  B. Kaduk,  K. Khistyaev,  Jaehoon Kim,  P. Klunzinger,  K. Koh,  
 D. Kosenkov,  L. Koulias,  T. Kowalczyk,  C. M. Krauter,  A. Kunitsa,  
 Ka Un Lao,  A. Laurent,  K. V. Lawler,  Joonho Lee,  D. Lefrancois,  
 S. Lehtola,  D. S. Levine,  Yi-Pei Li,  You-Sheng Lin,  Fenglai Liu,  
 Kuan-Yu Liu,  E. Livshits,  M. Loipersberger,  A. Luenser,  P. Manohar,  
 E. Mansoor,  S. F. Manzer,  Shan-Ping Mao,  Yuezhi Mao,  N. Mardirossian,  
 A. V. Marenich,  T. Markovich,  L. A. Martinez-Martinez,  S. A. Maurer,  
 N. J. Mayhall,  S. C. McKenzie,  J.-M. Mewes,  P. Morgante,  A. F. Morrison,  
 J. W. Mullinax,  K. Nanda,  T. S. Nguyen-Beck,  R. Olivares-Amaya,  
 K. J. Oosterbaan,  J. A. Parkhill,  S. K. Paul,  F. Pavosevic,  Zheng Pei,  
 T. M. Perrine,  F. Plasser,  P. Pokhilko,  S. Prager,  A. Prociuk,  
 E. Ramos,  B. Rana,  D. R. Rehn,  F. Rob,  M. Scheurer,  M. Schneider,  
 N. Sergueev,  S. M. Sharada,  S. Sharma,  D. W. Small,  T. Stauch,  
 C. J. Stein,  T. Stein,  Yu-Chuan Su,  S. P. Veccham,  Zhen Tao,  
 A. J. W. Thom,  A. Tkatchenko,  T. Tsuchimochi,  N. M. Tubman,  L. Vogt,  
 M. L. Vidal,  O. Vydrov,  M. A. Watson,  J. Wenzel,  M. de Wergifosse,  
 T. A. Wesolowski,  A. White,  J. Witte,  A. Yamada,  Jun Yang,  K. Yao,  
 S. Yeganeh,  S. R. Yost,  Zhi-Qiang You,  A. Zech,  Igor Ying Zhang,  
 Xing Zhang,  Yan Zhao,  Ying Zhu,  B. R. Brooks,  G. K. L. Chan,  
 C. J. Cramer,  M. S. Gordon,  W. J. Hehre,  A. Klamt,  M. W. Schmidt,  
 C. D. Sherrill,  D. G. Truhlar,  A. Aspuru-Guzik,  R. Baer,  A. T. Bell,  
 N. A. Besley,  Jeng-Da Chai,  A. E. DePrince, III,  R. A. DiStasio Jr.,  
 A. Dreuw,  B. D. Dunietz,  T. R. Furlani,  Chao-Ping Hsu,  Yousung Jung,  
 Jing Kong,  D. S. Lambrecht,  WanZhen Liang,  C. Ochsenfeld,  
 V. A. Rassolov,  L. V. Slipchenko,  J. E. Subotnik,  T. Van Voorhis,  
 J. M. Herbert,  A. I. Krylov,  P. M. W. Gill,  M. Head-Gordon

 Contributors to earlier versions of Q-Chem not listed above: 
 R. D. Adamson,  B. Austin,  J. Baker,  G. J. O. Beran,  K. Brandhorst,  
 S. T. Brown,  E. F. C. Byrd,  A. K. Chakraborty,  C.-L. Cheng,  
 Siu Hung Chien,  D. M. Chipman,  D. L. Crittenden,  H. Dachsel,  
 R. J. Doerksen,  A. D. Dutoi,  L. Fusti-Molnar,  W. A. Goddard III,  
 A. Golubeva-Zadorozhnaya,  S. R. Gwaltney,  G. Hawkins,  A. Heyden,  
 S. Hirata,  G. Kedziora,  F. J. Keil,  C. Kelley,  Jihan Kim,  R. A. King,  
 R. Z. Khaliullin,  P. P. Korambath,  W. Kurlancheek,  A. M. Lee,  M. S. Lee,  
 S. V. Levchenko,  Ching Yeh Lin,  D. Liotard,  R. C. Lochan,  I. Lotan,  
 P. E. Maslen,  N. Nair,  D. P. O'Neill,  D. Neuhauser,  E. Neuscamman,  
 C. M. Oana,  R. Olson,  B. Peters,  R. Peverati,  P. A. Pieniazek,  
 Y. M. Rhee,  J. Ritchie,  M. A. Rohrdanz,  E. Rosta,  N. J. Russ,  
 H. F. Schaefer III,  N. E. Schultz,  N. Shenvi,  A. C. Simmonett,  A. Sodt,  
 D. Stuck,  K. S. Thanthiriwatte,  V. Vanovschi,  Tao Wang,  A. Warshel,  
 C. F. Williams,  Q. Wu,  X. Xu,  W. Zhang

 Please cite Q-Chem as follows:
 Y. Shao et al., Mol. Phys. 113, 184-215 (2015)
 DOI: 10.1080/00268976.2014.952696

 Q-Chem 5.3.0 for Intel X86 EM64T Linux

 Parts of Q-Chem use Armadillo 9.800.1 (Horizon Scraper).
 http://arma.sourceforge.net/

 Q-Chem begins on Thu Jul  2 05:25:14 2020  

Host: centos77-c1
0

     Scratch files written to /tmp/26650.centos77-h1/qchem78876//
Processing $rem in /opt/qchem-5.3.0-intel2020u1//config/preferences:
Processing $rem in /home/shihchengli/.qchemrc:

Checking the input file for inconsistencies... 	...done.

--------------------------------------------------------------
User input:
--------------------------------------------------------------
$rem
   JOBTYPE  sp
   EXCHANGE   omegaB97X-D
   BASIS   6-311+G(2df,2pd)
   max_scf_cycles   250
   geom_opt_max_cycles   1500
   basis2 6-31G*
   scf_algorithm rca_diis
   SYM_IGNORE  TRUE
   print_input   true
   geom_opt_dmax   80
   pop_mulliken false
   XC_GRID 000075000302
$end

$molecule
0 1
C       1.2899374630     0.0000000481     0.3101369394
C       0.0000005334     0.0000000923     -0.5553494000
H       1.2017191776     -0.9187976340     0.8883370962
H       1.2017192792     0.9187977163     0.8883371452
H       2.0933628762     0.0000000715     -0.4231830471
C       -1.2899361795     -0.0000000226     0.3101365118
H       0.0000003113     -0.8723292665     -1.2154314526
H       0.0000006090     0.8723293417     -1.2154316176
H       -1.2017206381     -0.9187977018     0.8883371456
H       -2.0933635310     0.0000004009     -0.4231815449
H       -1.2017199618     0.9187976202     0.8883372429
$end
--------------------------------------------------------------
 ----------------------------------------------------------------
             Standard Nuclear Orientation (Angstroms)
    I     Atom           X                Y                Z
 ----------------------------------------------------------------
    1      C       1.2899374630     0.0000000481     0.3101369394
    2      C       0.0000005334     0.0000000923    -0.5553494000
    3      H       1.2017191776    -0.9187976340     0.8883370962
    4      H       1.2017192792     0.9187977163     0.8883371452
    5      H       2.0933628762     0.0000000715    -0.4231830471
    6      C      -1.2899361795    -0.0000000226     0.3101365118
    7      H       0.0000003113    -0.8723292665    -1.2154314526
    8      H       0.0000006090     0.8723293417    -1.2154316176
    9      H      -1.2017206381    -0.9187977018     0.8883371456
   10      H      -2.0933635310     0.0000004009    -0.4231815449
   11      H      -1.2017199618     0.9187976202     0.8883372429
 ----------------------------------------------------------------
 Nuclear Repulsion Energy =          82.63040838 hartrees
 There are       13 alpha and       13 beta electrons
 Requested basis set is 6-311+G(2df,2pd)
 There are 72 shells and 214 basis functions

 Total QAlloc Memory Limit   2000 MB
 Mega-Array Size       188 MB
 MEM_STATIC part       192 MB

                       Distance Matrix (Angstroms)
             C (  1)   C (  2)   H (  3)   H (  4)   H (  5)   C (  6)
   C (  2)  1.553385
   H (  3)  1.089168  2.091064
   H (  4)  1.089168  2.091064  1.837595
   H (  5)  1.087773  2.097530  1.832840  1.832840
   C (  6)  2.579874  1.553384  2.717876  2.717876  3.461859
   H (  7)  2.179967  1.093923  2.423248  3.012990  2.402245  2.179966
   H (  8)  2.179967  1.093923  3.012990  2.423248  2.402245  2.179966
   H (  9)  2.717879  2.091065  2.403440  3.025439  3.663584  1.089168
   H ( 10)  3.461861  2.097532  3.663583  3.663583  4.186726  1.087773
   H ( 11)  2.717878  2.091065  3.025438  2.403439  3.663584  1.089168
             H (  7)   H (  8)   H (  9)   H ( 10)
   H (  8)  1.744659
   H (  9)  2.423249  3.012991
   H ( 10)  2.402247  2.402247  1.832839
   H ( 11)  3.012990  2.423249  1.837595  1.832839
 
 A cutoff of  1.0D-09 yielded   2546 shell pairs
 There are     22608 function pairs (     27789 Cartesian)
 Smallest overlap matrix eigenvalue = 9.23E-05

 Scale SEOQF with 1.000000e-01/1.000000e-01/1.000000e-01

 Standard Electronic Orientation quadrupole field applied
 Nucleus-field energy     =     0.0000000006 hartrees
 Requested basis set is 6-31G(d)
 There are 28 shells and 58 basis functions
 A cutoff of  1.0D-09 yielded    402 shell pairs
 There are      1773 function pairs (      1968 Cartesian)
 Smallest overlap matrix eigenvalue = 6.62E-03
 Guess from superposition of atomic densities
 Warning:  Energy on first SCF cycle will be non-variational
 SAD guess density has 26.000000 electrons
 Long-range K will be added via erf
 Coulomb attenuation parameter = 0.2 bohr**(-1)
 A restricted hybrid HF-DFT SCF calculation will be
 performed using Relaxed Constraint Minimization + Pulay DIIS
 Exchange:     0.2220 Hartree-Fock + 1.0000 wB97X-D + LR-HF
 Correlation:  1.0000 wB97X-D
 Using Euler-Maclaurin-Lebedev (75,302) quadrature formula
 Dispersion:   Grimme D
 SCF converges when DIIS error is below 1.0E-04
 using 3 threads for integral computing
 -------------------------------------------------------
 OpenMP Integral computing Module                
 Release: version 1.0, May 2013, Q-Chem Inc. Pittsburgh 
 -------------------------------------------------------
 using 3 threads for integral computing
 -------------------------------------------------------
 OpenMP Integral computing Module                
 Release: version 1.0, May 2013, Q-Chem Inc. Pittsburgh 
 -------------------------------------------------------
 ---------------------------------------
  Cycle       Energy         DIIS Error
 ---------------------------------------
    1    -119.5807261096      9.90E-02
    2    -119.0520917267      9.00E-03
    3    -119.0737631611      2.64E-03
    4    -119.0870496704      1.81E-03
    5    -119.0878707331      3.21E-04 Done RCA. Switching to DIIS
    6    -119.0884407837      2.36E-04
    7    -119.0884646872      5.26E-06 Convergence criterion met
 ---------------------------------------
 SCF time:  CPU 21.64 s  wall 8.20 s
 SCF   energy in the small basis set = -119.08846469
 Total energy in the small basis set = -119.08846469
 ----------------------------------------------------
  Cycle       Energy    
 ----------------------------------------------------
    1     -16.5279585662     -1.65E+01
 Long-range K will be added via erf
 Coulomb attenuation parameter = 0.2 bohr**(-1)
 A restricted hybrid HF-DFT SCF calculation will be
 performed using Relaxed Constraint Minimization + Pulay DIIS
 Exchange:     0.2220 Hartree-Fock + 1.0000 wB97X-D + LR-HF
 Correlation:  1.0000 wB97X-D
 Using Euler-Maclaurin-Lebedev (75,302) quadrature formula
 Dispersion:   Grimme D
 SCF converges when DIIS error is below 1.0E-05
 Basis2 calculation detected. Using small basis as guess for larger.
 SCFMinFind is unable to tell whether the solution found is close.
 Resetting ReadMinima to 0 and attempting to follow guess.
 SCFMinFind following SCF Guess.
 using 3 threads for integral computing
 -------------------------------------------------------
 OpenMP Integral computing Module                
 Release: version 1.0, May 2013, Q-Chem Inc. Pittsburgh 
 -------------------------------------------------------
 using 3 threads for integral computing
 -------------------------------------------------------
 OpenMP Integral computing Module                
 Release: version 1.0, May 2013, Q-Chem Inc. Pittsburgh 
 -------------------------------------------------------
 ---------------------------------------
  Cycle       Energy         DIIS Error
 ---------------------------------------
    1    -119.1077867874      4.22E-03
    2    -119.1297839832      6.38E-04 Done RCA. Switching to DIIS
    3    -119.1307203255      4.51E-04
    4    -119.1318387203      4.54E-05
    5    -119.1318528424      1.41E-05
    6    -119.1318540173      4.30E-06 Convergence criterion met
 ---------------------------------------
 SCF time:  CPU 51.66 s  wall 17.47 s
 SCF   energy in the final basis set = -119.13185402
 Total energy in the final basis set = -119.13185402
 
 --------------------------------------------------------------
 
                    Orbital Energies (a.u.)
 --------------------------------------------------------------
 
 Alpha MOs
 -- Occupied --
-10.2715 -10.2672 -10.2672  -0.8803  -0.7759  -0.6672  -0.5539  -0.5262
 -0.4842  -0.4759  -0.4116  -0.4096  -0.4008
 -- Virtual --
  0.0694   0.0883   0.0909   0.0963   0.1229   0.1313   0.1317   0.1359
  0.1435   0.1694   0.1713   0.1902   0.2205   0.2407   0.2566   0.2669
  0.2683   0.2805   0.3063   0.3147   0.3296   0.3376   0.4492   0.4604
  0.4714   0.4988   0.5059   0.5168   0.5325   0.5627   0.5919   0.5972
  0.6164   0.6174   0.6234   0.6446   0.6573   0.6608   0.7086   0.7211
  0.7271   0.7618   0.8130   0.8431   0.8657   0.8789   0.9041   0.9476
  0.9995   1.0365   1.0467   1.1054   1.1248   1.1865   1.1923   1.1951
  1.2304   1.2630   1.2772   1.2853   1.2859   1.2896   1.3453   1.3848
  1.3881   1.3998   1.4038   1.4214   1.4532   1.4572   1.4830   1.4883
  1.4894   1.5478   1.5641   1.5791   1.5968   1.6160   1.6492   1.6961
  1.7178   2.4328   2.5072   2.5130   2.5327   2.5788   2.6122   2.6545
  2.6663   2.7150   2.8148   2.8280   2.8771   2.9096   2.9168   2.9319
  2.9413   2.9466   2.9605   2.9730   2.9935   3.0053   3.0130   3.1164
  3.1304   3.1311   3.1574   3.1652   3.1960   3.2069   3.2477   3.2603
  3.2957   3.3149   3.3468   3.3527   3.3701   3.3872   3.3986   3.4255
  3.4570   3.5137   3.5240   3.5442   3.5639   3.5683   3.5764   3.5916
  3.6274   3.6509   3.6746   3.7126   3.7387   3.7743   3.8705   3.8709
  3.8806   3.9162   3.9244   3.9759   3.9884   4.0225   4.0345   4.0596
  4.0750   4.0939   4.0968   4.1044   4.1318   4.1667   4.1749   4.1798
  4.1994   4.2259   4.2600   4.3502   4.4122   4.4133   4.4351   4.4502
  4.4938   4.5653   4.6083   4.6142   4.7090   4.8071   4.8529   4.8585
  4.9257   4.9483   4.9571   4.9950   5.0034   5.0267   5.0541   5.1107
  5.1441   5.1754   5.1781   5.2212   5.2345   5.3260   5.3706   5.4105
  5.5008   5.5106   5.5122   5.5279   5.6637   5.7127   5.7211   5.7460
  5.9616   6.3099   6.3264   6.3558   6.3742   6.4619  25.1648  25.4435
 25.4455
 --------------------------------------------------------------
 
 -----------------------------------------------------------------
                    Cartesian Multipole Moments
 -----------------------------------------------------------------
    Charge (ESU x 10^10)
                -0.0000
    Dipole Moment (Debye)
         X      -0.0000      Y      -0.0000      Z      -0.2250
       Tot       0.2250
    Quadrupole Moments (Debye-Ang)
        XX     -23.2274     XY       0.0000     YY     -21.0192
        XZ      -0.0000     YZ      -0.0000     ZZ     -22.0866
    Octopole Moments (Debye-Ang^2)
       XXX      -0.0001    XXY      -0.0000    XYY      -0.0000
       YYY      -0.0000    XXZ      -4.1412    XYZ       0.0000
       YYZ       0.2858    XZZ      -0.0000    YZZ      -0.0000
       ZZZ      -2.5863
    Hexadecapole Moments (Debye-Ang^3)
      XXXX    -206.9419   XXXY      -0.0000   XXYY     -42.1111
      XYYY       0.0000   YYYY     -44.2702   XXXZ      -0.0000
      XXYZ      -0.0000   XYYZ      -0.0000   YYYZ      -0.0000
      XXZZ     -45.5951   XYZZ       0.0000   YYZZ     -17.4035
      XZZZ      -0.0000   YZZZ      -0.0000   ZZZZ     -73.4820
 -----------------------------------------------------------------
Archival summary:
1\1\centos77-c1\SP\ProcedureUnspecified\BasisUnspecified\38\shihchen\ThuJul205:25:422020ThuJul205:25:422020\0\\#,ProcedureUnspecified,BasisUnspecified,\\0,1\C\H,1,1.09392\H,1,1.09392,2,105.771\C,1,1.55338,2,109.645,3,118.149,0\H,4,1.08777,1,103.752,2,-57.8565,0\H,4,1.08917,1,103.21,2,62.0884,0\H,4,1.08917,1,103.21,2,-177.801,0\C,1,1.55338,2,109.645,3,-118.149,0\H,8,1.08777,1,103.752,2,57.8565,0\H,8,1.08917,1,103.21,2,-62.0885,0\H,8,1.08917,1,103.21,2,177.801,0\\\@

 Total job time:  28.62s(wall), 76.91s(cpu) 
 Thu Jul  2 05:25:42 2020

        *************************************************************
        *                                                           *
        *  Thank you very much for using Q-Chem.  Have a nice day.  *
        *                                                           *
        *************************************************************


