                  Welcome to Q-Chem
     A Quantum Leap Into The Future Of Chemistry


 Q-Chem 5.2 (devel), Q-Chem, Inc., Pleasanton, CA (2019)

 Yihan Shao,  Zhengting Gan,  E. Epifanovsky,  A. T. B. Gilbert,  M. Wormit,  
 J. Kussmann,  A. W. Lange,  A. Behn,  Jia Deng,  Xintian Feng,  D. Ghosh,  
 M. Goldey,  P. R. Horn,  L. D. Jacobson,  I. Kaliman,  T. Kus,  A. Landau,  
 Jie Liu,  E. I. Proynov,  R. M. Richard,  R. P. Steele,  E. J. Sundstrom,  
 H. L. Woodcock III,  P. M. Zimmerman,  D. Zuev,  B. Alam,  B. Albrecht,  
 E. Alguire,  S. A. Baeppler,  D. Barton,  Z. Benda,  Y. A. Bernard,  
 E. J. Berquist,  K. B. Bravaya,  H. Burton,  K. Carter-Fenk,  D. Casanova,  
 Chun-Min Chang,  Yunqing Chen,  A. Chien,  K. D. Closser,  M. P. Coons,  
 S. Coriani,  S. Dasgupta,  A. L. Dempwolff,  M. Diedenhofen,  Hainam Do,  
 R. G. Edgar,  Po-Tung Fang,  S. Faraji,  S. Fatehi,  Qingguo Feng,  
 J. Fosso-Tande,  J. Gayvert,  Qinghui Ge,  A. Ghysels,  G. Gidofalvi,  
 J. Gomes,  J. Gonthier,  A. Gunina,  D. Hait,  M. W. D. Hanson-Heine,  
 P. H. P. Harbach,  A. W. Hauser,  M. F. Herbst,  J. E. Herr,  
 E. G. Hohenstein,  Z. C. Holden,  Kerwin Hui,  B. C. Huynh,  T.-C. Jagau,  
 Hyunjun Ji,  B. Kaduk,  K. Khistyaev,  Jaehoon Kim,  P. Klunzinger,  K. Koh,  
 D. Kosenkov,  L. Koulias,  T. Kowalczyk,  C. M. Krauter,  A. Kunitsa,  
 Ka Un Lao,  A. Laurent,  K. V. Lawler,  Joonho Lee,  D. Lefrancois,  
 S. Lehtola,  D. S. Levine,  Yi-Pei Li,  You-Sheng Lin,  Fenglai Liu,  
 Kuan-Yu Liu,  E. Livshits,  M. Loipersberger,  A. Luenser,  P. Manohar,  
 E. Mansoor,  S. F. Manzer,  Shan-Ping Mao,  Yuezhi Mao,  N. Mardirossian,  
 A. V. Marenich,  T. Markovich,  L. A. Martinez-Martinez,  S. A. Maurer,  
 N. J. Mayhall,  S. C. McKenzie,  J.-M. Mewes,  P. Morgante,  A. F. Morrison,  
 J. W. Mullinax,  K. Nanda,  T. S. Nguyen-Beck,  R. Olivares-Amaya,  
 J. A. Parkhill,  S. K. Paul,  Zheng Pei,  T. M. Perrine,  F. Plasser,  
 P. Pokhilko,  S. Prager,  A. Prociuk,  E. Ramos,  B. Rana,  D. R. Rehn,  
 F. Rob,  M. Scheurer,  M. Schneider,  N. Sergueev,  S. M. Sharada,  
 S. Sharma,  D. W. Small,  T. Stauch,  C. J. Stein,  T. Stein,  Yu-Chuan Su,  
 S. P. Veccham,  A. J. W. Thom,  A. Tkatchenko,  T. Tsuchimochi,  
 N. M. Tubman,  L. Vogt,  M. L. Vidal,  O. Vydrov,  M. A. Watson,  J. Wenzel,  
 M. de Wergifosse,  T. A. Wesolowski,  A. White,  J. Witte,  A. Yamada,  
 Jun Yang,  K. Yao,  S. Yeganeh,  S. R. Yost,  Zhi-Qiang You,  A. Zech,  
 Igor Ying Zhang,  Xing Zhang,  Yan Zhao,  Ying Zhu,  B. R. Brooks,  
 G. K. L. Chan,  C. J. Cramer,  M. S. Gordon,  W. J. Hehre,  A. Klamt,  
 M. W. Schmidt,  C. D. Sherrill,  D. G. Truhlar,  A. Aspuru-Guzik,  R. Baer,  
 A. T. Bell,  N. A. Besley,  Jeng-Da Chai,  A. E. DePrince, III,  
 R. A. DiStasio Jr.,  A. Dreuw,  B. D. Dunietz,  T. R. Furlani,  
 Chao-Ping Hsu,  Yousung Jung,  Jing Kong,  D. S. Lambrecht,  WanZhen Liang,  
 C. Ochsenfeld,  V. A. Rassolov,  L. V. Slipchenko,  J. E. Subotnik,  
 T. Van Voorhis,  J. M. Herbert,  A. I. Krylov,  P. M. W. Gill,  M. Head-Gordon

 Contributors to earlier versions of Q-Chem not listed above: 
 R. D. Adamson,  B. Austin,  J. Baker,  G. J. O. Beran,  K. Brandhorst,  
 S. T. Brown,  E. F. C. Byrd,  A. K. Chakraborty,  C.-L. Cheng,  
 Siu Hung Chien,  D. M. Chipman,  D. L. Crittenden,  H. Dachsel,  
 R. J. Doerksen,  A. D. Dutoi,  L. Fusti-Molnar,  W. A. Goddard III,  
 A. Golubeva-Zadorozhnaya,  S. R. Gwaltney,  G. Hawkins,  A. Heyden,  
 S. Hirata,  G. Kedziora,  F. J. Keil,  C. Kelley,  Jihan Kim,  R. A. King,  
 R. Z. Khaliullin,  P. P. Korambath,  W. Kurlancheek,  A. M. Lee,  M. S. Lee,  
 S. V. Levchenko,  Ching Yeh Lin,  D. Liotard,  R. C. Lochan,  I. Lotan,  
 P. E. Maslen,  N. Nair,  D. P. O'Neill,  D. Neuhauser,  E. Neuscamman,  
 C. M. Oana,  R. Olson,  B. Peters,  R. Peverati,  P. A. Pieniazek,  
 Y. M. Rhee,  J. Ritchie,  M. A. Rohrdanz,  E. Rosta,  N. J. Russ,  
 H. F. Schaefer III,  N. E. Schultz,  N. Shenvi,  A. C. Simmonett,  A. Sodt,  
 D. Stuck,  K. S. Thanthiriwatte,  V. Vanovschi,  Tao Wang,  A. Warshel,  
 C. F. Williams,  Q. Wu,  X. Xu,  W. Zhang

 Please cite Q-Chem as follows:
 Y. Shao et al., Mol. Phys. 113, 184-215 (2015)
 DOI: 10.1080/00268976.2014.952696

 Q-Chem 5.2.2 for Intel X86 EM64T Linux

 Parts of Q-Chem use Armadillo 9.800.1 (Horizon Scraper).
 http://arma.sourceforge.net/

 Q-Chem begins on Sun Apr 12 13:23:37 2020  

Host: cn0909
0

     Scratch files written to /tmp/ypli/6724609.srvc1/qchem71441//
Warning:  Did not find "$end" marker in "$molecule" section

Checking the input file for inconsistencies... 	...done.

--------------------------------------------------------------
User input:
--------------------------------------------------------------
$rem
   JOBTYPE  sp
   EXCHANGE   omegaB97X-D
   BASIS   6-311+G(2df,2pd)
   max_scf_cycles   250
   geom_opt_max_cycles   1500
   basis2 6-31G*
   scf_algorithm rca_diis
   SYM_IGNORE  TRUE
   print_input   true
   geom_opt_dmax   80
   pop_mulliken false
   XC_GRID 000075000302
$end

$molecule
0 1
C       1.1915459611     -0.4312236976     0.2667959778
C       0.0000015938     0.0000099612     -0.5799498757
H       2.0925606693     -0.4334187955     -0.3453070012
H       1.0670494132     -1.4395127761     0.6738912247
H       1.3604484424     0.2515707249     1.1000975234
C       -1.1915465830     0.4312180926     0.2668038243
H       -0.2194662112     -0.8464440959     -1.2350111724
H       0.2194718534     0.8464845823     -1.2349845229
H       -1.0670874844     1.4395228965     0.6738698787
H       -1.3604071710     -0.2515647057     1.1001234482
H       -2.0925705440     0.4333584793     -0.3452842861
--------------------------------------------------------------
 ----------------------------------------------------------------
             Standard Nuclear Orientation (Angstroms)
    I     Atom           X                Y                Z
 ----------------------------------------------------------------
    1      C       1.1915459611    -0.4312236976     0.2667959778
    2      C       0.0000015938     0.0000099612    -0.5799498757
    3      H       2.0925606693    -0.4334187955    -0.3453070012
    4      H       1.0670494132    -1.4395127761     0.6738912247
    5      H       1.3604484424     0.2515707249     1.1000975234
    6      C      -1.1915465830     0.4312180926     0.2668038243
    7      H      -0.2194662112    -0.8464440959    -1.2350111724
    8      H       0.2194718534     0.8464845823    -1.2349845229
    9      H      -1.0670874844     1.4395228965     0.6738698787
   10      H      -1.3604071710    -0.2515647057     1.1001234482
   11      H      -2.0925705440     0.4333584793    -0.3452842861
 ----------------------------------------------------------------
 Nuclear Repulsion Energy =          82.71183557 hartrees
 There are       13 alpha and       13 beta electrons
 Requested basis set is 6-311+G(2df,2pd)
 There are 72 shells and 214 basis functions

 Total QAlloc Memory Limit   2000 MB
 Mega-Array Size       188 MB
 MEM_STATIC part       192 MB

                       Distance Matrix (Angstroms)
             C (  1)   C (  2)   H (  3)   H (  4)   H (  5)   C (  6)
   C (  2)  1.524047
   H (  3)  1.089267  2.149819
   H (  4)  1.094474  2.186992  1.761438
   H (  5)  1.090471  2.176386  1.759089  1.768473
   C (  6)  2.534351  1.524047  3.450744  2.960846  2.690600
   H (  7)  2.102091  1.092591  2.511500  2.377133  3.025640  2.198365
   H (  8)  2.198366  1.092592  2.436830  3.096446  2.666150  2.102091
   H (  9)  2.960883  2.186993  3.811825  3.583767  2.736025  1.094473
   H ( 10)  2.690572  2.176384  3.747710  2.735953  2.766984  1.090471
   H ( 11)  3.450734  2.149818  4.273947  3.811766  3.747735  1.089266
             H (  7)   H (  8)   H (  9)   H ( 10)
   H (  8)  1.748907
   H (  9)  3.096439  2.377111
   H ( 10)  2.666174  3.025634  1.768476
   H ( 11)  2.436807  2.511529  1.761436  1.759087
 
 A cutoff of  1.0D-09 yielded   2531 shell pairs
 There are     22511 function pairs (     27677 Cartesian)
 Smallest overlap matrix eigenvalue = 8.49E-05

 Scale SEOQF with 1.000000e-01/1.000000e-01/1.000000e-01

 Standard Electronic Orientation quadrupole field applied
 Nucleus-field energy     =     0.0000000007 hartrees
 Requested basis set is 6-31G(d)
 There are 28 shells and 58 basis functions
 A cutoff of  1.0D-09 yielded    402 shell pairs
 There are      1773 function pairs (      1968 Cartesian)
 Smallest overlap matrix eigenvalue = 6.58E-03
 Guess from superposition of atomic densities
 Warning:  Energy on first SCF cycle will be non-variational
 SAD guess density has 26.000000 electrons
 Long-range K will be added via erf
 Coulomb attenuation parameter = 0.2 bohr**(-1)
 A restricted hybrid HF-DFT SCF calculation will be
 performed using Relaxed Constraint Minimization + Pulay DIIS
 Exchange:     0.2220 Hartree-Fock + 1.0000 wB97X-D + LR-HF
 Correlation:  1.0000 wB97X-D
 Using Euler-Maclaurin-Lebedev (75,302) quadrature formula
 Dispersion:   Grimme D
 SCF converges when DIIS error is below 1.0E-04
 using 3 threads for integral computing
 -------------------------------------------------------
 OpenMP Integral computing Module                
 Release: version 1.0, May 2013, Q-Chem Inc. Pittsburgh 
 -------------------------------------------------------
 using 3 threads for integral computing
 -------------------------------------------------------
 OpenMP Integral computing Module                
 Release: version 1.0, May 2013, Q-Chem Inc. Pittsburgh 
 -------------------------------------------------------
 ---------------------------------------
  Cycle       Energy         DIIS Error
 ---------------------------------------
    1    -119.6199544341      1.00E-01
    2    -119.0633098264      9.03E-03
    3    -119.0845048471      2.46E-03
    4    -119.0984830333      1.68E-03
    5    -119.0991804093      2.67E-04 Done RCA. Switching to DIIS
    6    -119.0996916457      1.97E-04
    7    -119.0997084690      4.58E-06 Convergence criterion met
 ---------------------------------------
 SCF time:  CPU 27.58 s  wall 9.62 s
 SCF   energy in the small basis set = -119.09970847
 Total energy in the small basis set = -119.09970847
 ----------------------------------------------------
  Cycle       Energy    
 ----------------------------------------------------
    1     -16.5406041504     -1.65E+01
 Long-range K will be added via erf
 Coulomb attenuation parameter = 0.2 bohr**(-1)
 A restricted hybrid HF-DFT SCF calculation will be
 performed using Relaxed Constraint Minimization + Pulay DIIS
 Exchange:     0.2220 Hartree-Fock + 1.0000 wB97X-D + LR-HF
 Correlation:  1.0000 wB97X-D
 Using Euler-Maclaurin-Lebedev (75,302) quadrature formula
 Dispersion:   Grimme D
 SCF converges when DIIS error is below 1.0E-05
 Basis2 calculation detected. Using small basis as guess for larger.
 SCFMinFind is unable to tell whether the solution found is close.
 Resetting ReadMinima to 0 and attempting to follow guess.
 SCFMinFind following SCF Guess.
 using 3 threads for integral computing
 -------------------------------------------------------
 OpenMP Integral computing Module                
 Release: version 1.0, May 2013, Q-Chem Inc. Pittsburgh 
 -------------------------------------------------------
 using 3 threads for integral computing
 -------------------------------------------------------
 OpenMP Integral computing Module                
 Release: version 1.0, May 2013, Q-Chem Inc. Pittsburgh 
 -------------------------------------------------------
 ---------------------------------------
  Cycle       Energy         DIIS Error
 ---------------------------------------
    1    -119.1188452461      4.21E-03
    2    -119.1408854201      5.99E-04 Done RCA. Switching to DIIS
    3    -119.1417202865      4.20E-04
    4    -119.1426874745      4.55E-05
    5    -119.1427022056      1.00E-05
    6    -119.1427028902      3.80E-06 Convergence criterion met
 ---------------------------------------
 SCF time:  CPU 80.29 s  wall 27.13 s
 SCF   energy in the final basis set = -119.14270289
 Total energy in the final basis set = -119.14270289
 
 --------------------------------------------------------------
 
                    Orbital Energies (a.u.)
 --------------------------------------------------------------
 
 Alpha MOs
 -- Occupied --
-10.2736 -10.2646 -10.2646  -0.8810  -0.7775  -0.6772  -0.5452  -0.5230
 -0.4842  -0.4664  -0.4194  -0.4181  -0.4008
 -- Virtual --
  0.0688   0.0864   0.0908   0.0993   0.1242   0.1307   0.1326   0.1415
  0.1444   0.1699   0.1735   0.1911   0.2311   0.2430   0.2463   0.2478
  0.2867   0.2969   0.3117   0.3223   0.3359   0.3406   0.4606   0.4642
  0.4770   0.5058   0.5121   0.5160   0.5391   0.5652   0.5847   0.5901
  0.6139   0.6148   0.6430   0.6522   0.6549   0.6567   0.7060   0.7218
  0.7237   0.7719   0.7929   0.8394   0.8779   0.8993   0.9214   0.9585
  1.0157   1.0619   1.0705   1.1150   1.1481   1.1584   1.1856   1.2193
  1.2197   1.2368   1.2615   1.2653   1.2742   1.3141   1.3665   1.3722
  1.3775   1.3950   1.4272   1.4479   1.4519   1.4647   1.4762   1.5120
  1.5325   1.5527   1.5808   1.5918   1.6389   1.6449   1.6766   1.6902
  1.7270   2.3706   2.4191   2.4746   2.4894   2.5479   2.5778   2.6439
  2.6499   2.6663   2.7936   2.8300   2.8587   2.8815   2.9321   2.9331
  2.9380   2.9560   3.0027   3.0382   3.0483   3.0789   3.0818   3.1058
  3.1191   3.1356   3.1841   3.1947   3.2003   3.2361   3.2782   3.2901
  3.3125   3.3276   3.3459   3.3682   3.3856   3.4035   3.4071   3.4145
  3.4399   3.4691   3.5190   3.5246   3.5799   3.5851   3.6080   3.6096
  3.6313   3.6522   3.6839   3.7113   3.7618   3.8126   3.8349   3.8773
  3.8933   3.9398   3.9511   3.9651   3.9881   4.0270   4.0417   4.0637
  4.0714   4.0909   4.1236   4.1508   4.1641   4.1752   4.1887   4.1928
  4.2166   4.2396   4.3039   4.3464   4.3527   4.3891   4.4285   4.4505
  4.4511   4.5273   4.5864   4.6442   4.6475   4.8279   4.8713   4.9099
  4.9307   4.9533   4.9549   4.9670   5.0088   5.0570   5.0596   5.1209
  5.1534   5.2092   5.2285   5.2695   5.3088   5.3140   5.3478   5.3564
  5.3869   5.3961   5.4269   5.4983   5.5249   5.5753   5.6316   5.7155
  5.9581   6.3690   6.3766   6.4006   6.4374   6.4736  25.1861  25.4152
 25.4665
 --------------------------------------------------------------
 
 -----------------------------------------------------------------
                    Cartesian Multipole Moments
 -----------------------------------------------------------------
    Charge (ESU x 10^10)
                 0.0000
    Dipole Moment (Debye)
         X      -0.0000      Y       0.0000      Z      -0.1026
       Tot       0.1026
    Quadrupole Moments (Debye-Ang)
        XX     -22.2983     XY       0.1493     YY     -21.2760
        XZ       0.0000     YZ       0.0000     ZZ     -21.8086
    Octopole Moments (Debye-Ang^2)
       XXX      -0.0000    XXY      -0.0000    XYY      -0.0000
       YYY       0.0001    XXZ      -1.4654    XYZ       0.2513
       YYZ       0.1066    XZZ       0.0000    YZZ      -0.0001
       ZZZ      -0.4810
    Hexadecapole Moments (Debye-Ang^3)
      XXXX    -185.3958   XXXY      26.2263   XXYY     -42.6924
      XYYY      25.1534   YYYY     -60.9175   XXXZ       0.0003
      XXYZ       0.0002   XYYZ       0.0001   YYYZ       0.0001
      XXZZ     -42.0088   XYZZ       9.3216   YYZZ     -20.9724
      XZZZ       0.0003   YZZZ       0.0001   ZZZZ     -71.6215
 -----------------------------------------------------------------
Archival summary:
1\1\cn0909\SP\ProcedureUnspecified\BasisUnspecified\38\r0852400\SunApr1213:24:172020SunApr1213:24:172020\0\\#,ProcedureUnspecified,BasisUnspecified,\\0,1\C\H,1,1.09259\H,1,1.09259,2,106.327\C,1,1.52405,2,105.72,3,-120.685,0\H,4,1.08927,1,109.577,2,73.1364,0\H,4,1.09047,1,111.623,2,-167.76,0\H,4,1.09447,1,112.234,2,-46.2565,0\C,1,1.52405,2,113.282,3,115.683,0\H,8,1.08927,1,109.577,2,-42.9019,0\H,8,1.09047,1,111.622,2,76.2016,0\H,8,1.09447,1,112.234,2,-162.295,0\\\@

 Total job time:  40.65s(wall), 112.63s(cpu) 
 Sun Apr 12 13:24:17 2020

        *************************************************************
        *                                                           *
        *  Thank you very much for using Q-Chem.  Have a nice day.  *
        *                                                           *
        *************************************************************


