                  Welcome to Q-Chem
     A Quantum Leap Into The Future Of Chemistry


 Q-Chem 5.2 (devel), Q-Chem, Inc., Pleasanton, CA (2019)

 Yihan Shao,  Zhengting Gan,  E. Epifanovsky,  A. T. B. Gilbert,  M. Wormit,  
 J. Kussmann,  A. W. Lange,  A. Behn,  Jia Deng,  Xintian Feng,  D. Ghosh,  
 M. Goldey,  P. R. Horn,  L. D. Jacobson,  I. Kaliman,  T. Kus,  A. Landau,  
 Jie Liu,  E. I. Proynov,  R. M. Richard,  R. P. Steele,  E. J. Sundstrom,  
 H. L. Woodcock III,  P. M. Zimmerman,  D. Zuev,  B. Alam,  B. Albrecht,  
 E. Alguire,  S. A. Baeppler,  D. Barton,  Z. Benda,  Y. A. Bernard,  
 E. J. Berquist,  K. B. Bravaya,  H. Burton,  K. Carter-Fenk,  D. Casanova,  
 Chun-Min Chang,  Yunqing Chen,  A. Chien,  K. D. Closser,  M. P. Coons,  
 S. Coriani,  S. Dasgupta,  A. L. Dempwolff,  M. Diedenhofen,  Hainam Do,  
 R. G. Edgar,  Po-Tung Fang,  S. Faraji,  S. Fatehi,  Qingguo Feng,  
 J. Fosso-Tande,  J. Gayvert,  Qinghui Ge,  A. Ghysels,  G. Gidofalvi,  
 J. Gomes,  J. Gonthier,  A. Gunina,  D. Hait,  M. W. D. Hanson-Heine,  
 P. H. P. Harbach,  A. W. Hauser,  M. F. Herbst,  J. E. Herr,  
 E. G. Hohenstein,  Z. C. Holden,  Kerwin Hui,  B. C. Huynh,  T.-C. Jagau,  
 Hyunjun Ji,  B. Kaduk,  K. Khistyaev,  Jaehoon Kim,  P. Klunzinger,  K. Koh,  
 D. Kosenkov,  L. Koulias,  T. Kowalczyk,  C. M. Krauter,  A. Kunitsa,  
 Ka Un Lao,  A. Laurent,  K. V. Lawler,  Joonho Lee,  D. Lefrancois,  
 S. Lehtola,  D. S. Levine,  Yi-Pei Li,  You-Sheng Lin,  Fenglai Liu,  
 Kuan-Yu Liu,  E. Livshits,  M. Loipersberger,  A. Luenser,  P. Manohar,  
 E. Mansoor,  S. F. Manzer,  Shan-Ping Mao,  Yuezhi Mao,  N. Mardirossian,  
 A. V. Marenich,  T. Markovich,  L. A. Martinez-Martinez,  S. A. Maurer,  
 N. J. Mayhall,  S. C. McKenzie,  J.-M. Mewes,  P. Morgante,  A. F. Morrison,  
 J. W. Mullinax,  K. Nanda,  T. S. Nguyen-Beck,  R. Olivares-Amaya,  
 J. A. Parkhill,  S. K. Paul,  Zheng Pei,  T. M. Perrine,  F. Plasser,  
 P. Pokhilko,  S. Prager,  A. Prociuk,  E. Ramos,  B. Rana,  D. R. Rehn,  
 F. Rob,  M. Scheurer,  M. Schneider,  N. Sergueev,  S. M. Sharada,  
 S. Sharma,  D. W. Small,  T. Stauch,  C. J. Stein,  T. Stein,  Yu-Chuan Su,  
 S. P. Veccham,  A. J. W. Thom,  A. Tkatchenko,  T. Tsuchimochi,  
 N. M. Tubman,  L. Vogt,  M. L. Vidal,  O. Vydrov,  M. A. Watson,  J. Wenzel,  
 M. de Wergifosse,  T. A. Wesolowski,  A. White,  J. Witte,  A. Yamada,  
 Jun Yang,  K. Yao,  S. Yeganeh,  S. R. Yost,  Zhi-Qiang You,  A. Zech,  
 Igor Ying Zhang,  Xing Zhang,  Yan Zhao,  Ying Zhu,  B. R. Brooks,  
 G. K. L. Chan,  C. J. Cramer,  M. S. Gordon,  W. J. Hehre,  A. Klamt,  
 M. W. Schmidt,  C. D. Sherrill,  D. G. Truhlar,  A. Aspuru-Guzik,  R. Baer,  
 A. T. Bell,  N. A. Besley,  Jeng-Da Chai,  A. E. DePrince, III,  
 R. A. DiStasio Jr.,  A. Dreuw,  B. D. Dunietz,  T. R. Furlani,  
 Chao-Ping Hsu,  Yousung Jung,  Jing Kong,  D. S. Lambrecht,  WanZhen Liang,  
 C. Ochsenfeld,  V. A. Rassolov,  L. V. Slipchenko,  J. E. Subotnik,  
 T. Van Voorhis,  J. M. Herbert,  A. I. Krylov,  P. M. W. Gill,  M. Head-Gordon

 Contributors to earlier versions of Q-Chem not listed above: 
 R. D. Adamson,  B. Austin,  J. Baker,  G. J. O. Beran,  K. Brandhorst,  
 S. T. Brown,  E. F. C. Byrd,  A. K. Chakraborty,  C.-L. Cheng,  
 Siu Hung Chien,  D. M. Chipman,  D. L. Crittenden,  H. Dachsel,  
 R. J. Doerksen,  A. D. Dutoi,  L. Fusti-Molnar,  W. A. Goddard III,  
 A. Golubeva-Zadorozhnaya,  S. R. Gwaltney,  G. Hawkins,  A. Heyden,  
 S. Hirata,  G. Kedziora,  F. J. Keil,  C. Kelley,  Jihan Kim,  R. A. King,  
 R. Z. Khaliullin,  P. P. Korambath,  W. Kurlancheek,  A. M. Lee,  M. S. Lee,  
 S. V. Levchenko,  Ching Yeh Lin,  D. Liotard,  R. C. Lochan,  I. Lotan,  
 P. E. Maslen,  N. Nair,  D. P. O'Neill,  D. Neuhauser,  E. Neuscamman,  
 C. M. Oana,  R. Olson,  B. Peters,  R. Peverati,  P. A. Pieniazek,  
 Y. M. Rhee,  J. Ritchie,  M. A. Rohrdanz,  E. Rosta,  N. J. Russ,  
 H. F. Schaefer III,  N. E. Schultz,  N. Shenvi,  A. C. Simmonett,  A. Sodt,  
 D. Stuck,  K. S. Thanthiriwatte,  V. Vanovschi,  Tao Wang,  A. Warshel,  
 C. F. Williams,  Q. Wu,  X. Xu,  W. Zhang

 Please cite Q-Chem as follows:
 Y. Shao et al., Mol. Phys. 113, 184-215 (2015)
 DOI: 10.1080/00268976.2014.952696

 Q-Chem 5.2.2 for Intel X86 EM64T Linux

 Parts of Q-Chem use Armadillo 9.800.1 (Horizon Scraper).
 http://arma.sourceforge.net/

 Q-Chem begins on Sun Apr 12 05:12:31 2020  

Host: cn0913
0

     Scratch files written to /tmp/ypli/6721341.srvc1/qchem221153//
Warning:  Did not find "$end" marker in "$molecule" section

Checking the input file for inconsistencies... 	...done.

--------------------------------------------------------------
User input:
--------------------------------------------------------------
$rem
   JOBTYPE  sp
   EXCHANGE   omegaB97X-D
   BASIS   6-311+G(2df,2pd)
   max_scf_cycles   250
   geom_opt_max_cycles   1500
   basis2 6-31G*
   scf_algorithm rca_diis
   SYM_IGNORE  TRUE
   print_input   true
   geom_opt_dmax   80
   pop_mulliken false
   XC_GRID 000075000302
$end

$molecule
0 1
C       1.2645693521     0.1539612673     0.1781894829
C       -0.0000010220     -0.4911883018     -0.3762199046
H       2.1878506199     -0.4007002514     0.0133861400
H       1.1160663196     0.2368623799     1.2590239050
H       1.4029199891     1.1629301321     -0.2116592501
C       -1.2645682769     0.1539691318     0.1781867162
H       -0.0000041913     -1.5829986940     -0.3234889694
H       0.0000009415     -0.2319572725     -1.4371108388
H       -2.1878443667     -0.4007112565     0.0134154405
H       -1.4029371568     1.1629228322     -0.2116942503
H       -1.1160522691     0.2369106988     1.2590165477
--------------------------------------------------------------
 ----------------------------------------------------------------
             Standard Nuclear Orientation (Angstroms)
    I     Atom           X                Y                Z
 ----------------------------------------------------------------
    1      C       1.2645693521     0.1539612673     0.1781894829
    2      C      -0.0000010220    -0.4911883018    -0.3762199046
    3      H       2.1878506199    -0.4007002514     0.0133861400
    4      H       1.1160663196     0.2368623799     1.2590239050
    5      H       1.4029199891     1.1629301321    -0.2116592501
    6      C      -1.2645682769     0.1539691318     0.1781867162
    7      H      -0.0000041913    -1.5829986940    -0.3234889694
    8      H       0.0000009415    -0.2319572725    -1.4371108388
    9      H      -2.1878443667    -0.4007112565     0.0134154405
   10      H      -1.4029371568     1.1629228322    -0.2116942503
   11      H      -1.1160522691     0.2369106988     1.2590165477
 ----------------------------------------------------------------
 Nuclear Repulsion Energy =          82.88674425 hartrees
 There are       13 alpha and       13 beta electrons
 Requested basis set is 6-311+G(2df,2pd)
 There are 72 shells and 214 basis functions

 Total QAlloc Memory Limit   2000 MB
 Mega-Array Size       188 MB
 MEM_STATIC part       192 MB

                       Distance Matrix (Angstroms)
             C (  1)   C (  2)   H (  3)   H (  4)   H (  5)   C (  6)
   C (  2)  1.524049
   H (  3)  1.089614  2.224112
   H (  4)  1.094134  2.109428  1.762618
   H (  5)  1.090477  2.175172  1.764002  1.761475
   C (  6)  2.529138  1.524049  3.500573  2.615818  2.878450
   H (  7)  2.206322  1.093083  2.509586  2.657415  3.085584  2.206322
   H (  8)  2.087405  1.092104  2.630419  2.955425  2.327149  2.087405
   H (  9)  3.500567  2.224109  4.375695  3.588017  3.922910  1.089614
   H ( 10)  2.878472  2.175174  3.922924  3.060389  2.805857  1.090477
   H ( 11)  2.615803  2.109430  3.588024  2.232119  3.060330  1.094134
             H (  7)   H (  8)   H (  9)   H ( 10)
   H (  8)  1.750847
   H (  9)  2.509572  2.630432
   H ( 10)  3.085580  2.327138  1.764003
   H ( 11)  2.657434  2.955421  1.762618  1.761474
 
 A cutoff of  1.0D-09 yielded   2542 shell pairs
 There are     22600 function pairs (     27781 Cartesian)
 Smallest overlap matrix eigenvalue = 8.92E-05

 Scale SEOQF with 1.000000e-01/1.000000e-01/1.000000e-01

 Standard Electronic Orientation quadrupole field applied
 Nucleus-field energy     =     0.0000000011 hartrees
 Requested basis set is 6-31G(d)
 There are 28 shells and 58 basis functions
 A cutoff of  1.0D-09 yielded    402 shell pairs
 There are      1773 function pairs (      1968 Cartesian)
 Smallest overlap matrix eigenvalue = 6.71E-03
 Guess from superposition of atomic densities
 Warning:  Energy on first SCF cycle will be non-variational
 SAD guess density has 26.000000 electrons
 Long-range K will be added via erf
 Coulomb attenuation parameter = 0.2 bohr**(-1)
 A restricted hybrid HF-DFT SCF calculation will be
 performed using Relaxed Constraint Minimization + Pulay DIIS
 Exchange:     0.2220 Hartree-Fock + 1.0000 wB97X-D + LR-HF
 Correlation:  1.0000 wB97X-D
 Using Euler-Maclaurin-Lebedev (75,302) quadrature formula
 Dispersion:   Grimme D
 SCF converges when DIIS error is below 1.0E-04
 using 3 threads for integral computing
 -------------------------------------------------------
 OpenMP Integral computing Module                
 Release: version 1.0, May 2013, Q-Chem Inc. Pittsburgh 
 -------------------------------------------------------
 using 3 threads for integral computing
 -------------------------------------------------------
 OpenMP Integral computing Module                
 Release: version 1.0, May 2013, Q-Chem Inc. Pittsburgh 
 -------------------------------------------------------
 ---------------------------------------
  Cycle       Energy         DIIS Error
 ---------------------------------------
    1    -119.6288209263      1.01E-01
    2    -119.0601609713      8.97E-03
    3    -119.0811068087      2.47E-03
    4    -119.0948213038      1.70E-03
    5    -119.0955294667      2.69E-04 Done RCA. Switching to DIIS
    6    -119.0960480812      2.00E-04
    7    -119.0960653651      4.49E-06 Convergence criterion met
 ---------------------------------------
 SCF time:  CPU 24.33 s  wall 8.32 s
 SCF   energy in the small basis set = -119.09606537
 Total energy in the small basis set = -119.09606537
 ----------------------------------------------------
  Cycle       Energy    
 ----------------------------------------------------
    1     -16.5409593796     -1.65E+01
 Long-range K will be added via erf
 Coulomb attenuation parameter = 0.2 bohr**(-1)
 A restricted hybrid HF-DFT SCF calculation will be
 performed using Relaxed Constraint Minimization + Pulay DIIS
 Exchange:     0.2220 Hartree-Fock + 1.0000 wB97X-D + LR-HF
 Correlation:  1.0000 wB97X-D
 Using Euler-Maclaurin-Lebedev (75,302) quadrature formula
 Dispersion:   Grimme D
 SCF converges when DIIS error is below 1.0E-05
 Basis2 calculation detected. Using small basis as guess for larger.
 SCFMinFind is unable to tell whether the solution found is close.
 Resetting ReadMinima to 0 and attempting to follow guess.
 SCFMinFind following SCF Guess.
 using 3 threads for integral computing
 -------------------------------------------------------
 OpenMP Integral computing Module                
 Release: version 1.0, May 2013, Q-Chem Inc. Pittsburgh 
 -------------------------------------------------------
 using 3 threads for integral computing
 -------------------------------------------------------
 OpenMP Integral computing Module                
 Release: version 1.0, May 2013, Q-Chem Inc. Pittsburgh 
 -------------------------------------------------------
 ---------------------------------------
  Cycle       Energy         DIIS Error
 ---------------------------------------
    1    -119.1154211681      4.21E-03
    2    -119.1374731690      6.01E-04 Done RCA. Switching to DIIS
    3    -119.1383122292      4.23E-04
    4    -119.1392917528      4.56E-05
    5    -119.1393065278      1.06E-05
    6    -119.1393072609      4.12E-06 Convergence criterion met
 ---------------------------------------
 SCF time:  CPU 68.21 s  wall 22.96 s
 SCF   energy in the final basis set = -119.13930726
 Total energy in the final basis set = -119.13930726
 
 --------------------------------------------------------------
 
                    Orbital Energies (a.u.)
 --------------------------------------------------------------
 
 Alpha MOs
 -- Occupied --
-10.2737 -10.2658 -10.2658  -0.8831  -0.7765  -0.6783  -0.5477  -0.5302
 -0.4765  -0.4612  -0.4276  -0.4190  -0.3978
 -- Virtual --
  0.0706   0.0857   0.0912   0.0983   0.1246   0.1303   0.1335   0.1369
  0.1456   0.1696   0.1723   0.1914   0.2151   0.2362   0.2500   0.2731
  0.2868   0.2907   0.3142   0.3168   0.3283   0.3528   0.4525   0.4705
  0.4808   0.4987   0.5051   0.5159   0.5535   0.5537   0.5898   0.5915
  0.6194   0.6196   0.6347   0.6349   0.6521   0.6608   0.7099   0.7138
  0.7283   0.7603   0.8386   0.8451   0.8969   0.8979   0.9125   0.9547
  1.0019   1.0211   1.0650   1.1001   1.1522   1.1893   1.2074   1.2216
  1.2223   1.2413   1.2516   1.2935   1.3103   1.3256   1.3365   1.3386
  1.3956   1.3987   1.4155   1.4357   1.4477   1.4595   1.4721   1.4989
  1.5221   1.5550   1.5729   1.6164   1.6325   1.6411   1.6687   1.7161
  1.7547   2.3834   2.3902   2.4557   2.4947   2.5746   2.6014   2.6129
  2.6456   2.7188   2.7839   2.7939   2.8215   2.8942   2.9235   2.9315
  2.9691   2.9697   3.0245   3.0275   3.0496   3.0625   3.0852   3.1128
  3.1204   3.1520   3.1589   3.1884   3.2137   3.2286   3.2811   3.2897
  3.3248   3.3268   3.3445   3.3615   3.3899   3.3964   3.4286   3.4389
  3.4713   3.4801   3.4970   3.5034   3.5362   3.5792   3.5967   3.6020
  3.6230   3.6975   3.7123   3.7332   3.7415   3.7593   3.8354   3.8890
  3.8995   3.9020   3.9409   3.9559   4.0227   4.0336   4.0742   4.0820
  4.1069   4.1081   4.1204   4.1264   4.1512   4.1722   4.2031   4.2349
  4.2392   4.2586   4.2730   4.3342   4.3684   4.4037   4.4331   4.4750
  4.4917   4.5175   4.5285   4.6119   4.7507   4.7942   4.8260   4.8601
  4.9163   4.9432   4.9538   4.9577   5.0440   5.0539   5.0748   5.0870
  5.1702   5.2139   5.2449   5.2601   5.2646   5.3293   5.3435   5.3771
  5.3797   5.3938   5.4621   5.5119   5.5615   5.5697   5.6133   5.7424
  5.9571   6.3711   6.3863   6.3938   6.4138   6.4944  25.1613  25.4260
 25.4514
 --------------------------------------------------------------
 
 -----------------------------------------------------------------
                    Cartesian Multipole Moments
 -----------------------------------------------------------------
    Charge (ESU x 10^10)
                -0.0000
    Dipole Moment (Debye)
         X      -0.0000      Y      -0.0255      Z      -0.0922
       Tot       0.0957
    Quadrupole Moments (Debye-Ang)
        XX     -21.8998     XY       0.0000     YY     -21.4643
        XZ      -0.0000     YZ      -0.4089     ZZ     -22.0212
    Octopole Moments (Debye-Ang^2)
       XXX       0.0000    XXY      -0.4621    XYY      -0.0000
       YYY       1.9123    XXZ      -1.1779    XYZ       0.0000
       YYZ      -1.0199    XZZ       0.0000    YZZ       1.1832
       ZZZ      -0.1831
    Hexadecapole Moments (Debye-Ang^3)
      XXXX    -196.7763   XXXY       0.0003   XXYY     -42.5406
      XYYY       0.0003   YYYY     -56.2085   XXXZ      -0.0002
      XXYZ      -2.4533   XYYZ      -0.0000   YYYZ      -7.2347
      XXZZ     -45.0897   XYZZ       0.0000   YYZZ     -20.3508
      XZZZ      -0.0001   YZZZ      -6.8082   ZZZZ     -54.7862
 -----------------------------------------------------------------
Archival summary:
1\1\cn0913\SP\ProcedureUnspecified\BasisUnspecified\38\r0852400\SunApr1205:13:062020SunApr1205:13:062020\0\\#,ProcedureUnspecified,BasisUnspecified,\\0,1\C\H,1,1.0921\H,1,1.09308,2,106.496\C,1,1.52405,2,104.649,3,-120.95,0\H,4,1.08961,1,115.631,2,81.0665,0\H,4,1.09048,1,111.524,2,-42.861,0\H,4,1.09413,1,106.189,2,-159.644,0\C,1,1.52405,2,104.649,3,120.949,0\H,8,1.08961,1,115.631,2,-81.064,0\H,8,1.09048,1,111.524,2,42.8635,0\H,8,1.09413,1,106.189,2,159.646,0\\\@

 Total job time:  34.87s(wall), 96.94s(cpu) 
 Sun Apr 12 05:13:06 2020

        *************************************************************
        *                                                           *
        *  Thank you very much for using Q-Chem.  Have a nice day.  *
        *                                                           *
        *************************************************************


