                  Welcome to Q-Chem
     A Quantum Leap Into The Future Of Chemistry


 Q-Chem 5.3 (devel), Q-Chem, Inc., Pleasanton, CA (2020)

 Yihan Shao,  Zhengting Gan,  E. Epifanovsky,  A. T. B. Gilbert,  M. Wormit,  
 J. Kussmann,  A. W. Lange,  A. Behn,  Jia Deng,  Xintian Feng,  D. Ghosh,  
 M. Goldey,  P. R. Horn,  L. D. Jacobson,  I. Kaliman,  T. Kus,  A. Landau,  
 Jie Liu,  E. I. Proynov,  R. M. Richard,  R. P. Steele,  E. J. Sundstrom,  
 H. L. Woodcock III,  P. M. Zimmerman,  D. Zuev,  B. Alam,  B. Albrecht,  
 E. Alguire,  S. A. Baeppler,  D. Barton,  Z. Benda,  Y. A. Bernard,  
 E. J. Berquist,  K. B. Bravaya,  H. Burton,  K. Carter-Fenk,  D. Casanova,  
 Chun-Min Chang,  Yunqing Chen,  A. Chien,  K. D. Closser,  M. P. Coons,  
 S. Coriani,  S. Dasgupta,  A. L. Dempwolff,  M. Diedenhofen,  Hainam Do,  
 R. G. Edgar,  Po-Tung Fang,  S. Faraji,  S. Fatehi,  Qingguo Feng,  
 J. Fosso-Tande,  J. Gayvert,  Qinghui Ge,  A. Ghysels,  G. Gidofalvi,  
 J. Gomes,  J. Gonthier,  A. Gunina,  D. Hait,  M. W. D. Hanson-Heine,  
 P. H. P. Harbach,  A. W. Hauser,  M. F. Herbst,  J. E. Herr,  
 E. G. Hohenstein,  Z. C. Holden,  Kerwin Hui,  B. C. Huynh,  T.-C. Jagau,  
 Hyunjun Ji,  B. Kaduk,  K. Khistyaev,  Jaehoon Kim,  P. Klunzinger,  K. Koh,  
 D. Kosenkov,  L. Koulias,  T. Kowalczyk,  C. M. Krauter,  A. Kunitsa,  
 Ka Un Lao,  A. Laurent,  K. V. Lawler,  Joonho Lee,  D. Lefrancois,  
 S. Lehtola,  D. S. Levine,  Yi-Pei Li,  You-Sheng Lin,  Fenglai Liu,  
 Kuan-Yu Liu,  E. Livshits,  M. Loipersberger,  A. Luenser,  P. Manohar,  
 E. Mansoor,  S. F. Manzer,  Shan-Ping Mao,  Yuezhi Mao,  N. Mardirossian,  
 A. V. Marenich,  T. Markovich,  L. A. Martinez-Martinez,  S. A. Maurer,  
 N. J. Mayhall,  S. C. McKenzie,  J.-M. Mewes,  P. Morgante,  A. F. Morrison,  
 J. W. Mullinax,  K. Nanda,  T. S. Nguyen-Beck,  R. Olivares-Amaya,  
 K. J. Oosterbaan,  J. A. Parkhill,  S. K. Paul,  F. Pavosevic,  Zheng Pei,  
 T. M. Perrine,  F. Plasser,  P. Pokhilko,  S. Prager,  A. Prociuk,  
 E. Ramos,  B. Rana,  D. R. Rehn,  F. Rob,  M. Scheurer,  M. Schneider,  
 N. Sergueev,  S. M. Sharada,  S. Sharma,  D. W. Small,  T. Stauch,  
 C. J. Stein,  T. Stein,  Yu-Chuan Su,  S. P. Veccham,  Zhen Tao,  
 A. J. W. Thom,  A. Tkatchenko,  T. Tsuchimochi,  N. M. Tubman,  L. Vogt,  
 M. L. Vidal,  O. Vydrov,  M. A. Watson,  J. Wenzel,  M. de Wergifosse,  
 T. A. Wesolowski,  A. White,  J. Witte,  A. Yamada,  Jun Yang,  K. Yao,  
 S. Yeganeh,  S. R. Yost,  Zhi-Qiang You,  A. Zech,  Igor Ying Zhang,  
 Xing Zhang,  Yan Zhao,  Ying Zhu,  B. R. Brooks,  G. K. L. Chan,  
 C. J. Cramer,  M. S. Gordon,  W. J. Hehre,  A. Klamt,  M. W. Schmidt,  
 C. D. Sherrill,  D. G. Truhlar,  A. Aspuru-Guzik,  R. Baer,  A. T. Bell,  
 N. A. Besley,  Jeng-Da Chai,  A. E. DePrince, III,  R. A. DiStasio Jr.,  
 A. Dreuw,  B. D. Dunietz,  T. R. Furlani,  Chao-Ping Hsu,  Yousung Jung,  
 Jing Kong,  D. S. Lambrecht,  WanZhen Liang,  C. Ochsenfeld,  
 V. A. Rassolov,  L. V. Slipchenko,  J. E. Subotnik,  T. Van Voorhis,  
 J. M. Herbert,  A. I. Krylov,  P. M. W. Gill,  M. Head-Gordon

 Contributors to earlier versions of Q-Chem not listed above: 
 R. D. Adamson,  B. Austin,  J. Baker,  G. J. O. Beran,  K. Brandhorst,  
 S. T. Brown,  E. F. C. Byrd,  A. K. Chakraborty,  C.-L. Cheng,  
 Siu Hung Chien,  D. M. Chipman,  D. L. Crittenden,  H. Dachsel,  
 R. J. Doerksen,  A. D. Dutoi,  L. Fusti-Molnar,  W. A. Goddard III,  
 A. Golubeva-Zadorozhnaya,  S. R. Gwaltney,  G. Hawkins,  A. Heyden,  
 S. Hirata,  G. Kedziora,  F. J. Keil,  C. Kelley,  Jihan Kim,  R. A. King,  
 R. Z. Khaliullin,  P. P. Korambath,  W. Kurlancheek,  A. M. Lee,  M. S. Lee,  
 S. V. Levchenko,  Ching Yeh Lin,  D. Liotard,  R. C. Lochan,  I. Lotan,  
 P. E. Maslen,  N. Nair,  D. P. O'Neill,  D. Neuhauser,  E. Neuscamman,  
 C. M. Oana,  R. Olson,  B. Peters,  R. Peverati,  P. A. Pieniazek,  
 Y. M. Rhee,  J. Ritchie,  M. A. Rohrdanz,  E. Rosta,  N. J. Russ,  
 H. F. Schaefer III,  N. E. Schultz,  N. Shenvi,  A. C. Simmonett,  A. Sodt,  
 D. Stuck,  K. S. Thanthiriwatte,  V. Vanovschi,  Tao Wang,  A. Warshel,  
 C. F. Williams,  Q. Wu,  X. Xu,  W. Zhang

 Please cite Q-Chem as follows:
 Y. Shao et al., Mol. Phys. 113, 184-215 (2015)
 DOI: 10.1080/00268976.2014.952696

 Q-Chem 5.3.0 for Intel X86 EM64T Linux

 Parts of Q-Chem use Armadillo 9.800.1 (Horizon Scraper).
 http://arma.sourceforge.net/

 Q-Chem begins on Thu Jul  2 04:08:45 2020  

Host: centos77-c1
0

     Scratch files written to /tmp/26650.centos77-h1/qchem71818//
Processing $rem in /opt/qchem-5.3.0-intel2020u1//config/preferences:
Processing $rem in /home/shihchengli/.qchemrc:

Checking the input file for inconsistencies... 	...done.

--------------------------------------------------------------
User input:
--------------------------------------------------------------
$rem
   JOBTYPE  sp
   EXCHANGE   omegaB97X-D
   BASIS   6-311+G(2df,2pd)
   max_scf_cycles   250
   geom_opt_max_cycles   1500
   basis2 6-31G*
   scf_algorithm rca_diis
   SYM_IGNORE  TRUE
   print_input   true
   geom_opt_dmax   80
   pop_mulliken false
   XC_GRID 000075000302
$end

$molecule
0 1
C       1.2514719603     0.2471785487     -0.0858948141
C       -0.0000035273     -0.4648265194     0.4136883866
H       1.3035206843     0.7274847398     -1.0587560610
H       1.9485500576     -0.6005418105     -0.0837855848
H       1.6209637633     0.9544542725     0.6573142491
C       -1.2514701084     0.2471843956     -0.0859067671
H       -0.0000087296     -0.9317670297     1.4028296055
H       -0.0000015896     -1.2606082223     -0.3331816944
H       -1.3035254806     0.7274031204     -1.0588118913
H       -1.6209087102     0.9545427684     0.6572493832
H       -1.9485883805     -0.6005035974     -0.0836997930
$end
--------------------------------------------------------------
 ----------------------------------------------------------------
             Standard Nuclear Orientation (Angstroms)
    I     Atom           X                Y                Z
 ----------------------------------------------------------------
    1      C       1.2514719603     0.2471785487    -0.0858948141
    2      C      -0.0000035273    -0.4648265194     0.4136883866
    3      H       1.3035206843     0.7274847398    -1.0587560610
    4      H       1.9485500576    -0.6005418105    -0.0837855848
    5      H       1.6209637633     0.9544542725     0.6573142491
    6      C      -1.2514701084     0.2471843956    -0.0859067671
    7      H      -0.0000087296    -0.9317670297     1.4028296055
    8      H      -0.0000015896    -1.2606082223    -0.3331816944
    9      H      -1.3035254806     0.7274031204    -1.0588118913
   10      H      -1.6209087102     0.9545427684     0.6572493832
   11      H      -1.9485883805    -0.6005035974    -0.0836997930
 ----------------------------------------------------------------
 Nuclear Repulsion Energy =          82.94440281 hartrees
 There are       13 alpha and       13 beta electrons
 Requested basis set is 6-311+G(2df,2pd)
 There are 72 shells and 214 basis functions

 Total QAlloc Memory Limit   2000 MB
 Mega-Array Size       188 MB
 MEM_STATIC part       192 MB

                       Distance Matrix (Angstroms)
             C (  1)   C (  2)   H (  3)   H (  4)   H (  5)   C (  6)
   C (  2)  1.524049
   H (  3)  1.086215  2.299755
   H (  4)  1.097521  2.015629  1.769261
   H (  5)  1.090469  2.168236  1.759881  1.753441
   C (  6)  2.502942  1.524048  2.775807  3.310404  3.050161
   H (  7)  2.274295  1.093816  3.242177  2.473179  2.596377  2.274295
   H (  8)  1.975034  1.091368  2.485587  2.072375  2.918067  1.975033
   H (  9)  2.775823  2.299747  2.607046  3.645560  3.398423  1.086216
   H ( 10)  3.050114  2.168240  3.398311  3.963390  3.241872  1.090469
   H ( 11)  3.310431  2.015635  3.645614  3.897138  3.963420  1.097522
             H (  7)   H (  8)   H (  9)   H ( 10)
   H (  8)  1.766882
   H (  9)  3.242172  2.485539
   H ( 10)  2.596415  2.918079  1.759884
   H ( 11)  2.473149  2.072431  1.769261  1.753439
 
 A cutoff of  1.0D-09 yielded   2514 shell pairs
 There are     22436 function pairs (     27621 Cartesian)
 Smallest overlap matrix eigenvalue = 9.75E-05

 Scale SEOQF with 1.000000e-01/1.000000e-01/1.000000e-01

 Standard Electronic Orientation quadrupole field applied
 Nucleus-field energy     =     0.0000000012 hartrees
 Requested basis set is 6-31G(d)
 There are 28 shells and 58 basis functions
 A cutoff of  1.0D-09 yielded    403 shell pairs
 There are      1774 function pairs (      1969 Cartesian)
 Smallest overlap matrix eigenvalue = 5.55E-03
 Guess from superposition of atomic densities
 Warning:  Energy on first SCF cycle will be non-variational
 SAD guess density has 26.000000 electrons
 Long-range K will be added via erf
 Coulomb attenuation parameter = 0.2 bohr**(-1)
 A restricted hybrid HF-DFT SCF calculation will be
 performed using Relaxed Constraint Minimization + Pulay DIIS
 Exchange:     0.2220 Hartree-Fock + 1.0000 wB97X-D + LR-HF
 Correlation:  1.0000 wB97X-D
 Using Euler-Maclaurin-Lebedev (75,302) quadrature formula
 Dispersion:   Grimme D
 SCF converges when DIIS error is below 1.0E-04
 using 3 threads for integral computing
 -------------------------------------------------------
 OpenMP Integral computing Module                
 Release: version 1.0, May 2013, Q-Chem Inc. Pittsburgh 
 -------------------------------------------------------
 using 3 threads for integral computing
 -------------------------------------------------------
 OpenMP Integral computing Module                
 Release: version 1.0, May 2013, Q-Chem Inc. Pittsburgh 
 -------------------------------------------------------
 ---------------------------------------
  Cycle       Energy         DIIS Error
 ---------------------------------------
    1    -119.6529102646      1.01E-01
    2    -119.0287173506      9.26E-03
    3    -119.0508650341      2.49E-03
    4    -119.0657705257      1.71E-03
    5    -119.0664831148      2.67E-04 Done RCA. Switching to DIIS
    6    -119.0670113637      1.95E-04
    7    -119.0670279255      6.62E-06 Convergence criterion met
 ---------------------------------------
 SCF time:  CPU 19.03 s  wall 6.89 s
 SCF   energy in the small basis set = -119.06702793
 Total energy in the small basis set = -119.06702793
 ----------------------------------------------------
  Cycle       Energy    
 ----------------------------------------------------
    1     -16.5459506773     -1.65E+01
 Long-range K will be added via erf
 Coulomb attenuation parameter = 0.2 bohr**(-1)
 A restricted hybrid HF-DFT SCF calculation will be
 performed using Relaxed Constraint Minimization + Pulay DIIS
 Exchange:     0.2220 Hartree-Fock + 1.0000 wB97X-D + LR-HF
 Correlation:  1.0000 wB97X-D
 Using Euler-Maclaurin-Lebedev (75,302) quadrature formula
 Dispersion:   Grimme D
 SCF converges when DIIS error is below 1.0E-05
 Basis2 calculation detected. Using small basis as guess for larger.
 SCFMinFind is unable to tell whether the solution found is close.
 Resetting ReadMinima to 0 and attempting to follow guess.
 SCFMinFind following SCF Guess.
 using 3 threads for integral computing
 -------------------------------------------------------
 OpenMP Integral computing Module                
 Release: version 1.0, May 2013, Q-Chem Inc. Pittsburgh 
 -------------------------------------------------------
 using 3 threads for integral computing
 -------------------------------------------------------
 OpenMP Integral computing Module                
 Release: version 1.0, May 2013, Q-Chem Inc. Pittsburgh 
 -------------------------------------------------------
 ---------------------------------------
  Cycle       Energy         DIIS Error
 ---------------------------------------
    1    -119.0871439523      4.21E-03
    2    -119.1091714096      6.13E-04 Done RCA. Switching to DIIS
    3    -119.1100252399      4.35E-04
    4    -119.1110607878      4.59E-05
    5    -119.1110761827      9.06E-06 Convergence criterion met
 ---------------------------------------
 SCF time:  CPU 44.21 s  wall 14.95 s
 SCF   energy in the final basis set = -119.11107618
 Total energy in the final basis set = -119.11107618
 
 --------------------------------------------------------------
 
                    Orbital Energies (a.u.)
 --------------------------------------------------------------
 
 Alpha MOs
 -- Occupied --
-10.2762 -10.2625 -10.2625  -0.8858  -0.7785  -0.6761  -0.5478  -0.5118
 -0.5015  -0.4652  -0.4517  -0.3826  -0.3813
 -- Virtual --
  0.0667   0.0873   0.0897   0.0995   0.1232   0.1297   0.1324   0.1341
  0.1430   0.1727   0.1753   0.1883   0.2237   0.2367   0.2435   0.2649
  0.2786   0.2923   0.3044   0.3106   0.3510   0.3522   0.4589   0.4628
  0.4722   0.5084   0.5124   0.5218   0.5218   0.5806   0.5925   0.5991
  0.5993   0.6171   0.6405   0.6528   0.6594   0.6722   0.7083   0.7161
  0.7354   0.7572   0.8053   0.8424   0.8746   0.8925   0.9615   0.9672
  0.9872   0.9955   1.1007   1.1404   1.1486   1.1549   1.1699   1.2091
  1.2295   1.2621   1.2698   1.2927   1.3058   1.3252   1.3448   1.3540
  1.3818   1.4054   1.4263   1.4524   1.4614   1.4629   1.4866   1.4944
  1.5255   1.5259   1.5755   1.5960   1.6336   1.6575   1.6776   1.7073
  1.7710   2.3799   2.4141   2.4700   2.4835   2.5248   2.5780   2.5951
  2.6654   2.6985   2.7725   2.8203   2.8807   2.8956   2.9371   2.9602
  2.9615   2.9748   2.9886   3.0428   3.0609   3.0632   3.0925   3.1304
  3.1320   3.1554   3.1583   3.1916   3.2261   3.2410   3.2587   3.2775
  3.2837   3.2924   3.3596   3.3951   3.3960   3.4099   3.4112   3.4168
  3.4632   3.4752   3.5287   3.5657   3.5749   3.5861   3.5925   3.6145
  3.6167   3.6612   3.7130   3.7564   3.7623   3.7876   3.8032   3.8468
  3.8559   3.9318   3.9440   3.9529   3.9794   4.0058   4.0243   4.0410
  4.0605   4.0829   4.1180   4.1353   4.1719   4.1970   4.2156   4.2168
  4.2235   4.3102   4.3153   4.3396   4.3882   4.4281   4.4329   4.4954
  4.5188   4.5568   4.5847   4.6260   4.6811   4.8212   4.8449   4.8834
  4.9303   4.9449   4.9560   5.0124   5.0220   5.0747   5.1174   5.1482
  5.1526   5.2020   5.2199   5.2480   5.2830   5.3321   5.3570   5.3718
  5.3741   5.3906   5.4804   5.4845   5.4991   5.5991   5.7157   5.8138
  5.9847   6.3832   6.3989   6.4062   6.4126   6.4877  25.1781  25.4232
 25.4518
 --------------------------------------------------------------
 
 -----------------------------------------------------------------
                    Cartesian Multipole Moments
 -----------------------------------------------------------------
    Charge (ESU x 10^10)
                -0.0000
    Dipole Moment (Debye)
         X      -0.0000      Y      -0.2099      Z      -0.0254
       Tot       0.2114
    Quadrupole Moments (Debye-Ang)
        XX     -23.2999     XY       0.0000     YY     -21.6447
        XZ      -0.0000     YZ      -0.5760     ZZ     -20.7662
    Octopole Moments (Debye-Ang^2)
       XXX      -0.0001    XXY      -0.6416    XYY       0.0001
       YYY      -0.8187    XXZ      -1.6056    XYZ       0.0000
       YYZ      -1.1592    XZZ      -0.0000    YZZ       0.0665
       ZZZ      -3.5678
    Hexadecapole Moments (Debye-Ang^3)
      XXXX    -215.4562   XXXY       0.0005   XXYY     -42.4880
      XYYY       0.0000   YYYY     -65.0341   XXXZ      -0.0003
      XXYZ       1.6167   XYYZ      -0.0004   YYYZ       6.0133
      XXZZ     -42.0941   XYZZ       0.0001   YYZZ     -17.0650
      XZZZ      -0.0000   YZZZ       3.3264   ZZZZ     -49.5519
 -----------------------------------------------------------------
Archival summary:
1\1\centos77-c1\SP\ProcedureUnspecified\BasisUnspecified\38\shihchen\ThuJul204:09:102020ThuJul204:09:102020\0\\#,ProcedureUnspecified,BasisUnspecified,\\0,1\C\H,1,1.09137\H,1,1.09382,2,107.914\C,1,1.52405,2,96.6798,3,-124.233,0\H,4,1.08622,1,122.65,2,-65.0056,0\H,4,1.09047,1,110.968,2,165.461,0\H,4,1.09752,1,99.2113,2,53.6994,0\C,1,1.52405,2,96.6798,3,124.232,0\H,8,1.08621,1,122.651,2,65.0118,0\H,8,1.09047,1,110.967,2,-165.455,0\H,8,1.09752,1,99.2108,2,-53.6933,0\\\@

 Total job time:  24.72s(wall), 66.77s(cpu) 
 Thu Jul  2 04:09:10 2020

        *************************************************************
        *                                                           *
        *  Thank you very much for using Q-Chem.  Have a nice day.  *
        *                                                           *
        *************************************************************


