                  Welcome to Q-Chem
     A Quantum Leap Into The Future Of Chemistry


 Q-Chem 5.3 (devel), Q-Chem, Inc., Pleasanton, CA (2020)

 Yihan Shao,  Zhengting Gan,  E. Epifanovsky,  A. T. B. Gilbert,  M. Wormit,  
 J. Kussmann,  A. W. Lange,  A. Behn,  Jia Deng,  Xintian Feng,  D. Ghosh,  
 M. Goldey,  P. R. Horn,  L. D. Jacobson,  I. Kaliman,  T. Kus,  A. Landau,  
 Jie Liu,  E. I. Proynov,  R. M. Richard,  R. P. Steele,  E. J. Sundstrom,  
 H. L. Woodcock III,  P. M. Zimmerman,  D. Zuev,  B. Alam,  B. Albrecht,  
 E. Alguire,  S. A. Baeppler,  D. Barton,  Z. Benda,  Y. A. Bernard,  
 E. J. Berquist,  K. B. Bravaya,  H. Burton,  K. Carter-Fenk,  D. Casanova,  
 Chun-Min Chang,  Yunqing Chen,  A. Chien,  K. D. Closser,  M. P. Coons,  
 S. Coriani,  S. Dasgupta,  A. L. Dempwolff,  M. Diedenhofen,  Hainam Do,  
 R. G. Edgar,  Po-Tung Fang,  S. Faraji,  S. Fatehi,  Qingguo Feng,  
 J. Fosso-Tande,  J. Gayvert,  Qinghui Ge,  A. Ghysels,  G. Gidofalvi,  
 J. Gomes,  J. Gonthier,  A. Gunina,  D. Hait,  M. W. D. Hanson-Heine,  
 P. H. P. Harbach,  A. W. Hauser,  M. F. Herbst,  J. E. Herr,  
 E. G. Hohenstein,  Z. C. Holden,  Kerwin Hui,  B. C. Huynh,  T.-C. Jagau,  
 Hyunjun Ji,  B. Kaduk,  K. Khistyaev,  Jaehoon Kim,  P. Klunzinger,  K. Koh,  
 D. Kosenkov,  L. Koulias,  T. Kowalczyk,  C. M. Krauter,  A. Kunitsa,  
 Ka Un Lao,  A. Laurent,  K. V. Lawler,  Joonho Lee,  D. Lefrancois,  
 S. Lehtola,  D. S. Levine,  Yi-Pei Li,  You-Sheng Lin,  Fenglai Liu,  
 Kuan-Yu Liu,  E. Livshits,  M. Loipersberger,  A. Luenser,  P. Manohar,  
 E. Mansoor,  S. F. Manzer,  Shan-Ping Mao,  Yuezhi Mao,  N. Mardirossian,  
 A. V. Marenich,  T. Markovich,  L. A. Martinez-Martinez,  S. A. Maurer,  
 N. J. Mayhall,  S. C. McKenzie,  J.-M. Mewes,  P. Morgante,  A. F. Morrison,  
 J. W. Mullinax,  K. Nanda,  T. S. Nguyen-Beck,  R. Olivares-Amaya,  
 K. J. Oosterbaan,  J. A. Parkhill,  S. K. Paul,  F. Pavosevic,  Zheng Pei,  
 T. M. Perrine,  F. Plasser,  P. Pokhilko,  S. Prager,  A. Prociuk,  
 E. Ramos,  B. Rana,  D. R. Rehn,  F. Rob,  M. Scheurer,  M. Schneider,  
 N. Sergueev,  S. M. Sharada,  S. Sharma,  D. W. Small,  T. Stauch,  
 C. J. Stein,  T. Stein,  Yu-Chuan Su,  S. P. Veccham,  Zhen Tao,  
 A. J. W. Thom,  A. Tkatchenko,  T. Tsuchimochi,  N. M. Tubman,  L. Vogt,  
 M. L. Vidal,  O. Vydrov,  M. A. Watson,  J. Wenzel,  M. de Wergifosse,  
 T. A. Wesolowski,  A. White,  J. Witte,  A. Yamada,  Jun Yang,  K. Yao,  
 S. Yeganeh,  S. R. Yost,  Zhi-Qiang You,  A. Zech,  Igor Ying Zhang,  
 Xing Zhang,  Yan Zhao,  Ying Zhu,  B. R. Brooks,  G. K. L. Chan,  
 C. J. Cramer,  M. S. Gordon,  W. J. Hehre,  A. Klamt,  M. W. Schmidt,  
 C. D. Sherrill,  D. G. Truhlar,  A. Aspuru-Guzik,  R. Baer,  A. T. Bell,  
 N. A. Besley,  Jeng-Da Chai,  A. E. DePrince, III,  R. A. DiStasio Jr.,  
 A. Dreuw,  B. D. Dunietz,  T. R. Furlani,  Chao-Ping Hsu,  Yousung Jung,  
 Jing Kong,  D. S. Lambrecht,  WanZhen Liang,  C. Ochsenfeld,  
 V. A. Rassolov,  L. V. Slipchenko,  J. E. Subotnik,  T. Van Voorhis,  
 J. M. Herbert,  A. I. Krylov,  P. M. W. Gill,  M. Head-Gordon

 Contributors to earlier versions of Q-Chem not listed above: 
 R. D. Adamson,  B. Austin,  J. Baker,  G. J. O. Beran,  K. Brandhorst,  
 S. T. Brown,  E. F. C. Byrd,  A. K. Chakraborty,  C.-L. Cheng,  
 Siu Hung Chien,  D. M. Chipman,  D. L. Crittenden,  H. Dachsel,  
 R. J. Doerksen,  A. D. Dutoi,  L. Fusti-Molnar,  W. A. Goddard III,  
 A. Golubeva-Zadorozhnaya,  S. R. Gwaltney,  G. Hawkins,  A. Heyden,  
 S. Hirata,  G. Kedziora,  F. J. Keil,  C. Kelley,  Jihan Kim,  R. A. King,  
 R. Z. Khaliullin,  P. P. Korambath,  W. Kurlancheek,  A. M. Lee,  M. S. Lee,  
 S. V. Levchenko,  Ching Yeh Lin,  D. Liotard,  R. C. Lochan,  I. Lotan,  
 P. E. Maslen,  N. Nair,  D. P. O'Neill,  D. Neuhauser,  E. Neuscamman,  
 C. M. Oana,  R. Olson,  B. Peters,  R. Peverati,  P. A. Pieniazek,  
 Y. M. Rhee,  J. Ritchie,  M. A. Rohrdanz,  E. Rosta,  N. J. Russ,  
 H. F. Schaefer III,  N. E. Schultz,  N. Shenvi,  A. C. Simmonett,  A. Sodt,  
 D. Stuck,  K. S. Thanthiriwatte,  V. Vanovschi,  Tao Wang,  A. Warshel,  
 C. F. Williams,  Q. Wu,  X. Xu,  W. Zhang

 Please cite Q-Chem as follows:
 Y. Shao et al., Mol. Phys. 113, 184-215 (2015)
 DOI: 10.1080/00268976.2014.952696

 Q-Chem 5.3.0 for Intel X86 EM64T Linux

 Parts of Q-Chem use Armadillo 9.800.1 (Horizon Scraper).
 http://arma.sourceforge.net/

 Q-Chem begins on Thu Jul  2 03:31:44 2020  

Host: centos77-c1
0

     Scratch files written to /tmp/26650.centos77-h1/qchem68518//
Processing $rem in /opt/qchem-5.3.0-intel2020u1//config/preferences:
Processing $rem in /home/shihchengli/.qchemrc:

Checking the input file for inconsistencies... 	...done.

--------------------------------------------------------------
User input:
--------------------------------------------------------------
$rem
   JOBTYPE  sp
   EXCHANGE   omegaB97X-D
   BASIS   6-311+G(2df,2pd)
   max_scf_cycles   250
   geom_opt_max_cycles   1500
   basis2 6-31G*
   scf_algorithm rca_diis
   SYM_IGNORE  TRUE
   print_input   true
   geom_opt_dmax   80
   pop_mulliken false
   XC_GRID 000075000302
$end

$molecule
0 1
C       0.8766387266     0.9149141657     0.2518977841
C       0.0000082265     -0.0000199486     -0.5949432731
H       1.9200956547     0.5832649948     0.3329184584
H       0.4613105521     0.9384344193     1.2549006076
H       0.8702209700     1.9380985612     -0.1251635747
C       -0.8766476951     -0.9148971157     0.2519325129
H       0.4886974344     -0.7282142442     -1.2466139085
H       -0.4886589684     0.7281299512     -1.2466782856
H       -0.4612436685     -0.9384843927     1.2549038748
H       -0.8703521491     -1.9380742956     -0.1251501626
H       -1.9200691439     -0.5831514292     0.3330409857
$end
--------------------------------------------------------------
 ----------------------------------------------------------------
             Standard Nuclear Orientation (Angstroms)
    I     Atom           X                Y                Z
 ----------------------------------------------------------------
    1      C       0.8766387266     0.9149141657     0.2518977841
    2      C       0.0000082265    -0.0000199486    -0.5949432731
    3      H       1.9200956547     0.5832649948     0.3329184584
    4      H       0.4613105521     0.9384344193     1.2549006076
    5      H       0.8702209700     1.9380985612    -0.1251635747
    6      C      -0.8766476951    -0.9148971157     0.2519325129
    7      H       0.4886974344    -0.7282142442    -1.2466139085
    8      H      -0.4886589684     0.7281299512    -1.2466782856
    9      H      -0.4612436685    -0.9384843927     1.2549038748
   10      H      -0.8703521491    -1.9380742956    -0.1251501626
   11      H      -1.9200691439    -0.5831514292     0.3330409857
 ----------------------------------------------------------------
 Nuclear Repulsion Energy =          82.87080055 hartrees
 There are       13 alpha and       13 beta electrons
 Requested basis set is 6-311+G(2df,2pd)
 There are 72 shells and 214 basis functions

 Total QAlloc Memory Limit   2000 MB
 Mega-Array Size       188 MB
 MEM_STATIC part       192 MB

                       Distance Matrix (Angstroms)
             C (  1)   C (  2)   H (  3)   H (  4)   H (  5)   C (  6)
   C (  2)  1.524049
   H (  3)  1.097888  2.210856
   H (  4)  1.085848  2.124951  1.761888
   H (  5)  1.090469  2.175837  1.774162  1.752459
   C (  6)  2.534210  1.524049  3.173771  2.496180  3.366502
   H (  7)  2.257412  1.092593  2.502759  3.006001  2.917608  2.035844
   H (  8)  2.035843  1.092592  2.884131  2.684132  2.137375  2.257412
   H (  9)  2.496204  2.124948  2.972634  2.091394  3.457183  1.085849
   H ( 10)  3.366554  2.175842  3.788612  3.457191  4.249036  1.090469
   H ( 11)  3.173698  2.210858  4.013402  2.972544  3.788452  1.097890
             H (  7)   H (  8)   H (  9)   H ( 10)
   H (  8)  1.753900
   H (  9)  2.684063  3.006039
   H ( 10)  2.137395  2.917561  1.752455
   H ( 11)  2.884183  2.502780  1.761892  1.774165
 
 A cutoff of  1.0D-09 yielded   2537 shell pairs
 There are     22567 function pairs (     27765 Cartesian)
 Smallest overlap matrix eigenvalue = 9.11E-05

 Scale SEOQF with 1.000000e-01/1.000000e-01/1.000000e-01

 Standard Electronic Orientation quadrupole field applied
 Nucleus-field energy     =     0.0000000012 hartrees
 Requested basis set is 6-31G(d)
 There are 28 shells and 58 basis functions
 A cutoff of  1.0D-09 yielded    402 shell pairs
 There are      1773 function pairs (      1968 Cartesian)
 Smallest overlap matrix eigenvalue = 6.33E-03
 Guess from superposition of atomic densities
 Warning:  Energy on first SCF cycle will be non-variational
 SAD guess density has 26.000000 electrons
 Long-range K will be added via erf
 Coulomb attenuation parameter = 0.2 bohr**(-1)
 A restricted hybrid HF-DFT SCF calculation will be
 performed using Relaxed Constraint Minimization + Pulay DIIS
 Exchange:     0.2220 Hartree-Fock + 1.0000 wB97X-D + LR-HF
 Correlation:  1.0000 wB97X-D
 Using Euler-Maclaurin-Lebedev (75,302) quadrature formula
 Dispersion:   Grimme D
 SCF converges when DIIS error is below 1.0E-04
 using 3 threads for integral computing
 -------------------------------------------------------
 OpenMP Integral computing Module                
 Release: version 1.0, May 2013, Q-Chem Inc. Pittsburgh 
 -------------------------------------------------------
 using 3 threads for integral computing
 -------------------------------------------------------
 OpenMP Integral computing Module                
 Release: version 1.0, May 2013, Q-Chem Inc. Pittsburgh 
 -------------------------------------------------------
 ---------------------------------------
  Cycle       Energy         DIIS Error
 ---------------------------------------
    1    -119.6394596450      1.01E-01
    2    -119.0484296752      9.05E-03
    3    -119.0696992637      2.47E-03
    4    -119.0837018047      1.70E-03
    5    -119.0844113898      2.67E-04 Done RCA. Switching to DIIS
    6    -119.0849334881      1.99E-04
    7    -119.0849505719      4.45E-06 Convergence criterion met
 ---------------------------------------
 SCF time:  CPU 18.72 s  wall 6.69 s
 SCF   energy in the small basis set = -119.08495057
 Total energy in the small basis set = -119.08495057
 ----------------------------------------------------
  Cycle       Energy    
 ----------------------------------------------------
    1     -16.5467251406     -1.65E+01
 Long-range K will be added via erf
 Coulomb attenuation parameter = 0.2 bohr**(-1)
 A restricted hybrid HF-DFT SCF calculation will be
 performed using Relaxed Constraint Minimization + Pulay DIIS
 Exchange:     0.2220 Hartree-Fock + 1.0000 wB97X-D + LR-HF
 Correlation:  1.0000 wB97X-D
 Using Euler-Maclaurin-Lebedev (75,302) quadrature formula
 Dispersion:   Grimme D
 SCF converges when DIIS error is below 1.0E-05
 Basis2 calculation detected. Using small basis as guess for larger.
 SCFMinFind is unable to tell whether the solution found is close.
 Resetting ReadMinima to 0 and attempting to follow guess.
 SCFMinFind following SCF Guess.
 using 3 threads for integral computing
 -------------------------------------------------------
 OpenMP Integral computing Module                
 Release: version 1.0, May 2013, Q-Chem Inc. Pittsburgh 
 -------------------------------------------------------
 using 3 threads for integral computing
 -------------------------------------------------------
 OpenMP Integral computing Module                
 Release: version 1.0, May 2013, Q-Chem Inc. Pittsburgh 
 -------------------------------------------------------
 ---------------------------------------
  Cycle       Energy         DIIS Error
 ---------------------------------------
    1    -119.1047855802      4.21E-03
    2    -119.1268074017      6.06E-04 Done RCA. Switching to DIIS
    3    -119.1276494652      4.28E-04
    4    -119.1286555406      4.55E-05
    5    -119.1286705468      1.06E-05
    6    -119.1286713027      4.15E-06 Convergence criterion met
 ---------------------------------------
 SCF time:  CPU 49.33 s  wall 16.49 s
 SCF   energy in the final basis set = -119.12867130
 Total energy in the final basis set = -119.12867130
 
 --------------------------------------------------------------
 
                    Orbital Energies (a.u.)
 --------------------------------------------------------------
 
 Alpha MOs
 -- Occupied --
-10.2717 -10.2646 -10.2646  -0.8830  -0.7773  -0.6784  -0.5459  -0.5314
 -0.4748  -0.4706  -0.4217  -0.4157  -0.3921
 -- Virtual --
  0.0716   0.0876   0.0913   0.1030   0.1215   0.1307   0.1317   0.1332
  0.1458   0.1644   0.1746   0.1901   0.2023   0.2410   0.2572   0.2608
  0.2923   0.3165   0.3179   0.3243   0.3362   0.3530   0.4642   0.4785
  0.4798   0.4985   0.5185   0.5189   0.5268   0.5397   0.5722   0.5781
  0.6124   0.6246   0.6362   0.6388   0.6468   0.6538   0.6865   0.7132
  0.7332   0.7486   0.8101   0.8930   0.8955   0.9434   0.9485   1.0073
  1.0139   1.0372   1.0660   1.0741   1.1276   1.1687   1.2006   1.2160
  1.2356   1.2398   1.2774   1.2975   1.3009   1.3121   1.3488   1.3568
  1.3637   1.3657   1.3982   1.4480   1.4497   1.4625   1.4806   1.5180
  1.5475   1.5538   1.5682   1.5907   1.6331   1.6543   1.6667   1.6873
  1.6959   2.2809   2.3118   2.4290   2.4821   2.5698   2.5715   2.6756
  2.6867   2.7349   2.7448   2.8091   2.8256   2.9204   2.9307   2.9455
  2.9638   2.9916   2.9985   3.0152   3.0612   3.0882   3.1136   3.1312
  3.1469   3.1592   3.1671   3.1723   3.1952   3.2403   3.2513   3.2863
  3.2914   3.3125   3.3180   3.3546   3.3590   3.3967   3.4008   3.4144
  3.4915   3.5064   3.5309   3.5546   3.5718   3.5887   3.5986   3.6335
  3.6435   3.6567   3.6766   3.6838   3.7268   3.7891   3.7990   3.8358
  3.8633   3.8777   3.9198   3.9394   3.9761   4.0105   4.0186   4.0394
  4.1022   4.1138   4.1384   4.1460   4.1672   4.1936   4.2136   4.2387
  4.2616   4.2914   4.3164   4.3288   4.3699   4.4158   4.4435   4.4713
  4.4854   4.4892   4.5729   4.5887   4.7105   4.7343   4.8481   4.9174
  4.9399   4.9499   4.9890   4.9998   5.0292   5.0327   5.0879   5.1345
  5.1512   5.1667   5.2126   5.2389   5.2597   5.2971   5.3349   5.3388
  5.4114   5.4190   5.4196   5.4754   5.5013   5.6117   5.6384   5.7166
  6.0203   6.3291   6.3783   6.4047   6.4334   6.5140  25.0993  25.4128
 25.4591
 --------------------------------------------------------------
 
 -----------------------------------------------------------------
                    Cartesian Multipole Moments
 -----------------------------------------------------------------
    Charge (ESU x 10^10)
                -0.0000
    Dipole Moment (Debye)
         X       0.0000      Y      -0.0000      Z      -0.0461
       Tot       0.0461
    Quadrupole Moments (Debye-Ang)
        XX     -22.1092     XY      -0.4805     YY     -21.3831
        XZ       0.0000     YZ      -0.0000     ZZ     -22.0042
    Octopole Moments (Debye-Ang^2)
       XXX       0.0002    XXY       0.0001    XYY      -0.0001
       YYY      -0.0001    XXZ       0.0018    XYZ      -0.1434
       YYZ      -1.7859    XZZ       0.0000    YZZ       0.0000
       ZZZ       0.8572
    Hexadecapole Moments (Debye-Ang^3)
      XXXX    -115.2330   XXXY     -41.2932   XXYY     -43.2614
      XYYY     -39.3696   YYYY    -123.8793   XXXZ       0.0007
      XXYZ       0.0002   XYYZ       0.0004   YYYZ       0.0004
      XXZZ     -33.2960   XYZZ     -14.2433   YYZZ     -32.7147
      XZZZ       0.0012   YZZZ       0.0002   ZZZZ     -70.2907
 -----------------------------------------------------------------
Archival summary:
1\1\centos77-c1\SP\ProcedureUnspecified\BasisUnspecified\38\shihchen\ThuJul203:32:102020ThuJul203:32:102020\0\\#,ProcedureUnspecified,BasisUnspecified,\\0,1\C\H,1,1.09259\H,1,1.09259,2,106.764\C,1,1.52405,2,118.311,3,-112.708,0\H,4,1.08585,1,107.833,2,-134.874,0\H,4,1.09047,1,111.579,2,107.575,0\H,4,1.09789,1,113.975,2,-15.5234,0\C,1,1.52405,2,100.872,3,124.209,0\H,8,1.08585,1,107.834,2,109.218,0\H,8,1.09047,1,111.578,2,-8.33311,0\H,8,1.09789,1,113.975,2,-131.431,0\\\@

 Total job time:  26.02s(wall), 71.57s(cpu) 
 Thu Jul  2 03:32:10 2020

        *************************************************************
        *                                                           *
        *  Thank you very much for using Q-Chem.  Have a nice day.  *
        *                                                           *
        *************************************************************


