                  Welcome to Q-Chem
     A Quantum Leap Into The Future Of Chemistry


 Q-Chem 5.3 (devel), Q-Chem, Inc., Pleasanton, CA (2020)

 Yihan Shao,  Zhengting Gan,  E. Epifanovsky,  A. T. B. Gilbert,  M. Wormit,  
 J. Kussmann,  A. W. Lange,  A. Behn,  Jia Deng,  Xintian Feng,  D. Ghosh,  
 M. Goldey,  P. R. Horn,  L. D. Jacobson,  I. Kaliman,  T. Kus,  A. Landau,  
 Jie Liu,  E. I. Proynov,  R. M. Richard,  R. P. Steele,  E. J. Sundstrom,  
 H. L. Woodcock III,  P. M. Zimmerman,  D. Zuev,  B. Alam,  B. Albrecht,  
 E. Alguire,  S. A. Baeppler,  D. Barton,  Z. Benda,  Y. A. Bernard,  
 E. J. Berquist,  K. B. Bravaya,  H. Burton,  K. Carter-Fenk,  D. Casanova,  
 Chun-Min Chang,  Yunqing Chen,  A. Chien,  K. D. Closser,  M. P. Coons,  
 S. Coriani,  S. Dasgupta,  A. L. Dempwolff,  M. Diedenhofen,  Hainam Do,  
 R. G. Edgar,  Po-Tung Fang,  S. Faraji,  S. Fatehi,  Qingguo Feng,  
 J. Fosso-Tande,  J. Gayvert,  Qinghui Ge,  A. Ghysels,  G. Gidofalvi,  
 J. Gomes,  J. Gonthier,  A. Gunina,  D. Hait,  M. W. D. Hanson-Heine,  
 P. H. P. Harbach,  A. W. Hauser,  M. F. Herbst,  J. E. Herr,  
 E. G. Hohenstein,  Z. C. Holden,  Kerwin Hui,  B. C. Huynh,  T.-C. Jagau,  
 Hyunjun Ji,  B. Kaduk,  K. Khistyaev,  Jaehoon Kim,  P. Klunzinger,  K. Koh,  
 D. Kosenkov,  L. Koulias,  T. Kowalczyk,  C. M. Krauter,  A. Kunitsa,  
 Ka Un Lao,  A. Laurent,  K. V. Lawler,  Joonho Lee,  D. Lefrancois,  
 S. Lehtola,  D. S. Levine,  Yi-Pei Li,  You-Sheng Lin,  Fenglai Liu,  
 Kuan-Yu Liu,  E. Livshits,  M. Loipersberger,  A. Luenser,  P. Manohar,  
 E. Mansoor,  S. F. Manzer,  Shan-Ping Mao,  Yuezhi Mao,  N. Mardirossian,  
 A. V. Marenich,  T. Markovich,  L. A. Martinez-Martinez,  S. A. Maurer,  
 N. J. Mayhall,  S. C. McKenzie,  J.-M. Mewes,  P. Morgante,  A. F. Morrison,  
 J. W. Mullinax,  K. Nanda,  T. S. Nguyen-Beck,  R. Olivares-Amaya,  
 K. J. Oosterbaan,  J. A. Parkhill,  S. K. Paul,  F. Pavosevic,  Zheng Pei,  
 T. M. Perrine,  F. Plasser,  P. Pokhilko,  S. Prager,  A. Prociuk,  
 E. Ramos,  B. Rana,  D. R. Rehn,  F. Rob,  M. Scheurer,  M. Schneider,  
 N. Sergueev,  S. M. Sharada,  S. Sharma,  D. W. Small,  T. Stauch,  
 C. J. Stein,  T. Stein,  Yu-Chuan Su,  S. P. Veccham,  Zhen Tao,  
 A. J. W. Thom,  A. Tkatchenko,  T. Tsuchimochi,  N. M. Tubman,  L. Vogt,  
 M. L. Vidal,  O. Vydrov,  M. A. Watson,  J. Wenzel,  M. de Wergifosse,  
 T. A. Wesolowski,  A. White,  J. Witte,  A. Yamada,  Jun Yang,  K. Yao,  
 S. Yeganeh,  S. R. Yost,  Zhi-Qiang You,  A. Zech,  Igor Ying Zhang,  
 Xing Zhang,  Yan Zhao,  Ying Zhu,  B. R. Brooks,  G. K. L. Chan,  
 C. J. Cramer,  M. S. Gordon,  W. J. Hehre,  A. Klamt,  M. W. Schmidt,  
 C. D. Sherrill,  D. G. Truhlar,  A. Aspuru-Guzik,  R. Baer,  A. T. Bell,  
 N. A. Besley,  Jeng-Da Chai,  A. E. DePrince, III,  R. A. DiStasio Jr.,  
 A. Dreuw,  B. D. Dunietz,  T. R. Furlani,  Chao-Ping Hsu,  Yousung Jung,  
 Jing Kong,  D. S. Lambrecht,  WanZhen Liang,  C. Ochsenfeld,  
 V. A. Rassolov,  L. V. Slipchenko,  J. E. Subotnik,  T. Van Voorhis,  
 J. M. Herbert,  A. I. Krylov,  P. M. W. Gill,  M. Head-Gordon

 Contributors to earlier versions of Q-Chem not listed above: 
 R. D. Adamson,  B. Austin,  J. Baker,  G. J. O. Beran,  K. Brandhorst,  
 S. T. Brown,  E. F. C. Byrd,  A. K. Chakraborty,  C.-L. Cheng,  
 Siu Hung Chien,  D. M. Chipman,  D. L. Crittenden,  H. Dachsel,  
 R. J. Doerksen,  A. D. Dutoi,  L. Fusti-Molnar,  W. A. Goddard III,  
 A. Golubeva-Zadorozhnaya,  S. R. Gwaltney,  G. Hawkins,  A. Heyden,  
 S. Hirata,  G. Kedziora,  F. J. Keil,  C. Kelley,  Jihan Kim,  R. A. King,  
 R. Z. Khaliullin,  P. P. Korambath,  W. Kurlancheek,  A. M. Lee,  M. S. Lee,  
 S. V. Levchenko,  Ching Yeh Lin,  D. Liotard,  R. C. Lochan,  I. Lotan,  
 P. E. Maslen,  N. Nair,  D. P. O'Neill,  D. Neuhauser,  E. Neuscamman,  
 C. M. Oana,  R. Olson,  B. Peters,  R. Peverati,  P. A. Pieniazek,  
 Y. M. Rhee,  J. Ritchie,  M. A. Rohrdanz,  E. Rosta,  N. J. Russ,  
 H. F. Schaefer III,  N. E. Schultz,  N. Shenvi,  A. C. Simmonett,  A. Sodt,  
 D. Stuck,  K. S. Thanthiriwatte,  V. Vanovschi,  Tao Wang,  A. Warshel,  
 C. F. Williams,  Q. Wu,  X. Xu,  W. Zhang

 Please cite Q-Chem as follows:
 Y. Shao et al., Mol. Phys. 113, 184-215 (2015)
 DOI: 10.1080/00268976.2014.952696

 Q-Chem 5.3.0 for Intel X86 EM64T Linux

 Parts of Q-Chem use Armadillo 9.800.1 (Horizon Scraper).
 http://arma.sourceforge.net/

 Q-Chem begins on Thu Jul  2 04:06:14 2020  

Host: centos77-c1
0

     Scratch files written to /tmp/26650.centos77-h1/qchem71582//
Processing $rem in /opt/qchem-5.3.0-intel2020u1//config/preferences:
Processing $rem in /home/shihchengli/.qchemrc:

Checking the input file for inconsistencies... 	...done.

--------------------------------------------------------------
User input:
--------------------------------------------------------------
$rem
   JOBTYPE  sp
   EXCHANGE   omegaB97X-D
   BASIS   6-311+G(2df,2pd)
   max_scf_cycles   250
   geom_opt_max_cycles   1500
   basis2 6-31G*
   scf_algorithm rca_diis
   SYM_IGNORE  TRUE
   print_input   true
   geom_opt_dmax   80
   pop_mulliken false
   XC_GRID 000075000302
$end

$molecule
0 1
C       1.2569318649     0.2447776758     -0.0090221113
C       -0.0000033185     -0.6038363081     0.1416191524
H       1.6886443815     0.4168558914     -0.9920445087
H       1.9803614738     -0.3285511785     0.5825987832
H       1.1412969525     1.2115365195     0.4820264250
C       -1.2569309594     0.2447864002     -0.0090305257
H       -0.0000080887     -1.3876623935     0.9041903288
H       -0.0000016324     -1.0977951191     -0.8318399074
H       -1.6886733662     0.4167952298     -0.9920527726
H       -1.1412662332     1.2115797163     0.4819422653
H       -1.9803511350     -0.3284857677     0.5826578899
$end
--------------------------------------------------------------
 ----------------------------------------------------------------
             Standard Nuclear Orientation (Angstroms)
    I     Atom           X                Y                Z
 ----------------------------------------------------------------
    1      C       1.2569318649     0.2447776758    -0.0090221113
    2      C      -0.0000033185    -0.6038363081     0.1416191524
    3      H       1.6886443815     0.4168558914    -0.9920445087
    4      H       1.9803614738    -0.3285511785     0.5825987832
    5      H       1.1412969525     1.2115365195     0.4820264250
    6      C      -1.2569309594     0.2447864002    -0.0090305257
    7      H      -0.0000080887    -1.3876623935     0.9041903288
    8      H      -0.0000016324    -1.0977951191    -0.8318399074
    9      H      -1.6886733662     0.4167952298    -0.9920527726
   10      H      -1.1412662332     1.2115797163     0.4819422653
   11      H      -1.9803511350    -0.3284857677     0.5826578899
 ----------------------------------------------------------------
 Nuclear Repulsion Energy =          82.91538793 hartrees
 There are       13 alpha and       13 beta electrons
 Requested basis set is 6-311+G(2df,2pd)
 There are 72 shells and 214 basis functions

 Total QAlloc Memory Limit   2000 MB
 Mega-Array Size       188 MB
 MEM_STATIC part       192 MB

                       Distance Matrix (Angstroms)
             C (  1)   C (  2)   H (  3)   H (  4)   H (  5)   C (  6)
   C (  2)  1.524049
   H (  3)  1.087345  2.275640
   H (  4)  1.096390  2.047459  1.766418
   H (  5)  1.090469  2.171180  1.761815  1.756705
   C (  6)  2.513863  1.524048  3.110038  3.340480  2.631965
   H (  7)  2.253601  1.093571  3.115051  2.268700  2.869954  2.253601
   H (  8)  2.014798  1.091612  2.274062  2.552295  2.891681  2.014798
   H (  9)  3.110069  2.275633  3.377318  4.061636  3.288351  1.087346
   H ( 10)  2.631940  2.171183  3.288254  3.482340  2.282563  1.090469
   H ( 11)  3.340467  2.047464  4.061619  3.960713  3.482310  1.096391
             H (  7)   H (  8)   H (  9)   H ( 10)
   H (  8)  1.760064
   H (  9)  3.115027  2.274041
   H ( 10)  2.869987  2.891664  1.761817
   H ( 11)  2.268699  2.552337  1.766418  1.756704
 
 A cutoff of  1.0D-09 yielded   2524 shell pairs
 There are     22526 function pairs (     27725 Cartesian)
 Smallest overlap matrix eigenvalue = 8.49E-05

 Scale SEOQF with 1.000000e-01/1.000000e-01/1.000000e-01

 Standard Electronic Orientation quadrupole field applied
 Nucleus-field energy     =     0.0000000014 hartrees
 Requested basis set is 6-31G(d)
 There are 28 shells and 58 basis functions
 A cutoff of  1.0D-09 yielded    403 shell pairs
 There are      1774 function pairs (      1969 Cartesian)
 Smallest overlap matrix eigenvalue = 5.86E-03
 Guess from superposition of atomic densities
 Warning:  Energy on first SCF cycle will be non-variational
 SAD guess density has 26.000000 electrons
 Long-range K will be added via erf
 Coulomb attenuation parameter = 0.2 bohr**(-1)
 A restricted hybrid HF-DFT SCF calculation will be
 performed using Relaxed Constraint Minimization + Pulay DIIS
 Exchange:     0.2220 Hartree-Fock + 1.0000 wB97X-D + LR-HF
 Correlation:  1.0000 wB97X-D
 Using Euler-Maclaurin-Lebedev (75,302) quadrature formula
 Dispersion:   Grimme D
 SCF converges when DIIS error is below 1.0E-04
 using 3 threads for integral computing
 -------------------------------------------------------
 OpenMP Integral computing Module                
 Release: version 1.0, May 2013, Q-Chem Inc. Pittsburgh 
 -------------------------------------------------------
 using 3 threads for integral computing
 -------------------------------------------------------
 OpenMP Integral computing Module                
 Release: version 1.0, May 2013, Q-Chem Inc. Pittsburgh 
 -------------------------------------------------------
 ---------------------------------------
  Cycle       Energy         DIIS Error
 ---------------------------------------
    1    -119.6435617382      1.01E-01
    2    -119.0375364002      9.19E-03
    3    -119.0593134350      2.45E-03
    4    -119.0738876313      1.68E-03
    5    -119.0745795435      2.63E-04 Done RCA. Switching to DIIS
    6    -119.0750892964      1.95E-04
    7    -119.0751056906      5.14E-06 Convergence criterion met
 ---------------------------------------
 SCF time:  CPU 21.75 s  wall 8.28 s
 SCF   energy in the small basis set = -119.07510569
 Total energy in the small basis set = -119.07510569
 ----------------------------------------------------
  Cycle       Energy    
 ----------------------------------------------------
    1     -16.5451813777     -1.65E+01
 Long-range K will be added via erf
 Coulomb attenuation parameter = 0.2 bohr**(-1)
 A restricted hybrid HF-DFT SCF calculation will be
 performed using Relaxed Constraint Minimization + Pulay DIIS
 Exchange:     0.2220 Hartree-Fock + 1.0000 wB97X-D + LR-HF
 Correlation:  1.0000 wB97X-D
 Using Euler-Maclaurin-Lebedev (75,302) quadrature formula
 Dispersion:   Grimme D
 SCF converges when DIIS error is below 1.0E-05
 Basis2 calculation detected. Using small basis as guess for larger.
 SCFMinFind is unable to tell whether the solution found is close.
 Resetting ReadMinima to 0 and attempting to follow guess.
 SCFMinFind following SCF Guess.
 using 3 threads for integral computing
 -------------------------------------------------------
 OpenMP Integral computing Module                
 Release: version 1.0, May 2013, Q-Chem Inc. Pittsburgh 
 -------------------------------------------------------
 using 3 threads for integral computing
 -------------------------------------------------------
 OpenMP Integral computing Module                
 Release: version 1.0, May 2013, Q-Chem Inc. Pittsburgh 
 -------------------------------------------------------
 ---------------------------------------
  Cycle       Energy         DIIS Error
 ---------------------------------------
    1    -119.0950173363      4.21E-03
    2    -119.1170748228      6.17E-04 Done RCA. Switching to DIIS
    3    -119.1179327344      4.39E-04
    4    -119.1189925011      4.54E-05
    5    -119.1190074902      9.47E-06 Convergence criterion met
 ---------------------------------------
 SCF time:  CPU 45.46 s  wall 15.46 s
 SCF   energy in the final basis set = -119.11900749
 Total energy in the final basis set = -119.11900749
 
 --------------------------------------------------------------
 
                    Orbital Energies (a.u.)
 --------------------------------------------------------------
 
 Alpha MOs
 -- Occupied --
-10.2740 -10.2631 -10.2631  -0.8840  -0.7774  -0.6771  -0.5472  -0.5234
 -0.4945  -0.4629  -0.4360  -0.3960  -0.3860
 -- Virtual --
  0.0704   0.0875   0.0901   0.0985   0.1228   0.1295   0.1329   0.1335
  0.1445   0.1676   0.1739   0.1917   0.2035   0.2382   0.2470   0.2768
  0.2846   0.3005   0.3096   0.3191   0.3354   0.3597   0.4548   0.4716
  0.4834   0.5027   0.5114   0.5148   0.5241   0.5411   0.5856   0.6028
  0.6089   0.6111   0.6304   0.6361   0.6556   0.6733   0.6892   0.7122
  0.7295   0.7450   0.8933   0.8949   0.9044   0.9068   0.9475   0.9719
  0.9805   0.9939   1.0463   1.1274   1.1291   1.1927   1.2137   1.2185
  1.2479   1.2598   1.2636   1.2691   1.3018   1.3128   1.3471   1.3581
  1.3690   1.4021   1.4173   1.4601   1.4629   1.4676   1.4764   1.4869
  1.5178   1.5276   1.5548   1.5938   1.6388   1.6513   1.6610   1.6703
  1.7013   2.3818   2.3876   2.3888   2.4730   2.5326   2.6124   2.6283
  2.6789   2.6948   2.8144   2.8293   2.8848   2.9010   2.9089   2.9162
  2.9543   2.9946   3.0148   3.0330   3.0512   3.0749   3.0869   3.1203
  3.1247   3.1442   3.1797   3.1896   3.2085   3.2285   3.2393   3.2704
  3.3188   3.3237   3.3321   3.3554   3.3697   3.3844   3.4102   3.4599
  3.4804   3.4816   3.5339   3.5652   3.5768   3.5810   3.6088   3.6158
  3.6293   3.6611   3.6828   3.6988   3.7356   3.7403   3.7860   3.8035
  3.9011   3.9165   3.9187   3.9288   3.9907   4.0237   4.0238   4.0929
  4.0944   4.1000   4.1232   4.1571   4.1685   4.1879   4.1987   4.2246
  4.2571   4.2669   4.2853   4.3342   4.3567   4.4260   4.4454   4.4535
  4.4836   4.5066   4.5195   4.5946   4.6883   4.8140   4.8622   4.8792
  4.9154   4.9298   4.9609   5.0009   5.0446   5.0734   5.1367   5.1684
  5.1914   5.1921   5.2245   5.2371   5.2415   5.3238   5.3584   5.3833
  5.4129   5.4431   5.4535   5.4891   5.5174   5.5405   5.6490   5.7370
  5.9821   6.3588   6.3915   6.3933   6.4297   6.5005  25.0961  25.4336
 25.4475
 --------------------------------------------------------------
 
 -----------------------------------------------------------------
                    Cartesian Multipole Moments
 -----------------------------------------------------------------
    Charge (ESU x 10^10)
                -0.0000
    Dipole Moment (Debye)
         X       0.0000      Y      -0.1884      Z      -0.0683
       Tot       0.2004
    Quadrupole Moments (Debye-Ang)
        XX     -22.7431     XY       0.0000     YY     -21.6758
        XZ      -0.0000     YZ      -0.5390     ZZ     -21.1683
    Octopole Moments (Debye-Ang^2)
       XXX       0.0000    XXY      -0.3855    XYY       0.0001
       YYY       1.4199    XXZ      -1.9080    XYZ      -0.0000
       YYZ       0.6114    XZZ      -0.0001    YZZ      -0.1794
       ZZZ      -3.6635
    Hexadecapole Moments (Debye-Ang^3)
      XXXX    -209.6282   XXXY       0.0003   XXYY     -45.8084
      XYYY       0.0002   YYYY     -70.2520   XXXZ      -0.0003
      XXYZ      -1.8329   XYYZ      -0.0001   YYYZ       1.4434
      XXZZ     -39.1438   XYZZ       0.0003   YYZZ     -18.0748
      XZZZ      -0.0003   YZZZ       1.1780   ZZZZ     -44.2351
 -----------------------------------------------------------------
Archival summary:
1\1\centos77-c1\SP\ProcedureUnspecified\BasisUnspecified\38\shihchen\ThuJul204:06:402020ThuJul204:06:402020\0\\#,ProcedureUnspecified,BasisUnspecified,\\0,1\C\H,1,1.09161\H,1,1.09357,2,107.308\C,1,1.52405,2,99.4285,3,-123.277,0\H,4,1.08735,1,120.326,2,-16.2873,0\H,4,1.09047,1,111.204,2,-143.935,0\H,4,1.09639,1,101.518,2,102.666,0\C,1,1.52405,2,99.4284,3,123.277,0\H,8,1.08735,1,120.326,2,16.2923,0\H,8,1.09047,1,111.203,2,143.94,0\H,8,1.09639,1,101.518,2,-102.661,0\\\@

 Total job time:  26.68s(wall), 70.90s(cpu) 
 Thu Jul  2 04:06:40 2020

        *************************************************************
        *                                                           *
        *  Thank you very much for using Q-Chem.  Have a nice day.  *
        *                                                           *
        *************************************************************


