                  Welcome to Q-Chem
     A Quantum Leap Into The Future Of Chemistry


 Q-Chem 5.2 (devel), Q-Chem, Inc., Pleasanton, CA (2019)

 Yihan Shao,  Zhengting Gan,  E. Epifanovsky,  A. T. B. Gilbert,  M. Wormit,  
 J. Kussmann,  A. W. Lange,  A. Behn,  Jia Deng,  Xintian Feng,  D. Ghosh,  
 M. Goldey,  P. R. Horn,  L. D. Jacobson,  I. Kaliman,  T. Kus,  A. Landau,  
 Jie Liu,  E. I. Proynov,  R. M. Richard,  R. P. Steele,  E. J. Sundstrom,  
 H. L. Woodcock III,  P. M. Zimmerman,  D. Zuev,  B. Alam,  B. Albrecht,  
 E. Alguire,  S. A. Baeppler,  D. Barton,  Z. Benda,  Y. A. Bernard,  
 E. J. Berquist,  K. B. Bravaya,  H. Burton,  K. Carter-Fenk,  D. Casanova,  
 Chun-Min Chang,  Yunqing Chen,  A. Chien,  K. D. Closser,  M. P. Coons,  
 S. Coriani,  S. Dasgupta,  A. L. Dempwolff,  M. Diedenhofen,  Hainam Do,  
 R. G. Edgar,  Po-Tung Fang,  S. Faraji,  S. Fatehi,  Qingguo Feng,  
 J. Fosso-Tande,  J. Gayvert,  Qinghui Ge,  A. Ghysels,  G. Gidofalvi,  
 J. Gomes,  J. Gonthier,  A. Gunina,  D. Hait,  M. W. D. Hanson-Heine,  
 P. H. P. Harbach,  A. W. Hauser,  M. F. Herbst,  J. E. Herr,  
 E. G. Hohenstein,  Z. C. Holden,  Kerwin Hui,  B. C. Huynh,  T.-C. Jagau,  
 Hyunjun Ji,  B. Kaduk,  K. Khistyaev,  Jaehoon Kim,  P. Klunzinger,  K. Koh,  
 D. Kosenkov,  L. Koulias,  T. Kowalczyk,  C. M. Krauter,  A. Kunitsa,  
 Ka Un Lao,  A. Laurent,  K. V. Lawler,  Joonho Lee,  D. Lefrancois,  
 S. Lehtola,  D. S. Levine,  Yi-Pei Li,  You-Sheng Lin,  Fenglai Liu,  
 Kuan-Yu Liu,  E. Livshits,  M. Loipersberger,  A. Luenser,  P. Manohar,  
 E. Mansoor,  S. F. Manzer,  Shan-Ping Mao,  Yuezhi Mao,  N. Mardirossian,  
 A. V. Marenich,  T. Markovich,  L. A. Martinez-Martinez,  S. A. Maurer,  
 N. J. Mayhall,  S. C. McKenzie,  J.-M. Mewes,  P. Morgante,  A. F. Morrison,  
 J. W. Mullinax,  K. Nanda,  T. S. Nguyen-Beck,  R. Olivares-Amaya,  
 J. A. Parkhill,  S. K. Paul,  Zheng Pei,  T. M. Perrine,  F. Plasser,  
 P. Pokhilko,  S. Prager,  A. Prociuk,  E. Ramos,  B. Rana,  D. R. Rehn,  
 F. Rob,  M. Scheurer,  M. Schneider,  N. Sergueev,  S. M. Sharada,  
 S. Sharma,  D. W. Small,  T. Stauch,  C. J. Stein,  T. Stein,  Yu-Chuan Su,  
 S. P. Veccham,  A. J. W. Thom,  A. Tkatchenko,  T. Tsuchimochi,  
 N. M. Tubman,  L. Vogt,  M. L. Vidal,  O. Vydrov,  M. A. Watson,  J. Wenzel,  
 M. de Wergifosse,  T. A. Wesolowski,  A. White,  J. Witte,  A. Yamada,  
 Jun Yang,  K. Yao,  S. Yeganeh,  S. R. Yost,  Zhi-Qiang You,  A. Zech,  
 Igor Ying Zhang,  Xing Zhang,  Yan Zhao,  Ying Zhu,  B. R. Brooks,  
 G. K. L. Chan,  C. J. Cramer,  M. S. Gordon,  W. J. Hehre,  A. Klamt,  
 M. W. Schmidt,  C. D. Sherrill,  D. G. Truhlar,  A. Aspuru-Guzik,  R. Baer,  
 A. T. Bell,  N. A. Besley,  Jeng-Da Chai,  A. E. DePrince, III,  
 R. A. DiStasio Jr.,  A. Dreuw,  B. D. Dunietz,  T. R. Furlani,  
 Chao-Ping Hsu,  Yousung Jung,  Jing Kong,  D. S. Lambrecht,  WanZhen Liang,  
 C. Ochsenfeld,  V. A. Rassolov,  L. V. Slipchenko,  J. E. Subotnik,  
 T. Van Voorhis,  J. M. Herbert,  A. I. Krylov,  P. M. W. Gill,  M. Head-Gordon

 Contributors to earlier versions of Q-Chem not listed above: 
 R. D. Adamson,  B. Austin,  J. Baker,  G. J. O. Beran,  K. Brandhorst,  
 S. T. Brown,  E. F. C. Byrd,  A. K. Chakraborty,  C.-L. Cheng,  
 Siu Hung Chien,  D. M. Chipman,  D. L. Crittenden,  H. Dachsel,  
 R. J. Doerksen,  A. D. Dutoi,  L. Fusti-Molnar,  W. A. Goddard III,  
 A. Golubeva-Zadorozhnaya,  S. R. Gwaltney,  G. Hawkins,  A. Heyden,  
 S. Hirata,  G. Kedziora,  F. J. Keil,  C. Kelley,  Jihan Kim,  R. A. King,  
 R. Z. Khaliullin,  P. P. Korambath,  W. Kurlancheek,  A. M. Lee,  M. S. Lee,  
 S. V. Levchenko,  Ching Yeh Lin,  D. Liotard,  R. C. Lochan,  I. Lotan,  
 P. E. Maslen,  N. Nair,  D. P. O'Neill,  D. Neuhauser,  E. Neuscamman,  
 C. M. Oana,  R. Olson,  B. Peters,  R. Peverati,  P. A. Pieniazek,  
 Y. M. Rhee,  J. Ritchie,  M. A. Rohrdanz,  E. Rosta,  N. J. Russ,  
 H. F. Schaefer III,  N. E. Schultz,  N. Shenvi,  A. C. Simmonett,  A. Sodt,  
 D. Stuck,  K. S. Thanthiriwatte,  V. Vanovschi,  Tao Wang,  A. Warshel,  
 C. F. Williams,  Q. Wu,  X. Xu,  W. Zhang

 Please cite Q-Chem as follows:
 Y. Shao et al., Mol. Phys. 113, 184-215 (2015)
 DOI: 10.1080/00268976.2014.952696

 Q-Chem 5.2.2 for Intel X86 EM64T Linux

 Parts of Q-Chem use Armadillo 9.800.1 (Horizon Scraper).
 http://arma.sourceforge.net/

 Q-Chem begins on Sun Apr 12 13:41:40 2020  

Host: cn0909
0

     Scratch files written to /tmp/ypli/6724609.srvc1/qchem74473//
Warning:  Did not find "$end" marker in "$molecule" section

Checking the input file for inconsistencies... 	...done.

--------------------------------------------------------------
User input:
--------------------------------------------------------------
$rem
   JOBTYPE  sp
   EXCHANGE   omegaB97X-D
   BASIS   6-311+G(2df,2pd)
   max_scf_cycles   250
   geom_opt_max_cycles   1500
   basis2 6-31G*
   scf_algorithm rca_diis
   SYM_IGNORE  TRUE
   print_input   true
   geom_opt_dmax   80
   pop_mulliken false
   XC_GRID 000075000302
$end

$molecule
0 1
C       1.2534007386     0.2492978460     -0.0633894328
C       -0.0000035809     -0.5245547323     0.3275884536
H       1.4047913893     0.6247949950     -1.0717529504
H       2.0171399012     -0.5128577938     0.1355410565
H       1.4407894071     1.0683941980     0.6316830908
C       -1.2533994699     0.2493048412     -0.0634002001
H       -0.0000086068     -1.1048681376     1.2546808521
H       -0.0000017721     -1.2298892175     -0.5053420288
H       -1.4048092486     0.6247185281     -1.0717928693
H       -1.4407384072     1.0684664136     0.6316081619
H       -2.0171604111     -0.5128062745     0.1356208855
--------------------------------------------------------------
 ----------------------------------------------------------------
             Standard Nuclear Orientation (Angstroms)
    I     Atom           X                Y                Z
 ----------------------------------------------------------------
    1      C       1.2534007386     0.2492978460    -0.0633894328
    2      C      -0.0000035809    -0.5245547323     0.3275884536
    3      H       1.4047913893     0.6247949950    -1.0717529504
    4      H       2.0171399012    -0.5128577938     0.1355410565
    5      H       1.4407894071     1.0683941980     0.6316830908
    6      C      -1.2533994699     0.2493048412    -0.0634002001
    7      H      -0.0000086068    -1.1048681376     1.2546808521
    8      H      -0.0000017721    -1.2298892175    -0.5053420288
    9      H      -1.4048092486     0.6247185281    -1.0717928693
   10      H      -1.4407384072     1.0684664136     0.6316081619
   11      H      -2.0171604111    -0.5128062745     0.1356208855
 ----------------------------------------------------------------
 Nuclear Repulsion Energy =          82.89871522 hartrees
 There are       13 alpha and       13 beta electrons
 Requested basis set is 6-311+G(2df,2pd)
 There are 72 shells and 214 basis functions

 Total QAlloc Memory Limit   2000 MB
 Mega-Array Size       188 MB
 MEM_STATIC part       192 MB

                       Distance Matrix (Angstroms)
             C (  1)   C (  2)   H (  3)   H (  4)   H (  5)   C (  6)
   C (  2)  1.524052
   H (  3)  1.086607  2.291857
   H (  4)  1.097156  2.026299  1.768271
   H (  5)  1.090486  2.169296  1.760616  1.754621
   C (  6)  2.506800  1.524051  2.867708  3.364060  2.900466
   H (  7)  2.267622  1.093739  3.221411  2.381562  2.680876  2.267622
   H (  8)  1.988551  1.091453  2.394602  2.234665  2.941226  1.988551
   H (  9)  2.867734  2.291850  2.809601  3.802824  3.346059  1.086608
   H ( 10)  2.900421  2.169300  3.345941  3.834526  2.881528  1.090485
   H ( 11)  3.364072  2.026305  3.802847  4.034300  3.834539  1.097157
             H (  7)   H (  8)   H (  9)   H ( 10)
   H (  8)  1.764458
   H (  9)  3.221400  2.394561
   H ( 10)  2.680915  2.941227  1.760619
   H ( 11)  2.381540  2.234719  1.768272  1.754619
 
 A cutoff of  1.0D-09 yielded   2524 shell pairs
 There are     22480 function pairs (     27657 Cartesian)
 Smallest overlap matrix eigenvalue = 9.14E-05

 Scale SEOQF with 1.000000e-01/1.000000e-01/1.000000e-01

 Standard Electronic Orientation quadrupole field applied
 Nucleus-field energy     =     0.0000000013 hartrees
 Requested basis set is 6-31G(d)
 There are 28 shells and 58 basis functions
 A cutoff of  1.0D-09 yielded    403 shell pairs
 There are      1774 function pairs (      1969 Cartesian)
 Smallest overlap matrix eigenvalue = 5.76E-03
 Guess from superposition of atomic densities
 Warning:  Energy on first SCF cycle will be non-variational
 SAD guess density has 26.000000 electrons
 Long-range K will be added via erf
 Coulomb attenuation parameter = 0.2 bohr**(-1)
 A restricted hybrid HF-DFT SCF calculation will be
 performed using Relaxed Constraint Minimization + Pulay DIIS
 Exchange:     0.2220 Hartree-Fock + 1.0000 wB97X-D + LR-HF
 Correlation:  1.0000 wB97X-D
 Using Euler-Maclaurin-Lebedev (75,302) quadrature formula
 Dispersion:   Grimme D
 SCF converges when DIIS error is below 1.0E-04
 using 3 threads for integral computing
 -------------------------------------------------------
 OpenMP Integral computing Module                
 Release: version 1.0, May 2013, Q-Chem Inc. Pittsburgh 
 -------------------------------------------------------
 using 3 threads for integral computing
 -------------------------------------------------------
 OpenMP Integral computing Module                
 Release: version 1.0, May 2013, Q-Chem Inc. Pittsburgh 
 -------------------------------------------------------
 ---------------------------------------
  Cycle       Energy         DIIS Error
 ---------------------------------------
    1    -119.6449387999      1.01E-01
    2    -119.0360303112      9.23E-03
    3    -119.0580312597      2.49E-03
    4    -119.0727892479      1.70E-03
    5    -119.0734960559      2.67E-04 Done RCA. Switching to DIIS
    6    -119.0740177911      1.96E-04
    7    -119.0740344207      6.37E-06 Convergence criterion met
 ---------------------------------------
 SCF time:  CPU 33.54 s  wall 12.19 s
 SCF   energy in the small basis set = -119.07403442
 Total energy in the small basis set = -119.07403442
 ----------------------------------------------------
  Cycle       Energy    
 ----------------------------------------------------
    1     -16.5429184000     -1.65E+01
 Long-range K will be added via erf
 Coulomb attenuation parameter = 0.2 bohr**(-1)
 A restricted hybrid HF-DFT SCF calculation will be
 performed using Relaxed Constraint Minimization + Pulay DIIS
 Exchange:     0.2220 Hartree-Fock + 1.0000 wB97X-D + LR-HF
 Correlation:  1.0000 wB97X-D
 Using Euler-Maclaurin-Lebedev (75,302) quadrature formula
 Dispersion:   Grimme D
 SCF converges when DIIS error is below 1.0E-05
 Basis2 calculation detected. Using small basis as guess for larger.
 SCFMinFind is unable to tell whether the solution found is close.
 Resetting ReadMinima to 0 and attempting to follow guess.
 SCFMinFind following SCF Guess.
 using 3 threads for integral computing
 -------------------------------------------------------
 OpenMP Integral computing Module                
 Release: version 1.0, May 2013, Q-Chem Inc. Pittsburgh 
 -------------------------------------------------------
 using 3 threads for integral computing
 -------------------------------------------------------
 OpenMP Integral computing Module                
 Release: version 1.0, May 2013, Q-Chem Inc. Pittsburgh 
 -------------------------------------------------------
 ---------------------------------------
  Cycle       Energy         DIIS Error
 ---------------------------------------
    1    -119.0938127803      4.21E-03
    2    -119.1158806861      6.14E-04 Done RCA. Switching to DIIS
    3    -119.1167389682      4.35E-04
    4    -119.1177753611      4.58E-05
    5    -119.1177905630      9.10E-06 Convergence criterion met
 ---------------------------------------
 SCF time:  CPU 72.11 s  wall 24.83 s
 SCF   energy in the final basis set = -119.11779056
 Total energy in the final basis set = -119.11779056
 
 --------------------------------------------------------------
 
                    Orbital Energies (a.u.)
 --------------------------------------------------------------
 
 Alpha MOs
 -- Occupied --
-10.2764 -10.2631 -10.2631  -0.8850  -0.7785  -0.6765  -0.5473  -0.5144
 -0.5009  -0.4648  -0.4468  -0.3861  -0.3860
 -- Virtual --
  0.0665   0.0869   0.0887   0.0980   0.1239   0.1293   0.1332   0.1388
  0.1408   0.1722   0.1736   0.1895   0.2266   0.2408   0.2488   0.2728
  0.2799   0.2870   0.3017   0.3035   0.3475   0.3490   0.4557   0.4654
  0.4764   0.5061   0.5108   0.5255   0.5339   0.5661   0.5843   0.5948
  0.6010   0.6197   0.6464   0.6558   0.6663   0.6825   0.7021   0.7210
  0.7322   0.7607   0.8199   0.8437   0.8639   0.8905   0.9405   0.9582
  0.9883   1.0381   1.0636   1.1449   1.1524   1.1529   1.1845   1.2067
  1.2149   1.2711   1.2724   1.2842   1.2991   1.3201   1.3292   1.3696
  1.3836   1.4050   1.4308   1.4534   1.4597   1.4712   1.4921   1.5109
  1.5401   1.5433   1.5919   1.6067   1.6159   1.6670   1.6697   1.6896
  1.7502   2.3644   2.4657   2.4710   2.5034   2.5802   2.5808   2.6004
  2.6382   2.6777   2.7978   2.8156   2.8691   2.8991   2.9303   2.9506
  2.9650   2.9654   3.0028   3.0477   3.0578   3.0638   3.0902   3.1028
  3.1202   3.1633   3.1691   3.1870   3.2257   3.2333   3.2939   3.3007
  3.3083   3.3350   3.3441   3.3522   3.3827   3.3932   3.4247   3.4251
  3.4686   3.5201   3.5232   3.5550   3.5715   3.5755   3.6005   3.6089
  3.6135   3.6932   3.7091   3.7209   3.7529   3.7666   3.8084   3.8187
  3.8785   3.9216   3.9553   3.9689   3.9884   4.0102   4.0261   4.0378
  4.0847   4.0895   4.0981   4.1428   4.1504   4.1996   4.2106   4.2251
  4.2389   4.2889   4.3080   4.3492   4.3972   4.4137   4.4209   4.4343
  4.4909   4.5642   4.6414   4.6488   4.6900   4.7938   4.8459   4.8487
  4.8854   4.9123   4.9485   5.0137   5.0149   5.0966   5.1206   5.1456
  5.1715   5.1820   5.2086   5.2489   5.3202   5.3352   5.3618   5.3790
  5.4056   5.4399   5.5090   5.5272   5.5374   5.6066   5.6453   5.7715
  5.9865   6.3696   6.3948   6.4130   6.4257   6.4798  25.1817  25.4324
 25.4493
 --------------------------------------------------------------
 
 -----------------------------------------------------------------
                    Cartesian Multipole Moments
 -----------------------------------------------------------------
    Charge (ESU x 10^10)
                -0.0000
    Dipole Moment (Debye)
         X       0.0000      Y      -0.2160      Z      -0.0465
       Tot       0.2209
    Quadrupole Moments (Debye-Ang)
        XX     -23.0991     XY       0.0000     YY     -21.6674
        XZ      -0.0000     YZ      -0.6011     ZZ     -20.8917
    Octopole Moments (Debye-Ang^2)
       XXX      -0.0000    XXY      -0.6799    XYY       0.0001
       YYY       0.0355    XXZ      -1.8031    XYZ       0.0000
       YYZ      -0.3168    XZZ      -0.0000    YZZ       0.0798
       ZZZ      -3.8448
    Hexadecapole Moments (Debye-Ang^3)
      XXXX    -213.5734   XXXY       0.0004   XXYY     -43.5229
      XYYY       0.0001   YYYY     -68.0300   XXXZ      -0.0004
      XXYZ       0.2987   XYYZ      -0.0003   YYYZ       4.9107
      XXZZ     -41.4307   XYZZ       0.0002   YYZZ     -17.0441
      XZZZ      -0.0001   YZZZ       2.9396   ZZZZ     -47.1520
 -----------------------------------------------------------------
Archival summary:
1\1\cn0909\SP\ProcedureUnspecified\BasisUnspecified\38\r0852400\SunApr1213:42:212020SunApr1213:42:212020\0\\#,ProcedureUnspecified,BasisUnspecified,\\0,1\C\H,1,1.09145\H,1,1.09374,2,107.697\C,1,1.52405,2,97.6058,3,-123.931,0\H,4,1.08661,1,121.877,2,-48.7627,0\H,4,1.09049,1,111.051,2,-177.665,0\H,4,1.09716,1,99.9774,2,70.0309,0\C,1,1.52405,2,97.6058,3,123.931,0\H,8,1.08661,1,121.878,2,48.7685,0\H,8,1.09049,1,111.051,2,177.671,0\H,8,1.09716,1,99.977,2,-70.0253,0\\\@

 Total job time:  40.95s(wall), 110.48s(cpu) 
 Sun Apr 12 13:42:21 2020

        *************************************************************
        *                                                           *
        *  Thank you very much for using Q-Chem.  Have a nice day.  *
        *                                                           *
        *************************************************************


