                  Welcome to Q-Chem
     A Quantum Leap Into The Future Of Chemistry


 Q-Chem 5.2 (devel), Q-Chem, Inc., Pleasanton, CA (2019)

 Yihan Shao,  Zhengting Gan,  E. Epifanovsky,  A. T. B. Gilbert,  M. Wormit,  
 J. Kussmann,  A. W. Lange,  A. Behn,  Jia Deng,  Xintian Feng,  D. Ghosh,  
 M. Goldey,  P. R. Horn,  L. D. Jacobson,  I. Kaliman,  T. Kus,  A. Landau,  
 Jie Liu,  E. I. Proynov,  R. M. Richard,  R. P. Steele,  E. J. Sundstrom,  
 H. L. Woodcock III,  P. M. Zimmerman,  D. Zuev,  B. Alam,  B. Albrecht,  
 E. Alguire,  S. A. Baeppler,  D. Barton,  Z. Benda,  Y. A. Bernard,  
 E. J. Berquist,  K. B. Bravaya,  H. Burton,  K. Carter-Fenk,  D. Casanova,  
 Chun-Min Chang,  Yunqing Chen,  A. Chien,  K. D. Closser,  M. P. Coons,  
 S. Coriani,  S. Dasgupta,  A. L. Dempwolff,  M. Diedenhofen,  Hainam Do,  
 R. G. Edgar,  Po-Tung Fang,  S. Faraji,  S. Fatehi,  Qingguo Feng,  
 J. Fosso-Tande,  J. Gayvert,  Qinghui Ge,  A. Ghysels,  G. Gidofalvi,  
 J. Gomes,  J. Gonthier,  A. Gunina,  D. Hait,  M. W. D. Hanson-Heine,  
 P. H. P. Harbach,  A. W. Hauser,  M. F. Herbst,  J. E. Herr,  
 E. G. Hohenstein,  Z. C. Holden,  Kerwin Hui,  B. C. Huynh,  T.-C. Jagau,  
 Hyunjun Ji,  B. Kaduk,  K. Khistyaev,  Jaehoon Kim,  P. Klunzinger,  K. Koh,  
 D. Kosenkov,  L. Koulias,  T. Kowalczyk,  C. M. Krauter,  A. Kunitsa,  
 Ka Un Lao,  A. Laurent,  K. V. Lawler,  Joonho Lee,  D. Lefrancois,  
 S. Lehtola,  D. S. Levine,  Yi-Pei Li,  You-Sheng Lin,  Fenglai Liu,  
 Kuan-Yu Liu,  E. Livshits,  M. Loipersberger,  A. Luenser,  P. Manohar,  
 E. Mansoor,  S. F. Manzer,  Shan-Ping Mao,  Yuezhi Mao,  N. Mardirossian,  
 A. V. Marenich,  T. Markovich,  L. A. Martinez-Martinez,  S. A. Maurer,  
 N. J. Mayhall,  S. C. McKenzie,  J.-M. Mewes,  P. Morgante,  A. F. Morrison,  
 J. W. Mullinax,  K. Nanda,  T. S. Nguyen-Beck,  R. Olivares-Amaya,  
 J. A. Parkhill,  S. K. Paul,  Zheng Pei,  T. M. Perrine,  F. Plasser,  
 P. Pokhilko,  S. Prager,  A. Prociuk,  E. Ramos,  B. Rana,  D. R. Rehn,  
 F. Rob,  M. Scheurer,  M. Schneider,  N. Sergueev,  S. M. Sharada,  
 S. Sharma,  D. W. Small,  T. Stauch,  C. J. Stein,  T. Stein,  Yu-Chuan Su,  
 S. P. Veccham,  A. J. W. Thom,  A. Tkatchenko,  T. Tsuchimochi,  
 N. M. Tubman,  L. Vogt,  M. L. Vidal,  O. Vydrov,  M. A. Watson,  J. Wenzel,  
 M. de Wergifosse,  T. A. Wesolowski,  A. White,  J. Witte,  A. Yamada,  
 Jun Yang,  K. Yao,  S. Yeganeh,  S. R. Yost,  Zhi-Qiang You,  A. Zech,  
 Igor Ying Zhang,  Xing Zhang,  Yan Zhao,  Ying Zhu,  B. R. Brooks,  
 G. K. L. Chan,  C. J. Cramer,  M. S. Gordon,  W. J. Hehre,  A. Klamt,  
 M. W. Schmidt,  C. D. Sherrill,  D. G. Truhlar,  A. Aspuru-Guzik,  R. Baer,  
 A. T. Bell,  N. A. Besley,  Jeng-Da Chai,  A. E. DePrince, III,  
 R. A. DiStasio Jr.,  A. Dreuw,  B. D. Dunietz,  T. R. Furlani,  
 Chao-Ping Hsu,  Yousung Jung,  Jing Kong,  D. S. Lambrecht,  WanZhen Liang,  
 C. Ochsenfeld,  V. A. Rassolov,  L. V. Slipchenko,  J. E. Subotnik,  
 T. Van Voorhis,  J. M. Herbert,  A. I. Krylov,  P. M. W. Gill,  M. Head-Gordon

 Contributors to earlier versions of Q-Chem not listed above: 
 R. D. Adamson,  B. Austin,  J. Baker,  G. J. O. Beran,  K. Brandhorst,  
 S. T. Brown,  E. F. C. Byrd,  A. K. Chakraborty,  C.-L. Cheng,  
 Siu Hung Chien,  D. M. Chipman,  D. L. Crittenden,  H. Dachsel,  
 R. J. Doerksen,  A. D. Dutoi,  L. Fusti-Molnar,  W. A. Goddard III,  
 A. Golubeva-Zadorozhnaya,  S. R. Gwaltney,  G. Hawkins,  A. Heyden,  
 S. Hirata,  G. Kedziora,  F. J. Keil,  C. Kelley,  Jihan Kim,  R. A. King,  
 R. Z. Khaliullin,  P. P. Korambath,  W. Kurlancheek,  A. M. Lee,  M. S. Lee,  
 S. V. Levchenko,  Ching Yeh Lin,  D. Liotard,  R. C. Lochan,  I. Lotan,  
 P. E. Maslen,  N. Nair,  D. P. O'Neill,  D. Neuhauser,  E. Neuscamman,  
 C. M. Oana,  R. Olson,  B. Peters,  R. Peverati,  P. A. Pieniazek,  
 Y. M. Rhee,  J. Ritchie,  M. A. Rohrdanz,  E. Rosta,  N. J. Russ,  
 H. F. Schaefer III,  N. E. Schultz,  N. Shenvi,  A. C. Simmonett,  A. Sodt,  
 D. Stuck,  K. S. Thanthiriwatte,  V. Vanovschi,  Tao Wang,  A. Warshel,  
 C. F. Williams,  Q. Wu,  X. Xu,  W. Zhang

 Please cite Q-Chem as follows:
 Y. Shao et al., Mol. Phys. 113, 184-215 (2015)
 DOI: 10.1080/00268976.2014.952696

 Q-Chem 5.2.2 for Intel X86 EM64T Linux

 Parts of Q-Chem use Armadillo 9.800.1 (Horizon Scraper).
 http://arma.sourceforge.net/

 Q-Chem begins on Sun Apr 12 05:39:00 2020  

Host: cn0913
0

     Scratch files written to /tmp/ypli/6721341.srvc1/qchem226284//
Warning:  Did not find "$end" marker in "$molecule" section

Checking the input file for inconsistencies... 	...done.

--------------------------------------------------------------
User input:
--------------------------------------------------------------
$rem
   JOBTYPE  sp
   EXCHANGE   omegaB97X-D
   BASIS   6-311+G(2df,2pd)
   max_scf_cycles   250
   geom_opt_max_cycles   1500
   basis2 6-31G*
   scf_algorithm rca_diis
   SYM_IGNORE  TRUE
   print_input   true
   geom_opt_dmax   80
   pop_mulliken false
   XC_GRID 000075000302
$end

$molecule
0 1
C       1.2363040860     0.1136246196     0.2595253261
C       -0.0000000134     0.2014631756     -0.6273548515
H       1.0485884981     -0.8887804429     0.6575405534
H       1.4464577794     0.7825417932     1.0927614293
H       2.1346912320     -0.0045573549     -0.3471505835
C       -1.2363041554     0.1136256600     0.2595251834
H       -0.0000007651     -0.8897517931     -0.7554918410
H       0.0000005664     0.6826299885     -1.6014615106
H       -1.0485873788     -0.8887792411     0.6575405189
H       -2.1346911949     -0.0045580921     -0.3471505732
H       -1.4464587148     0.7825423531     1.0927613676
--------------------------------------------------------------
 ----------------------------------------------------------------
             Standard Nuclear Orientation (Angstroms)
    I     Atom           X                Y                Z
 ----------------------------------------------------------------
    1      C       1.2363040860     0.1136246196     0.2595253261
    2      C      -0.0000000134     0.2014631756    -0.6273548515
    3      H       1.0485884981    -0.8887804429     0.6575405534
    4      H       1.4464577794     0.7825417932     1.0927614293
    5      H       2.1346912320    -0.0045573549    -0.3471505835
    6      C      -1.2363041554     0.1136256600     0.2595251834
    7      H      -0.0000007651    -0.8897517931    -0.7554918410
    8      H       0.0000005664     0.6826299885    -1.6014615106
    9      H      -1.0485873788    -0.8887792411     0.6575405189
   10      H      -2.1346911949    -0.0045580921    -0.3471505732
   11      H      -1.4464587148     0.7825423531     1.0927613676
 ----------------------------------------------------------------
 Nuclear Repulsion Energy =          83.64369562 hartrees
 There are       13 alpha and       13 beta electrons
 Requested basis set is 6-311+G(2df,2pd)
 There are 72 shells and 214 basis functions

 Total QAlloc Memory Limit   2000 MB
 Mega-Array Size       188 MB
 MEM_STATIC part       192 MB

                       Distance Matrix (Angstroms)
             C (  1)   C (  2)   H (  3)   H (  4)   H (  5)   C (  6)
   C (  2)  1.524047
   H (  3)  1.094746  1.984723
   H (  4)  1.088989  2.321356  1.772297
   H (  5)  1.090469  2.162837  1.723622  1.779477
   C (  6)  2.472608  1.524047  2.526652  2.887723  3.427190
   H (  7)  1.888246  1.098713  1.759602  2.881813  2.346747  1.888246
   H (  8)  2.305534  1.086465  2.944819  3.059585  2.569519  2.305534
   H (  9)  2.526650  1.984722  2.097176  3.034466  3.453189  1.094746
   H ( 10)  3.427190  2.162837  3.453190  3.939226  4.269382  1.090469
   H ( 11)  2.887724  2.321356  3.034468  2.892916  3.939227  1.088989
             H (  7)   H (  8)   H (  9)   H ( 10)
   H (  8)  1.785511
   H (  9)  1.759601  2.944818
   H ( 10)  2.346745  2.569520  1.723622
   H ( 11)  2.881813  3.059586  1.772296  1.779477
 
 A cutoff of  1.0D-09 yielded   2546 shell pairs
 There are     22664 function pairs (     27873 Cartesian)
 Smallest overlap matrix eigenvalue = 1.06E-04

 Scale SEOQF with 1.000000e-01/1.000000e-01/1.000000e-01

 Standard Electronic Orientation quadrupole field applied
 Nucleus-field energy     =     0.0000000005 hartrees
 Requested basis set is 6-31G(d)
 There are 28 shells and 58 basis functions
 A cutoff of  1.0D-09 yielded    402 shell pairs
 There are      1773 function pairs (      1968 Cartesian)
 Smallest overlap matrix eigenvalue = 5.59E-03
 Guess from superposition of atomic densities
 Warning:  Energy on first SCF cycle will be non-variational
 SAD guess density has 26.000000 electrons
 Long-range K will be added via erf
 Coulomb attenuation parameter = 0.2 bohr**(-1)
 A restricted hybrid HF-DFT SCF calculation will be
 performed using Relaxed Constraint Minimization + Pulay DIIS
 Exchange:     0.2220 Hartree-Fock + 1.0000 wB97X-D + LR-HF
 Correlation:  1.0000 wB97X-D
 Using Euler-Maclaurin-Lebedev (75,302) quadrature formula
 Dispersion:   Grimme D
 SCF converges when DIIS error is below 1.0E-04
 using 3 threads for integral computing
 -------------------------------------------------------
 OpenMP Integral computing Module                
 Release: version 1.0, May 2013, Q-Chem Inc. Pittsburgh 
 -------------------------------------------------------
 using 3 threads for integral computing
 -------------------------------------------------------
 OpenMP Integral computing Module                
 Release: version 1.0, May 2013, Q-Chem Inc. Pittsburgh 
 -------------------------------------------------------
 ---------------------------------------
  Cycle       Energy         DIIS Error
 ---------------------------------------
    1    -119.7136060756      1.03E-01
    2    -119.0133630944      9.05E-03
    3    -119.0347260879      2.56E-03
    4    -119.0489293182      1.77E-03
    5    -119.0496891025      2.72E-04 Done RCA. Switching to DIIS
    6    -119.0502566812      2.02E-04
    7    -119.0502743004      5.74E-06 Convergence criterion met
 ---------------------------------------
 SCF time:  CPU 23.02 s  wall 7.81 s
 SCF   energy in the small basis set = -119.05027430
 Total energy in the small basis set = -119.05027430
 ----------------------------------------------------
  Cycle       Energy    
 ----------------------------------------------------
    1     -16.5521139368     -1.66E+01
 Long-range K will be added via erf
 Coulomb attenuation parameter = 0.2 bohr**(-1)
 A restricted hybrid HF-DFT SCF calculation will be
 performed using Relaxed Constraint Minimization + Pulay DIIS
 Exchange:     0.2220 Hartree-Fock + 1.0000 wB97X-D + LR-HF
 Correlation:  1.0000 wB97X-D
 Using Euler-Maclaurin-Lebedev (75,302) quadrature formula
 Dispersion:   Grimme D
 SCF converges when DIIS error is below 1.0E-05
 Basis2 calculation detected. Using small basis as guess for larger.
 SCFMinFind is unable to tell whether the solution found is close.
 Resetting ReadMinima to 0 and attempting to follow guess.
 SCFMinFind following SCF Guess.
 using 3 threads for integral computing
 -------------------------------------------------------
 OpenMP Integral computing Module                
 Release: version 1.0, May 2013, Q-Chem Inc. Pittsburgh 
 -------------------------------------------------------
 using 3 threads for integral computing
 -------------------------------------------------------
 OpenMP Integral computing Module                
 Release: version 1.0, May 2013, Q-Chem Inc. Pittsburgh 
 -------------------------------------------------------
 ---------------------------------------
  Cycle       Energy         DIIS Error
 ---------------------------------------
    1    -119.0717786126      4.21E-03
    2    -119.0936660017      6.06E-04 Done RCA. Switching to DIIS
    3    -119.0945033606      4.29E-04
    4    -119.0955065169      4.70E-05
    5    -119.0955221381      1.06E-05
    6    -119.0955229208      3.70E-06 Convergence criterion met
 ---------------------------------------
 SCF time:  CPU 71.00 s  wall 23.90 s
 SCF   energy in the final basis set = -119.09552292
 Total energy in the final basis set = -119.09552292
 
 --------------------------------------------------------------
 
                    Orbital Energies (a.u.)
 --------------------------------------------------------------
 
 Alpha MOs
 -- Occupied --
-10.2769 -10.2681 -10.2681  -0.8985  -0.7779  -0.6747  -0.5666  -0.5202
 -0.4946  -0.4500  -0.4318  -0.4106  -0.3809
 -- Virtual --
  0.0679   0.0856   0.0869   0.0939   0.1262   0.1280   0.1289   0.1339
  0.1420   0.1713   0.1739   0.1929   0.2243   0.2428   0.2429   0.2664
  0.2762   0.2897   0.3131   0.3151   0.3325   0.3468   0.4613   0.4646
  0.4667   0.4847   0.5122   0.5163   0.5420   0.5498   0.5762   0.5946
  0.6175   0.6267   0.6273   0.6493   0.6534   0.6933   0.6995   0.7244
  0.7295   0.7945   0.8251   0.8392   0.8639   0.9051   0.9425   0.9923
  1.0281   1.0399   1.0687   1.1015   1.1239   1.1557   1.2072   1.2156
  1.2304   1.2319   1.2908   1.3051   1.3327   1.3434   1.3629   1.3669
  1.3891   1.4195   1.4248   1.4341   1.4533   1.4621   1.5004   1.5355
  1.5422   1.5604   1.5791   1.5975   1.6385   1.6434   1.6604   1.7017
  1.7275   2.3829   2.3999   2.4175   2.5474   2.5641   2.5934   2.6212
  2.6540   2.6940   2.8057   2.8502   2.8720   2.8786   2.8964   2.8989
  2.9865   2.9877   2.9897   3.0173   3.0367   3.0439   3.0636   3.1157
  3.1504   3.1800   3.1844   3.2213   3.2286   3.2544   3.2705   3.2914
  3.3093   3.3401   3.3728   3.3989   3.4050   3.4110   3.4307   3.4578
  3.5024   3.5414   3.5434   3.5515   3.5676   3.5817   3.5989   3.6028
  3.6080   3.6168   3.6487   3.6864   3.7112   3.8117   3.8170   3.8541
  3.8961   3.9281   3.9344   3.9880   3.9998   4.0091   4.0190   4.0911
  4.1156   4.1171   4.1241   4.1692   4.2113   4.2142   4.2255   4.2561
  4.2608   4.2795   4.3041   4.3519   4.3686   4.3977   4.4679   4.4838
  4.5891   4.6064   4.6272   4.7299   4.7955   4.8164   4.8516   4.8855
  4.9386   4.9488   4.9831   4.9853   5.0013   5.1054   5.1272   5.1426
  5.1816   5.1944   5.2674   5.2918   5.2928   5.3308   5.3806   5.4004
  5.4084   5.4363   5.4801   5.5498   5.6266   5.7061   5.7491   5.7619
  5.9814   6.3984   6.4157   6.4430   6.4711   6.5541  25.1492  25.4408
 25.4438
 --------------------------------------------------------------
 
 -----------------------------------------------------------------
                    Cartesian Multipole Moments
 -----------------------------------------------------------------
    Charge (ESU x 10^10)
                -0.0000
    Dipole Moment (Debye)
         X       0.0000      Y      -0.2815      Z      -0.1338
       Tot       0.3117
    Quadrupole Moments (Debye-Ang)
        XX     -22.3103     XY       0.0000     YY     -21.7732
        XZ      -0.0000     YZ       0.0978     ZZ     -21.6619
    Octopole Moments (Debye-Ang^2)
       XXX       0.0000    XXY      -1.4682    XYY       0.0000
       YYY      -6.7593    XXZ      -0.9386    XYZ      -0.0000
       YYZ       0.6910    XZZ       0.0000    YZZ      -0.0280
       ZZZ      -0.4981
    Hexadecapole Moments (Debye-Ang^3)
      XXXX    -194.4644   XXXY       0.0000   XXYY     -41.5325
      XYYY       0.0000   YYYY     -44.1722   XXXZ      -0.0000
      XXYZ       2.0007   XYYZ       0.0000   YYYZ       0.8601
      XXZZ     -43.4332   XYZZ       0.0000   YYZZ     -18.6416
      XZZZ      -0.0000   YZZZ       0.1385   ZZZZ     -69.9529
 -----------------------------------------------------------------
Archival summary:
1\1\cn0913\SP\ProcedureUnspecified\BasisUnspecified\38\r0852400\SunApr1205:39:352020SunApr1205:39:352020\0\\#,ProcedureUnspecified,BasisUnspecified,\\0,1\C\H,1,1.08646\H,1,1.09871,2,109.59\C,1,1.52405,2,123.18,3,-104.252,0\H,4,1.08899,1,124.5,2,-98.6725,0\H,4,1.09047,1,110.537,2,34.9016,0\H,4,1.09475,1,97.1949,2,142.975,0\C,1,1.52405,2,123.18,3,104.252,0\H,8,1.08899,1,124.5,2,98.6726,0\H,8,1.09047,1,110.537,2,-34.9015,0\H,8,1.09475,1,97.195,2,-142.975,0\\\@

 Total job time:  35.10s(wall), 98.22s(cpu) 
 Sun Apr 12 05:39:35 2020

        *************************************************************
        *                                                           *
        *  Thank you very much for using Q-Chem.  Have a nice day.  *
        *                                                           *
        *************************************************************


