                  Welcome to Q-Chem
     A Quantum Leap Into The Future Of Chemistry


 Q-Chem 5.3 (devel), Q-Chem, Inc., Pleasanton, CA (2020)

 Yihan Shao,  Zhengting Gan,  E. Epifanovsky,  A. T. B. Gilbert,  M. Wormit,  
 J. Kussmann,  A. W. Lange,  A. Behn,  Jia Deng,  Xintian Feng,  D. Ghosh,  
 M. Goldey,  P. R. Horn,  L. D. Jacobson,  I. Kaliman,  T. Kus,  A. Landau,  
 Jie Liu,  E. I. Proynov,  R. M. Richard,  R. P. Steele,  E. J. Sundstrom,  
 H. L. Woodcock III,  P. M. Zimmerman,  D. Zuev,  B. Alam,  B. Albrecht,  
 E. Alguire,  S. A. Baeppler,  D. Barton,  Z. Benda,  Y. A. Bernard,  
 E. J. Berquist,  K. B. Bravaya,  H. Burton,  K. Carter-Fenk,  D. Casanova,  
 Chun-Min Chang,  Yunqing Chen,  A. Chien,  K. D. Closser,  M. P. Coons,  
 S. Coriani,  S. Dasgupta,  A. L. Dempwolff,  M. Diedenhofen,  Hainam Do,  
 R. G. Edgar,  Po-Tung Fang,  S. Faraji,  S. Fatehi,  Qingguo Feng,  
 J. Fosso-Tande,  J. Gayvert,  Qinghui Ge,  A. Ghysels,  G. Gidofalvi,  
 J. Gomes,  J. Gonthier,  A. Gunina,  D. Hait,  M. W. D. Hanson-Heine,  
 P. H. P. Harbach,  A. W. Hauser,  M. F. Herbst,  J. E. Herr,  
 E. G. Hohenstein,  Z. C. Holden,  Kerwin Hui,  B. C. Huynh,  T.-C. Jagau,  
 Hyunjun Ji,  B. Kaduk,  K. Khistyaev,  Jaehoon Kim,  P. Klunzinger,  K. Koh,  
 D. Kosenkov,  L. Koulias,  T. Kowalczyk,  C. M. Krauter,  A. Kunitsa,  
 Ka Un Lao,  A. Laurent,  K. V. Lawler,  Joonho Lee,  D. Lefrancois,  
 S. Lehtola,  D. S. Levine,  Yi-Pei Li,  You-Sheng Lin,  Fenglai Liu,  
 Kuan-Yu Liu,  E. Livshits,  M. Loipersberger,  A. Luenser,  P. Manohar,  
 E. Mansoor,  S. F. Manzer,  Shan-Ping Mao,  Yuezhi Mao,  N. Mardirossian,  
 A. V. Marenich,  T. Markovich,  L. A. Martinez-Martinez,  S. A. Maurer,  
 N. J. Mayhall,  S. C. McKenzie,  J.-M. Mewes,  P. Morgante,  A. F. Morrison,  
 J. W. Mullinax,  K. Nanda,  T. S. Nguyen-Beck,  R. Olivares-Amaya,  
 K. J. Oosterbaan,  J. A. Parkhill,  S. K. Paul,  F. Pavosevic,  Zheng Pei,  
 T. M. Perrine,  F. Plasser,  P. Pokhilko,  S. Prager,  A. Prociuk,  
 E. Ramos,  B. Rana,  D. R. Rehn,  F. Rob,  M. Scheurer,  M. Schneider,  
 N. Sergueev,  S. M. Sharada,  S. Sharma,  D. W. Small,  T. Stauch,  
 C. J. Stein,  T. Stein,  Yu-Chuan Su,  S. P. Veccham,  Zhen Tao,  
 A. J. W. Thom,  A. Tkatchenko,  T. Tsuchimochi,  N. M. Tubman,  L. Vogt,  
 M. L. Vidal,  O. Vydrov,  M. A. Watson,  J. Wenzel,  M. de Wergifosse,  
 T. A. Wesolowski,  A. White,  J. Witte,  A. Yamada,  Jun Yang,  K. Yao,  
 S. Yeganeh,  S. R. Yost,  Zhi-Qiang You,  A. Zech,  Igor Ying Zhang,  
 Xing Zhang,  Yan Zhao,  Ying Zhu,  B. R. Brooks,  G. K. L. Chan,  
 C. J. Cramer,  M. S. Gordon,  W. J. Hehre,  A. Klamt,  M. W. Schmidt,  
 C. D. Sherrill,  D. G. Truhlar,  A. Aspuru-Guzik,  R. Baer,  A. T. Bell,  
 N. A. Besley,  Jeng-Da Chai,  A. E. DePrince, III,  R. A. DiStasio Jr.,  
 A. Dreuw,  B. D. Dunietz,  T. R. Furlani,  Chao-Ping Hsu,  Yousung Jung,  
 Jing Kong,  D. S. Lambrecht,  WanZhen Liang,  C. Ochsenfeld,  
 V. A. Rassolov,  L. V. Slipchenko,  J. E. Subotnik,  T. Van Voorhis,  
 J. M. Herbert,  A. I. Krylov,  P. M. W. Gill,  M. Head-Gordon

 Contributors to earlier versions of Q-Chem not listed above: 
 R. D. Adamson,  B. Austin,  J. Baker,  G. J. O. Beran,  K. Brandhorst,  
 S. T. Brown,  E. F. C. Byrd,  A. K. Chakraborty,  C.-L. Cheng,  
 Siu Hung Chien,  D. M. Chipman,  D. L. Crittenden,  H. Dachsel,  
 R. J. Doerksen,  A. D. Dutoi,  L. Fusti-Molnar,  W. A. Goddard III,  
 A. Golubeva-Zadorozhnaya,  S. R. Gwaltney,  G. Hawkins,  A. Heyden,  
 S. Hirata,  G. Kedziora,  F. J. Keil,  C. Kelley,  Jihan Kim,  R. A. King,  
 R. Z. Khaliullin,  P. P. Korambath,  W. Kurlancheek,  A. M. Lee,  M. S. Lee,  
 S. V. Levchenko,  Ching Yeh Lin,  D. Liotard,  R. C. Lochan,  I. Lotan,  
 P. E. Maslen,  N. Nair,  D. P. O'Neill,  D. Neuhauser,  E. Neuscamman,  
 C. M. Oana,  R. Olson,  B. Peters,  R. Peverati,  P. A. Pieniazek,  
 Y. M. Rhee,  J. Ritchie,  M. A. Rohrdanz,  E. Rosta,  N. J. Russ,  
 H. F. Schaefer III,  N. E. Schultz,  N. Shenvi,  A. C. Simmonett,  A. Sodt,  
 D. Stuck,  K. S. Thanthiriwatte,  V. Vanovschi,  Tao Wang,  A. Warshel,  
 C. F. Williams,  Q. Wu,  X. Xu,  W. Zhang

 Please cite Q-Chem as follows:
 Y. Shao et al., Mol. Phys. 113, 184-215 (2015)
 DOI: 10.1080/00268976.2014.952696

 Q-Chem 5.3.0 for Intel X86 EM64T Linux

 Parts of Q-Chem use Armadillo 9.800.1 (Horizon Scraper).
 http://arma.sourceforge.net/

 Q-Chem begins on Thu Jul  2 03:33:56 2020  

Host: centos77-c1
0

     Scratch files written to /tmp/26650.centos77-h1/qchem68724//
Processing $rem in /opt/qchem-5.3.0-intel2020u1//config/preferences:
Processing $rem in /home/shihchengli/.qchemrc:

Checking the input file for inconsistencies... 	...done.

--------------------------------------------------------------
User input:
--------------------------------------------------------------
$rem
   JOBTYPE  sp
   EXCHANGE   omegaB97X-D
   BASIS   6-311+G(2df,2pd)
   max_scf_cycles   250
   geom_opt_max_cycles   1500
   basis2 6-31G*
   scf_algorithm rca_diis
   SYM_IGNORE  TRUE
   print_input   true
   geom_opt_dmax   80
   pop_mulliken false
   XC_GRID 000075000302
$end

$molecule
0 1
C       0.7756254594     1.0019669815     0.2589886280
C       0.0000107660     -0.0000215832     -0.5878682753
H       1.5038167344     0.5482819024     0.9453210432
H       0.0545074053     1.5467505729     0.8594042262
H       1.2960872016     1.7326442551     -0.3609735571
C       -0.7756358876     -1.0019466201     0.2590339739
H       0.5433944049     -0.6894846297     -1.2383557001
H       -0.5433454959     0.6893922868     -1.2384287135
H       -0.0545161874     -1.5468194942     0.8593694661
H       -1.2962267367     -1.7325629635     -0.3608913961
H       -1.5037177246     -0.5482000418     0.9454453236
$end
--------------------------------------------------------------
 ----------------------------------------------------------------
             Standard Nuclear Orientation (Angstroms)
    I     Atom           X                Y                Z
 ----------------------------------------------------------------
    1      C       0.7756254594     1.0019669815     0.2589886280
    2      C       0.0000107660    -0.0000215832    -0.5878682753
    3      H       1.5038167344     0.5482819024     0.9453210432
    4      H       0.0545074053     1.5467505729     0.8594042262
    5      H       1.2960872016     1.7326442551    -0.3609735571
    6      C      -0.7756358876    -1.0019466201     0.2590339739
    7      H       0.5433944049    -0.6894846297    -1.2383557001
    8      H      -0.5433454959     0.6893922868    -1.2384287135
    9      H      -0.0545161874    -1.5468194942     0.8593694661
   10      H      -1.2962267367    -1.7325629635    -0.3608913961
   11      H      -1.5037177246    -0.5482000418     0.9454453236
 ----------------------------------------------------------------
 Nuclear Repulsion Energy =          82.78982124 hartrees
 There are       13 alpha and       13 beta electrons
 Requested basis set is 6-311+G(2df,2pd)
 There are 72 shells and 214 basis functions

 Total QAlloc Memory Limit   2000 MB
 Mega-Array Size       188 MB
 MEM_STATIC part       192 MB

                       Distance Matrix (Angstroms)
             C (  1)   C (  2)   H (  3)   H (  4)   H (  5)   C (  6)
   C (  2)  1.524049
   H (  3)  1.098701  2.216470
   H (  4)  1.085034  2.118979  1.762050
   H (  5)  1.090469  2.175644  1.775464  1.750828
   C (  6)  2.534183  1.524049  2.840793  2.746896  3.486321
   H (  7)  2.270898  1.092593  2.687549  3.104892  2.683851  2.019814
   H (  8)  2.019813  1.092592  2.996589  2.343799  2.289501  2.270899
   H (  9)  2.746981  2.118975  2.612516  3.095491  3.750766  1.085036
   H ( 10)  3.486327  2.175649  3.840402  3.750667  4.327557  1.090469
   H ( 11)  2.840712  2.216472  3.201177  2.612334  3.840298  1.098704
             H (  7)   H (  8)   H (  9)   H ( 10)
   H (  8)  1.755650
   H (  9)  2.343709  3.104892
   H ( 10)  2.289577  2.683798  1.750823
   H ( 11)  2.996601  2.687611  1.762054  1.775467
 
 A cutoff of  1.0D-09 yielded   2537 shell pairs
 There are     22591 function pairs (     27772 Cartesian)
 Smallest overlap matrix eigenvalue = 9.48E-05

 Scale SEOQF with 1.000000e-01/1.000000e-01/1.000000e-01

 Standard Electronic Orientation quadrupole field applied
 Nucleus-field energy     =     0.0000000013 hartrees
 Requested basis set is 6-31G(d)
 There are 28 shells and 58 basis functions
 A cutoff of  1.0D-09 yielded    402 shell pairs
 There are      1773 function pairs (      1968 Cartesian)
 Smallest overlap matrix eigenvalue = 7.07E-03
 Guess from superposition of atomic densities
 Warning:  Energy on first SCF cycle will be non-variational
 SAD guess density has 26.000000 electrons
 Long-range K will be added via erf
 Coulomb attenuation parameter = 0.2 bohr**(-1)
 A restricted hybrid HF-DFT SCF calculation will be
 performed using Relaxed Constraint Minimization + Pulay DIIS
 Exchange:     0.2220 Hartree-Fock + 1.0000 wB97X-D + LR-HF
 Correlation:  1.0000 wB97X-D
 Using Euler-Maclaurin-Lebedev (75,302) quadrature formula
 Dispersion:   Grimme D
 SCF converges when DIIS error is below 1.0E-04
 using 3 threads for integral computing
 -------------------------------------------------------
 OpenMP Integral computing Module                
 Release: version 1.0, May 2013, Q-Chem Inc. Pittsburgh 
 -------------------------------------------------------
 using 3 threads for integral computing
 -------------------------------------------------------
 OpenMP Integral computing Module                
 Release: version 1.0, May 2013, Q-Chem Inc. Pittsburgh 
 -------------------------------------------------------
 ---------------------------------------
  Cycle       Energy         DIIS Error
 ---------------------------------------
    1    -119.6290502978      1.01E-01
    2    -119.0573438282      8.98E-03
    3    -119.0784042597      2.48E-03
    4    -119.0922378550      1.70E-03
    5    -119.0929487518      2.70E-04 Done RCA. Switching to DIIS
    6    -119.0934698867      2.00E-04
    7    -119.0934871832      4.75E-06 Convergence criterion met
 ---------------------------------------
 SCF time:  CPU 21.23 s  wall 8.03 s
 SCF   energy in the small basis set = -119.09348718
 Total energy in the small basis set = -119.09348718
 ----------------------------------------------------
  Cycle       Energy    
 ----------------------------------------------------
    1     -16.5397473901     -1.65E+01
 Long-range K will be added via erf
 Coulomb attenuation parameter = 0.2 bohr**(-1)
 A restricted hybrid HF-DFT SCF calculation will be
 performed using Relaxed Constraint Minimization + Pulay DIIS
 Exchange:     0.2220 Hartree-Fock + 1.0000 wB97X-D + LR-HF
 Correlation:  1.0000 wB97X-D
 Using Euler-Maclaurin-Lebedev (75,302) quadrature formula
 Dispersion:   Grimme D
 SCF converges when DIIS error is below 1.0E-05
 Basis2 calculation detected. Using small basis as guess for larger.
 SCFMinFind is unable to tell whether the solution found is close.
 Resetting ReadMinima to 0 and attempting to follow guess.
 SCFMinFind following SCF Guess.
 using 3 threads for integral computing
 -------------------------------------------------------
 OpenMP Integral computing Module                
 Release: version 1.0, May 2013, Q-Chem Inc. Pittsburgh 
 -------------------------------------------------------
 using 3 threads for integral computing
 -------------------------------------------------------
 OpenMP Integral computing Module                
 Release: version 1.0, May 2013, Q-Chem Inc. Pittsburgh 
 -------------------------------------------------------
 ---------------------------------------
  Cycle       Energy         DIIS Error
 ---------------------------------------
    1    -119.1128215702      4.21E-03
    2    -119.1348685148      6.01E-04 Done RCA. Switching to DIIS
    3    -119.1357087487      4.22E-04
    4    -119.1366861027      4.57E-05
    5    -119.1367009894      1.03E-05
    6    -119.1367016981      3.98E-06 Convergence criterion met
 ---------------------------------------
 SCF time:  CPU 48.34 s  wall 16.14 s
 SCF   energy in the final basis set = -119.13670170
 Total energy in the final basis set = -119.13670170
 
 --------------------------------------------------------------
 
                    Orbital Energies (a.u.)
 --------------------------------------------------------------
 
 Alpha MOs
 -- Occupied --
-10.2744 -10.2661 -10.2661  -0.8829  -0.7792  -0.6774  -0.5483  -0.5254
 -0.4844  -0.4641  -0.4249  -0.4161  -0.3963
 -- Virtual --
  0.0693   0.0854   0.0908   0.0990   0.1249   0.1297   0.1325   0.1431
  0.1437   0.1708   0.1730   0.1914   0.2333   0.2344   0.2464   0.2589
  0.2822   0.2852   0.3106   0.3130   0.3305   0.3481   0.4577   0.4707
  0.4715   0.5116   0.5128   0.5182   0.5442   0.5625   0.5798   0.5903
  0.6227   0.6248   0.6278   0.6472   0.6595   0.6803   0.7097   0.7129
  0.7260   0.7701   0.8168   0.8313   0.8630   0.8819   0.9126   0.9635
  1.0051   1.0501   1.0550   1.1264   1.1365   1.1515   1.1933   1.2108
  1.2225   1.2279   1.2767   1.2839   1.3015   1.3134   1.3286   1.3790
  1.3819   1.3876   1.4109   1.4354   1.4581   1.4840   1.4851   1.4897
  1.5300   1.5807   1.6119   1.6133   1.6362   1.6519   1.6664   1.6813
  1.7269   2.3847   2.4672   2.4840   2.5089   2.5559   2.5825   2.6094
  2.6549   2.7013   2.7683   2.8295   2.8383   2.9107   2.9142   2.9328
  2.9371   2.9824   2.9929   3.0297   3.0569   3.0656   3.0873   3.0890
  3.1069   3.1247   3.1725   3.1784   3.2469   3.2515   3.3030   3.3086
  3.3240   3.3250   3.3526   3.3585   3.3772   3.3874   3.3910   3.3994
  3.4291   3.4895   3.5451   3.5760   3.5835   3.5865   3.5871   3.6242
  3.6255   3.6511   3.6878   3.7007   3.7709   3.7878   3.7940   3.8875
  3.8984   3.9048   3.9183   3.9859   3.9933   4.0045   4.0324   4.0396
  4.0623   4.1110   4.1302   4.1334   4.1482   4.1661   4.1989   4.2145
  4.2275   4.2581   4.2791   4.3548   4.3668   4.4039   4.4194   4.4368
  4.4560   4.5558   4.6449   4.6502   4.6681   4.7938   4.8276   4.8946
  4.9127   4.9675   4.9817   4.9829   5.0293   5.0697   5.0801   5.1066
  5.1200   5.2372   5.2467   5.2784   5.3162   5.3240   5.3435   5.3528
  5.3799   5.4012   5.4589   5.4779   5.4881   5.6486   5.6794   5.7369
  6.0108   6.3738   6.3833   6.4013   6.4133   6.4846  25.1926  25.4364
 25.4519
 --------------------------------------------------------------
 
 -----------------------------------------------------------------
                    Cartesian Multipole Moments
 -----------------------------------------------------------------
    Charge (ESU x 10^10)
                -0.0000
    Dipole Moment (Debye)
         X       0.0000      Y      -0.0000      Z      -0.0703
       Tot       0.0703
    Quadrupole Moments (Debye-Ang)
        XX     -22.1149     XY      -0.3888     YY     -21.4149
        XZ      -0.0000     YZ      -0.0000     ZZ     -21.8946
    Octopole Moments (Debye-Ang^2)
       XXX       0.0001    XXY      -0.0002    XYY       0.0000
       YYY      -0.0001    XXZ       0.3491    XYZ      -0.9598
       YYZ      -1.3735    XZZ      -0.0001    YZZ       0.0002
       ZZZ      -0.2826
    Hexadecapole Moments (Debye-Ang^3)
      XXXX    -103.8089   XXXY     -38.4518   XXYY     -40.6027
      XYYY     -37.9567   YYYY    -145.8344   XXXZ       0.0016
      XXYZ       0.0004   XYYZ       0.0003   YYYZ       0.0004
      XXZZ     -27.8105   XYZZ     -13.5248   YYZZ     -34.6106
      XZZZ       0.0010   YZZZ       0.0006   ZZZZ     -72.3670
 -----------------------------------------------------------------
Archival summary:
1\1\centos77-c1\SP\ProcedureUnspecified\BasisUnspecified\38\shihchen\ThuJul203:34:232020ThuJul203:34:232020\0\\#,ProcedureUnspecified,BasisUnspecified,\\0,1\C\H,1,1.09259\H,1,1.09259,2,106.918\C,1,1.52405,2,119.511,3,-112.041,0\H,4,1.08504,1,107.418,2,-177.204,0\H,4,1.09047,1,111.563,2,65.6122,0\H,4,1.0987,1,114.389,2,-57.8685,0\C,1,1.52405,2,99.7356,3,125.071,0\H,8,1.08503,1,107.419,2,66.9327,0\H,8,1.09047,1,111.563,2,-50.2513,0\H,8,1.0987,1,114.389,2,-173.731,0\\\@

 Total job time:  27.05s(wall), 73.11s(cpu) 
 Thu Jul  2 03:34:23 2020

        *************************************************************
        *                                                           *
        *  Thank you very much for using Q-Chem.  Have a nice day.  *
        *                                                           *
        *************************************************************


