                  Welcome to Q-Chem
     A Quantum Leap Into The Future Of Chemistry


 Q-Chem 5.3 (devel), Q-Chem, Inc., Pleasanton, CA (2020)

 Yihan Shao,  Zhengting Gan,  E. Epifanovsky,  A. T. B. Gilbert,  M. Wormit,  
 J. Kussmann,  A. W. Lange,  A. Behn,  Jia Deng,  Xintian Feng,  D. Ghosh,  
 M. Goldey,  P. R. Horn,  L. D. Jacobson,  I. Kaliman,  T. Kus,  A. Landau,  
 Jie Liu,  E. I. Proynov,  R. M. Richard,  R. P. Steele,  E. J. Sundstrom,  
 H. L. Woodcock III,  P. M. Zimmerman,  D. Zuev,  B. Alam,  B. Albrecht,  
 E. Alguire,  S. A. Baeppler,  D. Barton,  Z. Benda,  Y. A. Bernard,  
 E. J. Berquist,  K. B. Bravaya,  H. Burton,  K. Carter-Fenk,  D. Casanova,  
 Chun-Min Chang,  Yunqing Chen,  A. Chien,  K. D. Closser,  M. P. Coons,  
 S. Coriani,  S. Dasgupta,  A. L. Dempwolff,  M. Diedenhofen,  Hainam Do,  
 R. G. Edgar,  Po-Tung Fang,  S. Faraji,  S. Fatehi,  Qingguo Feng,  
 J. Fosso-Tande,  J. Gayvert,  Qinghui Ge,  A. Ghysels,  G. Gidofalvi,  
 J. Gomes,  J. Gonthier,  A. Gunina,  D. Hait,  M. W. D. Hanson-Heine,  
 P. H. P. Harbach,  A. W. Hauser,  M. F. Herbst,  J. E. Herr,  
 E. G. Hohenstein,  Z. C. Holden,  Kerwin Hui,  B. C. Huynh,  T.-C. Jagau,  
 Hyunjun Ji,  B. Kaduk,  K. Khistyaev,  Jaehoon Kim,  P. Klunzinger,  K. Koh,  
 D. Kosenkov,  L. Koulias,  T. Kowalczyk,  C. M. Krauter,  A. Kunitsa,  
 Ka Un Lao,  A. Laurent,  K. V. Lawler,  Joonho Lee,  D. Lefrancois,  
 S. Lehtola,  D. S. Levine,  Yi-Pei Li,  You-Sheng Lin,  Fenglai Liu,  
 Kuan-Yu Liu,  E. Livshits,  M. Loipersberger,  A. Luenser,  P. Manohar,  
 E. Mansoor,  S. F. Manzer,  Shan-Ping Mao,  Yuezhi Mao,  N. Mardirossian,  
 A. V. Marenich,  T. Markovich,  L. A. Martinez-Martinez,  S. A. Maurer,  
 N. J. Mayhall,  S. C. McKenzie,  J.-M. Mewes,  P. Morgante,  A. F. Morrison,  
 J. W. Mullinax,  K. Nanda,  T. S. Nguyen-Beck,  R. Olivares-Amaya,  
 K. J. Oosterbaan,  J. A. Parkhill,  S. K. Paul,  F. Pavosevic,  Zheng Pei,  
 T. M. Perrine,  F. Plasser,  P. Pokhilko,  S. Prager,  A. Prociuk,  
 E. Ramos,  B. Rana,  D. R. Rehn,  F. Rob,  M. Scheurer,  M. Schneider,  
 N. Sergueev,  S. M. Sharada,  S. Sharma,  D. W. Small,  T. Stauch,  
 C. J. Stein,  T. Stein,  Yu-Chuan Su,  S. P. Veccham,  Zhen Tao,  
 A. J. W. Thom,  A. Tkatchenko,  T. Tsuchimochi,  N. M. Tubman,  L. Vogt,  
 M. L. Vidal,  O. Vydrov,  M. A. Watson,  J. Wenzel,  M. de Wergifosse,  
 T. A. Wesolowski,  A. White,  J. Witte,  A. Yamada,  Jun Yang,  K. Yao,  
 S. Yeganeh,  S. R. Yost,  Zhi-Qiang You,  A. Zech,  Igor Ying Zhang,  
 Xing Zhang,  Yan Zhao,  Ying Zhu,  B. R. Brooks,  G. K. L. Chan,  
 C. J. Cramer,  M. S. Gordon,  W. J. Hehre,  A. Klamt,  M. W. Schmidt,  
 C. D. Sherrill,  D. G. Truhlar,  A. Aspuru-Guzik,  R. Baer,  A. T. Bell,  
 N. A. Besley,  Jeng-Da Chai,  A. E. DePrince, III,  R. A. DiStasio Jr.,  
 A. Dreuw,  B. D. Dunietz,  T. R. Furlani,  Chao-Ping Hsu,  Yousung Jung,  
 Jing Kong,  D. S. Lambrecht,  WanZhen Liang,  C. Ochsenfeld,  
 V. A. Rassolov,  L. V. Slipchenko,  J. E. Subotnik,  T. Van Voorhis,  
 J. M. Herbert,  A. I. Krylov,  P. M. W. Gill,  M. Head-Gordon

 Contributors to earlier versions of Q-Chem not listed above: 
 R. D. Adamson,  B. Austin,  J. Baker,  G. J. O. Beran,  K. Brandhorst,  
 S. T. Brown,  E. F. C. Byrd,  A. K. Chakraborty,  C.-L. Cheng,  
 Siu Hung Chien,  D. M. Chipman,  D. L. Crittenden,  H. Dachsel,  
 R. J. Doerksen,  A. D. Dutoi,  L. Fusti-Molnar,  W. A. Goddard III,  
 A. Golubeva-Zadorozhnaya,  S. R. Gwaltney,  G. Hawkins,  A. Heyden,  
 S. Hirata,  G. Kedziora,  F. J. Keil,  C. Kelley,  Jihan Kim,  R. A. King,  
 R. Z. Khaliullin,  P. P. Korambath,  W. Kurlancheek,  A. M. Lee,  M. S. Lee,  
 S. V. Levchenko,  Ching Yeh Lin,  D. Liotard,  R. C. Lochan,  I. Lotan,  
 P. E. Maslen,  N. Nair,  D. P. O'Neill,  D. Neuhauser,  E. Neuscamman,  
 C. M. Oana,  R. Olson,  B. Peters,  R. Peverati,  P. A. Pieniazek,  
 Y. M. Rhee,  J. Ritchie,  M. A. Rohrdanz,  E. Rosta,  N. J. Russ,  
 H. F. Schaefer III,  N. E. Schultz,  N. Shenvi,  A. C. Simmonett,  A. Sodt,  
 D. Stuck,  K. S. Thanthiriwatte,  V. Vanovschi,  Tao Wang,  A. Warshel,  
 C. F. Williams,  Q. Wu,  X. Xu,  W. Zhang

 Please cite Q-Chem as follows:
 Y. Shao et al., Mol. Phys. 113, 184-215 (2015)
 DOI: 10.1080/00268976.2014.952696

 Q-Chem 5.3.0 for Intel X86 EM64T Linux

 Parts of Q-Chem use Armadillo 9.800.1 (Horizon Scraper).
 http://arma.sourceforge.net/

 Q-Chem begins on Thu Jul  2 03:53:22 2020  

Host: centos77-c1
0

     Scratch files written to /tmp/26650.centos77-h1/qchem70446//
Processing $rem in /opt/qchem-5.3.0-intel2020u1//config/preferences:
Processing $rem in /home/shihchengli/.qchemrc:

Checking the input file for inconsistencies... 	...done.

--------------------------------------------------------------
User input:
--------------------------------------------------------------
$rem
   JOBTYPE  sp
   EXCHANGE   omegaB97X-D
   BASIS   6-311+G(2df,2pd)
   max_scf_cycles   250
   geom_opt_max_cycles   1500
   basis2 6-31G*
   scf_algorithm rca_diis
   SYM_IGNORE  TRUE
   print_input   true
   geom_opt_dmax   80
   pop_mulliken false
   XC_GRID 000075000302
$end

$molecule
0 1
C       0.7966034029     -0.9853561263     0.2571492153
C       0.0000097578     0.0000197721     -0.5897207089
H       0.1096143063     -1.4363692031     0.9658702369
H       1.6144644672     -0.5296459561     0.8317958712
H       1.2101265320     -1.7919947513     -0.3490312168
C       -0.7966134321     0.9853368870     0.2571903490
H       -0.5325922283     -0.6975056804     -1.2405262431
H       0.5326344915     0.6975928393     -1.2404585129
H       -1.6143761543     0.5295646393     0.8319246792
H       -1.2102620030     1.7919162587     -0.3489835640
H       -0.1096092005     1.4364419870     0.9658349130
$end
--------------------------------------------------------------
 ----------------------------------------------------------------
             Standard Nuclear Orientation (Angstroms)
    I     Atom           X                Y                Z
 ----------------------------------------------------------------
    1      C       0.7966034029    -0.9853561263     0.2571492153
    2      C       0.0000097578     0.0000197721    -0.5897207089
    3      H       0.1096143063    -1.4363692031     0.9658702369
    4      H       1.6144644672    -0.5296459561     0.8317958712
    5      H       1.2101265320    -1.7919947513    -0.3490312168
    6      C      -0.7966134321     0.9853368870     0.2571903490
    7      H      -0.5325922283    -0.6975056804    -1.2405262431
    8      H       0.5326344915     0.6975928393    -1.2404585129
    9      H      -1.6143761543     0.5295646393     0.8319246792
   10      H      -1.2102620030     1.7919162587    -0.3489835640
   11      H      -0.1096092005     1.4364419870     0.9658349130
 ----------------------------------------------------------------
 Nuclear Repulsion Energy =          82.80147496 hartrees
 There are       13 alpha and       13 beta electrons
 Requested basis set is 6-311+G(2df,2pd)
 There are 72 shells and 214 basis functions

 Total QAlloc Memory Limit   2000 MB
 Mega-Array Size       188 MB
 MEM_STATIC part       192 MB

                       Distance Matrix (Angstroms)
             C (  1)   C (  2)   H (  3)   H (  4)   H (  5)   C (  6)
   C (  2)  1.524046
   H (  3)  1.085197  2.120163
   H (  4)  1.098539  2.215337  1.762015
   H (  5)  1.090469  2.175691  1.751160  1.775209
   C (  6)  2.534161  1.524046  2.681070  2.904934  3.479667
   H (  7)  2.023030  1.092591  2.413821  2.988737  2.242708  2.268220
   H (  8)  2.268221  1.092592  3.098488  2.640210  2.729777  2.023030
   H (  9)  2.904854  2.215341  2.618202  3.398138  3.842149  1.098537
   H ( 10)  3.479676  2.175685  3.727297  3.842261  4.324662  1.090469
   H ( 11)  2.681150  2.120160  2.881163  2.618377  3.727382  1.085195
             H (  7)   H (  8)   H (  9)   H ( 10)
   H (  8)  1.755280
   H (  9)  2.640267  2.988756
   H ( 10)  2.729708  2.242757  1.775214
   H ( 11)  3.098496  2.413733  1.762011  1.751156
 
 A cutoff of  1.0D-09 yielded   2536 shell pairs
 There are     22544 function pairs (     27717 Cartesian)
 Smallest overlap matrix eigenvalue = 9.53E-05

 Scale SEOQF with 1.000000e-01/1.000000e-01/1.000000e-01

 Standard Electronic Orientation quadrupole field applied
 Nucleus-field energy     =     0.0000000013 hartrees
 Requested basis set is 6-31G(d)
 There are 28 shells and 58 basis functions
 A cutoff of  1.0D-09 yielded    402 shell pairs
 There are      1773 function pairs (      1968 Cartesian)
 Smallest overlap matrix eigenvalue = 6.98E-03
 Guess from superposition of atomic densities
 Warning:  Energy on first SCF cycle will be non-variational
 SAD guess density has 26.000000 electrons
 Long-range K will be added via erf
 Coulomb attenuation parameter = 0.2 bohr**(-1)
 A restricted hybrid HF-DFT SCF calculation will be
 performed using Relaxed Constraint Minimization + Pulay DIIS
 Exchange:     0.2220 Hartree-Fock + 1.0000 wB97X-D + LR-HF
 Correlation:  1.0000 wB97X-D
 Using Euler-Maclaurin-Lebedev (75,302) quadrature formula
 Dispersion:   Grimme D
 SCF converges when DIIS error is below 1.0E-04
 using 3 threads for integral computing
 -------------------------------------------------------
 OpenMP Integral computing Module                
 Release: version 1.0, May 2013, Q-Chem Inc. Pittsburgh 
 -------------------------------------------------------
 using 3 threads for integral computing
 -------------------------------------------------------
 OpenMP Integral computing Module                
 Release: version 1.0, May 2013, Q-Chem Inc. Pittsburgh 
 -------------------------------------------------------
 ---------------------------------------
  Cycle       Energy         DIIS Error
 ---------------------------------------
    1    -119.6295693882      1.01E-01
    2    -119.0568067086      8.99E-03
    3    -119.0778991596      2.48E-03
    4    -119.0917411316      1.70E-03
    5    -119.0924540950      2.71E-04 Done RCA. Switching to DIIS
    6    -119.0929766570      2.00E-04
    7    -119.0929940260      4.74E-06 Convergence criterion met
 ---------------------------------------
 SCF time:  CPU 18.85 s  wall 6.77 s
 SCF   energy in the small basis set = -119.09299403
 Total energy in the small basis set = -119.09299403
 ----------------------------------------------------
  Cycle       Energy    
 ----------------------------------------------------
    1     -16.5402507479     -1.65E+01
 Long-range K will be added via erf
 Coulomb attenuation parameter = 0.2 bohr**(-1)
 A restricted hybrid HF-DFT SCF calculation will be
 performed using Relaxed Constraint Minimization + Pulay DIIS
 Exchange:     0.2220 Hartree-Fock + 1.0000 wB97X-D + LR-HF
 Correlation:  1.0000 wB97X-D
 Using Euler-Maclaurin-Lebedev (75,302) quadrature formula
 Dispersion:   Grimme D
 SCF converges when DIIS error is below 1.0E-05
 Basis2 calculation detected. Using small basis as guess for larger.
 SCFMinFind is unable to tell whether the solution found is close.
 Resetting ReadMinima to 0 and attempting to follow guess.
 SCFMinFind following SCF Guess.
 using 3 threads for integral computing
 -------------------------------------------------------
 OpenMP Integral computing Module                
 Release: version 1.0, May 2013, Q-Chem Inc. Pittsburgh 
 -------------------------------------------------------
 using 3 threads for integral computing
 -------------------------------------------------------
 OpenMP Integral computing Module                
 Release: version 1.0, May 2013, Q-Chem Inc. Pittsburgh 
 -------------------------------------------------------
 ---------------------------------------
  Cycle       Energy         DIIS Error
 ---------------------------------------
    1    -119.1123792225      4.21E-03
    2    -119.1344313774      6.01E-04 Done RCA. Switching to DIIS
    3    -119.1352734453      4.23E-04
    4    -119.1362542172      4.57E-05
    5    -119.1362691225      1.04E-05
    6    -119.1362698450      4.01E-06 Convergence criterion met
 ---------------------------------------
 SCF time:  CPU 50.05 s  wall 16.87 s
 SCF   energy in the final basis set = -119.13626985
 Total energy in the final basis set = -119.13626985
 
 --------------------------------------------------------------
 
                    Orbital Energies (a.u.)
 --------------------------------------------------------------
 
 Alpha MOs
 -- Occupied --
-10.2741 -10.2660 -10.2660  -0.8830  -0.7789  -0.6776  -0.5478  -0.5264
 -0.4838  -0.4645  -0.4249  -0.4151  -0.3967
 -- Virtual --
  0.0693   0.0857   0.0908   0.0992   0.1246   0.1305   0.1322   0.1427
  0.1437   0.1715   0.1727   0.1917   0.2311   0.2317   0.2481   0.2505
  0.2827   0.2954   0.3119   0.3149   0.3314   0.3471   0.4585   0.4704
  0.4721   0.5041   0.5168   0.5173   0.5446   0.5581   0.5798   0.5919
  0.6163   0.6261   0.6322   0.6372   0.6588   0.6768   0.7090   0.7119
  0.7248   0.7680   0.7998   0.8450   0.8769   0.8995   0.9064   0.9618
  1.0042   1.0554   1.0557   1.1330   1.1381   1.1576   1.1794   1.2004
  1.2173   1.2359   1.2732   1.2920   1.3053   1.3056   1.3444   1.3643
  1.3817   1.3873   1.4071   1.4280   1.4624   1.4758   1.4761   1.5028
  1.5276   1.5679   1.5889   1.6118   1.6418   1.6557   1.6591   1.6780
  1.7206   2.3666   2.4244   2.4882   2.4923   2.5519   2.5768   2.6350
  2.6629   2.6931   2.7606   2.8308   2.8357   2.9137   2.9215   2.9298
  2.9492   2.9791   2.9873   3.0427   3.0548   3.0627   3.0869   3.0926
  3.1166   3.1221   3.1614   3.1751   3.2245   3.2554   3.2914   3.3023
  3.3262   3.3288   3.3511   3.3611   3.3763   3.3916   3.3964   3.3979
  3.4556   3.4709   3.5457   3.5777   3.5854   3.5868   3.5901   3.6234
  3.6304   3.6590   3.6719   3.6795   3.7727   3.7753   3.7841   3.8855
  3.8971   3.9080   3.9205   3.9709   3.9913   4.0264   4.0431   4.0511
  4.0651   4.1084   4.1210   4.1277   4.1525   4.1821   4.1871   4.1974
  4.2195   4.2918   4.2992   4.3537   4.3738   4.3835   4.4254   4.4349
  4.4493   4.5655   4.6089   4.6243   4.6607   4.7725   4.8220   4.9011
  4.9501   4.9683   4.9841   4.9897   5.0211   5.0658   5.0915   5.1106
  5.1220   5.2104   5.2327   5.2671   5.3122   5.3254   5.3473   5.3670
  5.3815   5.4119   5.4473   5.4584   5.4909   5.6294   5.6862   5.7068
  6.0164   6.3749   6.3767   6.3987   6.4206   6.4921  25.1760  25.4169
 25.4582
 --------------------------------------------------------------
 
 -----------------------------------------------------------------
                    Cartesian Multipole Moments
 -----------------------------------------------------------------
    Charge (ESU x 10^10)
                -0.0000
    Dipole Moment (Debye)
         X       0.0000      Y       0.0000      Z      -0.0620
       Tot       0.0620
    Quadrupole Moments (Debye-Ang)
        XX     -22.1303     XY       0.3895     YY     -21.3928
        XZ      -0.0000     YZ       0.0000     ZZ     -21.9118
    Octopole Moments (Debye-Ang^2)
       XXX       0.0001    XXY       0.0001    XYY       0.0000
       YYY       0.0000    XXZ       0.5194    XYZ       0.8892
       YYZ      -1.5200    XZZ      -0.0001    YZZ      -0.0001
       ZZZ      -0.2028
    Hexadecapole Moments (Debye-Ang^3)
      XXXX    -106.4124   XXXY      39.4248   XXYY     -41.1147
      XYYY      37.7693   YYYY    -141.7417   XXXZ       0.0013
      XXYZ      -0.0004   XYYZ       0.0004   YYYZ      -0.0002
      XXZZ     -28.8161   XYZZ      13.7878   YYZZ     -33.7933
      XZZZ       0.0008   YZZZ      -0.0004   ZZZZ     -72.2794
 -----------------------------------------------------------------
Archival summary:
1\1\centos77-c1\SP\ProcedureUnspecified\BasisUnspecified\38\shihchen\ThuJul203:53:492020ThuJul203:53:492020\0\\#,ProcedureUnspecified,BasisUnspecified,\\0,1\C\H,1,1.09259\H,1,1.09259,2,106.886\C,1,1.52405,2,99.9629,3,-124.899,0\H,4,1.0852,1,107.501,2,-75.3897,0\H,4,1.09047,1,111.567,2,41.8681,0\H,4,1.09854,1,114.305,2,165.272,0\C,1,1.52405,2,119.271,3,112.174,0\H,8,1.08519,1,107.501,2,168.738,0\H,8,1.09047,1,111.566,2,-74.0052,0\H,8,1.09854,1,114.306,2,49.3996,0\\\@

 Total job time:  26.50s(wall), 72.43s(cpu) 
 Thu Jul  2 03:53:49 2020

        *************************************************************
        *                                                           *
        *  Thank you very much for using Q-Chem.  Have a nice day.  *
        *                                                           *
        *************************************************************


