                  Welcome to Q-Chem
     A Quantum Leap Into The Future Of Chemistry


 Q-Chem 5.3 (devel), Q-Chem, Inc., Pleasanton, CA (2020)

 Yihan Shao,  Zhengting Gan,  E. Epifanovsky,  A. T. B. Gilbert,  M. Wormit,  
 J. Kussmann,  A. W. Lange,  A. Behn,  Jia Deng,  Xintian Feng,  D. Ghosh,  
 M. Goldey,  P. R. Horn,  L. D. Jacobson,  I. Kaliman,  T. Kus,  A. Landau,  
 Jie Liu,  E. I. Proynov,  R. M. Richard,  R. P. Steele,  E. J. Sundstrom,  
 H. L. Woodcock III,  P. M. Zimmerman,  D. Zuev,  B. Alam,  B. Albrecht,  
 E. Alguire,  S. A. Baeppler,  D. Barton,  Z. Benda,  Y. A. Bernard,  
 E. J. Berquist,  K. B. Bravaya,  H. Burton,  K. Carter-Fenk,  D. Casanova,  
 Chun-Min Chang,  Yunqing Chen,  A. Chien,  K. D. Closser,  M. P. Coons,  
 S. Coriani,  S. Dasgupta,  A. L. Dempwolff,  M. Diedenhofen,  Hainam Do,  
 R. G. Edgar,  Po-Tung Fang,  S. Faraji,  S. Fatehi,  Qingguo Feng,  
 J. Fosso-Tande,  J. Gayvert,  Qinghui Ge,  A. Ghysels,  G. Gidofalvi,  
 J. Gomes,  J. Gonthier,  A. Gunina,  D. Hait,  M. W. D. Hanson-Heine,  
 P. H. P. Harbach,  A. W. Hauser,  M. F. Herbst,  J. E. Herr,  
 E. G. Hohenstein,  Z. C. Holden,  Kerwin Hui,  B. C. Huynh,  T.-C. Jagau,  
 Hyunjun Ji,  B. Kaduk,  K. Khistyaev,  Jaehoon Kim,  P. Klunzinger,  K. Koh,  
 D. Kosenkov,  L. Koulias,  T. Kowalczyk,  C. M. Krauter,  A. Kunitsa,  
 Ka Un Lao,  A. Laurent,  K. V. Lawler,  Joonho Lee,  D. Lefrancois,  
 S. Lehtola,  D. S. Levine,  Yi-Pei Li,  You-Sheng Lin,  Fenglai Liu,  
 Kuan-Yu Liu,  E. Livshits,  M. Loipersberger,  A. Luenser,  P. Manohar,  
 E. Mansoor,  S. F. Manzer,  Shan-Ping Mao,  Yuezhi Mao,  N. Mardirossian,  
 A. V. Marenich,  T. Markovich,  L. A. Martinez-Martinez,  S. A. Maurer,  
 N. J. Mayhall,  S. C. McKenzie,  J.-M. Mewes,  P. Morgante,  A. F. Morrison,  
 J. W. Mullinax,  K. Nanda,  T. S. Nguyen-Beck,  R. Olivares-Amaya,  
 K. J. Oosterbaan,  J. A. Parkhill,  S. K. Paul,  F. Pavosevic,  Zheng Pei,  
 T. M. Perrine,  F. Plasser,  P. Pokhilko,  S. Prager,  A. Prociuk,  
 E. Ramos,  B. Rana,  D. R. Rehn,  F. Rob,  M. Scheurer,  M. Schneider,  
 N. Sergueev,  S. M. Sharada,  S. Sharma,  D. W. Small,  T. Stauch,  
 C. J. Stein,  T. Stein,  Yu-Chuan Su,  S. P. Veccham,  Zhen Tao,  
 A. J. W. Thom,  A. Tkatchenko,  T. Tsuchimochi,  N. M. Tubman,  L. Vogt,  
 M. L. Vidal,  O. Vydrov,  M. A. Watson,  J. Wenzel,  M. de Wergifosse,  
 T. A. Wesolowski,  A. White,  J. Witte,  A. Yamada,  Jun Yang,  K. Yao,  
 S. Yeganeh,  S. R. Yost,  Zhi-Qiang You,  A. Zech,  Igor Ying Zhang,  
 Xing Zhang,  Yan Zhao,  Ying Zhu,  B. R. Brooks,  G. K. L. Chan,  
 C. J. Cramer,  M. S. Gordon,  W. J. Hehre,  A. Klamt,  M. W. Schmidt,  
 C. D. Sherrill,  D. G. Truhlar,  A. Aspuru-Guzik,  R. Baer,  A. T. Bell,  
 N. A. Besley,  Jeng-Da Chai,  A. E. DePrince, III,  R. A. DiStasio Jr.,  
 A. Dreuw,  B. D. Dunietz,  T. R. Furlani,  Chao-Ping Hsu,  Yousung Jung,  
 Jing Kong,  D. S. Lambrecht,  WanZhen Liang,  C. Ochsenfeld,  
 V. A. Rassolov,  L. V. Slipchenko,  J. E. Subotnik,  T. Van Voorhis,  
 J. M. Herbert,  A. I. Krylov,  P. M. W. Gill,  M. Head-Gordon

 Contributors to earlier versions of Q-Chem not listed above: 
 R. D. Adamson,  B. Austin,  J. Baker,  G. J. O. Beran,  K. Brandhorst,  
 S. T. Brown,  E. F. C. Byrd,  A. K. Chakraborty,  C.-L. Cheng,  
 Siu Hung Chien,  D. M. Chipman,  D. L. Crittenden,  H. Dachsel,  
 R. J. Doerksen,  A. D. Dutoi,  L. Fusti-Molnar,  W. A. Goddard III,  
 A. Golubeva-Zadorozhnaya,  S. R. Gwaltney,  G. Hawkins,  A. Heyden,  
 S. Hirata,  G. Kedziora,  F. J. Keil,  C. Kelley,  Jihan Kim,  R. A. King,  
 R. Z. Khaliullin,  P. P. Korambath,  W. Kurlancheek,  A. M. Lee,  M. S. Lee,  
 S. V. Levchenko,  Ching Yeh Lin,  D. Liotard,  R. C. Lochan,  I. Lotan,  
 P. E. Maslen,  N. Nair,  D. P. O'Neill,  D. Neuhauser,  E. Neuscamman,  
 C. M. Oana,  R. Olson,  B. Peters,  R. Peverati,  P. A. Pieniazek,  
 Y. M. Rhee,  J. Ritchie,  M. A. Rohrdanz,  E. Rosta,  N. J. Russ,  
 H. F. Schaefer III,  N. E. Schultz,  N. Shenvi,  A. C. Simmonett,  A. Sodt,  
 D. Stuck,  K. S. Thanthiriwatte,  V. Vanovschi,  Tao Wang,  A. Warshel,  
 C. F. Williams,  Q. Wu,  X. Xu,  W. Zhang

 Please cite Q-Chem as follows:
 Y. Shao et al., Mol. Phys. 113, 184-215 (2015)
 DOI: 10.1080/00268976.2014.952696

 Q-Chem 5.3.0 for Intel X86 EM64T Linux

 Parts of Q-Chem use Armadillo 9.800.1 (Horizon Scraper).
 http://arma.sourceforge.net/

 Q-Chem begins on Thu Jul  2 03:27:10 2020  

Host: centos77-c1
0

     Scratch files written to /tmp/26650.centos77-h1/qchem68106//
Processing $rem in /opt/qchem-5.3.0-intel2020u1//config/preferences:
Processing $rem in /home/shihchengli/.qchemrc:

Checking the input file for inconsistencies... 	...done.

--------------------------------------------------------------
User input:
--------------------------------------------------------------
$rem
   JOBTYPE  sp
   EXCHANGE   omegaB97X-D
   BASIS   6-311+G(2df,2pd)
   max_scf_cycles   250
   geom_opt_max_cycles   1500
   basis2 6-31G*
   scf_algorithm rca_diis
   SYM_IGNORE  TRUE
   print_input   true
   geom_opt_dmax   80
   pop_mulliken false
   XC_GRID 000075000302
$end

$molecule
0 1
C       1.0510882237     0.7077192008     0.2564003332
C       0.0000048005     -0.0000161785     -0.5903926158
H       1.7349552188     1.3276695501     -0.3350177769
H       1.6486515672     -0.0428920335     0.7683595820
H       0.5938259541     1.3378278972     1.0199426756
C       -1.0510921064     -0.7077084243     0.2564192961
H       0.3689094009     -0.7940416076     -1.2439912423
H       -0.3688877161     0.7939751823     -1.2440381857
H       -1.6485798518     0.0429303683     0.7684285452
H       -0.5938468779     -1.3378721714     1.0199262942
H       -1.7350286735     -1.3275911175     -0.3349918867
$end
--------------------------------------------------------------
 ----------------------------------------------------------------
             Standard Nuclear Orientation (Angstroms)
    I     Atom           X                Y                Z
 ----------------------------------------------------------------
    1      C       1.0510882237     0.7077192008     0.2564003332
    2      C       0.0000048005    -0.0000161785    -0.5903926158
    3      H       1.7349552188     1.3276695501    -0.3350177769
    4      H       1.6486515672    -0.0428920335     0.7683595820
    5      H       0.5938259541     1.3378278972     1.0199426756
    6      C      -1.0510921064    -0.7077084243     0.2564192961
    7      H       0.3689094009    -0.7940416076    -1.2439912423
    8      H      -0.3688877161     0.7939751823    -1.2440381857
    9      H      -1.6485798518     0.0429303683     0.7684285452
   10      H      -0.5938468779    -1.3378721714     1.0199262942
   11      H      -1.7350286735    -1.3275911175    -0.3349918867
 ----------------------------------------------------------------
 Nuclear Repulsion Energy =          82.77369689 hartrees
 There are       13 alpha and       13 beta electrons
 Requested basis set is 6-311+G(2df,2pd)
 There are 72 shells and 214 basis functions

 Total QAlloc Memory Limit   2000 MB
 Mega-Array Size       188 MB
 MEM_STATIC part       192 MB

                       Distance Matrix (Angstroms)
             C (  1)   C (  2)   H (  3)   H (  4)   H (  5)   C (  6)
   C (  2)  1.524049
   H (  3)  1.096261  2.199550
   H (  4)  1.087475  2.136839  1.761627
   H (  5)  1.090469  2.176150  1.771496  1.755659
   C (  6)  2.534284  1.524048  3.500660  2.827133  2.733668
   H (  7)  2.229760  1.092592  2.682158  2.500304  3.117828  2.067629
   H (  8)  2.067628  1.092592  2.353147  2.969942  2.519564  2.229760
   H (  9)  2.827070  2.136837  3.783710  3.298348  2.601615  1.087476
   H ( 10)  2.733720  2.176154  3.790027  2.601741  2.927446  1.090469
   H ( 11)  3.500669  2.199551  4.369347  3.783798  3.789970  1.096262
             H (  7)   H (  8)   H (  9)   H ( 10)
   H (  8)  1.751040
   H (  9)  2.969953  2.500341
   H ( 10)  2.519519  3.117838  1.755656
   H ( 11)  2.353192  2.682117  1.761630  1.771498
 
 A cutoff of  1.0D-09 yielded   2535 shell pairs
 There are     22557 function pairs (     27730 Cartesian)
 Smallest overlap matrix eigenvalue = 9.19E-05

 Scale SEOQF with 1.000000e-01/1.000000e-01/1.000000e-01

 Standard Electronic Orientation quadrupole field applied
 Nucleus-field energy     =     0.0000000009 hartrees
 Requested basis set is 6-31G(d)
 There are 28 shells and 58 basis functions
 A cutoff of  1.0D-09 yielded    402 shell pairs
 There are      1773 function pairs (      1968 Cartesian)
 Smallest overlap matrix eigenvalue = 6.94E-03
 Guess from superposition of atomic densities
 Warning:  Energy on first SCF cycle will be non-variational
 SAD guess density has 26.000000 electrons
 Long-range K will be added via erf
 Coulomb attenuation parameter = 0.2 bohr**(-1)
 A restricted hybrid HF-DFT SCF calculation will be
 performed using Relaxed Constraint Minimization + Pulay DIIS
 Exchange:     0.2220 Hartree-Fock + 1.0000 wB97X-D + LR-HF
 Correlation:  1.0000 wB97X-D
 Using Euler-Maclaurin-Lebedev (75,302) quadrature formula
 Dispersion:   Grimme D
 SCF converges when DIIS error is below 1.0E-04
 using 3 threads for integral computing
 -------------------------------------------------------
 OpenMP Integral computing Module                
 Release: version 1.0, May 2013, Q-Chem Inc. Pittsburgh 
 -------------------------------------------------------
 using 3 threads for integral computing
 -------------------------------------------------------
 OpenMP Integral computing Module                
 Release: version 1.0, May 2013, Q-Chem Inc. Pittsburgh 
 -------------------------------------------------------
 ---------------------------------------
  Cycle       Energy         DIIS Error
 ---------------------------------------
    1    -119.6229677224      1.00E-01
    2    -119.0612644174      8.99E-03
    3    -119.0823092998      2.47E-03
    4    -119.0961434567      1.69E-03
    5    -119.0968472286      2.68E-04 Done RCA. Switching to DIIS
    6    -119.0973633156      1.98E-04
    7    -119.0973803867      4.62E-06 Convergence criterion met
 ---------------------------------------
 SCF time:  CPU 20.34 s  wall 7.62 s
 SCF   energy in the small basis set = -119.09738039
 Total energy in the small basis set = -119.09738039
 ----------------------------------------------------
  Cycle       Energy    
 ----------------------------------------------------
    1     -16.5396704480     -1.65E+01
 Long-range K will be added via erf
 Coulomb attenuation parameter = 0.2 bohr**(-1)
 A restricted hybrid HF-DFT SCF calculation will be
 performed using Relaxed Constraint Minimization + Pulay DIIS
 Exchange:     0.2220 Hartree-Fock + 1.0000 wB97X-D + LR-HF
 Correlation:  1.0000 wB97X-D
 Using Euler-Maclaurin-Lebedev (75,302) quadrature formula
 Dispersion:   Grimme D
 SCF converges when DIIS error is below 1.0E-05
 Basis2 calculation detected. Using small basis as guess for larger.
 SCFMinFind is unable to tell whether the solution found is close.
 Resetting ReadMinima to 0 and attempting to follow guess.
 SCFMinFind following SCF Guess.
 using 3 threads for integral computing
 -------------------------------------------------------
 OpenMP Integral computing Module                
 Release: version 1.0, May 2013, Q-Chem Inc. Pittsburgh 
 -------------------------------------------------------
 using 3 threads for integral computing
 -------------------------------------------------------
 OpenMP Integral computing Module                
 Release: version 1.0, May 2013, Q-Chem Inc. Pittsburgh 
 -------------------------------------------------------
 ---------------------------------------
  Cycle       Energy         DIIS Error
 ---------------------------------------
    1    -119.1166247388      4.21E-03
    2    -119.1386742213      6.00E-04 Done RCA. Switching to DIIS
    3    -119.1395124356      4.21E-04
    4    -119.1404863990      4.57E-05
    5    -119.1405012483      1.04E-05
    6    -119.1405019621      3.99E-06 Convergence criterion met
 ---------------------------------------
 SCF time:  CPU 50.25 s  wall 16.96 s
 SCF   energy in the final basis set = -119.14050196
 Total energy in the final basis set = -119.14050196
 
 --------------------------------------------------------------
 
                    Orbital Energies (a.u.)
 --------------------------------------------------------------
 
 Alpha MOs
 -- Occupied --
-10.2737 -10.2657 -10.2657  -0.8820  -0.7776  -0.6779  -0.5469  -0.5253
 -0.4832  -0.4646  -0.4264  -0.4155  -0.3975
 -- Virtual --
  0.0692   0.0857   0.0910   0.0988   0.1247   0.1303   0.1327   0.1428
  0.1434   0.1712   0.1714   0.1913   0.2317   0.2362   0.2490   0.2555
  0.2829   0.2904   0.3120   0.3156   0.3311   0.3460   0.4590   0.4700
  0.4705   0.5065   0.5145   0.5166   0.5472   0.5572   0.5846   0.5914
  0.6228   0.6284   0.6328   0.6339   0.6459   0.6748   0.7100   0.7168
  0.7251   0.7646   0.8080   0.8696   0.8765   0.8882   0.8921   0.9576
  1.0036   1.0550   1.0556   1.1269   1.1336   1.1687   1.1923   1.1964
  1.2284   1.2357   1.2758   1.2838   1.3001   1.3116   1.3394   1.3726
  1.3757   1.3776   1.4055   1.4385   1.4570   1.4640   1.4743   1.4969
  1.5277   1.5625   1.6069   1.6123   1.6450   1.6453   1.6778   1.6784
  1.7410   2.3658   2.4373   2.4793   2.5062   2.5413   2.5630   2.6189
  2.6507   2.7013   2.7967   2.8137   2.8350   2.9207   2.9248   2.9287
  2.9319   2.9665   2.9923   3.0455   3.0555   3.0609   3.0819   3.1024
  3.1224   3.1375   3.1740   3.1758   3.2165   3.2421   3.2816   3.2924
  3.3294   3.3384   3.3420   3.3589   3.3761   3.3852   3.3947   3.4263
  3.4734   3.4812   3.5208   3.5274   3.5678   3.5796   3.6048   3.6183
  3.6320   3.6691   3.6735   3.7006   3.7825   3.7838   3.8150   3.8692
  3.9092   3.9497   3.9529   3.9648   3.9801   3.9936   4.0548   4.0622
  4.0795   4.1009   4.1146   4.1188   4.1580   4.1639   4.1877   4.2117
  4.2202   4.2690   4.2919   4.3514   4.3695   4.3909   4.4093   4.4274
  4.4545   4.5826   4.5996   4.6024   4.6574   4.7845   4.8285   4.8944
  4.9467   4.9583   4.9797   4.9931   5.0361   5.0503   5.0624   5.0853
  5.1715   5.2235   5.2344   5.2707   5.2974   5.3379   5.3497   5.3552
  5.3853   5.4277   5.4427   5.4682   5.5028   5.5770   5.6446   5.7350
  5.9688   6.3867   6.3906   6.3978   6.4025   6.4786  25.1847  25.4184
 25.4587
 --------------------------------------------------------------
 
 -----------------------------------------------------------------
                    Cartesian Multipole Moments
 -----------------------------------------------------------------
    Charge (ESU x 10^10)
                 0.0000
    Dipole Moment (Debye)
         X       0.0000      Y      -0.0000      Z      -0.0576
       Tot       0.0576
    Quadrupole Moments (Debye-Ang)
        XX     -22.2246     XY      -0.1404     YY     -21.2647
        XZ      -0.0000     YZ      -0.0000     ZZ     -21.9157
    Octopole Moments (Debye-Ang^2)
       XXX      -0.0000    XXY      -0.0001    XYY       0.0001
       YYY       0.0000    XXZ      -0.7052    XYZ      -1.0713
       YYZ      -0.4340    XZZ      -0.0000    YZZ       0.0001
       ZZZ      -0.0675
    Hexadecapole Moments (Debye-Ang^3)
      XXXX    -154.8916   XXXY     -36.3076   XXYY     -39.8580
      XYYY     -36.4048   YYYY     -94.9765   XXXZ       0.0009
      XXYZ       0.0000   XYYZ       0.0001   YYYZ      -0.0002
      XXZZ     -37.6775   XYZZ     -12.6990   YYZZ     -25.1882
      XZZZ       0.0006   YZZZ      -0.0001   ZZZZ     -72.0624
 -----------------------------------------------------------------
Archival summary:
1\1\centos77-c1\SP\ProcedureUnspecified\BasisUnspecified\38\shihchen\ThuJul203:27:382020ThuJul203:27:382020\0\\#,ProcedureUnspecified,BasisUnspecified,\\0,1\C\H,1,1.09259\H,1,1.09259,2,106.513\C,1,1.52405,2,115.913,3,-114.091,0\H,4,1.08748,1,108.663,2,-50.2165,0\H,4,1.09047,1,111.604,2,-168.504,0\H,4,1.09626,1,113.147,2,69.1588,0\C,1,1.52405,2,103.167,3,122.511,0\H,8,1.08747,1,108.664,2,-166.198,0\H,8,1.09047,1,111.604,2,75.5136,0\H,8,1.09626,1,113.147,2,-46.8231,0\\\@

 Total job time:  27.49s(wall), 74.16s(cpu) 
 Thu Jul  2 03:27:38 2020

        *************************************************************
        *                                                           *
        *  Thank you very much for using Q-Chem.  Have a nice day.  *
        *                                                           *
        *************************************************************


