                  Welcome to Q-Chem
     A Quantum Leap Into The Future Of Chemistry


 Q-Chem 5.3 (devel), Q-Chem, Inc., Pleasanton, CA (2020)

 Yihan Shao,  Zhengting Gan,  E. Epifanovsky,  A. T. B. Gilbert,  M. Wormit,  
 J. Kussmann,  A. W. Lange,  A. Behn,  Jia Deng,  Xintian Feng,  D. Ghosh,  
 M. Goldey,  P. R. Horn,  L. D. Jacobson,  I. Kaliman,  T. Kus,  A. Landau,  
 Jie Liu,  E. I. Proynov,  R. M. Richard,  R. P. Steele,  E. J. Sundstrom,  
 H. L. Woodcock III,  P. M. Zimmerman,  D. Zuev,  B. Alam,  B. Albrecht,  
 E. Alguire,  S. A. Baeppler,  D. Barton,  Z. Benda,  Y. A. Bernard,  
 E. J. Berquist,  K. B. Bravaya,  H. Burton,  K. Carter-Fenk,  D. Casanova,  
 Chun-Min Chang,  Yunqing Chen,  A. Chien,  K. D. Closser,  M. P. Coons,  
 S. Coriani,  S. Dasgupta,  A. L. Dempwolff,  M. Diedenhofen,  Hainam Do,  
 R. G. Edgar,  Po-Tung Fang,  S. Faraji,  S. Fatehi,  Qingguo Feng,  
 J. Fosso-Tande,  J. Gayvert,  Qinghui Ge,  A. Ghysels,  G. Gidofalvi,  
 J. Gomes,  J. Gonthier,  A. Gunina,  D. Hait,  M. W. D. Hanson-Heine,  
 P. H. P. Harbach,  A. W. Hauser,  M. F. Herbst,  J. E. Herr,  
 E. G. Hohenstein,  Z. C. Holden,  Kerwin Hui,  B. C. Huynh,  T.-C. Jagau,  
 Hyunjun Ji,  B. Kaduk,  K. Khistyaev,  Jaehoon Kim,  P. Klunzinger,  K. Koh,  
 D. Kosenkov,  L. Koulias,  T. Kowalczyk,  C. M. Krauter,  A. Kunitsa,  
 Ka Un Lao,  A. Laurent,  K. V. Lawler,  Joonho Lee,  D. Lefrancois,  
 S. Lehtola,  D. S. Levine,  Yi-Pei Li,  You-Sheng Lin,  Fenglai Liu,  
 Kuan-Yu Liu,  E. Livshits,  M. Loipersberger,  A. Luenser,  P. Manohar,  
 E. Mansoor,  S. F. Manzer,  Shan-Ping Mao,  Yuezhi Mao,  N. Mardirossian,  
 A. V. Marenich,  T. Markovich,  L. A. Martinez-Martinez,  S. A. Maurer,  
 N. J. Mayhall,  S. C. McKenzie,  J.-M. Mewes,  P. Morgante,  A. F. Morrison,  
 J. W. Mullinax,  K. Nanda,  T. S. Nguyen-Beck,  R. Olivares-Amaya,  
 K. J. Oosterbaan,  J. A. Parkhill,  S. K. Paul,  F. Pavosevic,  Zheng Pei,  
 T. M. Perrine,  F. Plasser,  P. Pokhilko,  S. Prager,  A. Prociuk,  
 E. Ramos,  B. Rana,  D. R. Rehn,  F. Rob,  M. Scheurer,  M. Schneider,  
 N. Sergueev,  S. M. Sharada,  S. Sharma,  D. W. Small,  T. Stauch,  
 C. J. Stein,  T. Stein,  Yu-Chuan Su,  S. P. Veccham,  Zhen Tao,  
 A. J. W. Thom,  A. Tkatchenko,  T. Tsuchimochi,  N. M. Tubman,  L. Vogt,  
 M. L. Vidal,  O. Vydrov,  M. A. Watson,  J. Wenzel,  M. de Wergifosse,  
 T. A. Wesolowski,  A. White,  J. Witte,  A. Yamada,  Jun Yang,  K. Yao,  
 S. Yeganeh,  S. R. Yost,  Zhi-Qiang You,  A. Zech,  Igor Ying Zhang,  
 Xing Zhang,  Yan Zhao,  Ying Zhu,  B. R. Brooks,  G. K. L. Chan,  
 C. J. Cramer,  M. S. Gordon,  W. J. Hehre,  A. Klamt,  M. W. Schmidt,  
 C. D. Sherrill,  D. G. Truhlar,  A. Aspuru-Guzik,  R. Baer,  A. T. Bell,  
 N. A. Besley,  Jeng-Da Chai,  A. E. DePrince, III,  R. A. DiStasio Jr.,  
 A. Dreuw,  B. D. Dunietz,  T. R. Furlani,  Chao-Ping Hsu,  Yousung Jung,  
 Jing Kong,  D. S. Lambrecht,  WanZhen Liang,  C. Ochsenfeld,  
 V. A. Rassolov,  L. V. Slipchenko,  J. E. Subotnik,  T. Van Voorhis,  
 J. M. Herbert,  A. I. Krylov,  P. M. W. Gill,  M. Head-Gordon

 Contributors to earlier versions of Q-Chem not listed above: 
 R. D. Adamson,  B. Austin,  J. Baker,  G. J. O. Beran,  K. Brandhorst,  
 S. T. Brown,  E. F. C. Byrd,  A. K. Chakraborty,  C.-L. Cheng,  
 Siu Hung Chien,  D. M. Chipman,  D. L. Crittenden,  H. Dachsel,  
 R. J. Doerksen,  A. D. Dutoi,  L. Fusti-Molnar,  W. A. Goddard III,  
 A. Golubeva-Zadorozhnaya,  S. R. Gwaltney,  G. Hawkins,  A. Heyden,  
 S. Hirata,  G. Kedziora,  F. J. Keil,  C. Kelley,  Jihan Kim,  R. A. King,  
 R. Z. Khaliullin,  P. P. Korambath,  W. Kurlancheek,  A. M. Lee,  M. S. Lee,  
 S. V. Levchenko,  Ching Yeh Lin,  D. Liotard,  R. C. Lochan,  I. Lotan,  
 P. E. Maslen,  N. Nair,  D. P. O'Neill,  D. Neuhauser,  E. Neuscamman,  
 C. M. Oana,  R. Olson,  B. Peters,  R. Peverati,  P. A. Pieniazek,  
 Y. M. Rhee,  J. Ritchie,  M. A. Rohrdanz,  E. Rosta,  N. J. Russ,  
 H. F. Schaefer III,  N. E. Schultz,  N. Shenvi,  A. C. Simmonett,  A. Sodt,  
 D. Stuck,  K. S. Thanthiriwatte,  V. Vanovschi,  Tao Wang,  A. Warshel,  
 C. F. Williams,  Q. Wu,  X. Xu,  W. Zhang

 Please cite Q-Chem as follows:
 Y. Shao et al., Mol. Phys. 113, 184-215 (2015)
 DOI: 10.1080/00268976.2014.952696

 Q-Chem 5.3.0 for Intel X86 EM64T Linux

 Parts of Q-Chem use Armadillo 9.800.1 (Horizon Scraper).
 http://arma.sourceforge.net/

 Q-Chem begins on Thu Jul  2 04:28:36 2020  

Host: centos77-c1
0

     Scratch files written to /tmp/26650.centos77-h1/qchem73652//
Processing $rem in /opt/qchem-5.3.0-intel2020u1//config/preferences:
Processing $rem in /home/shihchengli/.qchemrc:

Checking the input file for inconsistencies... 	...done.

--------------------------------------------------------------
User input:
--------------------------------------------------------------
$rem
   JOBTYPE  sp
   EXCHANGE   omegaB97X-D
   BASIS   6-311+G(2df,2pd)
   max_scf_cycles   250
   geom_opt_max_cycles   1500
   basis2 6-31G*
   scf_algorithm rca_diis
   SYM_IGNORE  TRUE
   print_input   true
   geom_opt_dmax   80
   pop_mulliken false
   XC_GRID 000075000302
$end

$molecule
0 1
C       1.0230085181     0.0000011237     0.2614698359
C       0.0000001323     -0.0000035662     -0.8370108825
H       0.7945703587     -0.8693038868     0.8833972539
H       0.7945627344     0.8693059024     0.8833947929
H       2.0871719452     0.0000063914     0.0376172053
C       -1.0230080873     -0.0000002899     0.2614700604
H       -0.0000006927     -0.8828310059     -1.4768506583
H       0.0000003230     0.8828227550     -1.4768521834
H       -0.7945734365     -0.8693088557     0.8833937757
H       -2.0871715963     0.0000109835     0.0376167869
H       -0.7945602593     0.8693011146     0.8833990320
$end
--------------------------------------------------------------
 ----------------------------------------------------------------
             Standard Nuclear Orientation (Angstroms)
    I     Atom           X                Y                Z
 ----------------------------------------------------------------
    1      C       1.0230085181     0.0000011237     0.2614698359
    2      C       0.0000001323    -0.0000035662    -0.8370108825
    3      H       0.7945703587    -0.8693038868     0.8833972539
    4      H       0.7945627344     0.8693059024     0.8833947929
    5      H       2.0871719452     0.0000063914     0.0376172053
    6      C      -1.0230080873    -0.0000002899     0.2614700604
    7      H      -0.0000006927    -0.8828310059    -1.4768506583
    8      H       0.0000003230     0.8828227550    -1.4768521834
    9      H      -0.7945734365    -0.8693088557     0.8833937757
   10      H      -2.0871715963     0.0000109835     0.0376167869
   11      H      -0.7945602593     0.8693011146     0.8833990320
 ----------------------------------------------------------------
 Nuclear Repulsion Energy =          87.04167754 hartrees
 There are       13 alpha and       13 beta electrons
 Requested basis set is 6-311+G(2df,2pd)
 There are 72 shells and 214 basis functions

 Total QAlloc Memory Limit   2000 MB
 Mega-Array Size       188 MB
 MEM_STATIC part       192 MB

                       Distance Matrix (Angstroms)
             C (  1)   C (  2)   H (  3)   H (  4)   H (  5)   C (  6)
   C (  2)  1.501068
   H (  3)  1.093009  2.084905
   H (  4)  1.093009  2.084904  1.738610
   H (  5)  1.087453  2.263020  1.772530  1.772529
   C (  6)  2.046017  1.501068  2.108571  2.108565  3.118225
   H (  7)  2.201749  1.090312  2.490441  3.045008  2.725675  2.201748
   H (  8)  2.201745  1.090312  3.045007  2.490437  2.725668  2.201746
   H (  9)  2.108576  2.084906  1.589144  2.355448  3.126580  1.093009
   H ( 10)  3.118226  2.263020  3.126578  3.126565  4.174344  1.087453
   H ( 11)  2.108562  2.084905  2.355437  1.589123  3.126564  1.093009
             H (  7)   H (  8)   H (  9)   H ( 10)
   H (  8)  1.765654
   H (  9)  2.490438  3.045008
   H ( 10)  2.725675  2.725667  1.772531
   H ( 11)  3.045007  2.490441  1.738610  1.772528
 
 A cutoff of  1.0D-09 yielded   2579 shell pairs
 There are     23043 function pairs (     28356 Cartesian)
 Smallest overlap matrix eigenvalue = 6.45E-05

 Scale SEOQF with 1.000000e-01/1.000000e-01/1.000000e-01

 Standard Electronic Orientation quadrupole field applied
 Nucleus-field energy     =    -0.0000000002 hartrees
 Requested basis set is 6-31G(d)
 There are 28 shells and 58 basis functions
 A cutoff of  1.0D-09 yielded    404 shell pairs
 There are      1775 function pairs (      1970 Cartesian)
 Smallest overlap matrix eigenvalue = 6.71E-03
 Guess from superposition of atomic densities
 Warning:  Energy on first SCF cycle will be non-variational
 SAD guess density has 26.000000 electrons
 Long-range K will be added via erf
 Coulomb attenuation parameter = 0.2 bohr**(-1)
 A restricted hybrid HF-DFT SCF calculation will be
 performed using Relaxed Constraint Minimization + Pulay DIIS
 Exchange:     0.2220 Hartree-Fock + 1.0000 wB97X-D + LR-HF
 Correlation:  1.0000 wB97X-D
 Using Euler-Maclaurin-Lebedev (75,302) quadrature formula
 Dispersion:   Grimme D
 SCF converges when DIIS error is below 1.0E-04
 using 3 threads for integral computing
 -------------------------------------------------------
 OpenMP Integral computing Module                
 Release: version 1.0, May 2013, Q-Chem Inc. Pittsburgh 
 -------------------------------------------------------
 using 3 threads for integral computing
 -------------------------------------------------------
 OpenMP Integral computing Module                
 Release: version 1.0, May 2013, Q-Chem Inc. Pittsburgh 
 -------------------------------------------------------
 ---------------------------------------
  Cycle       Energy         DIIS Error
 ---------------------------------------
    1    -119.9000677919      1.07E-01
    2    -119.0011218310      9.47E-03
    3    -119.0232352313      2.43E-03
    4    -119.0394629259      1.69E-03
    5    -119.0401102003      2.09E-04 Done RCA. Switching to DIIS
    6    -119.0406356282      1.54E-04
    7    -119.0406457181      2.64E-06 Convergence criterion met
 ---------------------------------------
 SCF time:  CPU 19.04 s  wall 6.84 s
 SCF   energy in the small basis set = -119.04064572
 Total energy in the small basis set = -119.04064572
 ----------------------------------------------------
  Cycle       Energy    
 ----------------------------------------------------
    1     -16.6052205847     -1.66E+01
 Long-range K will be added via erf
 Coulomb attenuation parameter = 0.2 bohr**(-1)
 A restricted hybrid HF-DFT SCF calculation will be
 performed using Relaxed Constraint Minimization + Pulay DIIS
 Exchange:     0.2220 Hartree-Fock + 1.0000 wB97X-D + LR-HF
 Correlation:  1.0000 wB97X-D
 Using Euler-Maclaurin-Lebedev (75,302) quadrature formula
 Dispersion:   Grimme D
 SCF converges when DIIS error is below 1.0E-05
 Basis2 calculation detected. Using small basis as guess for larger.
 SCFMinFind is unable to tell whether the solution found is close.
 Resetting ReadMinima to 0 and attempting to follow guess.
 SCFMinFind following SCF Guess.
 using 3 threads for integral computing
 -------------------------------------------------------
 OpenMP Integral computing Module                
 Release: version 1.0, May 2013, Q-Chem Inc. Pittsburgh 
 -------------------------------------------------------
 using 3 threads for integral computing
 -------------------------------------------------------
 OpenMP Integral computing Module                
 Release: version 1.0, May 2013, Q-Chem Inc. Pittsburgh 
 -------------------------------------------------------
 ---------------------------------------
  Cycle       Energy         DIIS Error
 ---------------------------------------
    1    -119.0630948704      4.21E-03
    2    -119.0847475290      6.16E-04 Done RCA. Switching to DIIS
    3    -119.0854623430      4.68E-04
    4    -119.0866394931      4.75E-05
    5    -119.0866554062      6.66E-06 Convergence criterion met
 ---------------------------------------
 SCF time:  CPU 47.03 s  wall 15.90 s
 SCF   energy in the final basis set = -119.08665541
 Total energy in the final basis set = -119.08665541
 
 --------------------------------------------------------------
 
                    Orbital Energies (a.u.)
 --------------------------------------------------------------
 
 Alpha MOs
 -- Occupied --
-10.2739 -10.2617 -10.2617  -0.9225  -0.7444  -0.7000  -0.5752  -0.5476
 -0.4589  -0.4440  -0.4318  -0.4229  -0.3832
 -- Virtual --
  0.0728   0.0830   0.0843   0.0978   0.1222   0.1336   0.1346   0.1357
  0.1367   0.1681   0.1754   0.1989   0.2009   0.2539   0.2650   0.2874
  0.2894   0.2907   0.3169   0.3320   0.3387   0.3702   0.4498   0.4664
  0.4759   0.4996   0.5022   0.5178   0.5245   0.5522   0.6178   0.6271
  0.6331   0.6355   0.6531   0.6540   0.6800   0.6877   0.6880   0.7375
  0.7389   0.8041   0.8101   0.8610   0.9156   0.9193   0.9193   0.9329
  1.0286   1.0405   1.0942   1.1629   1.1649   1.2236   1.2302   1.2569
  1.2575   1.2836   1.2888   1.2994   1.3001   1.3080   1.3614   1.3931
  1.4106   1.4160   1.4282   1.4570   1.4648   1.4804   1.5209   1.5413
  1.5463   1.5630   1.6050   1.6105   1.6531   1.7221   1.7232   1.7897
  1.8569   2.3972   2.4019   2.4736   2.5328   2.5378   2.6694   2.6979
  2.7556   2.7621   2.7746   2.8010   2.8398   2.8862   2.9046   2.9078
  2.9238   3.0405   3.0427   3.0447   3.0544   3.0631   3.0682   3.1049
  3.1516   3.1722   3.2010   3.2235   3.2854   3.2941   3.2981   3.3080
  3.3143   3.3433   3.3691   3.3957   3.4076   3.4103   3.4449   3.5033
  3.5095   3.5268   3.5328   3.5863   3.5888   3.6063   3.6364   3.6700
  3.7046   3.7115   3.7364   3.7723   3.7729   3.8566   3.8737   3.8832
  3.9412   3.9576   3.9718   4.0099   4.0468   4.0831   4.0896   4.1064
  4.1285   4.1545   4.1671   4.2187   4.2422   4.2661   4.2866   4.3305
  4.3684   4.3818   4.4052   4.4411   4.4684   4.4789   4.5056   4.5272
  4.5623   4.5832   4.6649   4.7601   4.8143   4.8179   4.8737   4.8838
  4.9269   4.9338   5.0035   5.0180   5.0881   5.1169   5.1229   5.2490
  5.2492   5.2633   5.2936   5.3660   5.3911   5.4110   5.4224   5.4250
  5.4692   5.4748   5.4959   5.6197   5.6436   5.7601   5.7918   5.8271
  6.0136   6.3884   6.4217   6.4239   6.4728   6.7398  25.1727  25.4149
 25.6277
 --------------------------------------------------------------
 
 -----------------------------------------------------------------
                    Cartesian Multipole Moments
 -----------------------------------------------------------------
    Charge (ESU x 10^10)
                -0.0000
    Dipole Moment (Debye)
         X      -0.0000      Y       0.0000      Z       0.0274
       Tot       0.0274
    Quadrupole Moments (Debye-Ang)
        XX     -23.4213     XY      -0.0000     YY     -21.0929
        XZ      -0.0000     YZ       0.0000     ZZ     -21.4309
    Octopole Moments (Debye-Ang^2)
       XXX      -0.0000    XXY       0.0000    XYY      -0.0000
       YYY       0.0000    XXZ       0.3890    XYZ       0.0000
       YYZ       1.1771    XZZ      -0.0000    YZZ       0.0000
       ZZZ       2.0342
    Hexadecapole Moments (Debye-Ang^3)
      XXXX    -144.8546   XXXY      -0.0001   XXYY     -33.8152
      XYYY      -0.0000   YYYY     -42.6664   XXXZ       0.0000
      XXYZ      -0.0000   XYYZ      -0.0000   YYYZ      -0.0001
      XXZZ     -40.4125   XYZZ      -0.0000   YYZZ     -18.6316
      XZZZ       0.0000   YZZZ      -0.0000   ZZZZ     -83.8666
 -----------------------------------------------------------------
Archival summary:
1\1\centos77-c1\SP\ProcedureUnspecified\BasisUnspecified\38\shihchen\ThuJul204:29:022020ThuJul204:29:022020\0\\#,ProcedureUnspecified,BasisUnspecified,\\0,1\C\H,1,1.09031\H,1,1.09031,2,108.134\C,1,1.50107,2,115.433,3,131.005,0\H,4,1.08745,1,121.083,2,-63.7131,0\H,4,1.09301,1,105.9,2,172.076,0\H,4,1.09301,1,105.9,2,60.498,0\C,1,1.50107,2,115.433,3,-131.005,0\H,8,1.08745,1,121.083,2,63.7127,0\H,8,1.09301,1,105.9,2,-172.076,0\H,8,1.09301,1,105.9,2,-60.4983,0\\\@

 Total job time:  25.74s(wall), 69.75s(cpu) 
 Thu Jul  2 04:29:02 2020

        *************************************************************
        *                                                           *
        *  Thank you very much for using Q-Chem.  Have a nice day.  *
        *                                                           *
        *************************************************************


