                  Welcome to Q-Chem
     A Quantum Leap Into The Future Of Chemistry


 Q-Chem 5.3 (devel), Q-Chem, Inc., Pleasanton, CA (2020)

 Yihan Shao,  Zhengting Gan,  E. Epifanovsky,  A. T. B. Gilbert,  M. Wormit,  
 J. Kussmann,  A. W. Lange,  A. Behn,  Jia Deng,  Xintian Feng,  D. Ghosh,  
 M. Goldey,  P. R. Horn,  L. D. Jacobson,  I. Kaliman,  T. Kus,  A. Landau,  
 Jie Liu,  E. I. Proynov,  R. M. Richard,  R. P. Steele,  E. J. Sundstrom,  
 H. L. Woodcock III,  P. M. Zimmerman,  D. Zuev,  B. Alam,  B. Albrecht,  
 E. Alguire,  S. A. Baeppler,  D. Barton,  Z. Benda,  Y. A. Bernard,  
 E. J. Berquist,  K. B. Bravaya,  H. Burton,  K. Carter-Fenk,  D. Casanova,  
 Chun-Min Chang,  Yunqing Chen,  A. Chien,  K. D. Closser,  M. P. Coons,  
 S. Coriani,  S. Dasgupta,  A. L. Dempwolff,  M. Diedenhofen,  Hainam Do,  
 R. G. Edgar,  Po-Tung Fang,  S. Faraji,  S. Fatehi,  Qingguo Feng,  
 J. Fosso-Tande,  J. Gayvert,  Qinghui Ge,  A. Ghysels,  G. Gidofalvi,  
 J. Gomes,  J. Gonthier,  A. Gunina,  D. Hait,  M. W. D. Hanson-Heine,  
 P. H. P. Harbach,  A. W. Hauser,  M. F. Herbst,  J. E. Herr,  
 E. G. Hohenstein,  Z. C. Holden,  Kerwin Hui,  B. C. Huynh,  T.-C. Jagau,  
 Hyunjun Ji,  B. Kaduk,  K. Khistyaev,  Jaehoon Kim,  P. Klunzinger,  K. Koh,  
 D. Kosenkov,  L. Koulias,  T. Kowalczyk,  C. M. Krauter,  A. Kunitsa,  
 Ka Un Lao,  A. Laurent,  K. V. Lawler,  Joonho Lee,  D. Lefrancois,  
 S. Lehtola,  D. S. Levine,  Yi-Pei Li,  You-Sheng Lin,  Fenglai Liu,  
 Kuan-Yu Liu,  E. Livshits,  M. Loipersberger,  A. Luenser,  P. Manohar,  
 E. Mansoor,  S. F. Manzer,  Shan-Ping Mao,  Yuezhi Mao,  N. Mardirossian,  
 A. V. Marenich,  T. Markovich,  L. A. Martinez-Martinez,  S. A. Maurer,  
 N. J. Mayhall,  S. C. McKenzie,  J.-M. Mewes,  P. Morgante,  A. F. Morrison,  
 J. W. Mullinax,  K. Nanda,  T. S. Nguyen-Beck,  R. Olivares-Amaya,  
 K. J. Oosterbaan,  J. A. Parkhill,  S. K. Paul,  F. Pavosevic,  Zheng Pei,  
 T. M. Perrine,  F. Plasser,  P. Pokhilko,  S. Prager,  A. Prociuk,  
 E. Ramos,  B. Rana,  D. R. Rehn,  F. Rob,  M. Scheurer,  M. Schneider,  
 N. Sergueev,  S. M. Sharada,  S. Sharma,  D. W. Small,  T. Stauch,  
 C. J. Stein,  T. Stein,  Yu-Chuan Su,  S. P. Veccham,  Zhen Tao,  
 A. J. W. Thom,  A. Tkatchenko,  T. Tsuchimochi,  N. M. Tubman,  L. Vogt,  
 M. L. Vidal,  O. Vydrov,  M. A. Watson,  J. Wenzel,  M. de Wergifosse,  
 T. A. Wesolowski,  A. White,  J. Witte,  A. Yamada,  Jun Yang,  K. Yao,  
 S. Yeganeh,  S. R. Yost,  Zhi-Qiang You,  A. Zech,  Igor Ying Zhang,  
 Xing Zhang,  Yan Zhao,  Ying Zhu,  B. R. Brooks,  G. K. L. Chan,  
 C. J. Cramer,  M. S. Gordon,  W. J. Hehre,  A. Klamt,  M. W. Schmidt,  
 C. D. Sherrill,  D. G. Truhlar,  A. Aspuru-Guzik,  R. Baer,  A. T. Bell,  
 N. A. Besley,  Jeng-Da Chai,  A. E. DePrince, III,  R. A. DiStasio Jr.,  
 A. Dreuw,  B. D. Dunietz,  T. R. Furlani,  Chao-Ping Hsu,  Yousung Jung,  
 Jing Kong,  D. S. Lambrecht,  WanZhen Liang,  C. Ochsenfeld,  
 V. A. Rassolov,  L. V. Slipchenko,  J. E. Subotnik,  T. Van Voorhis,  
 J. M. Herbert,  A. I. Krylov,  P. M. W. Gill,  M. Head-Gordon

 Contributors to earlier versions of Q-Chem not listed above: 
 R. D. Adamson,  B. Austin,  J. Baker,  G. J. O. Beran,  K. Brandhorst,  
 S. T. Brown,  E. F. C. Byrd,  A. K. Chakraborty,  C.-L. Cheng,  
 Siu Hung Chien,  D. M. Chipman,  D. L. Crittenden,  H. Dachsel,  
 R. J. Doerksen,  A. D. Dutoi,  L. Fusti-Molnar,  W. A. Goddard III,  
 A. Golubeva-Zadorozhnaya,  S. R. Gwaltney,  G. Hawkins,  A. Heyden,  
 S. Hirata,  G. Kedziora,  F. J. Keil,  C. Kelley,  Jihan Kim,  R. A. King,  
 R. Z. Khaliullin,  P. P. Korambath,  W. Kurlancheek,  A. M. Lee,  M. S. Lee,  
 S. V. Levchenko,  Ching Yeh Lin,  D. Liotard,  R. C. Lochan,  I. Lotan,  
 P. E. Maslen,  N. Nair,  D. P. O'Neill,  D. Neuhauser,  E. Neuscamman,  
 C. M. Oana,  R. Olson,  B. Peters,  R. Peverati,  P. A. Pieniazek,  
 Y. M. Rhee,  J. Ritchie,  M. A. Rohrdanz,  E. Rosta,  N. J. Russ,  
 H. F. Schaefer III,  N. E. Schultz,  N. Shenvi,  A. C. Simmonett,  A. Sodt,  
 D. Stuck,  K. S. Thanthiriwatte,  V. Vanovschi,  Tao Wang,  A. Warshel,  
 C. F. Williams,  Q. Wu,  X. Xu,  W. Zhang

 Please cite Q-Chem as follows:
 Y. Shao et al., Mol. Phys. 113, 184-215 (2015)
 DOI: 10.1080/00268976.2014.952696

 Q-Chem 5.3.0 for Intel X86 EM64T Linux

 Parts of Q-Chem use Armadillo 9.800.1 (Horizon Scraper).
 http://arma.sourceforge.net/

 Q-Chem begins on Thu Jul  2 03:29:29 2020  

Host: centos77-c1
0

     Scratch files written to /tmp/26650.centos77-h1/qchem68304//
Processing $rem in /opt/qchem-5.3.0-intel2020u1//config/preferences:
Processing $rem in /home/shihchengli/.qchemrc:

Checking the input file for inconsistencies... 	...done.

--------------------------------------------------------------
User input:
--------------------------------------------------------------
$rem
   JOBTYPE  sp
   EXCHANGE   omegaB97X-D
   BASIS   6-311+G(2df,2pd)
   max_scf_cycles   250
   geom_opt_max_cycles   1500
   basis2 6-31G*
   scf_algorithm rca_diis
   SYM_IGNORE  TRUE
   print_input   true
   geom_opt_dmax   80
   pop_mulliken false
   XC_GRID 000075000302
$end

$molecule
0 1
C       0.9684046851     0.8171889132     0.2513722566
C       0.0000063334     -0.0000182514     -0.5954463299
H       1.9711099694     0.9000256653     -0.1859976177
H       1.0711758987     0.3294280236     1.2169602295
H       0.5908009608     1.8237552363     0.4340259634
C       -0.9684112030     -0.8171753343     0.2513982318
H       0.4309529843     -0.7629175632     -1.2481545687
H       -0.4309234663     0.7628417547     -1.2482101345
H       -1.0710841677     -0.3294353078     1.2170085638
H       -0.5908819253     -1.8237778911     0.4340055661
H       -1.9711501301     -0.8999145793     -0.1859171416
$end
--------------------------------------------------------------
 ----------------------------------------------------------------
             Standard Nuclear Orientation (Angstroms)
    I     Atom           X                Y                Z
 ----------------------------------------------------------------
    1      C       0.9684046851     0.8171889132     0.2513722566
    2      C       0.0000063334    -0.0000182514    -0.5954463299
    3      H       1.9711099694     0.9000256653    -0.1859976177
    4      H       1.0711758987     0.3294280236     1.2169602295
    5      H       0.5908009608     1.8237552363     0.4340259634
    6      C      -0.9684112030    -0.8171753343     0.2513982318
    7      H       0.4309529843    -0.7629175632    -1.2481545687
    8      H      -0.4309234663     0.7628417547    -1.2482101345
    9      H      -1.0710841677    -0.3294353078     1.2170085638
   10      H      -0.5908819253    -1.8237778911     0.4340055661
   11      H      -1.9711501301    -0.8999145793    -0.1859171416
 ----------------------------------------------------------------
 Nuclear Repulsion Energy =          82.84357352 hartrees
 There are       13 alpha and       13 beta electrons
 Requested basis set is 6-311+G(2df,2pd)
 There are 72 shells and 214 basis functions

 Total QAlloc Memory Limit   2000 MB
 Mega-Array Size       188 MB
 MEM_STATIC part       192 MB

                       Distance Matrix (Angstroms)
             C (  1)   C (  2)   H (  3)   H (  4)   H (  5)   C (  6)
   C (  2)  1.524049
   H (  3)  1.097074  2.205216
   H (  4)  1.086661  2.130905  1.761747
   H (  5)  1.090469  2.176006  1.772839  1.754070
   C (  6)  2.534246  1.524049  3.432329  2.531190  3.072297
   H (  7)  2.243696  1.092593  2.503126  2.771262  3.089686  2.051785
   H (  8)  2.051785  1.092592  2.629996  2.919112  2.235929  2.243696
   H (  9)  2.531149  2.130902  3.568606  2.241290  2.830398  1.086662
   H ( 10)  3.072366  2.176010  3.790424  2.830503  3.834172  1.090469
   H ( 11)  3.432295  2.205218  4.333728  3.568627  3.790290  1.097076
             H (  7)   H (  8)   H (  9)   H ( 10)
   H (  8)  1.752362
   H (  9)  2.919084  2.771313
   H ( 10)  2.235897  3.089666  1.754066
   H ( 11)  2.630060  2.503103  1.761751  1.772842
 
 A cutoff of  1.0D-09 yielded   2533 shell pairs
 There are     22491 function pairs (     27651 Cartesian)
 Smallest overlap matrix eigenvalue = 8.62E-05

 Scale SEOQF with 1.000000e-01/1.000000e-01/1.000000e-01

 Standard Electronic Orientation quadrupole field applied
 Nucleus-field energy     =     0.0000000011 hartrees
 Requested basis set is 6-31G(d)
 There are 28 shells and 58 basis functions
 A cutoff of  1.0D-09 yielded    402 shell pairs
 There are      1773 function pairs (      1968 Cartesian)
 Smallest overlap matrix eigenvalue = 6.38E-03
 Guess from superposition of atomic densities
 Warning:  Energy on first SCF cycle will be non-variational
 SAD guess density has 26.000000 electrons
 Long-range K will be added via erf
 Coulomb attenuation parameter = 0.2 bohr**(-1)
 A restricted hybrid HF-DFT SCF calculation will be
 performed using Relaxed Constraint Minimization + Pulay DIIS
 Exchange:     0.2220 Hartree-Fock + 1.0000 wB97X-D + LR-HF
 Correlation:  1.0000 wB97X-D
 Using Euler-Maclaurin-Lebedev (75,302) quadrature formula
 Dispersion:   Grimme D
 SCF converges when DIIS error is below 1.0E-04
 using 3 threads for integral computing
 -------------------------------------------------------
 OpenMP Integral computing Module                
 Release: version 1.0, May 2013, Q-Chem Inc. Pittsburgh 
 -------------------------------------------------------
 using 3 threads for integral computing
 -------------------------------------------------------
 OpenMP Integral computing Module                
 Release: version 1.0, May 2013, Q-Chem Inc. Pittsburgh 
 -------------------------------------------------------
 ---------------------------------------
  Cycle       Energy         DIIS Error
 ---------------------------------------
    1    -119.6320362802      1.01E-01
    2    -119.0542758561      9.01E-03
    3    -119.0753711118      2.47E-03
    4    -119.0892296574      1.70E-03
    5    -119.0899372721      2.67E-04 Done RCA. Switching to DIIS
    6    -119.0904570203      1.99E-04
    7    -119.0904741438      4.51E-06 Convergence criterion met
 ---------------------------------------
 SCF time:  CPU 19.21 s  wall 6.96 s
 SCF   energy in the small basis set = -119.09047414
 Total energy in the small basis set = -119.09047414
 ----------------------------------------------------
  Cycle       Energy    
 ----------------------------------------------------
    1     -16.5438447797     -1.65E+01
 Long-range K will be added via erf
 Coulomb attenuation parameter = 0.2 bohr**(-1)
 A restricted hybrid HF-DFT SCF calculation will be
 performed using Relaxed Constraint Minimization + Pulay DIIS
 Exchange:     0.2220 Hartree-Fock + 1.0000 wB97X-D + LR-HF
 Correlation:  1.0000 wB97X-D
 Using Euler-Maclaurin-Lebedev (75,302) quadrature formula
 Dispersion:   Grimme D
 SCF converges when DIIS error is below 1.0E-05
 Basis2 calculation detected. Using small basis as guess for larger.
 SCFMinFind is unable to tell whether the solution found is close.
 Resetting ReadMinima to 0 and attempting to follow guess.
 SCFMinFind following SCF Guess.
 using 3 threads for integral computing
 -------------------------------------------------------
 OpenMP Integral computing Module                
 Release: version 1.0, May 2013, Q-Chem Inc. Pittsburgh 
 -------------------------------------------------------
 using 3 threads for integral computing
 -------------------------------------------------------
 OpenMP Integral computing Module                
 Release: version 1.0, May 2013, Q-Chem Inc. Pittsburgh 
 -------------------------------------------------------
 ---------------------------------------
  Cycle       Energy         DIIS Error
 ---------------------------------------
    1    -119.1099729318      4.21E-03
    2    -119.1319922106      6.03E-04 Done RCA. Switching to DIIS
    3    -119.1328313767      4.26E-04
    4    -119.1338247429      4.55E-05
    5    -119.1338395569      1.06E-05
    6    -119.1338403081      4.12E-06 Convergence criterion met
 ---------------------------------------
 SCF time:  CPU 51.95 s  wall 17.64 s
 SCF   energy in the final basis set = -119.13384031
 Total energy in the final basis set = -119.13384031
 
 --------------------------------------------------------------
 
                    Orbital Energies (a.u.)
 --------------------------------------------------------------
 
 Alpha MOs
 -- Occupied --
-10.2724 -10.2652 -10.2652  -0.8826  -0.7771  -0.6783  -0.5460  -0.5288
 -0.4766  -0.4706  -0.4245  -0.4149  -0.3937
 -- Virtual --
  0.0703   0.0868   0.0909   0.1012   0.1216   0.1297   0.1312   0.1390
  0.1459   0.1669   0.1746   0.1909   0.2072   0.2445   0.2555   0.2634
  0.2916   0.3031   0.3099   0.3235   0.3317   0.3492   0.4558   0.4791
  0.4861   0.4939   0.5093   0.5165   0.5406   0.5597   0.5812   0.5919
  0.6024   0.6209   0.6378   0.6382   0.6526   0.6678   0.7032   0.7122
  0.7261   0.7644   0.7954   0.8325   0.8722   0.9276   0.9587   0.9738
  1.0507   1.0583   1.0808   1.0939   1.1052   1.1662   1.1949   1.1959
  1.2249   1.2313   1.2578   1.2954   1.3059   1.3153   1.3349   1.3701
  1.3916   1.4182   1.4192   1.4403   1.4635   1.4683   1.4847   1.5136
  1.5189   1.5290   1.5644   1.5678   1.6511   1.6560   1.6600   1.6692
  1.7286   2.3509   2.3639   2.4435   2.4666   2.5612   2.5965   2.6443
  2.6896   2.6906   2.7492   2.8149   2.8524   2.8945   2.9274   2.9328
  2.9389   2.9781   3.0315   3.0385   3.0423   3.0840   3.0951   3.1061
  3.1316   3.1371   3.1710   3.1827   3.2111   3.2309   3.2796   3.2871
  3.3254   3.3257   3.3432   3.3613   3.3873   3.3926   3.3970   3.4189
  3.4572   3.4662   3.4989   3.5509   3.5761   3.5954   3.6028   3.6430
  3.6530   3.6597   3.6986   3.7065   3.7459   3.7738   3.7944   3.8334
  3.8615   3.8846   3.9547   3.9721   3.9916   4.0138   4.0214   4.0587
  4.0591   4.1178   4.1241   4.1522   4.1655   4.1915   4.1955   4.2497
  4.2603   4.2735   4.2901   4.3129   4.3479   4.4173   4.4374   4.4500
  4.4683   4.4963   4.5440   4.6227   4.7204   4.8317   4.8658   4.8800
  4.8999   4.9363   4.9661   4.9675   5.0269   5.0658   5.0769   5.1071
  5.1797   5.1941   5.2237   5.2295   5.2918   5.2964   5.3325   5.3699
  5.3752   5.3888   5.4138   5.4756   5.5177   5.5886   5.6072   5.7382
  5.9822   6.3356   6.3890   6.3978   6.4418   6.4953  25.1416  25.3998
 25.4546
 --------------------------------------------------------------
 
 -----------------------------------------------------------------
                    Cartesian Multipole Moments
 -----------------------------------------------------------------
    Charge (ESU x 10^10)
                -0.0000
    Dipole Moment (Debye)
         X       0.0000      Y       0.0000      Z      -0.0558
       Tot       0.0558
    Quadrupole Moments (Debye-Ang)
        XX     -22.0906     XY      -0.3278     YY     -21.2535
        XZ       0.0000     YZ      -0.0000     ZZ     -22.0844
    Octopole Moments (Debye-Ang^2)
       XXX      -0.0001    XXY       0.0001    XYY       0.0000
       YYY      -0.0001    XXZ      -1.1416    XYZ      -0.3348
       YYZ      -0.4281    XZZ       0.0001    YZZ       0.0001
       ZZZ       0.6400
    Hexadecapole Moments (Debye-Ang^3)
      XXXX    -132.7356   XXXY     -37.9300   XXYY     -42.7467
      XYYY     -40.7735   YYYY    -106.6961   XXXZ       0.0008
      XXYZ      -0.0001   XYYZ       0.0001   YYYZ       0.0003
      XXZZ     -35.0932   XYZZ     -14.0886   YYZZ     -30.3567
      XZZZ       0.0009   YZZZ       0.0001   ZZZZ     -71.0866
 -----------------------------------------------------------------
Archival summary:
1\1\centos77-c1\SP\ProcedureUnspecified\BasisUnspecified\38\shihchen\ThuJul203:29:562020ThuJul203:29:562020\0\\#,ProcedureUnspecified,BasisUnspecified,\\0,1\C\H,1,1.09259\H,1,1.09259,2,106.629\C,1,1.52405,2,117.111,3,-113.391,0\H,4,1.08666,1,108.248,2,-92.545,0\H,4,1.09047,1,111.592,2,149.537,0\H,4,1.09708,1,113.561,2,26.8191,0\C,1,1.52405,2,102.016,3,123.356,0\H,8,1.08666,1,108.249,2,151.507,0\H,8,1.09047,1,111.592,2,33.5885,0\H,8,1.09707,1,113.561,2,-89.1284,0\\\@

 Total job time:  27.52s(wall), 74.74s(cpu) 
 Thu Jul  2 03:29:56 2020

        *************************************************************
        *                                                           *
        *  Thank you very much for using Q-Chem.  Have a nice day.  *
        *                                                           *
        *************************************************************


