                  Welcome to Q-Chem
     A Quantum Leap Into The Future Of Chemistry


 Q-Chem 5.2 (devel), Q-Chem, Inc., Pleasanton, CA (2019)

 Yihan Shao,  Zhengting Gan,  E. Epifanovsky,  A. T. B. Gilbert,  M. Wormit,  
 J. Kussmann,  A. W. Lange,  A. Behn,  Jia Deng,  Xintian Feng,  D. Ghosh,  
 M. Goldey,  P. R. Horn,  L. D. Jacobson,  I. Kaliman,  T. Kus,  A. Landau,  
 Jie Liu,  E. I. Proynov,  R. M. Richard,  R. P. Steele,  E. J. Sundstrom,  
 H. L. Woodcock III,  P. M. Zimmerman,  D. Zuev,  B. Alam,  B. Albrecht,  
 E. Alguire,  S. A. Baeppler,  D. Barton,  Z. Benda,  Y. A. Bernard,  
 E. J. Berquist,  K. B. Bravaya,  H. Burton,  K. Carter-Fenk,  D. Casanova,  
 Chun-Min Chang,  Yunqing Chen,  A. Chien,  K. D. Closser,  M. P. Coons,  
 S. Coriani,  S. Dasgupta,  A. L. Dempwolff,  M. Diedenhofen,  Hainam Do,  
 R. G. Edgar,  Po-Tung Fang,  S. Faraji,  S. Fatehi,  Qingguo Feng,  
 J. Fosso-Tande,  J. Gayvert,  Qinghui Ge,  A. Ghysels,  G. Gidofalvi,  
 J. Gomes,  J. Gonthier,  A. Gunina,  D. Hait,  M. W. D. Hanson-Heine,  
 P. H. P. Harbach,  A. W. Hauser,  M. F. Herbst,  J. E. Herr,  
 E. G. Hohenstein,  Z. C. Holden,  Kerwin Hui,  B. C. Huynh,  T.-C. Jagau,  
 Hyunjun Ji,  B. Kaduk,  K. Khistyaev,  Jaehoon Kim,  P. Klunzinger,  K. Koh,  
 D. Kosenkov,  L. Koulias,  T. Kowalczyk,  C. M. Krauter,  A. Kunitsa,  
 Ka Un Lao,  A. Laurent,  K. V. Lawler,  Joonho Lee,  D. Lefrancois,  
 S. Lehtola,  D. S. Levine,  Yi-Pei Li,  You-Sheng Lin,  Fenglai Liu,  
 Kuan-Yu Liu,  E. Livshits,  M. Loipersberger,  A. Luenser,  P. Manohar,  
 E. Mansoor,  S. F. Manzer,  Shan-Ping Mao,  Yuezhi Mao,  N. Mardirossian,  
 A. V. Marenich,  T. Markovich,  L. A. Martinez-Martinez,  S. A. Maurer,  
 N. J. Mayhall,  S. C. McKenzie,  J.-M. Mewes,  P. Morgante,  A. F. Morrison,  
 J. W. Mullinax,  K. Nanda,  T. S. Nguyen-Beck,  R. Olivares-Amaya,  
 J. A. Parkhill,  S. K. Paul,  Zheng Pei,  T. M. Perrine,  F. Plasser,  
 P. Pokhilko,  S. Prager,  A. Prociuk,  E. Ramos,  B. Rana,  D. R. Rehn,  
 F. Rob,  M. Scheurer,  M. Schneider,  N. Sergueev,  S. M. Sharada,  
 S. Sharma,  D. W. Small,  T. Stauch,  C. J. Stein,  T. Stein,  Yu-Chuan Su,  
 S. P. Veccham,  A. J. W. Thom,  A. Tkatchenko,  T. Tsuchimochi,  
 N. M. Tubman,  L. Vogt,  M. L. Vidal,  O. Vydrov,  M. A. Watson,  J. Wenzel,  
 M. de Wergifosse,  T. A. Wesolowski,  A. White,  J. Witte,  A. Yamada,  
 Jun Yang,  K. Yao,  S. Yeganeh,  S. R. Yost,  Zhi-Qiang You,  A. Zech,  
 Igor Ying Zhang,  Xing Zhang,  Yan Zhao,  Ying Zhu,  B. R. Brooks,  
 G. K. L. Chan,  C. J. Cramer,  M. S. Gordon,  W. J. Hehre,  A. Klamt,  
 M. W. Schmidt,  C. D. Sherrill,  D. G. Truhlar,  A. Aspuru-Guzik,  R. Baer,  
 A. T. Bell,  N. A. Besley,  Jeng-Da Chai,  A. E. DePrince, III,  
 R. A. DiStasio Jr.,  A. Dreuw,  B. D. Dunietz,  T. R. Furlani,  
 Chao-Ping Hsu,  Yousung Jung,  Jing Kong,  D. S. Lambrecht,  WanZhen Liang,  
 C. Ochsenfeld,  V. A. Rassolov,  L. V. Slipchenko,  J. E. Subotnik,  
 T. Van Voorhis,  J. M. Herbert,  A. I. Krylov,  P. M. W. Gill,  M. Head-Gordon

 Contributors to earlier versions of Q-Chem not listed above: 
 R. D. Adamson,  B. Austin,  J. Baker,  G. J. O. Beran,  K. Brandhorst,  
 S. T. Brown,  E. F. C. Byrd,  A. K. Chakraborty,  C.-L. Cheng,  
 Siu Hung Chien,  D. M. Chipman,  D. L. Crittenden,  H. Dachsel,  
 R. J. Doerksen,  A. D. Dutoi,  L. Fusti-Molnar,  W. A. Goddard III,  
 A. Golubeva-Zadorozhnaya,  S. R. Gwaltney,  G. Hawkins,  A. Heyden,  
 S. Hirata,  G. Kedziora,  F. J. Keil,  C. Kelley,  Jihan Kim,  R. A. King,  
 R. Z. Khaliullin,  P. P. Korambath,  W. Kurlancheek,  A. M. Lee,  M. S. Lee,  
 S. V. Levchenko,  Ching Yeh Lin,  D. Liotard,  R. C. Lochan,  I. Lotan,  
 P. E. Maslen,  N. Nair,  D. P. O'Neill,  D. Neuhauser,  E. Neuscamman,  
 C. M. Oana,  R. Olson,  B. Peters,  R. Peverati,  P. A. Pieniazek,  
 Y. M. Rhee,  J. Ritchie,  M. A. Rohrdanz,  E. Rosta,  N. J. Russ,  
 H. F. Schaefer III,  N. E. Schultz,  N. Shenvi,  A. C. Simmonett,  A. Sodt,  
 D. Stuck,  K. S. Thanthiriwatte,  V. Vanovschi,  Tao Wang,  A. Warshel,  
 C. F. Williams,  Q. Wu,  X. Xu,  W. Zhang

 Please cite Q-Chem as follows:
 Y. Shao et al., Mol. Phys. 113, 184-215 (2015)
 DOI: 10.1080/00268976.2014.952696

 Q-Chem 5.2.2 for Intel X86 EM64T Linux

 Parts of Q-Chem use Armadillo 9.800.1 (Horizon Scraper).
 http://arma.sourceforge.net/

 Q-Chem begins on Sun Apr 12 07:04:52 2020  

Host: cn0913
0

     Scratch files written to /tmp/ypli/6721341.srvc1/qchem241530//
Warning:  Did not find "$end" marker in "$molecule" section

Checking the input file for inconsistencies... 	...done.

--------------------------------------------------------------
User input:
--------------------------------------------------------------
$rem
   JOBTYPE  sp
   EXCHANGE   omegaB97X-D
   BASIS   6-311+G(2df,2pd)
   max_scf_cycles   250
   geom_opt_max_cycles   1500
   basis2 6-31G*
   scf_algorithm rca_diis
   SYM_IGNORE  TRUE
   print_input   true
   geom_opt_dmax   80
   pop_mulliken false
   XC_GRID 000075000302
$end

$molecule
0 1
C       1.2471280539     -0.0000012258     0.3352634455
C       -0.0000000498     -0.0000026965     -0.4925429513
H       1.3387787638     -0.9789611197     0.8014623931
H       1.3387812285     0.9789596530     0.8014601938
H       2.2217580838     0.0000054809     -0.1647980242
C       -1.2471281084     -0.0000016412     0.3352629866
H       0.0000003179     -0.6783850175     -1.3565956765
H       0.0000003052     0.6783816231     -1.3565940592
H       -1.3387779837     -0.9789605402     0.8014641137
H       -2.2217579442     0.0000077330     -0.1647987946
H       -1.3387827276     0.9789584168     0.8014613920
--------------------------------------------------------------
 ----------------------------------------------------------------
             Standard Nuclear Orientation (Angstroms)
    I     Atom           X                Y                Z
 ----------------------------------------------------------------
    1      C       1.2471280539    -0.0000012258     0.3352634455
    2      C      -0.0000000498    -0.0000026965    -0.4925429513
    3      H       1.3387787638    -0.9789611197     0.8014623931
    4      H       1.3387812285     0.9789596530     0.8014601938
    5      H       2.2217580838     0.0000054809    -0.1647980242
    6      C      -1.2471281084    -0.0000016412     0.3352629866
    7      H       0.0000003179    -0.6783850175    -1.3565956765
    8      H       0.0000003052     0.6783816231    -1.3565940592
    9      H      -1.3387779837    -0.9789605402     0.8014641137
   10      H      -2.2217579442     0.0000077330    -0.1647987946
   11      H      -1.3387827276     0.9789584168     0.8014613920
 ----------------------------------------------------------------
 Nuclear Repulsion Energy =          83.24276349 hartrees
 There are       13 alpha and       13 beta electrons
 Requested basis set is 6-311+G(2df,2pd)
 There are 72 shells and 214 basis functions

 Total QAlloc Memory Limit   2000 MB
 Mega-Array Size       188 MB
 MEM_STATIC part       192 MB

                       Distance Matrix (Angstroms)
             C (  1)   C (  2)   H (  3)   H (  4)   H (  5)   C (  6)
   C (  2)  1.496861
   H (  3)  1.088165  2.103601
   H (  4)  1.088165  2.103603  1.957921
   H (  5)  1.095429  2.245802  1.634530  1.634520
   C (  6)  2.494256  1.496860  2.804036  2.804039  3.504744
   H (  7)  2.208601  1.098540  2.557321  3.032545  2.610901  2.208601
   H (  8)  2.208600  1.098540  3.032544  2.557319  2.610896  2.208600
   H (  9)  2.804035  2.103601  2.677557  3.317043  3.816995  1.088165
   H ( 10)  3.504744  2.245801  3.816997  3.816994  4.443516  1.095429
   H ( 11)  2.804039  2.103604  3.317045  2.677564  3.816996  1.088166
             H (  7)   H (  8)   H (  9)   H ( 10)
   H (  8)  1.356767
   H (  9)  2.557322  3.032544
   H ( 10)  2.610901  2.610896  1.634533
   H ( 11)  3.032546  2.557321  1.957919  1.634518
 
 A cutoff of  1.0D-09 yielded   2520 shell pairs
 There are     22474 function pairs (     27639 Cartesian)
 Smallest overlap matrix eigenvalue = 1.08E-04

 Scale SEOQF with 1.000000e-01/1.000000e-01/1.000000e-01

 Standard Electronic Orientation quadrupole field applied
 Nucleus-field energy     =     0.0000000006 hartrees
 Requested basis set is 6-31G(d)
 There are 28 shells and 58 basis functions
 A cutoff of  1.0D-09 yielded    402 shell pairs
 There are      1773 function pairs (      1968 Cartesian)
 Smallest overlap matrix eigenvalue = 7.77E-03
 Guess from superposition of atomic densities
 Warning:  Energy on first SCF cycle will be non-variational
 SAD guess density has 26.000000 electrons
 Long-range K will be added via erf
 Coulomb attenuation parameter = 0.2 bohr**(-1)
 A restricted hybrid HF-DFT SCF calculation will be
 performed using Relaxed Constraint Minimization + Pulay DIIS
 Exchange:     0.2220 Hartree-Fock + 1.0000 wB97X-D + LR-HF
 Correlation:  1.0000 wB97X-D
 Using Euler-Maclaurin-Lebedev (75,302) quadrature formula
 Dispersion:   Grimme D
 SCF converges when DIIS error is below 1.0E-04
 using 3 threads for integral computing
 -------------------------------------------------------
 OpenMP Integral computing Module                
 Release: version 1.0, May 2013, Q-Chem Inc. Pittsburgh 
 -------------------------------------------------------
 using 3 threads for integral computing
 -------------------------------------------------------
 OpenMP Integral computing Module                
 Release: version 1.0, May 2013, Q-Chem Inc. Pittsburgh 
 -------------------------------------------------------
 ---------------------------------------
  Cycle       Energy         DIIS Error
 ---------------------------------------
    1    -119.7088387834      1.03E-01
    2    -119.0019331578      9.56E-03
    3    -119.0249658283      2.42E-03
    4    -119.0421270949      1.65E-03
    5    -119.0427777192      2.20E-04 Done RCA. Switching to DIIS
    6    -119.0433163229      1.54E-04
    7    -119.0433273984      8.50E-06 Convergence criterion met
 ---------------------------------------
 SCF time:  CPU 23.40 s  wall 7.97 s
 SCF   energy in the small basis set = -119.04332740
 Total energy in the small basis set = -119.04332740
 ----------------------------------------------------
  Cycle       Energy    
 ----------------------------------------------------
    1     -16.5476020592     -1.65E+01
 Long-range K will be added via erf
 Coulomb attenuation parameter = 0.2 bohr**(-1)
 A restricted hybrid HF-DFT SCF calculation will be
 performed using Relaxed Constraint Minimization + Pulay DIIS
 Exchange:     0.2220 Hartree-Fock + 1.0000 wB97X-D + LR-HF
 Correlation:  1.0000 wB97X-D
 Using Euler-Maclaurin-Lebedev (75,302) quadrature formula
 Dispersion:   Grimme D
 SCF converges when DIIS error is below 1.0E-05
 Basis2 calculation detected. Using small basis as guess for larger.
 SCFMinFind is unable to tell whether the solution found is close.
 Resetting ReadMinima to 0 and attempting to follow guess.
 SCFMinFind following SCF Guess.
 using 3 threads for integral computing
 -------------------------------------------------------
 OpenMP Integral computing Module                
 Release: version 1.0, May 2013, Q-Chem Inc. Pittsburgh 
 -------------------------------------------------------
 using 3 threads for integral computing
 -------------------------------------------------------
 OpenMP Integral computing Module                
 Release: version 1.0, May 2013, Q-Chem Inc. Pittsburgh 
 -------------------------------------------------------
 ---------------------------------------
  Cycle       Energy         DIIS Error
 ---------------------------------------
    1    -119.0660484304      4.21E-03
    2    -119.0878833759      6.30E-04 Done RCA. Switching to DIIS
    3    -119.0886685305      4.71E-04
    4    -119.0898812136      5.59E-05
    5    -119.0899020682      1.25E-05
    6    -119.0899032587      3.75E-06 Convergence criterion met
 ---------------------------------------
 SCF time:  CPU 69.26 s  wall 23.32 s
 SCF   energy in the final basis set = -119.08990326
 Total energy in the final basis set = -119.08990326
 
 --------------------------------------------------------------
 
                    Orbital Energies (a.u.)
 --------------------------------------------------------------
 
 Alpha MOs
 -- Occupied --
-10.2707 -10.2663 -10.2663  -0.8883  -0.7838  -0.6941  -0.5518  -0.5453
 -0.4970  -0.4550  -0.4177  -0.4024  -0.3695
 -- Virtual --
  0.0686   0.0834   0.0892   0.0952   0.1297   0.1303   0.1329   0.1360
  0.1479   0.1699   0.1713   0.1846   0.2323   0.2418   0.2601   0.2657
  0.2740   0.2772   0.2946   0.3137   0.3392   0.3512   0.4526   0.4770
  0.4836   0.5054   0.5061   0.5156   0.5654   0.5825   0.5872   0.6088
  0.6163   0.6242   0.6422   0.6452   0.6537   0.6829   0.6857   0.7238
  0.7287   0.7781   0.8110   0.8308   0.8527   0.8721   0.9233   0.9388
  1.0206   1.0501   1.0673   1.0856   1.1574   1.1975   1.1977   1.2028
  1.2067   1.2635   1.2846   1.2853   1.3040   1.3423   1.3480   1.3578
  1.3710   1.3932   1.3938   1.4399   1.4520   1.4609   1.4687   1.5153
  1.5455   1.5533   1.5754   1.6270   1.6734   1.7085   1.7264   1.7349
  1.7444   2.3579   2.4636   2.4782   2.5094   2.5991   2.6025   2.6261
  2.6810   2.6887   2.7849   2.8069   2.8148   2.8381   2.8687   2.8839
  2.8972   2.9395   3.0023   3.0348   3.0455   3.0830   3.0857   3.1186
  3.1675   3.1704   3.1722   3.1968   3.2284   3.2367   3.3125   3.3156
  3.3182   3.3540   3.3557   3.4021   3.4085   3.4366   3.4656   3.4838
  3.4853   3.5144   3.5202   3.5248   3.5604   3.5735   3.5772   3.5809
  3.5815   3.5920   3.6042   3.6250   3.7462   3.7745   3.8005   3.8349
  3.8386   3.8833   3.8875   3.9140   3.9845   4.0086   4.0203   4.0271
  4.0848   4.0861   4.1516   4.1663   4.1689   4.1940   4.2043   4.2421
  4.2628   4.2831   4.3423   4.3717   4.3873   4.4388   4.4583   4.4627
  4.5621   4.5630   4.6180   4.6192   4.6718   4.7003   4.7436   4.7777
  4.8185   4.8494   4.9330   4.9503   4.9886   5.0376   5.0585   5.1582
  5.2090   5.2497   5.2798   5.2834   5.3596   5.3962   5.4181   5.4703
  5.5479   5.6022   5.6154   5.6197   5.6499   5.7191   5.7524   5.8602
  6.1062   6.3049   6.3255   6.4414   6.4813   6.5158  25.1952  25.4307
 25.4609
 --------------------------------------------------------------
 
 -----------------------------------------------------------------
                    Cartesian Multipole Moments
 -----------------------------------------------------------------
    Charge (ESU x 10^10)
                -0.0000
    Dipole Moment (Debye)
         X       0.0000      Y       0.0000      Z      -0.4084
       Tot       0.4084
    Quadrupole Moments (Debye-Ang)
        XX     -21.2228     XY      -0.0000     YY     -21.1775
        XZ      -0.0000     YZ      -0.0000     ZZ     -22.5768
    Octopole Moments (Debye-Ang^2)
       XXX      -0.0000    XXY       0.0001    XYY       0.0000
       YYY       0.0001    XXZ      -1.2944    XYZ       0.0000
       YYZ       0.7709    XZZ      -0.0000    YZZ       0.0000
       ZZZ      -7.5507
    Hexadecapole Moments (Debye-Ang^3)
      XXXX    -196.0142   XXXY      -0.0000   XXYY     -39.5136
      XYYY       0.0000   YYYY     -43.6916   XXXZ      -0.0000
      XXYZ      -0.0000   XYYZ      -0.0000   YYYZ      -0.0000
      XXZZ     -48.2157   XYZZ       0.0000   YYZZ     -18.8009
      XZZZ      -0.0000   YZZZ      -0.0000   ZZZZ     -70.7689
 -----------------------------------------------------------------
Archival summary:
1\1\cn0913\SP\ProcedureUnspecified\BasisUnspecified\38\r0852400\SunApr1207:05:272020SunApr1207:05:272020\0\\#,ProcedureUnspecified,BasisUnspecified,\\0,1\C\H,1,1.09854\H,1,1.09854,2,76.2722\C,1,1.49686,2,115.784,3,-112.289,0\H,4,1.08817,1,107.885,2,152.334,0\H,4,1.08817,1,107.885,2,-65.7343,0\H,4,1.09543,1,119.264,2,43.299,0\C,1,1.49686,2,115.784,3,112.289,0\H,8,1.08817,1,107.885,2,-152.334,0\H,8,1.08817,1,107.885,2,65.7343,0\H,8,1.09543,1,119.264,2,-43.2992,0\\\@

 Total job time:  34.59s(wall), 96.75s(cpu) 
 Sun Apr 12 07:05:27 2020

        *************************************************************
        *                                                           *
        *  Thank you very much for using Q-Chem.  Have a nice day.  *
        *                                                           *
        *************************************************************


