                  Welcome to Q-Chem
     A Quantum Leap Into The Future Of Chemistry


 Q-Chem 5.3 (devel), Q-Chem, Inc., Pleasanton, CA (2020)

 Yihan Shao,  Zhengting Gan,  E. Epifanovsky,  A. T. B. Gilbert,  M. Wormit,  
 J. Kussmann,  A. W. Lange,  A. Behn,  Jia Deng,  Xintian Feng,  D. Ghosh,  
 M. Goldey,  P. R. Horn,  L. D. Jacobson,  I. Kaliman,  T. Kus,  A. Landau,  
 Jie Liu,  E. I. Proynov,  R. M. Richard,  R. P. Steele,  E. J. Sundstrom,  
 H. L. Woodcock III,  P. M. Zimmerman,  D. Zuev,  B. Alam,  B. Albrecht,  
 E. Alguire,  S. A. Baeppler,  D. Barton,  Z. Benda,  Y. A. Bernard,  
 E. J. Berquist,  K. B. Bravaya,  H. Burton,  K. Carter-Fenk,  D. Casanova,  
 Chun-Min Chang,  Yunqing Chen,  A. Chien,  K. D. Closser,  M. P. Coons,  
 S. Coriani,  S. Dasgupta,  A. L. Dempwolff,  M. Diedenhofen,  Hainam Do,  
 R. G. Edgar,  Po-Tung Fang,  S. Faraji,  S. Fatehi,  Qingguo Feng,  
 J. Fosso-Tande,  J. Gayvert,  Qinghui Ge,  A. Ghysels,  G. Gidofalvi,  
 J. Gomes,  J. Gonthier,  A. Gunina,  D. Hait,  M. W. D. Hanson-Heine,  
 P. H. P. Harbach,  A. W. Hauser,  M. F. Herbst,  J. E. Herr,  
 E. G. Hohenstein,  Z. C. Holden,  Kerwin Hui,  B. C. Huynh,  T.-C. Jagau,  
 Hyunjun Ji,  B. Kaduk,  K. Khistyaev,  Jaehoon Kim,  P. Klunzinger,  K. Koh,  
 D. Kosenkov,  L. Koulias,  T. Kowalczyk,  C. M. Krauter,  A. Kunitsa,  
 Ka Un Lao,  A. Laurent,  K. V. Lawler,  Joonho Lee,  D. Lefrancois,  
 S. Lehtola,  D. S. Levine,  Yi-Pei Li,  You-Sheng Lin,  Fenglai Liu,  
 Kuan-Yu Liu,  E. Livshits,  M. Loipersberger,  A. Luenser,  P. Manohar,  
 E. Mansoor,  S. F. Manzer,  Shan-Ping Mao,  Yuezhi Mao,  N. Mardirossian,  
 A. V. Marenich,  T. Markovich,  L. A. Martinez-Martinez,  S. A. Maurer,  
 N. J. Mayhall,  S. C. McKenzie,  J.-M. Mewes,  P. Morgante,  A. F. Morrison,  
 J. W. Mullinax,  K. Nanda,  T. S. Nguyen-Beck,  R. Olivares-Amaya,  
 K. J. Oosterbaan,  J. A. Parkhill,  S. K. Paul,  F. Pavosevic,  Zheng Pei,  
 T. M. Perrine,  F. Plasser,  P. Pokhilko,  S. Prager,  A. Prociuk,  
 E. Ramos,  B. Rana,  D. R. Rehn,  F. Rob,  M. Scheurer,  M. Schneider,  
 N. Sergueev,  S. M. Sharada,  S. Sharma,  D. W. Small,  T. Stauch,  
 C. J. Stein,  T. Stein,  Yu-Chuan Su,  S. P. Veccham,  Zhen Tao,  
 A. J. W. Thom,  A. Tkatchenko,  T. Tsuchimochi,  N. M. Tubman,  L. Vogt,  
 M. L. Vidal,  O. Vydrov,  M. A. Watson,  J. Wenzel,  M. de Wergifosse,  
 T. A. Wesolowski,  A. White,  J. Witte,  A. Yamada,  Jun Yang,  K. Yao,  
 S. Yeganeh,  S. R. Yost,  Zhi-Qiang You,  A. Zech,  Igor Ying Zhang,  
 Xing Zhang,  Yan Zhao,  Ying Zhu,  B. R. Brooks,  G. K. L. Chan,  
 C. J. Cramer,  M. S. Gordon,  W. J. Hehre,  A. Klamt,  M. W. Schmidt,  
 C. D. Sherrill,  D. G. Truhlar,  A. Aspuru-Guzik,  R. Baer,  A. T. Bell,  
 N. A. Besley,  Jeng-Da Chai,  A. E. DePrince, III,  R. A. DiStasio Jr.,  
 A. Dreuw,  B. D. Dunietz,  T. R. Furlani,  Chao-Ping Hsu,  Yousung Jung,  
 Jing Kong,  D. S. Lambrecht,  WanZhen Liang,  C. Ochsenfeld,  
 V. A. Rassolov,  L. V. Slipchenko,  J. E. Subotnik,  T. Van Voorhis,  
 J. M. Herbert,  A. I. Krylov,  P. M. W. Gill,  M. Head-Gordon

 Contributors to earlier versions of Q-Chem not listed above: 
 R. D. Adamson,  B. Austin,  J. Baker,  G. J. O. Beran,  K. Brandhorst,  
 S. T. Brown,  E. F. C. Byrd,  A. K. Chakraborty,  C.-L. Cheng,  
 Siu Hung Chien,  D. M. Chipman,  D. L. Crittenden,  H. Dachsel,  
 R. J. Doerksen,  A. D. Dutoi,  L. Fusti-Molnar,  W. A. Goddard III,  
 A. Golubeva-Zadorozhnaya,  S. R. Gwaltney,  G. Hawkins,  A. Heyden,  
 S. Hirata,  G. Kedziora,  F. J. Keil,  C. Kelley,  Jihan Kim,  R. A. King,  
 R. Z. Khaliullin,  P. P. Korambath,  W. Kurlancheek,  A. M. Lee,  M. S. Lee,  
 S. V. Levchenko,  Ching Yeh Lin,  D. Liotard,  R. C. Lochan,  I. Lotan,  
 P. E. Maslen,  N. Nair,  D. P. O'Neill,  D. Neuhauser,  E. Neuscamman,  
 C. M. Oana,  R. Olson,  B. Peters,  R. Peverati,  P. A. Pieniazek,  
 Y. M. Rhee,  J. Ritchie,  M. A. Rohrdanz,  E. Rosta,  N. J. Russ,  
 H. F. Schaefer III,  N. E. Schultz,  N. Shenvi,  A. C. Simmonett,  A. Sodt,  
 D. Stuck,  K. S. Thanthiriwatte,  V. Vanovschi,  Tao Wang,  A. Warshel,  
 C. F. Williams,  Q. Wu,  X. Xu,  W. Zhang

 Please cite Q-Chem as follows:
 Y. Shao et al., Mol. Phys. 113, 184-215 (2015)
 DOI: 10.1080/00268976.2014.952696

 Q-Chem 5.3.0 for Intel X86 EM64T Linux

 Parts of Q-Chem use Armadillo 9.800.1 (Horizon Scraper).
 http://arma.sourceforge.net/

 Q-Chem begins on Thu Jul  2 03:44:11 2020  

Host: centos77-c1
0

     Scratch files written to /tmp/26650.centos77-h1/qchem69626//
Processing $rem in /opt/qchem-5.3.0-intel2020u1//config/preferences:
Processing $rem in /home/shihchengli/.qchemrc:

Checking the input file for inconsistencies... 	...done.

--------------------------------------------------------------
User input:
--------------------------------------------------------------
$rem
   JOBTYPE  sp
   EXCHANGE   omegaB97X-D
   BASIS   6-311+G(2df,2pd)
   max_scf_cycles   250
   geom_opt_max_cycles   1500
   basis2 6-31G*
   scf_algorithm rca_diis
   SYM_IGNORE  TRUE
   print_input   true
   geom_opt_dmax   80
   pop_mulliken false
   XC_GRID 000075000302
$end

$molecule
0 1
C       1.1358413061     -0.5617424322     0.2639412406
C       0.0000025662     0.0000126633     -0.5828289555
H       2.0519118006     -0.0189701272     0.0382452916
H       1.3237769839     -1.6226839001     0.0671373946
H       0.9383921125     -0.4439971111     1.3299018523
C       -1.1358435658     0.5617354514     0.2639530290
H       -0.2889186544     -0.8257602990     -1.2373357160
H       0.2889289986     0.8258117515     -1.2373014320
H       -1.3238446921     1.6226591440     0.0671204488
H       -0.9383575237     0.4440299561     1.3299112778
H       -2.0518893926     0.0189055693     0.0383005879
$end
--------------------------------------------------------------
 ----------------------------------------------------------------
             Standard Nuclear Orientation (Angstroms)
    I     Atom           X                Y                Z
 ----------------------------------------------------------------
    1      C       1.1358413061    -0.5617424322     0.2639412406
    2      C       0.0000025662     0.0000126633    -0.5828289555
    3      H       2.0519118006    -0.0189701272     0.0382452916
    4      H       1.3237769839    -1.6226839001     0.0671373946
    5      H       0.9383921125    -0.4439971111     1.3299018523
    6      C      -1.1358435658     0.5617354514     0.2639530290
    7      H      -0.2889186544    -0.8257602990    -1.2373357160
    8      H       0.2889289986     0.8258117515    -1.2373014320
    9      H      -1.3238446921     1.6226591440     0.0671204488
   10      H      -0.9383575237     0.4440299561     1.3299112778
   11      H      -2.0518893926     0.0189055693     0.0383005879
 ----------------------------------------------------------------
 Nuclear Repulsion Energy =          82.78407511 hartrees
 There are       13 alpha and       13 beta electrons
 Requested basis set is 6-311+G(2df,2pd)
 There are 72 shells and 214 basis functions

 Total QAlloc Memory Limit   2000 MB
 Mega-Array Size       188 MB
 MEM_STATIC part       192 MB

                       Distance Matrix (Angstroms)
             C (  1)   C (  2)   H (  3)   H (  4)   H (  5)   C (  6)
   C (  2)  1.524047
   H (  3)  1.088451  2.143927
   H (  4)  1.095285  2.192710  1.761509
   H (  5)  1.090469  2.176295  1.757541  1.769858
   C (  6)  2.534315  1.524047  3.248068  3.295475  2.539724
   H (  7)  2.086499  1.092591  2.785230  2.222054  2.871018  2.212757
   H (  8)  2.212758  1.092592  2.334263  2.961014  2.936792  2.086499
   H (  9)  3.295513  2.192712  3.753866  4.188335  3.314121  1.095284
   H ( 10)  2.539719  2.176292  3.290058  3.314085  2.076242  1.090469
   H ( 11)  3.248029  2.143926  4.103976  3.753768  3.290030  1.088450
             H (  7)   H (  8)   H (  9)   H ( 10)
   H (  8)  1.749742
   H (  9)  2.960986  2.222053
   H ( 10)  2.936817  2.870988  1.769861
   H ( 11)  2.334261  2.785263  1.761507  1.757539
 
 A cutoff of  1.0D-09 yielded   2527 shell pairs
 There are     22503 function pairs (     27703 Cartesian)
 Smallest overlap matrix eigenvalue = 8.63E-05

 Scale SEOQF with 1.000000e-01/1.000000e-01/1.000000e-01

 Standard Electronic Orientation quadrupole field applied
 Nucleus-field energy     =     0.0000000008 hartrees
 Requested basis set is 6-31G(d)
 There are 28 shells and 58 basis functions
 A cutoff of  1.0D-09 yielded    399 shell pairs
 There are      1770 function pairs (      1965 Cartesian)
 Smallest overlap matrix eigenvalue = 6.34E-03
 Guess from superposition of atomic densities
 Warning:  Energy on first SCF cycle will be non-variational
 SAD guess density has 26.000000 electrons
 Long-range K will be added via erf
 Coulomb attenuation parameter = 0.2 bohr**(-1)
 A restricted hybrid HF-DFT SCF calculation will be
 performed using Relaxed Constraint Minimization + Pulay DIIS
 Exchange:     0.2220 Hartree-Fock + 1.0000 wB97X-D + LR-HF
 Correlation:  1.0000 wB97X-D
 Using Euler-Maclaurin-Lebedev (75,302) quadrature formula
 Dispersion:   Grimme D
 SCF converges when DIIS error is below 1.0E-04
 using 3 threads for integral computing
 -------------------------------------------------------
 OpenMP Integral computing Module                
 Release: version 1.0, May 2013, Q-Chem Inc. Pittsburgh 
 -------------------------------------------------------
 using 3 threads for integral computing
 -------------------------------------------------------
 OpenMP Integral computing Module                
 Release: version 1.0, May 2013, Q-Chem Inc. Pittsburgh 
 -------------------------------------------------------
 ---------------------------------------
  Cycle       Energy         DIIS Error
 ---------------------------------------
    1    -119.6327918854      1.01E-01
    2    -119.0511702093      9.10E-03
    3    -119.0725671159      2.44E-03
    4    -119.0867792585      1.68E-03
    5    -119.0874676571      2.60E-04 Done RCA. Switching to DIIS
    6    -119.0879754573      1.94E-04
    7    -119.0879917271      4.25E-06 Convergence criterion met
 ---------------------------------------
 SCF time:  CPU 21.82 s  wall 8.28 s
 SCF   energy in the small basis set = -119.08799173
 Total energy in the small basis set = -119.08799173
 ----------------------------------------------------
  Cycle       Energy    
 ----------------------------------------------------
    1     -16.5478566617     -1.65E+01
 Long-range K will be added via erf
 Coulomb attenuation parameter = 0.2 bohr**(-1)
 A restricted hybrid HF-DFT SCF calculation will be
 performed using Relaxed Constraint Minimization + Pulay DIIS
 Exchange:     0.2220 Hartree-Fock + 1.0000 wB97X-D + LR-HF
 Correlation:  1.0000 wB97X-D
 Using Euler-Maclaurin-Lebedev (75,302) quadrature formula
 Dispersion:   Grimme D
 SCF converges when DIIS error is below 1.0E-05
 Basis2 calculation detected. Using small basis as guess for larger.
 SCFMinFind is unable to tell whether the solution found is close.
 Resetting ReadMinima to 0 and attempting to follow guess.
 SCFMinFind following SCF Guess.
 using 3 threads for integral computing
 -------------------------------------------------------
 OpenMP Integral computing Module                
 Release: version 1.0, May 2013, Q-Chem Inc. Pittsburgh 
 -------------------------------------------------------
 using 3 threads for integral computing
 -------------------------------------------------------
 OpenMP Integral computing Module                
 Release: version 1.0, May 2013, Q-Chem Inc. Pittsburgh 
 -------------------------------------------------------
 ---------------------------------------
  Cycle       Energy         DIIS Error
 ---------------------------------------
    1    -119.1076764584      4.21E-03
    2    -119.1296610287      6.05E-04 Done RCA. Switching to DIIS
    3    -119.1304938546      4.28E-04
    4    -119.1314988973      4.53E-05
    5    -119.1315137191      1.01E-05
    6    -119.1315144199      3.97E-06 Convergence criterion met
 ---------------------------------------
 SCF time:  CPU 49.73 s  wall 16.74 s
 SCF   energy in the final basis set = -119.13151442
 Total energy in the final basis set = -119.13151442
 
 --------------------------------------------------------------
 
                    Orbital Energies (a.u.)
 --------------------------------------------------------------
 
 Alpha MOs
 -- Occupied --
-10.2713 -10.2632 -10.2632  -0.8812  -0.7766  -0.6776  -0.5445  -0.5280
 -0.4773  -0.4703  -0.4224  -0.4160  -0.3907
 -- Virtual --
  0.0724   0.0879   0.0918   0.1047   0.1211   0.1292   0.1313   0.1318
  0.1450   0.1629   0.1752   0.1877   0.1969   0.2415   0.2727   0.2779
  0.2865   0.3080   0.3153   0.3283   0.3378   0.3703   0.4547   0.4808
  0.4986   0.5050   0.5133   0.5142   0.5276   0.5295   0.5386   0.5737
  0.6192   0.6266   0.6380   0.6399   0.6442   0.6553   0.6837   0.7109
  0.7396   0.7469   0.8704   0.8914   0.9233   0.9427   0.9863   0.9866
  1.0020   1.0090   1.0126   1.0651   1.1525   1.1528   1.1942   1.2256
  1.2327   1.2571   1.2609   1.2651   1.3095   1.3245   1.3491   1.3657
  1.3819   1.3906   1.4162   1.4467   1.4549   1.4739   1.4847   1.5068
  1.5386   1.5444   1.5850   1.5859   1.6438   1.6459   1.6748   1.6817
  1.6924   2.2354   2.3404   2.4110   2.4953   2.5502   2.6233   2.6843
  2.7019   2.7223   2.7662   2.7939   2.8480   2.8823   2.9343   2.9355
  2.9686   2.9719   3.0007   3.0150   3.0482   3.0483   3.1118   3.1485
  3.1498   3.1711   3.1743   3.1873   3.1998   3.2476   3.2502   3.2672
  3.3071   3.3073   3.3373   3.3535   3.3605   3.3716   3.3973   3.4011
  3.4734   3.4982   3.5447   3.5614   3.5714   3.5772   3.6092   3.6393
  3.6451   3.6832   3.6871   3.6975   3.7212   3.7433   3.7724   3.8324
  3.8622   3.9184   3.9347   3.9473   3.9558   4.0309   4.0430   4.0899
  4.0996   4.1149   4.1369   4.1526   4.1630   4.1981   4.2052   4.2354
  4.2386   4.2968   4.3036   4.3199   4.3386   4.4100   4.4584   4.4617
  4.4708   4.5298   4.5544   4.6038   4.7341   4.7954   4.8364   4.8484
  4.9191   4.9444   4.9721   4.9848   5.0396   5.0892   5.1015   5.1180
  5.1414   5.1708   5.1919   5.2493   5.2836   5.2849   5.3424   5.3750
  5.3833   5.4094   5.4201   5.4665   5.5297   5.5849   5.5894   5.7503
  5.9936   6.3205   6.3731   6.4084   6.4273   6.5109  25.0704  25.4453
 25.4511
 --------------------------------------------------------------
 
 -----------------------------------------------------------------
                    Cartesian Multipole Moments
 -----------------------------------------------------------------
    Charge (ESU x 10^10)
                -0.0000
    Dipole Moment (Debye)
         X       0.0000      Y      -0.0000      Z      -0.0928
       Tot       0.0928
    Quadrupole Moments (Debye-Ang)
        XX     -22.4263     XY       0.2820     YY     -21.2244
        XZ       0.0000     YZ       0.0000     ZZ     -21.8169
    Octopole Moments (Debye-Ang^2)
       XXX       0.0001    XXY       0.0000    XYY      -0.0001
       YYY      -0.0001    XXZ      -1.1178    XYZ       0.0016
       YYZ      -1.4773    XZZ       0.0000    YZZ      -0.0000
       ZZZ       0.8380
    Hexadecapole Moments (Debye-Ang^3)
      XXXX    -173.2667   XXXY      35.3411   XXYY     -41.1837
      XYYY      29.4623   YYYY     -71.8535   XXXZ       0.0003
      XXYZ      -0.0000   XYYZ       0.0002   YYYZ      -0.0000
      XXZZ     -42.1335   XYZZ      11.1296   YYZZ     -24.4881
      XZZZ       0.0005   YZZZ       0.0002   ZZZZ     -69.1575
 -----------------------------------------------------------------
Archival summary:
1\1\centos77-c1\SP\ProcedureUnspecified\BasisUnspecified\38\shihchen\ThuJul203:44:392020ThuJul203:44:392020\0\\#,ProcedureUnspecified,BasisUnspecified,\\0,1\C\H,1,1.09259\H,1,1.09259,2,106.4\C,1,1.52405,2,104.556,3,-121.509,0\H,4,1.08845,1,109.162,2,115.44,0\H,4,1.09047,1,111.615,2,-125.828,0\H,4,1.09528,1,112.649,2,-3.94614,0\C,1,1.52405,2,114.477,3,114.951,0\H,8,1.08845,1,109.162,2,-0.576471,0\H,8,1.09047,1,111.615,2,118.156,0\H,8,1.09528,1,112.649,2,-119.962,0\\\@

 Total job time:  27.87s(wall), 75.07s(cpu) 
 Thu Jul  2 03:44:39 2020

        *************************************************************
        *                                                           *
        *  Thank you very much for using Q-Chem.  Have a nice day.  *
        *                                                           *
        *************************************************************


