                  Welcome to Q-Chem
     A Quantum Leap Into The Future Of Chemistry


 Q-Chem 5.2 (devel), Q-Chem, Inc., Pleasanton, CA (2019)

 Yihan Shao,  Zhengting Gan,  E. Epifanovsky,  A. T. B. Gilbert,  M. Wormit,  
 J. Kussmann,  A. W. Lange,  A. Behn,  Jia Deng,  Xintian Feng,  D. Ghosh,  
 M. Goldey,  P. R. Horn,  L. D. Jacobson,  I. Kaliman,  T. Kus,  A. Landau,  
 Jie Liu,  E. I. Proynov,  R. M. Richard,  R. P. Steele,  E. J. Sundstrom,  
 H. L. Woodcock III,  P. M. Zimmerman,  D. Zuev,  B. Alam,  B. Albrecht,  
 E. Alguire,  S. A. Baeppler,  D. Barton,  Z. Benda,  Y. A. Bernard,  
 E. J. Berquist,  K. B. Bravaya,  H. Burton,  K. Carter-Fenk,  D. Casanova,  
 Chun-Min Chang,  Yunqing Chen,  A. Chien,  K. D. Closser,  M. P. Coons,  
 S. Coriani,  S. Dasgupta,  A. L. Dempwolff,  M. Diedenhofen,  Hainam Do,  
 R. G. Edgar,  Po-Tung Fang,  S. Faraji,  S. Fatehi,  Qingguo Feng,  
 J. Fosso-Tande,  J. Gayvert,  Qinghui Ge,  A. Ghysels,  G. Gidofalvi,  
 J. Gomes,  J. Gonthier,  A. Gunina,  D. Hait,  M. W. D. Hanson-Heine,  
 P. H. P. Harbach,  A. W. Hauser,  M. F. Herbst,  J. E. Herr,  
 E. G. Hohenstein,  Z. C. Holden,  Kerwin Hui,  B. C. Huynh,  T.-C. Jagau,  
 Hyunjun Ji,  B. Kaduk,  K. Khistyaev,  Jaehoon Kim,  P. Klunzinger,  K. Koh,  
 D. Kosenkov,  L. Koulias,  T. Kowalczyk,  C. M. Krauter,  A. Kunitsa,  
 Ka Un Lao,  A. Laurent,  K. V. Lawler,  Joonho Lee,  D. Lefrancois,  
 S. Lehtola,  D. S. Levine,  Yi-Pei Li,  You-Sheng Lin,  Fenglai Liu,  
 Kuan-Yu Liu,  E. Livshits,  M. Loipersberger,  A. Luenser,  P. Manohar,  
 E. Mansoor,  S. F. Manzer,  Shan-Ping Mao,  Yuezhi Mao,  N. Mardirossian,  
 A. V. Marenich,  T. Markovich,  L. A. Martinez-Martinez,  S. A. Maurer,  
 N. J. Mayhall,  S. C. McKenzie,  J.-M. Mewes,  P. Morgante,  A. F. Morrison,  
 J. W. Mullinax,  K. Nanda,  T. S. Nguyen-Beck,  R. Olivares-Amaya,  
 J. A. Parkhill,  S. K. Paul,  Zheng Pei,  T. M. Perrine,  F. Plasser,  
 P. Pokhilko,  S. Prager,  A. Prociuk,  E. Ramos,  B. Rana,  D. R. Rehn,  
 F. Rob,  M. Scheurer,  M. Schneider,  N. Sergueev,  S. M. Sharada,  
 S. Sharma,  D. W. Small,  T. Stauch,  C. J. Stein,  T. Stein,  Yu-Chuan Su,  
 S. P. Veccham,  A. J. W. Thom,  A. Tkatchenko,  T. Tsuchimochi,  
 N. M. Tubman,  L. Vogt,  M. L. Vidal,  O. Vydrov,  M. A. Watson,  J. Wenzel,  
 M. de Wergifosse,  T. A. Wesolowski,  A. White,  J. Witte,  A. Yamada,  
 Jun Yang,  K. Yao,  S. Yeganeh,  S. R. Yost,  Zhi-Qiang You,  A. Zech,  
 Igor Ying Zhang,  Xing Zhang,  Yan Zhao,  Ying Zhu,  B. R. Brooks,  
 G. K. L. Chan,  C. J. Cramer,  M. S. Gordon,  W. J. Hehre,  A. Klamt,  
 M. W. Schmidt,  C. D. Sherrill,  D. G. Truhlar,  A. Aspuru-Guzik,  R. Baer,  
 A. T. Bell,  N. A. Besley,  Jeng-Da Chai,  A. E. DePrince, III,  
 R. A. DiStasio Jr.,  A. Dreuw,  B. D. Dunietz,  T. R. Furlani,  
 Chao-Ping Hsu,  Yousung Jung,  Jing Kong,  D. S. Lambrecht,  WanZhen Liang,  
 C. Ochsenfeld,  V. A. Rassolov,  L. V. Slipchenko,  J. E. Subotnik,  
 T. Van Voorhis,  J. M. Herbert,  A. I. Krylov,  P. M. W. Gill,  M. Head-Gordon

 Contributors to earlier versions of Q-Chem not listed above: 
 R. D. Adamson,  B. Austin,  J. Baker,  G. J. O. Beran,  K. Brandhorst,  
 S. T. Brown,  E. F. C. Byrd,  A. K. Chakraborty,  C.-L. Cheng,  
 Siu Hung Chien,  D. M. Chipman,  D. L. Crittenden,  H. Dachsel,  
 R. J. Doerksen,  A. D. Dutoi,  L. Fusti-Molnar,  W. A. Goddard III,  
 A. Golubeva-Zadorozhnaya,  S. R. Gwaltney,  G. Hawkins,  A. Heyden,  
 S. Hirata,  G. Kedziora,  F. J. Keil,  C. Kelley,  Jihan Kim,  R. A. King,  
 R. Z. Khaliullin,  P. P. Korambath,  W. Kurlancheek,  A. M. Lee,  M. S. Lee,  
 S. V. Levchenko,  Ching Yeh Lin,  D. Liotard,  R. C. Lochan,  I. Lotan,  
 P. E. Maslen,  N. Nair,  D. P. O'Neill,  D. Neuhauser,  E. Neuscamman,  
 C. M. Oana,  R. Olson,  B. Peters,  R. Peverati,  P. A. Pieniazek,  
 Y. M. Rhee,  J. Ritchie,  M. A. Rohrdanz,  E. Rosta,  N. J. Russ,  
 H. F. Schaefer III,  N. E. Schultz,  N. Shenvi,  A. C. Simmonett,  A. Sodt,  
 D. Stuck,  K. S. Thanthiriwatte,  V. Vanovschi,  Tao Wang,  A. Warshel,  
 C. F. Williams,  Q. Wu,  X. Xu,  W. Zhang

 Please cite Q-Chem as follows:
 Y. Shao et al., Mol. Phys. 113, 184-215 (2015)
 DOI: 10.1080/00268976.2014.952696

 Q-Chem 5.2.2 for Intel X86 EM64T Linux

 Parts of Q-Chem use Armadillo 9.800.1 (Horizon Scraper).
 http://arma.sourceforge.net/

 Q-Chem begins on Sun Apr 12 06:18:43 2020  

Host: cn0913
0

     Scratch files written to /tmp/ypli/6721341.srvc1/qchem233469//
Warning:  Did not find "$end" marker in "$molecule" section

Checking the input file for inconsistencies... 	...done.

--------------------------------------------------------------
User input:
--------------------------------------------------------------
$rem
   JOBTYPE  sp
   EXCHANGE   omegaB97X-D
   BASIS   6-311+G(2df,2pd)
   max_scf_cycles   250
   geom_opt_max_cycles   1500
   basis2 6-31G*
   scf_algorithm rca_diis
   SYM_IGNORE  TRUE
   print_input   true
   geom_opt_dmax   80
   pop_mulliken false
   XC_GRID 000075000302
$end

$molecule
0 1
C       1.2668763199     0.0268476662     0.2594059639
C       0.0000000075     0.0000000507     -0.5873669208
H       1.2981107731     -0.8694890271     0.8824020614
H       1.3121087400     0.8914915442     0.9243695065
H       2.1641894433     0.0111983811     -0.3600346241
C       -1.2668762954     -0.0268476026     0.2594059738
H       -0.0854286127     -0.8706301446     -1.2419369482
H       0.0854286346     0.8706301891     -1.2419370168
H       -1.3121086412     -0.8914915224     0.9243694406
H       -2.1641894629     -0.0111979222     -0.3600345504
H       -1.2981109669     0.8694890537     0.8824021328
--------------------------------------------------------------
 ----------------------------------------------------------------
             Standard Nuclear Orientation (Angstroms)
    I     Atom           X                Y                Z
 ----------------------------------------------------------------
    1      C       1.2668763199     0.0268476662     0.2594059639
    2      C       0.0000000075     0.0000000507    -0.5873669208
    3      H       1.2981107731    -0.8694890271     0.8824020614
    4      H       1.3121087400     0.8914915442     0.9243695065
    5      H       2.1641894433     0.0111983811    -0.3600346241
    6      C      -1.2668762954    -0.0268476026     0.2594059738
    7      H      -0.0854286127    -0.8706301446    -1.2419369482
    8      H       0.0854286346     0.8706301891    -1.2419370168
    9      H      -1.3121086412    -0.8914915224     0.9243694406
   10      H      -2.1641894629    -0.0111979222    -0.3600345504
   11      H      -1.2981109669     0.8694890537     0.8824021328
 ----------------------------------------------------------------
 Nuclear Repulsion Energy =          82.74433702 hartrees
 There are       13 alpha and       13 beta electrons
 Requested basis set is 6-311+G(2df,2pd)
 There are 72 shells and 214 basis functions

 Total QAlloc Memory Limit   2000 MB
 Mega-Array Size       188 MB
 MEM_STATIC part       192 MB

                       Distance Matrix (Angstroms)
             C (  1)   C (  2)   H (  3)   H (  4)   H (  5)   C (  6)
   C (  2)  1.524047
   H (  3)  1.092025  2.145070
   H (  4)  1.091710  2.191286  1.761536
   H (  5)  1.090469  2.176125  1.751956  1.775007
   C (  6)  2.534322  1.524047  2.770799  2.817213  3.486741
   H (  7)  2.210933  1.092592  2.535153  3.122670  2.572189  2.088497
   H (  8)  2.088497  1.092592  3.001904  2.489591  2.416117  2.210933
   H (  9)  2.817213  2.191286  2.610649  3.172624  3.814340  1.091710
   H ( 10)  3.486742  2.176125  3.777279  3.814340  4.328437  1.090469
   H ( 11)  2.770799  2.145070  3.124806  2.610650  3.777279  1.092025
             H (  7)   H (  8)   H (  9)   H ( 10)
   H (  8)  1.749623
   H (  9)  2.489591  3.122670
   H ( 10)  2.416117  2.572189  1.775008
   H ( 11)  3.001904  2.535153  1.761536  1.751956
 
 A cutoff of  1.0D-09 yielded   2534 shell pairs
 There are     22588 function pairs (     27769 Cartesian)
 Smallest overlap matrix eigenvalue = 8.94E-05

 Scale SEOQF with 1.000000e-01/1.000000e-01/1.000000e-01

 Standard Electronic Orientation quadrupole field applied
 Nucleus-field energy     =     0.0000000006 hartrees
 Requested basis set is 6-31G(d)
 There are 28 shells and 58 basis functions
 A cutoff of  1.0D-09 yielded    402 shell pairs
 There are      1773 function pairs (      1968 Cartesian)
 Smallest overlap matrix eigenvalue = 6.84E-03
 Guess from superposition of atomic densities
 Warning:  Energy on first SCF cycle will be non-variational
 SAD guess density has 26.000000 electrons
 Long-range K will be added via erf
 Coulomb attenuation parameter = 0.2 bohr**(-1)
 A restricted hybrid HF-DFT SCF calculation will be
 performed using Relaxed Constraint Minimization + Pulay DIIS
 Exchange:     0.2220 Hartree-Fock + 1.0000 wB97X-D + LR-HF
 Correlation:  1.0000 wB97X-D
 Using Euler-Maclaurin-Lebedev (75,302) quadrature formula
 Dispersion:   Grimme D
 SCF converges when DIIS error is below 1.0E-04
 using 3 threads for integral computing
 -------------------------------------------------------
 OpenMP Integral computing Module                
 Release: version 1.0, May 2013, Q-Chem Inc. Pittsburgh 
 -------------------------------------------------------
 using 3 threads for integral computing
 -------------------------------------------------------
 OpenMP Integral computing Module                
 Release: version 1.0, May 2013, Q-Chem Inc. Pittsburgh 
 -------------------------------------------------------
 ---------------------------------------
  Cycle       Energy         DIIS Error
 ---------------------------------------
    1    -119.6204893518      1.00E-01
    2    -119.0638508077      9.00E-03
    3    -119.0849366849      2.47E-03
    4    -119.0987996674      1.69E-03
    5    -119.0995020013      2.69E-04 Done RCA. Switching to DIIS
    6    -119.1000163365      1.98E-04
    7    -119.1000333964      4.63E-06 Convergence criterion met
 ---------------------------------------
 SCF time:  CPU 22.92 s  wall 7.78 s
 SCF   energy in the small basis set = -119.10003340
 Total energy in the small basis set = -119.10003340
 ----------------------------------------------------
  Cycle       Energy    
 ----------------------------------------------------
    1     -16.5393570622     -1.65E+01
 Long-range K will be added via erf
 Coulomb attenuation parameter = 0.2 bohr**(-1)
 A restricted hybrid HF-DFT SCF calculation will be
 performed using Relaxed Constraint Minimization + Pulay DIIS
 Exchange:     0.2220 Hartree-Fock + 1.0000 wB97X-D + LR-HF
 Correlation:  1.0000 wB97X-D
 Using Euler-Maclaurin-Lebedev (75,302) quadrature formula
 Dispersion:   Grimme D
 SCF converges when DIIS error is below 1.0E-05
 Basis2 calculation detected. Using small basis as guess for larger.
 SCFMinFind is unable to tell whether the solution found is close.
 Resetting ReadMinima to 0 and attempting to follow guess.
 SCFMinFind following SCF Guess.
 using 3 threads for integral computing
 -------------------------------------------------------
 OpenMP Integral computing Module                
 Release: version 1.0, May 2013, Q-Chem Inc. Pittsburgh 
 -------------------------------------------------------
 using 3 threads for integral computing
 -------------------------------------------------------
 OpenMP Integral computing Module                
 Release: version 1.0, May 2013, Q-Chem Inc. Pittsburgh 
 -------------------------------------------------------
 ---------------------------------------
  Cycle       Energy         DIIS Error
 ---------------------------------------
    1    -119.1191838983      4.21E-03
    2    -119.1412398162      5.99E-04 Done RCA. Switching to DIIS
    3    -119.1420766762      4.20E-04
    4    -119.1430425412      4.56E-05
    5    -119.1430573190      1.02E-05
    6    -119.1430580120      3.90E-06 Convergence criterion met
 ---------------------------------------
 SCF time:  CPU 69.35 s  wall 23.35 s
 SCF   energy in the final basis set = -119.14305801
 Total energy in the final basis set = -119.14305801
 
 --------------------------------------------------------------
 
                    Orbital Energies (a.u.)
 --------------------------------------------------------------
 
 Alpha MOs
 -- Occupied --
-10.2740 -10.2653 -10.2653  -0.8815  -0.7775  -0.6777  -0.5461  -0.5244
 -0.4843  -0.4642  -0.4226  -0.4168  -0.4011
 -- Virtual --
  0.0691   0.0858   0.0910   0.0990   0.1250   0.1296   0.1331   0.1427
  0.1436   0.1714   0.1716   0.1913   0.2325   0.2400   0.2442   0.2616
  0.2818   0.2846   0.3113   0.3136   0.3335   0.3494   0.4584   0.4679
  0.4709   0.5115   0.5116   0.5184   0.5460   0.5605   0.5840   0.5864
  0.6241   0.6249   0.6416   0.6453   0.6453   0.6704   0.7089   0.7231
  0.7264   0.7673   0.8185   0.8573   0.8641   0.8815   0.8847   0.9596
  1.0022   1.0530   1.0556   1.1382   1.1387   1.1662   1.1948   1.2114
  1.2218   1.2355   1.2725   1.2803   1.2896   1.3017   1.3281   1.3779
  1.3828   1.3951   1.4009   1.4471   1.4550   1.4726   1.4791   1.4804
  1.5220   1.5776   1.6103   1.6219   1.6429   1.6440   1.6897   1.6908
  1.7416   2.3772   2.4686   2.4736   2.5053   2.5406   2.5589   2.5996
  2.6360   2.7128   2.8120   2.8337   2.8365   2.9104   2.9217   2.9288
  2.9309   2.9612   2.9981   3.0233   3.0522   3.0701   3.0766   3.0989
  3.1292   3.1292   3.1781   3.1984   3.2213   3.2292   3.2832   3.3101
  3.3244   3.3310   3.3358   3.3514   3.3777   3.3865   3.3942   3.4379
  3.4695   3.4920   3.5063   3.5242   3.5593   3.5773   3.6021   3.6205
  3.6235   3.6751   3.6861   3.7023   3.7795   3.7823   3.8540   3.8849
  3.9170   3.9324   3.9513   3.9619   3.9815   3.9945   4.0471   4.0662
  4.0801   4.1046   4.1181   4.1351   4.1536   4.1583   4.1906   4.2058
  4.2157   4.2512   4.2582   4.3522   4.3706   4.4169   4.4224   4.4309
  4.4447   4.5679   4.6073   4.6287   4.6614   4.8106   4.8213   4.8897
  4.9399   4.9635   4.9640   4.9871   5.0313   5.0559   5.0566   5.0920
  5.1576   5.2417   5.2470   5.2787   5.3135   5.3379   5.3434   5.3538
  5.3721   5.4125   5.4592   5.4907   5.5331   5.5773   5.6324   5.7449
  5.9633   6.3814   6.3842   6.3928   6.4167   6.4665  25.2028  25.4416
 25.4524
 --------------------------------------------------------------
 
 -----------------------------------------------------------------
                    Cartesian Multipole Moments
 -----------------------------------------------------------------
    Charge (ESU x 10^10)
                 0.0000
    Dipole Moment (Debye)
         X      -0.0000      Y       0.0000      Z      -0.0810
       Tot       0.0810
    Quadrupole Moments (Debye-Ang)
        XX     -22.1516     XY       0.2487     YY     -21.3800
        XZ      -0.0000     YZ      -0.0000     ZZ     -21.8569
    Octopole Moments (Debye-Ang^2)
       XXX      -0.0000    XXY       0.0000    XYY      -0.0000
       YYY      -0.0000    XXZ      -1.5712    XYZ       0.0296
       YYZ       0.5198    XZZ       0.0000    YZZ      -0.0000
       ZZZ      -0.3671
    Hexadecapole Moments (Debye-Ang^3)
      XXXX    -202.2814   XXXY      -1.4835   XXYY     -42.1978
      XYYY      -1.3774   YYYY     -44.1711   XXXZ      -0.0000
      XXYZ      -0.0000   XYYZ       0.0000   YYYZ       0.0000
      XXZZ     -45.2672   XYZZ       0.1298   YYZZ     -17.1135
      XZZZ       0.0000   YZZZ      -0.0000   ZZZZ     -72.2437
 -----------------------------------------------------------------
Archival summary:
1\1\cn0913\SP\ProcedureUnspecified\BasisUnspecified\38\r0852400\SunApr1206:19:172020SunApr1206:19:172020\0\\#,ProcedureUnspecified,BasisUnspecified,\\0,1\C\H,1,1.09259\H,1,1.09259,2,106.389\C,1,1.52405,2,114.324,3,-115.043,0\H,4,1.09047,1,111.602,2,58.7869,0\H,4,1.09171,1,112.756,2,-178.316,0\H,4,1.09203,1,109.044,2,-58.9379,0\C,1,1.52405,2,104.704,3,121.404,0\H,8,1.09047,1,111.602,2,-57.2376,0\H,8,1.09171,1,112.756,2,65.6597,0\H,8,1.09203,1,109.044,2,-174.963,0\\\@

 Total job time:  34.41s(wall), 96.35s(cpu) 
 Sun Apr 12 06:19:17 2020

        *************************************************************
        *                                                           *
        *  Thank you very much for using Q-Chem.  Have a nice day.  *
        *                                                           *
        *************************************************************


