                  Welcome to Q-Chem
     A Quantum Leap Into The Future Of Chemistry


 Q-Chem 5.3 (devel), Q-Chem, Inc., Pleasanton, CA (2020)

 Yihan Shao,  Zhengting Gan,  E. Epifanovsky,  A. T. B. Gilbert,  M. Wormit,  
 J. Kussmann,  A. W. Lange,  A. Behn,  Jia Deng,  Xintian Feng,  D. Ghosh,  
 M. Goldey,  P. R. Horn,  L. D. Jacobson,  I. Kaliman,  T. Kus,  A. Landau,  
 Jie Liu,  E. I. Proynov,  R. M. Richard,  R. P. Steele,  E. J. Sundstrom,  
 H. L. Woodcock III,  P. M. Zimmerman,  D. Zuev,  B. Alam,  B. Albrecht,  
 E. Alguire,  S. A. Baeppler,  D. Barton,  Z. Benda,  Y. A. Bernard,  
 E. J. Berquist,  K. B. Bravaya,  H. Burton,  K. Carter-Fenk,  D. Casanova,  
 Chun-Min Chang,  Yunqing Chen,  A. Chien,  K. D. Closser,  M. P. Coons,  
 S. Coriani,  S. Dasgupta,  A. L. Dempwolff,  M. Diedenhofen,  Hainam Do,  
 R. G. Edgar,  Po-Tung Fang,  S. Faraji,  S. Fatehi,  Qingguo Feng,  
 J. Fosso-Tande,  J. Gayvert,  Qinghui Ge,  A. Ghysels,  G. Gidofalvi,  
 J. Gomes,  J. Gonthier,  A. Gunina,  D. Hait,  M. W. D. Hanson-Heine,  
 P. H. P. Harbach,  A. W. Hauser,  M. F. Herbst,  J. E. Herr,  
 E. G. Hohenstein,  Z. C. Holden,  Kerwin Hui,  B. C. Huynh,  T.-C. Jagau,  
 Hyunjun Ji,  B. Kaduk,  K. Khistyaev,  Jaehoon Kim,  P. Klunzinger,  K. Koh,  
 D. Kosenkov,  L. Koulias,  T. Kowalczyk,  C. M. Krauter,  A. Kunitsa,  
 Ka Un Lao,  A. Laurent,  K. V. Lawler,  Joonho Lee,  D. Lefrancois,  
 S. Lehtola,  D. S. Levine,  Yi-Pei Li,  You-Sheng Lin,  Fenglai Liu,  
 Kuan-Yu Liu,  E. Livshits,  M. Loipersberger,  A. Luenser,  P. Manohar,  
 E. Mansoor,  S. F. Manzer,  Shan-Ping Mao,  Yuezhi Mao,  N. Mardirossian,  
 A. V. Marenich,  T. Markovich,  L. A. Martinez-Martinez,  S. A. Maurer,  
 N. J. Mayhall,  S. C. McKenzie,  J.-M. Mewes,  P. Morgante,  A. F. Morrison,  
 J. W. Mullinax,  K. Nanda,  T. S. Nguyen-Beck,  R. Olivares-Amaya,  
 K. J. Oosterbaan,  J. A. Parkhill,  S. K. Paul,  F. Pavosevic,  Zheng Pei,  
 T. M. Perrine,  F. Plasser,  P. Pokhilko,  S. Prager,  A. Prociuk,  
 E. Ramos,  B. Rana,  D. R. Rehn,  F. Rob,  M. Scheurer,  M. Schneider,  
 N. Sergueev,  S. M. Sharada,  S. Sharma,  D. W. Small,  T. Stauch,  
 C. J. Stein,  T. Stein,  Yu-Chuan Su,  S. P. Veccham,  Zhen Tao,  
 A. J. W. Thom,  A. Tkatchenko,  T. Tsuchimochi,  N. M. Tubman,  L. Vogt,  
 M. L. Vidal,  O. Vydrov,  M. A. Watson,  J. Wenzel,  M. de Wergifosse,  
 T. A. Wesolowski,  A. White,  J. Witte,  A. Yamada,  Jun Yang,  K. Yao,  
 S. Yeganeh,  S. R. Yost,  Zhi-Qiang You,  A. Zech,  Igor Ying Zhang,  
 Xing Zhang,  Yan Zhao,  Ying Zhu,  B. R. Brooks,  G. K. L. Chan,  
 C. J. Cramer,  M. S. Gordon,  W. J. Hehre,  A. Klamt,  M. W. Schmidt,  
 C. D. Sherrill,  D. G. Truhlar,  A. Aspuru-Guzik,  R. Baer,  A. T. Bell,  
 N. A. Besley,  Jeng-Da Chai,  A. E. DePrince, III,  R. A. DiStasio Jr.,  
 A. Dreuw,  B. D. Dunietz,  T. R. Furlani,  Chao-Ping Hsu,  Yousung Jung,  
 Jing Kong,  D. S. Lambrecht,  WanZhen Liang,  C. Ochsenfeld,  
 V. A. Rassolov,  L. V. Slipchenko,  J. E. Subotnik,  T. Van Voorhis,  
 J. M. Herbert,  A. I. Krylov,  P. M. W. Gill,  M. Head-Gordon

 Contributors to earlier versions of Q-Chem not listed above: 
 R. D. Adamson,  B. Austin,  J. Baker,  G. J. O. Beran,  K. Brandhorst,  
 S. T. Brown,  E. F. C. Byrd,  A. K. Chakraborty,  C.-L. Cheng,  
 Siu Hung Chien,  D. M. Chipman,  D. L. Crittenden,  H. Dachsel,  
 R. J. Doerksen,  A. D. Dutoi,  L. Fusti-Molnar,  W. A. Goddard III,  
 A. Golubeva-Zadorozhnaya,  S. R. Gwaltney,  G. Hawkins,  A. Heyden,  
 S. Hirata,  G. Kedziora,  F. J. Keil,  C. Kelley,  Jihan Kim,  R. A. King,  
 R. Z. Khaliullin,  P. P. Korambath,  W. Kurlancheek,  A. M. Lee,  M. S. Lee,  
 S. V. Levchenko,  Ching Yeh Lin,  D. Liotard,  R. C. Lochan,  I. Lotan,  
 P. E. Maslen,  N. Nair,  D. P. O'Neill,  D. Neuhauser,  E. Neuscamman,  
 C. M. Oana,  R. Olson,  B. Peters,  R. Peverati,  P. A. Pieniazek,  
 Y. M. Rhee,  J. Ritchie,  M. A. Rohrdanz,  E. Rosta,  N. J. Russ,  
 H. F. Schaefer III,  N. E. Schultz,  N. Shenvi,  A. C. Simmonett,  A. Sodt,  
 D. Stuck,  K. S. Thanthiriwatte,  V. Vanovschi,  Tao Wang,  A. Warshel,  
 C. F. Williams,  Q. Wu,  X. Xu,  W. Zhang

 Please cite Q-Chem as follows:
 Y. Shao et al., Mol. Phys. 113, 184-215 (2015)
 DOI: 10.1080/00268976.2014.952696

 Q-Chem 5.3.0 for Intel X86 EM64T Linux

 Parts of Q-Chem use Armadillo 9.800.1 (Horizon Scraper).
 http://arma.sourceforge.net/

 Q-Chem begins on Thu Jul  2 04:25:11 2020  

Host: centos77-c1
0

     Scratch files written to /tmp/26650.centos77-h1/qchem73336//
Processing $rem in /opt/qchem-5.3.0-intel2020u1//config/preferences:
Processing $rem in /home/shihchengli/.qchemrc:

Checking the input file for inconsistencies... 	...done.

--------------------------------------------------------------
User input:
--------------------------------------------------------------
$rem
   JOBTYPE  sp
   EXCHANGE   omegaB97X-D
   BASIS   6-311+G(2df,2pd)
   max_scf_cycles   250
   geom_opt_max_cycles   1500
   basis2 6-31G*
   scf_algorithm rca_diis
   SYM_IGNORE  TRUE
   print_input   true
   geom_opt_dmax   80
   pop_mulliken false
   XC_GRID 000075000302
$end

$molecule
0 1
C       1.2483722048     -0.2385419529     -0.1135039416
C       -0.0000022538     0.3547516938     0.5285859220
H       1.7477498932     0.7029194218     -0.3782039660
H       1.2309383779     -0.8756229248     -0.9924001655
H       1.8783401172     -0.7196531352     0.6353580811
C       -1.2483692195     -0.2385431070     -0.1135191760
H       0.0000003244     1.2645391423     -0.0739936527
H       -0.0000091736     0.6425409029     1.5839901592
H       -1.7478144932     0.7029103595     -0.3781153523
H       -1.8782819072     -0.7197597489     0.6353223060
H       -1.2309239308     -0.8755399854     -0.9924751952
$end
--------------------------------------------------------------
 ----------------------------------------------------------------
             Standard Nuclear Orientation (Angstroms)
    I     Atom           X                Y                Z
 ----------------------------------------------------------------
    1      C       1.2483722048    -0.2385419529    -0.1135039416
    2      C      -0.0000022538     0.3547516938     0.5285859220
    3      H       1.7477498932     0.7029194218    -0.3782039660
    4      H       1.2309383779    -0.8756229248    -0.9924001655
    5      H       1.8783401172    -0.7196531352     0.6353580811
    6      C      -1.2483692195    -0.2385431070    -0.1135191760
    7      H       0.0000003244     1.2645391423    -0.0739936527
    8      H      -0.0000091736     0.6425409029     1.5839901592
    9      H      -1.7478144932     0.7029103595    -0.3781153523
   10      H      -1.8782819072    -0.7197597489     0.6353223060
   11      H      -1.2309239308    -0.8755399854    -0.9924751952
 ----------------------------------------------------------------
 Nuclear Repulsion Energy =          83.07205582 hartrees
 There are       13 alpha and       13 beta electrons
 Requested basis set is 6-311+G(2df,2pd)
 There are 72 shells and 214 basis functions

 Total QAlloc Memory Limit   2000 MB
 Mega-Array Size       188 MB
 MEM_STATIC part       192 MB

                       Distance Matrix (Angstroms)
             C (  1)   C (  2)   H (  3)   H (  4)   H (  5)   C (  6)
   C (  2)  1.524046
   H (  3)  1.098086  1.999532
   H (  4)  1.085649  2.311371  1.770911
   H (  5)  1.090469  2.166545  1.751592  1.758708
   C (  6)  2.496741  1.524047  3.151688  2.706523  3.250938
   H (  7)  1.954289  1.091245  1.860803  2.634193  2.822828  1.954289
   H (  8)  2.283911  1.093938  2.628405  3.233858  2.506725  2.283911
   H (  9)  3.151743  1.999542  3.495564  3.426672  4.024899  1.098085
   H ( 10)  3.250889  2.166541  4.024843  3.512979  3.756622  1.090469
   H ( 11)  2.706523  2.311366  3.426567  2.461862  3.513071  1.085649
             H (  7)   H (  8)   H (  9)   H ( 10)
   H (  8)  1.770817
   H (  9)  1.860853  2.628369
   H ( 10)  2.822856  2.506739  1.751590
   H ( 11)  2.634145  3.233867  1.770909  1.758711
 
 A cutoff of  1.0D-09 yielded   2513 shell pairs
 There are     22411 function pairs (     27581 Cartesian)
 Smallest overlap matrix eigenvalue = 9.94E-05

 Scale SEOQF with 1.000000e-01/1.000000e-01/1.000000e-01

 Standard Electronic Orientation quadrupole field applied
 Nucleus-field energy     =     0.0000000010 hartrees
 Requested basis set is 6-31G(d)
 There are 28 shells and 58 basis functions
 A cutoff of  1.0D-09 yielded    403 shell pairs
 There are      1774 function pairs (      1969 Cartesian)
 Smallest overlap matrix eigenvalue = 5.33E-03
 Guess from superposition of atomic densities
 Warning:  Energy on first SCF cycle will be non-variational
 SAD guess density has 26.000000 electrons
 Long-range K will be added via erf
 Coulomb attenuation parameter = 0.2 bohr**(-1)
 A restricted hybrid HF-DFT SCF calculation will be
 performed using Relaxed Constraint Minimization + Pulay DIIS
 Exchange:     0.2220 Hartree-Fock + 1.0000 wB97X-D + LR-HF
 Correlation:  1.0000 wB97X-D
 Using Euler-Maclaurin-Lebedev (75,302) quadrature formula
 Dispersion:   Grimme D
 SCF converges when DIIS error is below 1.0E-04
 using 3 threads for integral computing
 -------------------------------------------------------
 OpenMP Integral computing Module                
 Release: version 1.0, May 2013, Q-Chem Inc. Pittsburgh 
 -------------------------------------------------------
 using 3 threads for integral computing
 -------------------------------------------------------
 OpenMP Integral computing Module                
 Release: version 1.0, May 2013, Q-Chem Inc. Pittsburgh 
 -------------------------------------------------------
 ---------------------------------------
  Cycle       Energy         DIIS Error
 ---------------------------------------
    1    -119.6716931224      1.02E-01
    2    -119.0125661260      9.33E-03
    3    -119.0349160461      2.49E-03
    4    -119.0500567817      1.72E-03
    5    -119.0507754195      2.63E-04 Done RCA. Switching to DIIS
    6    -119.0513127293      1.94E-04
    7    -119.0513290599      6.65E-06 Convergence criterion met
 ---------------------------------------
 SCF time:  CPU 18.91 s  wall 6.67 s
 SCF   energy in the small basis set = -119.05132906
 Total energy in the small basis set = -119.05132906
 ----------------------------------------------------
  Cycle       Energy    
 ----------------------------------------------------
    1     -16.5530352924     -1.66E+01
 Long-range K will be added via erf
 Coulomb attenuation parameter = 0.2 bohr**(-1)
 A restricted hybrid HF-DFT SCF calculation will be
 performed using Relaxed Constraint Minimization + Pulay DIIS
 Exchange:     0.2220 Hartree-Fock + 1.0000 wB97X-D + LR-HF
 Correlation:  1.0000 wB97X-D
 Using Euler-Maclaurin-Lebedev (75,302) quadrature formula
 Dispersion:   Grimme D
 SCF converges when DIIS error is below 1.0E-05
 Basis2 calculation detected. Using small basis as guess for larger.
 SCFMinFind is unable to tell whether the solution found is close.
 Resetting ReadMinima to 0 and attempting to follow guess.
 SCFMinFind following SCF Guess.
 using 3 threads for integral computing
 -------------------------------------------------------
 OpenMP Integral computing Module                
 Release: version 1.0, May 2013, Q-Chem Inc. Pittsburgh 
 -------------------------------------------------------
 using 3 threads for integral computing
 -------------------------------------------------------
 OpenMP Integral computing Module                
 Release: version 1.0, May 2013, Q-Chem Inc. Pittsburgh 
 -------------------------------------------------------
 ---------------------------------------
  Cycle       Energy         DIIS Error
 ---------------------------------------
    1    -119.0723518208      4.21E-03
    2    -119.0943243923      6.17E-04 Done RCA. Switching to DIIS
    3    -119.0951732089      4.42E-04
    4    -119.0962395615      4.60E-05
    5    -119.0962552035      9.20E-06 Convergence criterion met
 ---------------------------------------
 SCF time:  CPU 42.28 s  wall 14.11 s
 SCF   energy in the final basis set = -119.09625520
 Total energy in the final basis set = -119.09625520
 
 --------------------------------------------------------------
 
                    Orbital Energies (a.u.)
 --------------------------------------------------------------
 
 Alpha MOs
 -- Occupied --
-10.2743 -10.2619 -10.2619  -0.8878  -0.7783  -0.6749  -0.5517  -0.5117
 -0.5004  -0.4651  -0.4510  -0.3820  -0.3718
 -- Virtual --
  0.0683   0.0876   0.0907   0.1000   0.1216   0.1279   0.1287   0.1327
  0.1412   0.1723   0.1727   0.1881   0.2074   0.2504   0.2517   0.2650
  0.2753   0.2809   0.3209   0.3237   0.3403   0.3607   0.4533   0.4711
  0.4753   0.5060   0.5162   0.5230   0.5361   0.5544   0.5645   0.5955
  0.6076   0.6218   0.6411   0.6421   0.6651   0.6664   0.6852   0.7216
  0.7356   0.7442   0.8289   0.8695   0.9046   0.9246   0.9404   0.9646
  0.9896   1.0463   1.0873   1.1201   1.1268   1.1588   1.1718   1.2009
  1.2421   1.2551   1.2673   1.2820   1.3003   1.3137   1.3449   1.3455
  1.3771   1.4120   1.4396   1.4532   1.4684   1.4774   1.4876   1.5027
  1.5443   1.5495   1.5784   1.6046   1.6098   1.6485   1.6754   1.7339
  1.7441   2.2301   2.3785   2.4292   2.4980   2.4984   2.5665   2.6199
  2.6465   2.7342   2.7728   2.8263   2.8637   2.8892   2.9352   2.9387
  2.9620   2.9747   3.0232   3.0352   3.0666   3.0790   3.1272   3.1369
  3.1490   3.1668   3.1963   3.2070   3.2094   3.2108   3.2432   3.2781
  3.3026   3.3263   3.3565   3.3850   3.3997   3.4089   3.4132   3.4200
  3.4335   3.4757   3.5184   3.5388   3.5707   3.5858   3.5880   3.6225
  3.6262   3.6461   3.6801   3.7191   3.7408   3.7972   3.8218   3.8659
  3.8673   3.9220   3.9389   3.9602   3.9730   3.9940   4.0262   4.0394
  4.0895   4.0979   4.1370   4.1519   4.1942   4.1954   4.2100   4.2326
  4.2454   4.2677   4.2814   4.3329   4.3943   4.4509   4.4519   4.4801
  4.5382   4.5535   4.5938   4.6835   4.7374   4.8458   4.8676   4.8843
  4.8978   4.9420   4.9867   4.9901   5.0555   5.0741   5.0973   5.1382
  5.1710   5.1883   5.2070   5.2699   5.2774   5.3073   5.3177   5.3437
  5.3905   5.4142   5.4612   5.4675   5.5094   5.6254   5.7614   5.8310
  5.9767   6.3861   6.3915   6.4014   6.4507   6.5029  25.1389  25.4155
 25.4506
 --------------------------------------------------------------
 
 -----------------------------------------------------------------
                    Cartesian Multipole Moments
 -----------------------------------------------------------------
    Charge (ESU x 10^10)
                -0.0000
    Dipole Moment (Debye)
         X      -0.0000      Y       0.2055      Z       0.0016
       Tot       0.2055
    Quadrupole Moments (Debye-Ang)
        XX     -23.3982     XY      -0.0000     YY     -21.5786
        XZ       0.0000     YZ       0.4042     ZZ     -20.7919
    Octopole Moments (Debye-Ang^2)
       XXX       0.0000    XXY       0.3798    XYY       0.0000
       YYY       2.2198    XXZ      -0.9565    XYZ       0.0000
       YYZ      -2.5537    XZZ      -0.0000    YZZ       0.1741
       ZZZ      -3.2300
    Hexadecapole Moments (Debye-Ang^3)
      XXXX    -214.7850   XXXY      -0.0004   XXYY     -41.8248
      XYYY      -0.0001   YYYY     -58.6239   XXXZ      -0.0000
      XXYZ      -2.5788   XYYZ      -0.0004   YYYZ      -6.8361
      XXZZ     -42.5959   XYZZ       0.0001   YYZZ     -17.6240
      XZZZ      -0.0001   YZZZ      -3.8123   ZZZZ     -54.5910
 -----------------------------------------------------------------
Archival summary:
1\1\centos77-c1\SP\ProcedureUnspecified\BasisUnspecified\38\shihchen\ThuJul204:25:352020ThuJul204:25:352020\0\\#,ProcedureUnspecified,BasisUnspecified,\\0,1\C\H,1,1.09124\H,1,1.09394,2,108.265\C,1,1.52405,2,95.2735,3,-124.654,0\H,4,1.08565,1,123.804,2,-89.3817,0\H,4,1.09047,1,110.832,2,140.136,0\H,4,1.09809,1,98.0656,2,29.179,0\C,1,1.52405,2,95.2735,3,124.654,0\H,8,1.08565,1,123.804,2,89.3752,0\H,8,1.09047,1,110.832,2,-140.143,0\H,8,1.09809,1,98.0664,2,-29.1858,0\\\@

 Total job time:  23.65s(wall), 64.73s(cpu) 
 Thu Jul  2 04:25:35 2020

        *************************************************************
        *                                                           *
        *  Thank you very much for using Q-Chem.  Have a nice day.  *
        *                                                           *
        *************************************************************


