                  Welcome to Q-Chem
     A Quantum Leap Into The Future Of Chemistry


 Q-Chem 5.2 (devel), Q-Chem, Inc., Pleasanton, CA (2019)

 Yihan Shao,  Zhengting Gan,  E. Epifanovsky,  A. T. B. Gilbert,  M. Wormit,  
 J. Kussmann,  A. W. Lange,  A. Behn,  Jia Deng,  Xintian Feng,  D. Ghosh,  
 M. Goldey,  P. R. Horn,  L. D. Jacobson,  I. Kaliman,  T. Kus,  A. Landau,  
 Jie Liu,  E. I. Proynov,  R. M. Richard,  R. P. Steele,  E. J. Sundstrom,  
 H. L. Woodcock III,  P. M. Zimmerman,  D. Zuev,  B. Alam,  B. Albrecht,  
 E. Alguire,  S. A. Baeppler,  D. Barton,  Z. Benda,  Y. A. Bernard,  
 E. J. Berquist,  K. B. Bravaya,  H. Burton,  K. Carter-Fenk,  D. Casanova,  
 Chun-Min Chang,  Yunqing Chen,  A. Chien,  K. D. Closser,  M. P. Coons,  
 S. Coriani,  S. Dasgupta,  A. L. Dempwolff,  M. Diedenhofen,  Hainam Do,  
 R. G. Edgar,  Po-Tung Fang,  S. Faraji,  S. Fatehi,  Qingguo Feng,  
 J. Fosso-Tande,  J. Gayvert,  Qinghui Ge,  A. Ghysels,  G. Gidofalvi,  
 J. Gomes,  J. Gonthier,  A. Gunina,  D. Hait,  M. W. D. Hanson-Heine,  
 P. H. P. Harbach,  A. W. Hauser,  M. F. Herbst,  J. E. Herr,  
 E. G. Hohenstein,  Z. C. Holden,  Kerwin Hui,  B. C. Huynh,  T.-C. Jagau,  
 Hyunjun Ji,  B. Kaduk,  K. Khistyaev,  Jaehoon Kim,  P. Klunzinger,  K. Koh,  
 D. Kosenkov,  L. Koulias,  T. Kowalczyk,  C. M. Krauter,  A. Kunitsa,  
 Ka Un Lao,  A. Laurent,  K. V. Lawler,  Joonho Lee,  D. Lefrancois,  
 S. Lehtola,  D. S. Levine,  Yi-Pei Li,  You-Sheng Lin,  Fenglai Liu,  
 Kuan-Yu Liu,  E. Livshits,  M. Loipersberger,  A. Luenser,  P. Manohar,  
 E. Mansoor,  S. F. Manzer,  Shan-Ping Mao,  Yuezhi Mao,  N. Mardirossian,  
 A. V. Marenich,  T. Markovich,  L. A. Martinez-Martinez,  S. A. Maurer,  
 N. J. Mayhall,  S. C. McKenzie,  J.-M. Mewes,  P. Morgante,  A. F. Morrison,  
 J. W. Mullinax,  K. Nanda,  T. S. Nguyen-Beck,  R. Olivares-Amaya,  
 J. A. Parkhill,  S. K. Paul,  Zheng Pei,  T. M. Perrine,  F. Plasser,  
 P. Pokhilko,  S. Prager,  A. Prociuk,  E. Ramos,  B. Rana,  D. R. Rehn,  
 F. Rob,  M. Scheurer,  M. Schneider,  N. Sergueev,  S. M. Sharada,  
 S. Sharma,  D. W. Small,  T. Stauch,  C. J. Stein,  T. Stein,  Yu-Chuan Su,  
 S. P. Veccham,  A. J. W. Thom,  A. Tkatchenko,  T. Tsuchimochi,  
 N. M. Tubman,  L. Vogt,  M. L. Vidal,  O. Vydrov,  M. A. Watson,  J. Wenzel,  
 M. de Wergifosse,  T. A. Wesolowski,  A. White,  J. Witte,  A. Yamada,  
 Jun Yang,  K. Yao,  S. Yeganeh,  S. R. Yost,  Zhi-Qiang You,  A. Zech,  
 Igor Ying Zhang,  Xing Zhang,  Yan Zhao,  Ying Zhu,  B. R. Brooks,  
 G. K. L. Chan,  C. J. Cramer,  M. S. Gordon,  W. J. Hehre,  A. Klamt,  
 M. W. Schmidt,  C. D. Sherrill,  D. G. Truhlar,  A. Aspuru-Guzik,  R. Baer,  
 A. T. Bell,  N. A. Besley,  Jeng-Da Chai,  A. E. DePrince, III,  
 R. A. DiStasio Jr.,  A. Dreuw,  B. D. Dunietz,  T. R. Furlani,  
 Chao-Ping Hsu,  Yousung Jung,  Jing Kong,  D. S. Lambrecht,  WanZhen Liang,  
 C. Ochsenfeld,  V. A. Rassolov,  L. V. Slipchenko,  J. E. Subotnik,  
 T. Van Voorhis,  J. M. Herbert,  A. I. Krylov,  P. M. W. Gill,  M. Head-Gordon

 Contributors to earlier versions of Q-Chem not listed above: 
 R. D. Adamson,  B. Austin,  J. Baker,  G. J. O. Beran,  K. Brandhorst,  
 S. T. Brown,  E. F. C. Byrd,  A. K. Chakraborty,  C.-L. Cheng,  
 Siu Hung Chien,  D. M. Chipman,  D. L. Crittenden,  H. Dachsel,  
 R. J. Doerksen,  A. D. Dutoi,  L. Fusti-Molnar,  W. A. Goddard III,  
 A. Golubeva-Zadorozhnaya,  S. R. Gwaltney,  G. Hawkins,  A. Heyden,  
 S. Hirata,  G. Kedziora,  F. J. Keil,  C. Kelley,  Jihan Kim,  R. A. King,  
 R. Z. Khaliullin,  P. P. Korambath,  W. Kurlancheek,  A. M. Lee,  M. S. Lee,  
 S. V. Levchenko,  Ching Yeh Lin,  D. Liotard,  R. C. Lochan,  I. Lotan,  
 P. E. Maslen,  N. Nair,  D. P. O'Neill,  D. Neuhauser,  E. Neuscamman,  
 C. M. Oana,  R. Olson,  B. Peters,  R. Peverati,  P. A. Pieniazek,  
 Y. M. Rhee,  J. Ritchie,  M. A. Rohrdanz,  E. Rosta,  N. J. Russ,  
 H. F. Schaefer III,  N. E. Schultz,  N. Shenvi,  A. C. Simmonett,  A. Sodt,  
 D. Stuck,  K. S. Thanthiriwatte,  V. Vanovschi,  Tao Wang,  A. Warshel,  
 C. F. Williams,  Q. Wu,  X. Xu,  W. Zhang

 Please cite Q-Chem as follows:
 Y. Shao et al., Mol. Phys. 113, 184-215 (2015)
 DOI: 10.1080/00268976.2014.952696

 Q-Chem 5.2.2 for Intel X86 EM64T Linux

 Parts of Q-Chem use Armadillo 9.800.1 (Horizon Scraper).
 http://arma.sourceforge.net/

 Q-Chem begins on Sun Apr 12 06:29:03 2020  

Host: cn0913
0

     Scratch files written to /tmp/ypli/6721341.srvc1/qchem235234//
Warning:  Did not find "$end" marker in "$molecule" section

Checking the input file for inconsistencies... 	...done.

--------------------------------------------------------------
User input:
--------------------------------------------------------------
$rem
   JOBTYPE  sp
   EXCHANGE   omegaB97X-D
   BASIS   6-311+G(2df,2pd)
   max_scf_cycles   250
   geom_opt_max_cycles   1500
   basis2 6-31G*
   scf_algorithm rca_diis
   SYM_IGNORE  TRUE
   print_input   true
   geom_opt_dmax   80
   pop_mulliken false
   XC_GRID 000075000302
$end

$molecule
0 1
C       1.2246163621     -0.0000000063     0.1852336020
C       -0.1481281884     0.0000000010     -0.5738214371
H       1.3207332308     -0.8311564614     0.8933472323
H       1.3207332164     0.8311564480     0.8933472346
H       2.1617970402     0.0000000057     -0.3755303380
C       -1.3199993367     -0.0000000204     0.3292526711
H       0.1115828919     -0.8414942598     -1.2205012162
H       0.1115827839     0.8414942404     -1.2205012992
H       -1.3152526839     -0.9249465150     0.9014010629
H       -2.1524126432     0.0000007259     -0.3725836323
H       -1.3152527337     0.9249465078     0.9014011389
--------------------------------------------------------------
 ----------------------------------------------------------------
             Standard Nuclear Orientation (Angstroms)
    I     Atom           X                Y                Z
 ----------------------------------------------------------------
    1      C       1.2246163621    -0.0000000063     0.1852336020
    2      C      -0.1481281884     0.0000000010    -0.5738214371
    3      H       1.3207332308    -0.8311564614     0.8933472323
    4      H       1.3207332164     0.8311564480     0.8933472346
    5      H       2.1617970402     0.0000000057    -0.3755303380
    6      C      -1.3199993367    -0.0000000204     0.3292526711
    7      H       0.1115828919    -0.8414942598    -1.2205012162
    8      H       0.1115827839     0.8414942404    -1.2205012992
    9      H      -1.3152526839    -0.9249465150     0.9014010629
   10      H      -2.1524126432     0.0000007259    -0.3725836323
   11      H      -1.3152527337     0.9249465078     0.9014011389
 ----------------------------------------------------------------
 Nuclear Repulsion Energy =          82.85900546 hartrees
 There are       13 alpha and       13 beta electrons
 Requested basis set is 6-311+G(2df,2pd)
 There are 72 shells and 214 basis functions

 Total QAlloc Memory Limit   2000 MB
 Mega-Array Size       188 MB
 MEM_STATIC part       192 MB

                       Distance Matrix (Angstroms)
             C (  1)   C (  2)   H (  3)   H (  4)   H (  5)   C (  6)
   C (  2)  1.568627
   H (  3)  1.096122  2.236282
   H (  4)  1.096122  2.236282  1.662313
   H (  5)  1.092137  2.318421  1.734434  1.734434
   C (  6)  2.548688  1.479468  2.825330  2.825330  3.552411
   H (  7)  1.980668  1.092592  2.435263  2.954346  2.371807  2.271404
   H (  8)  1.980668  1.092592  2.954346  2.435263  2.371807  2.271404
   H (  9)  2.796311  2.096184  2.637666  3.167394  3.817847  1.087613
   H ( 10)  3.422789  2.014362  3.788950  3.788950  4.314211  1.088800
   H ( 11)  2.796311  2.096184  3.167394  2.637666  3.817847  1.087613
             H (  7)   H (  8)   H (  9)   H ( 10)
   H (  8)  1.682989
   H (  9)  2.558377  3.107836
   H ( 10)  2.559835  2.559834  1.783088
   H ( 11)  3.107836  2.558377  1.849893  1.783087
 
 A cutoff of  1.0D-09 yielded   2535 shell pairs
 There are     22595 function pairs (     27779 Cartesian)
 Smallest overlap matrix eigenvalue = 9.49E-05

 Scale SEOQF with 1.000000e-01/1.000000e-01/1.000000e-01

 Standard Electronic Orientation quadrupole field applied
 Nucleus-field energy     =     0.0000000006 hartrees
 Requested basis set is 6-31G(d)
 There are 28 shells and 58 basis functions
 A cutoff of  1.0D-09 yielded    402 shell pairs
 There are      1773 function pairs (      1968 Cartesian)
 Smallest overlap matrix eigenvalue = 6.83E-03
 Guess from superposition of atomic densities
 Warning:  Energy on first SCF cycle will be non-variational
 SAD guess density has 26.000000 electrons
 Long-range K will be added via erf
 Coulomb attenuation parameter = 0.2 bohr**(-1)
 A restricted hybrid HF-DFT SCF calculation will be
 performed using Relaxed Constraint Minimization + Pulay DIIS
 Exchange:     0.2220 Hartree-Fock + 1.0000 wB97X-D + LR-HF
 Correlation:  1.0000 wB97X-D
 Using Euler-Maclaurin-Lebedev (75,302) quadrature formula
 Dispersion:   Grimme D
 SCF converges when DIIS error is below 1.0E-04
 using 3 threads for integral computing
 -------------------------------------------------------
 OpenMP Integral computing Module                
 Release: version 1.0, May 2013, Q-Chem Inc. Pittsburgh 
 -------------------------------------------------------
 using 3 threads for integral computing
 -------------------------------------------------------
 OpenMP Integral computing Module                
 Release: version 1.0, May 2013, Q-Chem Inc. Pittsburgh 
 -------------------------------------------------------
 ---------------------------------------
  Cycle       Energy         DIIS Error
 ---------------------------------------
    1    -119.6492536390      1.01E-01
    2    -119.0382853460      9.02E-03
    3    -119.0595283876      2.51E-03
    4    -119.0734482024      1.73E-03
    5    -119.0741842083      2.76E-04 Done RCA. Switching to DIIS
    6    -119.0747236248      2.04E-04
    7    -119.0747417383      5.75E-06 Convergence criterion met
 ---------------------------------------
 SCF time:  CPU 23.64 s  wall 8.06 s
 SCF   energy in the small basis set = -119.07474174
 Total energy in the small basis set = -119.07474174
 ----------------------------------------------------
  Cycle       Energy    
 ----------------------------------------------------
    1     -16.5412416129     -1.65E+01
 Long-range K will be added via erf
 Coulomb attenuation parameter = 0.2 bohr**(-1)
 A restricted hybrid HF-DFT SCF calculation will be
 performed using Relaxed Constraint Minimization + Pulay DIIS
 Exchange:     0.2220 Hartree-Fock + 1.0000 wB97X-D + LR-HF
 Correlation:  1.0000 wB97X-D
 Using Euler-Maclaurin-Lebedev (75,302) quadrature formula
 Dispersion:   Grimme D
 SCF converges when DIIS error is below 1.0E-05
 Basis2 calculation detected. Using small basis as guess for larger.
 SCFMinFind is unable to tell whether the solution found is close.
 Resetting ReadMinima to 0 and attempting to follow guess.
 SCFMinFind following SCF Guess.
 using 3 threads for integral computing
 -------------------------------------------------------
 OpenMP Integral computing Module                
 Release: version 1.0, May 2013, Q-Chem Inc. Pittsburgh 
 -------------------------------------------------------
 using 3 threads for integral computing
 -------------------------------------------------------
 OpenMP Integral computing Module                
 Release: version 1.0, May 2013, Q-Chem Inc. Pittsburgh 
 -------------------------------------------------------
 ---------------------------------------
  Cycle       Energy         DIIS Error
 ---------------------------------------
    1    -119.0948124848      4.21E-03
    2    -119.1168700066      6.16E-04 Done RCA. Switching to DIIS
    3    -119.1177369744      4.36E-04
    4    -119.1187808274      4.53E-05
    5    -119.1187957697      9.60E-06 Convergence criterion met
 ---------------------------------------
 SCF time:  CPU 60.48 s  wall 20.36 s
 SCF   energy in the final basis set = -119.11879577
 Total energy in the final basis set = -119.11879577
 
 --------------------------------------------------------------
 
                    Orbital Energies (a.u.)
 --------------------------------------------------------------
 
 Alpha MOs
 -- Occupied --
-10.2751 -10.2713 -10.2618  -0.8863  -0.7820  -0.6806  -0.5479  -0.5247
 -0.4924  -0.4654  -0.4324  -0.3964  -0.3930
 -- Virtual --
  0.0683   0.0854   0.0905   0.0989   0.1240   0.1283   0.1321   0.1426
  0.1460   0.1638   0.1780   0.1916   0.2304   0.2346   0.2404   0.2740
  0.2773   0.2811   0.2977   0.3137   0.3279   0.3451   0.4567   0.4612
  0.4734   0.5137   0.5146   0.5262   0.5364   0.5740   0.5792   0.5946
  0.6244   0.6263   0.6380   0.6478   0.6515   0.6582   0.7135   0.7192
  0.7262   0.7676   0.8211   0.8629   0.8747   0.8747   0.8888   0.9630
  1.0050   1.0425   1.0456   1.1073   1.1351   1.1712   1.1883   1.2083
  1.2370   1.2419   1.2806   1.2882   1.3073   1.3128   1.3283   1.3705
  1.3863   1.3943   1.4155   1.4418   1.4546   1.4782   1.4903   1.4904
  1.5389   1.5809   1.6043   1.6121   1.6248   1.6329   1.6407   1.6993
  1.7378   2.3947   2.4529   2.4923   2.5032   2.5650   2.5950   2.6069
  2.6353   2.7167   2.7924   2.8009   2.8318   2.8744   2.8963   2.9256
  2.9591   2.9724   2.9830   3.0103   3.0375   3.0668   3.1028   3.1188
  3.1369   3.1379   3.1527   3.2184   3.2389   3.2458   3.2949   3.3078
  3.3207   3.3324   3.3405   3.3601   3.3981   3.4124   3.4608   3.4613
  3.4653   3.4956   3.5072   3.5363   3.5576   3.5580   3.5867   3.6068
  3.6232   3.6305   3.6582   3.6962   3.7214   3.7750   3.8102   3.8582
  3.8845   3.8894   3.9037   3.9330   3.9655   3.9813   4.0064   4.0549
  4.0634   4.1048   4.1207   4.1280   4.1549   4.1599   4.1746   4.2200
  4.2504   4.2873   4.3031   4.3786   4.4048   4.4197   4.4423   4.4795
  4.4937   4.5481   4.5878   4.6806   4.6985   4.7720   4.8376   4.8699
  4.8760   4.9302   4.9533   4.9558   5.0215   5.0283   5.0718   5.1208
  5.1211   5.1935   5.2200   5.2732   5.3287   5.3350   5.3538   5.3965
  5.4227   5.5126   5.5182   5.5657   5.6011   5.6263   5.7092   5.7567
  6.0362   6.3235   6.3921   6.4238   6.4332   6.5535  25.2002  25.4050
 25.4775
 --------------------------------------------------------------
 
 -----------------------------------------------------------------
                    Cartesian Multipole Moments
 -----------------------------------------------------------------
    Charge (ESU x 10^10)
                 0.0000
    Dipole Moment (Debye)
         X      -0.0519      Y       0.0000      Z      -0.0552
       Tot       0.0758
    Quadrupole Moments (Debye-Ang)
        XX     -22.1155     XY      -0.0000     YY     -21.5307
        XZ      -0.3656     YZ      -0.0000     ZZ     -21.9655
    Octopole Moments (Debye-Ang^2)
       XXX       3.9963    XXY       0.0000    XYY       0.2587
       YYY      -0.0000    XXZ      -1.7173    XYZ       0.0000
       YYZ       0.6727    XZZ       1.4267    YZZ      -0.0000
       ZZZ      -0.2454
    Hexadecapole Moments (Debye-Ang^3)
      XXXX    -205.2194   XXXY      -0.0000   XXYY     -42.4866
      XYYY       0.0000   YYYY     -44.0029   XXXZ       3.5121
      XXYZ      -0.0000   XYYZ      -0.3622   YYYZ      -0.0000
      XXZZ     -45.4094   XYZZ       0.0000   YYZZ     -17.2988
      XZZZ       1.5528   YZZZ      -0.0000   ZZZZ     -72.0986
 -----------------------------------------------------------------
Archival summary:
1\1\cn0913\SP\ProcedureUnspecified\BasisUnspecified\38\r0852400\SunApr1206:29:352020SunApr1206:29:352020\0\\#,ProcedureUnspecified,BasisUnspecified,\\0,1\C\H,1,1.09259\H,1,1.09259,2,100.74\C,1,1.47947,2,123.337,3,142.59,0\H,4,1.08761,1,108.521,2,49.046,0\H,4,1.08761,1,108.521,2,176.55,0\H,4,1.0888,1,102.246,2,-67.2019,0\C,1,1.56863,2,94.496,3,-95.4483,0\H,8,1.09214,1,120.165,2,50.5842,0\H,8,1.09612,1,112.914,2,175.175,0\H,8,1.09612,1,112.914,2,-74.0064,0\\\@

 Total job time:  31.77s(wall), 88.28s(cpu) 
 Sun Apr 12 06:29:35 2020

        *************************************************************
        *                                                           *
        *  Thank you very much for using Q-Chem.  Have a nice day.  *
        *                                                           *
        *************************************************************


