                  Welcome to Q-Chem
     A Quantum Leap Into The Future Of Chemistry


 Q-Chem 5.3 (devel), Q-Chem, Inc., Pleasanton, CA (2020)

 Yihan Shao,  Zhengting Gan,  E. Epifanovsky,  A. T. B. Gilbert,  M. Wormit,  
 J. Kussmann,  A. W. Lange,  A. Behn,  Jia Deng,  Xintian Feng,  D. Ghosh,  
 M. Goldey,  P. R. Horn,  L. D. Jacobson,  I. Kaliman,  T. Kus,  A. Landau,  
 Jie Liu,  E. I. Proynov,  R. M. Richard,  R. P. Steele,  E. J. Sundstrom,  
 H. L. Woodcock III,  P. M. Zimmerman,  D. Zuev,  B. Alam,  B. Albrecht,  
 E. Alguire,  S. A. Baeppler,  D. Barton,  Z. Benda,  Y. A. Bernard,  
 E. J. Berquist,  K. B. Bravaya,  H. Burton,  K. Carter-Fenk,  D. Casanova,  
 Chun-Min Chang,  Yunqing Chen,  A. Chien,  K. D. Closser,  M. P. Coons,  
 S. Coriani,  S. Dasgupta,  A. L. Dempwolff,  M. Diedenhofen,  Hainam Do,  
 R. G. Edgar,  Po-Tung Fang,  S. Faraji,  S. Fatehi,  Qingguo Feng,  
 J. Fosso-Tande,  J. Gayvert,  Qinghui Ge,  A. Ghysels,  G. Gidofalvi,  
 J. Gomes,  J. Gonthier,  A. Gunina,  D. Hait,  M. W. D. Hanson-Heine,  
 P. H. P. Harbach,  A. W. Hauser,  M. F. Herbst,  J. E. Herr,  
 E. G. Hohenstein,  Z. C. Holden,  Kerwin Hui,  B. C. Huynh,  T.-C. Jagau,  
 Hyunjun Ji,  B. Kaduk,  K. Khistyaev,  Jaehoon Kim,  P. Klunzinger,  K. Koh,  
 D. Kosenkov,  L. Koulias,  T. Kowalczyk,  C. M. Krauter,  A. Kunitsa,  
 Ka Un Lao,  A. Laurent,  K. V. Lawler,  Joonho Lee,  D. Lefrancois,  
 S. Lehtola,  D. S. Levine,  Yi-Pei Li,  You-Sheng Lin,  Fenglai Liu,  
 Kuan-Yu Liu,  E. Livshits,  M. Loipersberger,  A. Luenser,  P. Manohar,  
 E. Mansoor,  S. F. Manzer,  Shan-Ping Mao,  Yuezhi Mao,  N. Mardirossian,  
 A. V. Marenich,  T. Markovich,  L. A. Martinez-Martinez,  S. A. Maurer,  
 N. J. Mayhall,  S. C. McKenzie,  J.-M. Mewes,  P. Morgante,  A. F. Morrison,  
 J. W. Mullinax,  K. Nanda,  T. S. Nguyen-Beck,  R. Olivares-Amaya,  
 K. J. Oosterbaan,  J. A. Parkhill,  S. K. Paul,  F. Pavosevic,  Zheng Pei,  
 T. M. Perrine,  F. Plasser,  P. Pokhilko,  S. Prager,  A. Prociuk,  
 E. Ramos,  B. Rana,  D. R. Rehn,  F. Rob,  M. Scheurer,  M. Schneider,  
 N. Sergueev,  S. M. Sharada,  S. Sharma,  D. W. Small,  T. Stauch,  
 C. J. Stein,  T. Stein,  Yu-Chuan Su,  S. P. Veccham,  Zhen Tao,  
 A. J. W. Thom,  A. Tkatchenko,  T. Tsuchimochi,  N. M. Tubman,  L. Vogt,  
 M. L. Vidal,  O. Vydrov,  M. A. Watson,  J. Wenzel,  M. de Wergifosse,  
 T. A. Wesolowski,  A. White,  J. Witte,  A. Yamada,  Jun Yang,  K. Yao,  
 S. Yeganeh,  S. R. Yost,  Zhi-Qiang You,  A. Zech,  Igor Ying Zhang,  
 Xing Zhang,  Yan Zhao,  Ying Zhu,  B. R. Brooks,  G. K. L. Chan,  
 C. J. Cramer,  M. S. Gordon,  W. J. Hehre,  A. Klamt,  M. W. Schmidt,  
 C. D. Sherrill,  D. G. Truhlar,  A. Aspuru-Guzik,  R. Baer,  A. T. Bell,  
 N. A. Besley,  Jeng-Da Chai,  A. E. DePrince, III,  R. A. DiStasio Jr.,  
 A. Dreuw,  B. D. Dunietz,  T. R. Furlani,  Chao-Ping Hsu,  Yousung Jung,  
 Jing Kong,  D. S. Lambrecht,  WanZhen Liang,  C. Ochsenfeld,  
 V. A. Rassolov,  L. V. Slipchenko,  J. E. Subotnik,  T. Van Voorhis,  
 J. M. Herbert,  A. I. Krylov,  P. M. W. Gill,  M. Head-Gordon

 Contributors to earlier versions of Q-Chem not listed above: 
 R. D. Adamson,  B. Austin,  J. Baker,  G. J. O. Beran,  K. Brandhorst,  
 S. T. Brown,  E. F. C. Byrd,  A. K. Chakraborty,  C.-L. Cheng,  
 Siu Hung Chien,  D. M. Chipman,  D. L. Crittenden,  H. Dachsel,  
 R. J. Doerksen,  A. D. Dutoi,  L. Fusti-Molnar,  W. A. Goddard III,  
 A. Golubeva-Zadorozhnaya,  S. R. Gwaltney,  G. Hawkins,  A. Heyden,  
 S. Hirata,  G. Kedziora,  F. J. Keil,  C. Kelley,  Jihan Kim,  R. A. King,  
 R. Z. Khaliullin,  P. P. Korambath,  W. Kurlancheek,  A. M. Lee,  M. S. Lee,  
 S. V. Levchenko,  Ching Yeh Lin,  D. Liotard,  R. C. Lochan,  I. Lotan,  
 P. E. Maslen,  N. Nair,  D. P. O'Neill,  D. Neuhauser,  E. Neuscamman,  
 C. M. Oana,  R. Olson,  B. Peters,  R. Peverati,  P. A. Pieniazek,  
 Y. M. Rhee,  J. Ritchie,  M. A. Rohrdanz,  E. Rosta,  N. J. Russ,  
 H. F. Schaefer III,  N. E. Schultz,  N. Shenvi,  A. C. Simmonett,  A. Sodt,  
 D. Stuck,  K. S. Thanthiriwatte,  V. Vanovschi,  Tao Wang,  A. Warshel,  
 C. F. Williams,  Q. Wu,  X. Xu,  W. Zhang

 Please cite Q-Chem as follows:
 Y. Shao et al., Mol. Phys. 113, 184-215 (2015)
 DOI: 10.1080/00268976.2014.952696

 Q-Chem 5.3.0 for Intel X86 EM64T Linux

 Parts of Q-Chem use Armadillo 9.800.1 (Horizon Scraper).
 http://arma.sourceforge.net/

 Q-Chem begins on Thu Jul  2 04:34:46 2020  

Host: centos77-c1
0

     Scratch files written to /tmp/26650.centos77-h1/qchem74228//
Processing $rem in /opt/qchem-5.3.0-intel2020u1//config/preferences:
Processing $rem in /home/shihchengli/.qchemrc:

Checking the input file for inconsistencies... 	...done.

--------------------------------------------------------------
User input:
--------------------------------------------------------------
$rem
   JOBTYPE  sp
   EXCHANGE   omegaB97X-D
   BASIS   6-311+G(2df,2pd)
   max_scf_cycles   250
   geom_opt_max_cycles   1500
   basis2 6-31G*
   scf_algorithm rca_diis
   SYM_IGNORE  TRUE
   print_input   true
   geom_opt_dmax   80
   pop_mulliken false
   XC_GRID 000075000302
$end

$molecule
0 1
C       1.2553879695     -0.0706970781     0.2595697355
C       -0.0000000093     -0.1253691608     -0.6028295705
H       1.4065060683     -0.8310076417     1.0260527197
H       1.1592706381     0.8966150684     0.7605890248
H       2.1536694715     -0.0003857414     -0.3546525693
C       -1.2553879855     -0.0706976108     0.2595698879
H       0.0000003925     -0.7741239553     -1.4773839348
H       -0.0000006148     0.9104445131     -0.9618592997
H       -1.4065067085     -0.8310080290     1.0260527786
H       -2.1536691914     -0.0003844124     -0.3546526158
H       -1.1592700910     0.8966147139     0.7605888626
$end
--------------------------------------------------------------
 ----------------------------------------------------------------
             Standard Nuclear Orientation (Angstroms)
    I     Atom           X                Y                Z
 ----------------------------------------------------------------
    1      C       1.2553879695    -0.0706970781     0.2595697355
    2      C      -0.0000000093    -0.1253691608    -0.6028295705
    3      H       1.4065060683    -0.8310076417     1.0260527197
    4      H       1.1592706381     0.8966150684     0.7605890248
    5      H       2.1536694715    -0.0003857414    -0.3546525693
    6      C      -1.2553879855    -0.0706976108     0.2595698879
    7      H       0.0000003925    -0.7741239553    -1.4773839348
    8      H      -0.0000006148     0.9104445131    -0.9618592997
    9      H      -1.4065067085    -0.8310080290     1.0260527786
   10      H      -2.1536691914    -0.0003844124    -0.3546526158
   11      H      -1.1592700910     0.8966147139     0.7605888626
 ----------------------------------------------------------------
 Nuclear Repulsion Energy =          83.06093446 hartrees
 There are       13 alpha and       13 beta electrons
 Requested basis set is 6-311+G(2df,2pd)
 There are 72 shells and 214 basis functions

 Total QAlloc Memory Limit   2000 MB
 Mega-Array Size       188 MB
 MEM_STATIC part       192 MB

                       Distance Matrix (Angstroms)
             C (  1)   C (  2)   H (  3)   H (  4)   H (  5)   C (  6)
   C (  2)  1.524047
   H (  3)  1.090140  2.264827
   H (  4)  1.093596  2.060891  1.765298
   H (  5)  1.090469  2.171521  1.776101  1.742757
   C (  6)  2.510776  1.524047  2.872498  2.649017  3.464662
   H (  7)  2.255619  1.088911  2.872053  3.023872  2.549017  2.255619
   H (  8)  2.007618  1.096272  2.993779  2.076278  2.415907  2.007617
   H (  9)  2.872499  2.264828  2.813013  3.104572  3.907830  1.090140
   H ( 10)  3.464662  2.171521  3.907829  3.608870  4.307339  1.090469
   H ( 11)  2.649016  2.060890  3.104570  2.318541  3.608870  1.093596
             H (  7)   H (  8)   H (  9)   H ( 10)
   H (  8)  1.761686
   H (  9)  2.872054  2.993779
   H ( 10)  2.549018  2.415905  1.776101
   H ( 11)  3.023871  2.076277  1.765298  1.742757
 
 A cutoff of  1.0D-09 yielded   2540 shell pairs
 There are     22594 function pairs (     27775 Cartesian)
 Smallest overlap matrix eigenvalue = 9.24E-05

 Scale SEOQF with 1.000000e-01/1.000000e-01/1.000000e-01

 Standard Electronic Orientation quadrupole field applied
 Nucleus-field energy     =     0.0000000005 hartrees
 Requested basis set is 6-31G(d)
 There are 28 shells and 58 basis functions
 A cutoff of  1.0D-09 yielded    402 shell pairs
 There are      1773 function pairs (      1968 Cartesian)
 Smallest overlap matrix eigenvalue = 6.25E-03
 Guess from superposition of atomic densities
 Warning:  Energy on first SCF cycle will be non-variational
 SAD guess density has 26.000000 electrons
 Long-range K will be added via erf
 Coulomb attenuation parameter = 0.2 bohr**(-1)
 A restricted hybrid HF-DFT SCF calculation will be
 performed using Relaxed Constraint Minimization + Pulay DIIS
 Exchange:     0.2220 Hartree-Fock + 1.0000 wB97X-D + LR-HF
 Correlation:  1.0000 wB97X-D
 Using Euler-Maclaurin-Lebedev (75,302) quadrature formula
 Dispersion:   Grimme D
 SCF converges when DIIS error is below 1.0E-04
 using 3 threads for integral computing
 -------------------------------------------------------
 OpenMP Integral computing Module                
 Release: version 1.0, May 2013, Q-Chem Inc. Pittsburgh 
 -------------------------------------------------------
 using 3 threads for integral computing
 -------------------------------------------------------
 OpenMP Integral computing Module                
 Release: version 1.0, May 2013, Q-Chem Inc. Pittsburgh 
 -------------------------------------------------------
 ---------------------------------------
  Cycle       Energy         DIIS Error
 ---------------------------------------
    1    -119.6489362937      1.01E-01
    2    -119.0497071379      9.01E-03
    3    -119.0708246002      2.49E-03
    4    -119.0847783978      1.71E-03
    5    -119.0854919722      2.68E-04 Done RCA. Switching to DIIS
    6    -119.0860179047      1.98E-04
    7    -119.0860349135      4.73E-06 Convergence criterion met
 ---------------------------------------
 SCF time:  CPU 18.71 s  wall 6.68 s
 SCF   energy in the small basis set = -119.08603491
 Total energy in the small basis set = -119.08603491
 ----------------------------------------------------
  Cycle       Energy    
 ----------------------------------------------------
    1     -16.5434763392     -1.65E+01
 Long-range K will be added via erf
 Coulomb attenuation parameter = 0.2 bohr**(-1)
 A restricted hybrid HF-DFT SCF calculation will be
 performed using Relaxed Constraint Minimization + Pulay DIIS
 Exchange:     0.2220 Hartree-Fock + 1.0000 wB97X-D + LR-HF
 Correlation:  1.0000 wB97X-D
 Using Euler-Maclaurin-Lebedev (75,302) quadrature formula
 Dispersion:   Grimme D
 SCF converges when DIIS error is below 1.0E-05
 Basis2 calculation detected. Using small basis as guess for larger.
 SCFMinFind is unable to tell whether the solution found is close.
 Resetting ReadMinima to 0 and attempting to follow guess.
 SCFMinFind following SCF Guess.
 using 3 threads for integral computing
 -------------------------------------------------------
 OpenMP Integral computing Module                
 Release: version 1.0, May 2013, Q-Chem Inc. Pittsburgh 
 -------------------------------------------------------
 using 3 threads for integral computing
 -------------------------------------------------------
 OpenMP Integral computing Module                
 Release: version 1.0, May 2013, Q-Chem Inc. Pittsburgh 
 -------------------------------------------------------
 ---------------------------------------
  Cycle       Energy         DIIS Error
 ---------------------------------------
    1    -119.1057214878      4.21E-03
    2    -119.1277185511      6.02E-04 Done RCA. Switching to DIIS
    3    -119.1285548185      4.24E-04
    4    -119.1295363940      4.59E-05
    5    -119.1295513213      1.02E-05
    6    -119.1295520317      3.79E-06 Convergence criterion met
 ---------------------------------------
 SCF time:  CPU 51.28 s  wall 17.34 s
 SCF   energy in the final basis set = -119.12955203
 Total energy in the final basis set = -119.12955203
 
 --------------------------------------------------------------
 
                    Orbital Energies (a.u.)
 --------------------------------------------------------------
 
 Alpha MOs
 -- Occupied --
-10.2754 -10.2661 -10.2661  -0.8870  -0.7773  -0.6766  -0.5537  -0.5218
 -0.4880  -0.4575  -0.4239  -0.4155  -0.3978
 -- Virtual --
  0.0688   0.0858   0.0893   0.0958   0.1256   0.1296   0.1336   0.1349
  0.1428   0.1720   0.1726   0.1918   0.2300   0.2438   0.2439   0.2651
  0.2821   0.2867   0.3096   0.3134   0.3303   0.3487   0.4592   0.4694
  0.4733   0.4964   0.5141   0.5150   0.5398   0.5659   0.5876   0.5926
  0.6080   0.6258   0.6406   0.6461   0.6494   0.6728   0.7101   0.7240
  0.7248   0.7738   0.8184   0.8442   0.8660   0.8967   0.9242   0.9819
  1.0216   1.0303   1.0881   1.1082   1.1292   1.1624   1.1915   1.2050
  1.2323   1.2499   1.2581   1.2943   1.3161   1.3219   1.3313   1.3789
  1.3847   1.4028   1.4255   1.4269   1.4437   1.4722   1.5060   1.5290
  1.5379   1.5557   1.5722   1.6169   1.6332   1.6401   1.6542   1.7014
  1.7334   2.3794   2.4256   2.4583   2.5267   2.5641   2.6057   2.6283
  2.6930   2.7081   2.7681   2.8358   2.8634   2.8849   2.9089   2.9208
  2.9718   2.9996   3.0013   3.0080   3.0562   3.0569   3.0851   3.1021
  3.1291   3.1691   3.1790   3.1966   3.2087   3.2485   3.2577   3.2919
  3.3050   3.3059   3.3357   3.3664   3.3927   3.3970   3.4318   3.4531
  3.4555   3.5061   3.5062   3.5197   3.5696   3.5778   3.5885   3.6187
  3.6235   3.6333   3.6511   3.7423   3.7968   3.8133   3.8512   3.8695
  3.9039   3.9172   3.9219   3.9638   3.9851   4.0192   4.0696   4.0698
  4.0992   4.1123   4.1134   4.1535   4.1784   4.1825   4.1880   4.2104
  4.2372   4.2929   4.3203   4.3211   4.3487   4.4106   4.4285   4.4672
  4.5221   4.5716   4.5777   4.6484   4.7044   4.7991   4.8368   4.8966
  4.9238   4.9507   4.9675   4.9692   4.9832   5.0403   5.1058   5.1398
  5.1403   5.2315   5.2323   5.2572   5.2746   5.3393   5.3697   5.3791
  5.3972   5.4048   5.4888   5.5367   5.5781   5.6062   5.7098   5.7440
  5.9721   6.3873   6.3977   6.4136   6.4330   6.5000  25.1571  25.4353
 25.4557
 --------------------------------------------------------------
 
 -----------------------------------------------------------------
                    Cartesian Multipole Moments
 -----------------------------------------------------------------
    Charge (ESU x 10^10)
                -0.0000
    Dipole Moment (Debye)
         X      -0.0000      Y       0.1705      Z      -0.1016
       Tot       0.1985
    Quadrupole Moments (Debye-Ang)
        XX     -22.2234     XY      -0.0000     YY     -21.5074
        XZ      -0.0000     YZ      -0.0497     ZZ     -21.7814
    Octopole Moments (Debye-Ang^2)
       XXX       0.0000    XXY       0.8503    XYY      -0.0000
       YYY       4.2313    XXZ      -1.3061    XYZ       0.0000
       YYZ       0.5720    XZZ       0.0000    YZZ      -0.0872
       ZZZ      -0.4237
    Hexadecapole Moments (Debye-Ang^3)
      XXXX    -199.2197   XXXY      -0.0000   XXYY     -41.9700
      XYYY      -0.0000   YYYY     -44.1136   XXXZ      -0.0000
      XXYZ      -1.3238   XYYZ       0.0000   YYYZ      -0.5130
      XXZZ     -44.5777   XYZZ      -0.0000   YYZZ     -17.6984
      XZZZ       0.0000   YZZZ       0.1216   ZZZZ     -71.3238
 -----------------------------------------------------------------
Archival summary:
1\1\centos77-c1\SP\ProcedureUnspecified\BasisUnspecified\38\shihchen\ThuJul204:35:132020ThuJul204:35:132020\0\\#,ProcedureUnspecified,BasisUnspecified,\\0,1\C\H,1,1.08891\H,1,1.09627,2,107.451\C,1,1.52405,2,118.414,3,-110.521,0\H,4,1.09014,1,119.145,2,-83.8289,0\H,4,1.09047,1,111.231,2,44.3466,0\H,4,1.0936,1,102.625,2,157.153,0\C,1,1.52405,2,118.414,3,110.521,0\H,8,1.09014,1,119.145,2,83.8289,0\H,8,1.09047,1,111.231,2,-44.3468,0\H,8,1.0936,1,102.625,2,-157.153,0\\\@

 Total job time:  26.92s(wall), 73.55s(cpu) 
 Thu Jul  2 04:35:13 2020

        *************************************************************
        *                                                           *
        *  Thank you very much for using Q-Chem.  Have a nice day.  *
        *                                                           *
        *************************************************************


