                  Welcome to Q-Chem
     A Quantum Leap Into The Future Of Chemistry


 Q-Chem 5.3 (devel), Q-Chem, Inc., Pleasanton, CA (2020)

 Yihan Shao,  Zhengting Gan,  E. Epifanovsky,  A. T. B. Gilbert,  M. Wormit,  
 J. Kussmann,  A. W. Lange,  A. Behn,  Jia Deng,  Xintian Feng,  D. Ghosh,  
 M. Goldey,  P. R. Horn,  L. D. Jacobson,  I. Kaliman,  T. Kus,  A. Landau,  
 Jie Liu,  E. I. Proynov,  R. M. Richard,  R. P. Steele,  E. J. Sundstrom,  
 H. L. Woodcock III,  P. M. Zimmerman,  D. Zuev,  B. Alam,  B. Albrecht,  
 E. Alguire,  S. A. Baeppler,  D. Barton,  Z. Benda,  Y. A. Bernard,  
 E. J. Berquist,  K. B. Bravaya,  H. Burton,  K. Carter-Fenk,  D. Casanova,  
 Chun-Min Chang,  Yunqing Chen,  A. Chien,  K. D. Closser,  M. P. Coons,  
 S. Coriani,  S. Dasgupta,  A. L. Dempwolff,  M. Diedenhofen,  Hainam Do,  
 R. G. Edgar,  Po-Tung Fang,  S. Faraji,  S. Fatehi,  Qingguo Feng,  
 J. Fosso-Tande,  J. Gayvert,  Qinghui Ge,  A. Ghysels,  G. Gidofalvi,  
 J. Gomes,  J. Gonthier,  A. Gunina,  D. Hait,  M. W. D. Hanson-Heine,  
 P. H. P. Harbach,  A. W. Hauser,  M. F. Herbst,  J. E. Herr,  
 E. G. Hohenstein,  Z. C. Holden,  Kerwin Hui,  B. C. Huynh,  T.-C. Jagau,  
 Hyunjun Ji,  B. Kaduk,  K. Khistyaev,  Jaehoon Kim,  P. Klunzinger,  K. Koh,  
 D. Kosenkov,  L. Koulias,  T. Kowalczyk,  C. M. Krauter,  A. Kunitsa,  
 Ka Un Lao,  A. Laurent,  K. V. Lawler,  Joonho Lee,  D. Lefrancois,  
 S. Lehtola,  D. S. Levine,  Yi-Pei Li,  You-Sheng Lin,  Fenglai Liu,  
 Kuan-Yu Liu,  E. Livshits,  M. Loipersberger,  A. Luenser,  P. Manohar,  
 E. Mansoor,  S. F. Manzer,  Shan-Ping Mao,  Yuezhi Mao,  N. Mardirossian,  
 A. V. Marenich,  T. Markovich,  L. A. Martinez-Martinez,  S. A. Maurer,  
 N. J. Mayhall,  S. C. McKenzie,  J.-M. Mewes,  P. Morgante,  A. F. Morrison,  
 J. W. Mullinax,  K. Nanda,  T. S. Nguyen-Beck,  R. Olivares-Amaya,  
 K. J. Oosterbaan,  J. A. Parkhill,  S. K. Paul,  F. Pavosevic,  Zheng Pei,  
 T. M. Perrine,  F. Plasser,  P. Pokhilko,  S. Prager,  A. Prociuk,  
 E. Ramos,  B. Rana,  D. R. Rehn,  F. Rob,  M. Scheurer,  M. Schneider,  
 N. Sergueev,  S. M. Sharada,  S. Sharma,  D. W. Small,  T. Stauch,  
 C. J. Stein,  T. Stein,  Yu-Chuan Su,  S. P. Veccham,  Zhen Tao,  
 A. J. W. Thom,  A. Tkatchenko,  T. Tsuchimochi,  N. M. Tubman,  L. Vogt,  
 M. L. Vidal,  O. Vydrov,  M. A. Watson,  J. Wenzel,  M. de Wergifosse,  
 T. A. Wesolowski,  A. White,  J. Witte,  A. Yamada,  Jun Yang,  K. Yao,  
 S. Yeganeh,  S. R. Yost,  Zhi-Qiang You,  A. Zech,  Igor Ying Zhang,  
 Xing Zhang,  Yan Zhao,  Ying Zhu,  B. R. Brooks,  G. K. L. Chan,  
 C. J. Cramer,  M. S. Gordon,  W. J. Hehre,  A. Klamt,  M. W. Schmidt,  
 C. D. Sherrill,  D. G. Truhlar,  A. Aspuru-Guzik,  R. Baer,  A. T. Bell,  
 N. A. Besley,  Jeng-Da Chai,  A. E. DePrince, III,  R. A. DiStasio Jr.,  
 A. Dreuw,  B. D. Dunietz,  T. R. Furlani,  Chao-Ping Hsu,  Yousung Jung,  
 Jing Kong,  D. S. Lambrecht,  WanZhen Liang,  C. Ochsenfeld,  
 V. A. Rassolov,  L. V. Slipchenko,  J. E. Subotnik,  T. Van Voorhis,  
 J. M. Herbert,  A. I. Krylov,  P. M. W. Gill,  M. Head-Gordon

 Contributors to earlier versions of Q-Chem not listed above: 
 R. D. Adamson,  B. Austin,  J. Baker,  G. J. O. Beran,  K. Brandhorst,  
 S. T. Brown,  E. F. C. Byrd,  A. K. Chakraborty,  C.-L. Cheng,  
 Siu Hung Chien,  D. M. Chipman,  D. L. Crittenden,  H. Dachsel,  
 R. J. Doerksen,  A. D. Dutoi,  L. Fusti-Molnar,  W. A. Goddard III,  
 A. Golubeva-Zadorozhnaya,  S. R. Gwaltney,  G. Hawkins,  A. Heyden,  
 S. Hirata,  G. Kedziora,  F. J. Keil,  C. Kelley,  Jihan Kim,  R. A. King,  
 R. Z. Khaliullin,  P. P. Korambath,  W. Kurlancheek,  A. M. Lee,  M. S. Lee,  
 S. V. Levchenko,  Ching Yeh Lin,  D. Liotard,  R. C. Lochan,  I. Lotan,  
 P. E. Maslen,  N. Nair,  D. P. O'Neill,  D. Neuhauser,  E. Neuscamman,  
 C. M. Oana,  R. Olson,  B. Peters,  R. Peverati,  P. A. Pieniazek,  
 Y. M. Rhee,  J. Ritchie,  M. A. Rohrdanz,  E. Rosta,  N. J. Russ,  
 H. F. Schaefer III,  N. E. Schultz,  N. Shenvi,  A. C. Simmonett,  A. Sodt,  
 D. Stuck,  K. S. Thanthiriwatte,  V. Vanovschi,  Tao Wang,  A. Warshel,  
 C. F. Williams,  Q. Wu,  X. Xu,  W. Zhang

 Please cite Q-Chem as follows:
 Y. Shao et al., Mol. Phys. 113, 184-215 (2015)
 DOI: 10.1080/00268976.2014.952696

 Q-Chem 5.3.0 for Intel X86 EM64T Linux

 Parts of Q-Chem use Armadillo 9.800.1 (Horizon Scraper).
 http://arma.sourceforge.net/

 Q-Chem begins on Thu Jul  2 03:21:22 2020  

Host: centos77-c1
0

     Scratch files written to /tmp/26650.centos77-h1/qchem67581//
Processing $rem in /opt/qchem-5.3.0-intel2020u1//config/preferences:
Processing $rem in /home/shihchengli/.qchemrc:

Checking the input file for inconsistencies... 	...done.

--------------------------------------------------------------
User input:
--------------------------------------------------------------
$rem
   JOBTYPE  sp
   EXCHANGE   omegaB97X-D
   BASIS   6-311+G(2df,2pd)
   max_scf_cycles   250
   geom_opt_max_cycles   1500
   basis2 6-31G*
   scf_algorithm rca_diis
   SYM_IGNORE  TRUE
   print_input   true
   geom_opt_dmax   80
   pop_mulliken false
   XC_GRID 000075000302
$end

$molecule
0 1
C       1.2095912468     0.3776934099     0.2666700755
C       0.0000014894     -0.0000084755     -0.5800626763
H       1.0089750399     1.2411690342     0.9080106897
H       2.0459523318     0.6375798051     -0.3815316480
H       1.5287246938     -0.4486008399     0.9026843709
C       -1.2095914992     -0.3776867631     0.2666758045
H       0.1914774951     -0.8531118985     -1.2352793863
H       -0.1914712914     0.8530760138     -1.2353043273
H       -2.0459687564     -0.6375275398     -0.3815242212
H       -1.5286917158     0.4486032868     0.9027121565
H       -1.0089990946     -1.2411853670     0.9079941810
$end
--------------------------------------------------------------
 ----------------------------------------------------------------
             Standard Nuclear Orientation (Angstroms)
    I     Atom           X                Y                Z
 ----------------------------------------------------------------
    1      C       1.2095912468     0.3776934099     0.2666700755
    2      C       0.0000014894    -0.0000084755    -0.5800626763
    3      H       1.0089750399     1.2411690342     0.9080106897
    4      H       2.0459523318     0.6375798051    -0.3815316480
    5      H       1.5287246938    -0.4486008399     0.9026843709
    6      C      -1.2095914992    -0.3776867631     0.2666758045
    7      H       0.1914774951    -0.8531118985    -1.2352793863
    8      H      -0.1914712914     0.8530760138    -1.2353043273
    9      H      -2.0459687564    -0.6375275398    -0.3815242212
   10      H      -1.5286917158     0.4486032868     0.9027121565
   11      H      -1.0089990946    -1.2411853670     0.9079941810
 ----------------------------------------------------------------
 Nuclear Repulsion Energy =          82.70229486 hartrees
 There are       13 alpha and       13 beta electrons
 Requested basis set is 6-311+G(2df,2pd)
 There are 72 shells and 214 basis functions

 Total QAlloc Memory Limit   2000 MB
 Mega-Array Size       188 MB
 MEM_STATIC part       192 MB

                       Distance Matrix (Angstroms)
             C (  1)   C (  2)   H (  3)   H (  4)   H (  5)   C (  6)
   C (  2)  1.524048
   H (  3)  1.094146  2.184699
   H (  4)  1.089590  2.152173  1.761409
   H (  5)  1.090469  2.176412  1.767906  1.759694
   C (  6)  2.534373  1.524048  2.820291  3.471240  2.812101
   H (  7)  2.192553  1.092592  3.106124  2.527869  2.553967  2.108291
   H (  8)  2.108291  1.092592  2.487064  2.404461  3.037175  2.192553
   H (  9)  3.471239  2.152172  3.811179  4.285991  3.803067  1.089590
   H ( 10)  2.812076  2.176414  2.658560  3.803035  3.186341  1.090469
   H ( 11)  2.820321  2.184700  3.199110  3.811216  2.658620  1.094146
             H (  7)   H (  8)   H (  9)   H ( 10)
   H (  8)  1.748636
   H (  9)  2.404483  2.527845
   H ( 10)  3.037178  2.553991  1.759693
   H ( 11)  2.487040  3.106125  1.761410  1.767907
 
 A cutoff of  1.0D-09 yielded   2530 shell pairs
 There are     22576 function pairs (     27757 Cartesian)
 Smallest overlap matrix eigenvalue = 8.68E-05

 Scale SEOQF with 1.000000e-01/1.000000e-01/1.000000e-01

 Standard Electronic Orientation quadrupole field applied
 Nucleus-field energy     =     0.0000000007 hartrees
 Requested basis set is 6-31G(d)
 There are 28 shells and 58 basis functions
 A cutoff of  1.0D-09 yielded    402 shell pairs
 There are      1773 function pairs (      1968 Cartesian)
 Smallest overlap matrix eigenvalue = 6.74E-03
 Guess from superposition of atomic densities
 Warning:  Energy on first SCF cycle will be non-variational
 SAD guess density has 26.000000 electrons
 Long-range K will be added via erf
 Coulomb attenuation parameter = 0.2 bohr**(-1)
 A restricted hybrid HF-DFT SCF calculation will be
 performed using Relaxed Constraint Minimization + Pulay DIIS
 Exchange:     0.2220 Hartree-Fock + 1.0000 wB97X-D + LR-HF
 Correlation:  1.0000 wB97X-D
 Using Euler-Maclaurin-Lebedev (75,302) quadrature formula
 Dispersion:   Grimme D
 SCF converges when DIIS error is below 1.0E-04
 using 3 threads for integral computing
 -------------------------------------------------------
 OpenMP Integral computing Module                
 Release: version 1.0, May 2013, Q-Chem Inc. Pittsburgh 
 -------------------------------------------------------
 using 3 threads for integral computing
 -------------------------------------------------------
 OpenMP Integral computing Module                
 Release: version 1.0, May 2013, Q-Chem Inc. Pittsburgh 
 -------------------------------------------------------
 ---------------------------------------
  Cycle       Energy         DIIS Error
 ---------------------------------------
    1    -119.6185430287      1.00E-01
    2    -119.0653594991      9.02E-03
    3    -119.0865316611      2.46E-03
    4    -119.1004950020      1.68E-03
    5    -119.1011921047      2.67E-04 Done RCA. Switching to DIIS
    6    -119.1017029519      1.97E-04
    7    -119.1017197821      4.61E-06 Convergence criterion met
 ---------------------------------------
 SCF time:  CPU 20.42 s  wall 7.58 s
 SCF   energy in the small basis set = -119.10171978
 Total energy in the small basis set = -119.10171978
 ----------------------------------------------------
  Cycle       Energy    
 ----------------------------------------------------
    1     -16.5395081497     -1.65E+01
 Long-range K will be added via erf
 Coulomb attenuation parameter = 0.2 bohr**(-1)
 A restricted hybrid HF-DFT SCF calculation will be
 performed using Relaxed Constraint Minimization + Pulay DIIS
 Exchange:     0.2220 Hartree-Fock + 1.0000 wB97X-D + LR-HF
 Correlation:  1.0000 wB97X-D
 Using Euler-Maclaurin-Lebedev (75,302) quadrature formula
 Dispersion:   Grimme D
 SCF converges when DIIS error is below 1.0E-05
 Basis2 calculation detected. Using small basis as guess for larger.
 SCFMinFind is unable to tell whether the solution found is close.
 Resetting ReadMinima to 0 and attempting to follow guess.
 SCFMinFind following SCF Guess.
 using 3 threads for integral computing
 -------------------------------------------------------
 OpenMP Integral computing Module                
 Release: version 1.0, May 2013, Q-Chem Inc. Pittsburgh 
 -------------------------------------------------------
 using 3 threads for integral computing
 -------------------------------------------------------
 OpenMP Integral computing Module                
 Release: version 1.0, May 2013, Q-Chem Inc. Pittsburgh 
 -------------------------------------------------------
 ---------------------------------------
  Cycle       Energy         DIIS Error
 ---------------------------------------
    1    -119.1208098968      4.21E-03
    2    -119.1428548939      5.97E-04 Done RCA. Switching to DIIS
    3    -119.1436882036      4.18E-04
    4    -119.1446464899      4.56E-05
    5    -119.1446612698      9.96E-06 Convergence criterion met
 ---------------------------------------
 SCF time:  CPU 43.24 s  wall 14.56 s
 SCF   energy in the final basis set = -119.14466127
 Total energy in the final basis set = -119.14466127
 
 --------------------------------------------------------------
 
                    Orbital Energies (a.u.)
 --------------------------------------------------------------
 
 Alpha MOs
 -- Occupied --
-10.2745 -10.2646 -10.2646  -0.8810  -0.7775  -0.6773  -0.5458  -0.5225
 -0.4850  -0.4647  -0.4192  -0.4172  -0.4045
 -- Virtual --
  0.0688   0.0861   0.0909   0.0990   0.1252   0.1299   0.1333   0.1430
  0.1430   0.1710   0.1721   0.1910   0.2358   0.2392   0.2445   0.2630
  0.2826   0.2840   0.3109   0.3119   0.3358   0.3495   0.4586   0.4651
  0.4718   0.5120   0.5155   0.5179   0.5414   0.5611   0.5833   0.5854
  0.6207   0.6238   0.6427   0.6503   0.6509   0.6662   0.7073   0.7250
  0.7275   0.7679   0.8203   0.8550   0.8708   0.8788   0.8801   0.9595
  0.9977   1.0542   1.0559   1.1411   1.1510   1.1696   1.1948   1.2105
  1.2253   1.2282   1.2737   1.2757   1.2798   1.2930   1.3271   1.3858
  1.3889   1.3919   1.3959   1.4501   1.4608   1.4747   1.4785   1.4856
  1.5215   1.5838   1.6098   1.6109   1.6409   1.6495   1.6881   1.6937
  1.7285   2.3701   2.4700   2.4873   2.4966   2.5444   2.5590   2.5943
  2.6388   2.7094   2.8144   2.8337   2.8515   2.9058   2.9274   2.9297
  2.9323   2.9500   2.9990   3.0118   3.0534   3.0755   3.0824   3.0955
  3.1291   3.1367   3.1781   3.2003   3.2052   3.2239   3.2826   3.3150
  3.3217   3.3284   3.3357   3.3523   3.3626   3.3751   3.3984   3.4526
  3.4618   3.4816   3.5082   3.5344   3.5626   3.5755   3.6019   3.6226
  3.6228   3.6754   3.6792   3.7080   3.7827   3.8057   3.8685   3.8944
  3.9237   3.9294   3.9473   3.9644   3.9696   3.9930   4.0461   4.0628
  4.0719   4.1107   4.1150   4.1323   4.1541   4.1646   4.1839   4.1976
  4.2066   4.2520   4.2588   4.3693   4.3702   4.4201   4.4214   4.4360
  4.4379   4.5631   4.5965   4.5995   4.6753   4.8048   4.8368   4.8917
  4.9418   4.9625   4.9703   4.9932   5.0269   5.0402   5.0433   5.1131
  5.1343   5.2493   5.2583   5.2738   5.3068   5.3452   5.3548   5.3594
  5.3699   5.4103   5.4549   5.4880   5.5308   5.5697   5.6273   5.7413
  5.9635   6.3766   6.3846   6.3945   6.4178   6.4648  25.2025  25.4486
 25.4498
 --------------------------------------------------------------
 
 -----------------------------------------------------------------
                    Cartesian Multipole Moments
 -----------------------------------------------------------------
    Charge (ESU x 10^10)
                 0.0000
    Dipole Moment (Debye)
         X      -0.0000      Y      -0.0000      Z      -0.1000
       Tot       0.1000
    Quadrupole Moments (Debye-Ang)
        XX     -22.2949     XY      -0.1144     YY     -21.3105
        XZ      -0.0000     YZ      -0.0000     ZZ     -21.7800
    Octopole Moments (Debye-Ang^2)
       XXX      -0.0000    XXY       0.0000    XYY       0.0000
       YYY      -0.0001    XXZ      -1.3093    XYZ      -0.6277
       YYZ       0.2157    XZZ      -0.0000    YZZ       0.0001
       ZZZ      -0.7223
    Hexadecapole Moments (Debye-Ang^3)
      XXXX    -190.6805   XXXY     -22.4676   XXYY     -41.7834
      XYYY     -23.3247   YYYY     -58.7399   XXXZ       0.0003
      XXYZ      -0.0001   XYYZ      -0.0000   YYYZ      -0.0001
      XXZZ     -42.7268   XYZZ      -7.7724   YYZZ     -19.3971
      XZZZ       0.0002   YZZZ      -0.0001   ZZZZ     -72.0532
 -----------------------------------------------------------------
Archival summary:
1\1\centos77-c1\SP\ProcedureUnspecified\BasisUnspecified\38\shihchen\ThuJul203:21:472020ThuJul203:21:472020\0\\#,ProcedureUnspecified,BasisUnspecified,\\0,1\C\H,1,1.09259\H,1,1.09259,2,106.303\C,1,1.52405,2,112.805,3,-115.98,0\H,4,1.08959,1,109.743,2,59.8319,0\H,4,1.09047,1,111.625,2,-59.4203,0\H,4,1.09415,1,112.069,2,179.227,0\C,1,1.52405,2,106.187,3,120.358,0\H,8,1.08959,1,109.743,2,-56.2136,0\H,8,1.09047,1,111.625,2,-175.466,0\H,8,1.09415,1,112.069,2,63.182,0\\\@

 Total job time:  25.06s(wall), 67.24s(cpu) 
 Thu Jul  2 03:21:47 2020

        *************************************************************
        *                                                           *
        *  Thank you very much for using Q-Chem.  Have a nice day.  *
        *                                                           *
        *************************************************************


