                  Welcome to Q-Chem
     A Quantum Leap Into The Future Of Chemistry


 Q-Chem 5.3 (devel), Q-Chem, Inc., Pleasanton, CA (2020)

 Yihan Shao,  Zhengting Gan,  E. Epifanovsky,  A. T. B. Gilbert,  M. Wormit,  
 J. Kussmann,  A. W. Lange,  A. Behn,  Jia Deng,  Xintian Feng,  D. Ghosh,  
 M. Goldey,  P. R. Horn,  L. D. Jacobson,  I. Kaliman,  T. Kus,  A. Landau,  
 Jie Liu,  E. I. Proynov,  R. M. Richard,  R. P. Steele,  E. J. Sundstrom,  
 H. L. Woodcock III,  P. M. Zimmerman,  D. Zuev,  B. Alam,  B. Albrecht,  
 E. Alguire,  S. A. Baeppler,  D. Barton,  Z. Benda,  Y. A. Bernard,  
 E. J. Berquist,  K. B. Bravaya,  H. Burton,  K. Carter-Fenk,  D. Casanova,  
 Chun-Min Chang,  Yunqing Chen,  A. Chien,  K. D. Closser,  M. P. Coons,  
 S. Coriani,  S. Dasgupta,  A. L. Dempwolff,  M. Diedenhofen,  Hainam Do,  
 R. G. Edgar,  Po-Tung Fang,  S. Faraji,  S. Fatehi,  Qingguo Feng,  
 J. Fosso-Tande,  J. Gayvert,  Qinghui Ge,  A. Ghysels,  G. Gidofalvi,  
 J. Gomes,  J. Gonthier,  A. Gunina,  D. Hait,  M. W. D. Hanson-Heine,  
 P. H. P. Harbach,  A. W. Hauser,  M. F. Herbst,  J. E. Herr,  
 E. G. Hohenstein,  Z. C. Holden,  Kerwin Hui,  B. C. Huynh,  T.-C. Jagau,  
 Hyunjun Ji,  B. Kaduk,  K. Khistyaev,  Jaehoon Kim,  P. Klunzinger,  K. Koh,  
 D. Kosenkov,  L. Koulias,  T. Kowalczyk,  C. M. Krauter,  A. Kunitsa,  
 Ka Un Lao,  A. Laurent,  K. V. Lawler,  Joonho Lee,  D. Lefrancois,  
 S. Lehtola,  D. S. Levine,  Yi-Pei Li,  You-Sheng Lin,  Fenglai Liu,  
 Kuan-Yu Liu,  E. Livshits,  M. Loipersberger,  A. Luenser,  P. Manohar,  
 E. Mansoor,  S. F. Manzer,  Shan-Ping Mao,  Yuezhi Mao,  N. Mardirossian,  
 A. V. Marenich,  T. Markovich,  L. A. Martinez-Martinez,  S. A. Maurer,  
 N. J. Mayhall,  S. C. McKenzie,  J.-M. Mewes,  P. Morgante,  A. F. Morrison,  
 J. W. Mullinax,  K. Nanda,  T. S. Nguyen-Beck,  R. Olivares-Amaya,  
 K. J. Oosterbaan,  J. A. Parkhill,  S. K. Paul,  F. Pavosevic,  Zheng Pei,  
 T. M. Perrine,  F. Plasser,  P. Pokhilko,  S. Prager,  A. Prociuk,  
 E. Ramos,  B. Rana,  D. R. Rehn,  F. Rob,  M. Scheurer,  M. Schneider,  
 N. Sergueev,  S. M. Sharada,  S. Sharma,  D. W. Small,  T. Stauch,  
 C. J. Stein,  T. Stein,  Yu-Chuan Su,  S. P. Veccham,  Zhen Tao,  
 A. J. W. Thom,  A. Tkatchenko,  T. Tsuchimochi,  N. M. Tubman,  L. Vogt,  
 M. L. Vidal,  O. Vydrov,  M. A. Watson,  J. Wenzel,  M. de Wergifosse,  
 T. A. Wesolowski,  A. White,  J. Witte,  A. Yamada,  Jun Yang,  K. Yao,  
 S. Yeganeh,  S. R. Yost,  Zhi-Qiang You,  A. Zech,  Igor Ying Zhang,  
 Xing Zhang,  Yan Zhao,  Ying Zhu,  B. R. Brooks,  G. K. L. Chan,  
 C. J. Cramer,  M. S. Gordon,  W. J. Hehre,  A. Klamt,  M. W. Schmidt,  
 C. D. Sherrill,  D. G. Truhlar,  A. Aspuru-Guzik,  R. Baer,  A. T. Bell,  
 N. A. Besley,  Jeng-Da Chai,  A. E. DePrince, III,  R. A. DiStasio Jr.,  
 A. Dreuw,  B. D. Dunietz,  T. R. Furlani,  Chao-Ping Hsu,  Yousung Jung,  
 Jing Kong,  D. S. Lambrecht,  WanZhen Liang,  C. Ochsenfeld,  
 V. A. Rassolov,  L. V. Slipchenko,  J. E. Subotnik,  T. Van Voorhis,  
 J. M. Herbert,  A. I. Krylov,  P. M. W. Gill,  M. Head-Gordon

 Contributors to earlier versions of Q-Chem not listed above: 
 R. D. Adamson,  B. Austin,  J. Baker,  G. J. O. Beran,  K. Brandhorst,  
 S. T. Brown,  E. F. C. Byrd,  A. K. Chakraborty,  C.-L. Cheng,  
 Siu Hung Chien,  D. M. Chipman,  D. L. Crittenden,  H. Dachsel,  
 R. J. Doerksen,  A. D. Dutoi,  L. Fusti-Molnar,  W. A. Goddard III,  
 A. Golubeva-Zadorozhnaya,  S. R. Gwaltney,  G. Hawkins,  A. Heyden,  
 S. Hirata,  G. Kedziora,  F. J. Keil,  C. Kelley,  Jihan Kim,  R. A. King,  
 R. Z. Khaliullin,  P. P. Korambath,  W. Kurlancheek,  A. M. Lee,  M. S. Lee,  
 S. V. Levchenko,  Ching Yeh Lin,  D. Liotard,  R. C. Lochan,  I. Lotan,  
 P. E. Maslen,  N. Nair,  D. P. O'Neill,  D. Neuhauser,  E. Neuscamman,  
 C. M. Oana,  R. Olson,  B. Peters,  R. Peverati,  P. A. Pieniazek,  
 Y. M. Rhee,  J. Ritchie,  M. A. Rohrdanz,  E. Rosta,  N. J. Russ,  
 H. F. Schaefer III,  N. E. Schultz,  N. Shenvi,  A. C. Simmonett,  A. Sodt,  
 D. Stuck,  K. S. Thanthiriwatte,  V. Vanovschi,  Tao Wang,  A. Warshel,  
 C. F. Williams,  Q. Wu,  X. Xu,  W. Zhang

 Please cite Q-Chem as follows:
 Y. Shao et al., Mol. Phys. 113, 184-215 (2015)
 DOI: 10.1080/00268976.2014.952696

 Q-Chem 5.3.0 for Intel X86 EM64T Linux

 Parts of Q-Chem use Armadillo 9.800.1 (Horizon Scraper).
 http://arma.sourceforge.net/

 Q-Chem begins on Thu Jul  2 03:21:48 2020  

Host: centos77-c1
0

     Scratch files written to /tmp/26650.centos77-h1/qchem67618//
Processing $rem in /opt/qchem-5.3.0-intel2020u1//config/preferences:
Processing $rem in /home/shihchengli/.qchemrc:

Checking the input file for inconsistencies... 	...done.

--------------------------------------------------------------
User input:
--------------------------------------------------------------
$rem
   JOBTYPE  sp
   EXCHANGE   omegaB97X-D
   BASIS   6-311+G(2df,2pd)
   max_scf_cycles   250
   geom_opt_max_cycles   1500
   basis2 6-31G*
   scf_algorithm rca_diis
   SYM_IGNORE  TRUE
   print_input   true
   geom_opt_dmax   80
   pop_mulliken false
   XC_GRID 000075000302
$end

$molecule
0 1
C       1.2008828030     0.4045209394     0.2668183524
C       0.0000016989     -0.0000091285     -0.5799180695
H       1.0345131425     1.3487408363     0.7943416178
H       2.0730289446     0.5352115910     -0.3728165459
H       1.4456239994     -0.3577674792     1.0071835677
C       -1.2008831455     -0.4045139903     0.2668248954
H       0.2054730334     -0.8499185738     -1.2350462766
H       -0.2054659494     0.8498801186     -1.2350729358
H       -2.0730421686     -0.5351545534     -0.3728036286
H       -1.4455892845     0.3577650970     1.0072112393
H       -1.0345431344     -1.3487541910     0.7943228028
$end
--------------------------------------------------------------
 ----------------------------------------------------------------
             Standard Nuclear Orientation (Angstroms)
    I     Atom           X                Y                Z
 ----------------------------------------------------------------
    1      C       1.2008828030     0.4045209394     0.2668183524
    2      C       0.0000016989    -0.0000091285    -0.5799180695
    3      H       1.0345131425     1.3487408363     0.7943416178
    4      H       2.0730289446     0.5352115910    -0.3728165459
    5      H       1.4456239994    -0.3577674792     1.0071835677
    6      C      -1.2008831455    -0.4045139903     0.2668248954
    7      H       0.2054730334    -0.8499185738    -1.2350462766
    8      H      -0.2054659494     0.8498801186    -1.2350729358
    9      H      -2.0730421686    -0.5351545534    -0.3728036286
   10      H      -1.4455892845     0.3577650970     1.0072112393
   11      H      -1.0345431344    -1.3487541910     0.7943228028
 ----------------------------------------------------------------
 Nuclear Repulsion Energy =          82.70455166 hartrees
 There are       13 alpha and       13 beta electrons
 Requested basis set is 6-311+G(2df,2pd)
 There are 72 shells and 214 basis functions

 Total QAlloc Memory Limit   2000 MB
 Mega-Array Size       188 MB
 MEM_STATIC part       192 MB

                       Distance Matrix (Angstroms)
             C (  1)   C (  2)   H (  3)   H (  4)   H (  5)   C (  6)
   C (  2)  1.524048
   H (  3)  1.094308  2.185848
   H (  4)  1.089427  2.150998  1.761421
   H (  5)  1.090469  2.176398  1.768187  1.759389
   C (  6)  2.534367  1.524048  2.889494  3.465649  2.748512
   H (  7)  2.195463  1.092592  3.104807  2.479877  2.609173  2.105194
   H (  8)  2.105193  1.092592  2.430007  2.456429  3.035165  2.195463
   H (  9)  3.465644  2.150997  3.816830  4.282008  3.783760  1.089428
   H ( 10)  2.748487  2.176400  2.679226  3.783733  2.978439  1.090469
   H ( 11)  2.889527  2.185849  3.399628  3.816876  2.679290  1.094309
             H (  7)   H (  8)   H (  9)   H ( 10)
   H (  8)  1.748767
   H (  9)  2.456455  2.479853
   H ( 10)  3.035165  2.609199  1.759387
   H ( 11)  2.429983  3.104804  1.761422  1.768188
 
 A cutoff of  1.0D-09 yielded   2531 shell pairs
 There are     22545 function pairs (     27718 Cartesian)
 Smallest overlap matrix eigenvalue = 8.62E-05

 Scale SEOQF with 1.000000e-01/1.000000e-01/1.000000e-01

 Standard Electronic Orientation quadrupole field applied
 Nucleus-field energy     =     0.0000000007 hartrees
 Requested basis set is 6-31G(d)
 There are 28 shells and 58 basis functions
 A cutoff of  1.0D-09 yielded    402 shell pairs
 There are      1773 function pairs (      1968 Cartesian)
 Smallest overlap matrix eigenvalue = 6.69E-03
 Guess from superposition of atomic densities
 Warning:  Energy on first SCF cycle will be non-variational
 SAD guess density has 26.000000 electrons
 Long-range K will be added via erf
 Coulomb attenuation parameter = 0.2 bohr**(-1)
 A restricted hybrid HF-DFT SCF calculation will be
 performed using Relaxed Constraint Minimization + Pulay DIIS
 Exchange:     0.2220 Hartree-Fock + 1.0000 wB97X-D + LR-HF
 Correlation:  1.0000 wB97X-D
 Using Euler-Maclaurin-Lebedev (75,302) quadrature formula
 Dispersion:   Grimme D
 SCF converges when DIIS error is below 1.0E-04
 using 3 threads for integral computing
 -------------------------------------------------------
 OpenMP Integral computing Module                
 Release: version 1.0, May 2013, Q-Chem Inc. Pittsburgh 
 -------------------------------------------------------
 using 3 threads for integral computing
 -------------------------------------------------------
 OpenMP Integral computing Module                
 Release: version 1.0, May 2013, Q-Chem Inc. Pittsburgh 
 -------------------------------------------------------
 ---------------------------------------
  Cycle       Energy         DIIS Error
 ---------------------------------------
    1    -119.6189100521      1.00E-01
    2    -119.0648184934      9.03E-03
    3    -119.0859941932      2.46E-03
    4    -119.0999575356      1.68E-03
    5    -119.1006548861      2.67E-04 Done RCA. Switching to DIIS
    6    -119.1011658961      1.97E-04
    7    -119.1011827358      4.60E-06 Convergence criterion met
 ---------------------------------------
 SCF time:  CPU 18.77 s  wall 6.74 s
 SCF   energy in the small basis set = -119.10118274
 Total energy in the small basis set = -119.10118274
 ----------------------------------------------------
  Cycle       Energy    
 ----------------------------------------------------
    1     -16.5397420660     -1.65E+01
 Long-range K will be added via erf
 Coulomb attenuation parameter = 0.2 bohr**(-1)
 A restricted hybrid HF-DFT SCF calculation will be
 performed using Relaxed Constraint Minimization + Pulay DIIS
 Exchange:     0.2220 Hartree-Fock + 1.0000 wB97X-D + LR-HF
 Correlation:  1.0000 wB97X-D
 Using Euler-Maclaurin-Lebedev (75,302) quadrature formula
 Dispersion:   Grimme D
 SCF converges when DIIS error is below 1.0E-05
 Basis2 calculation detected. Using small basis as guess for larger.
 SCFMinFind is unable to tell whether the solution found is close.
 Resetting ReadMinima to 0 and attempting to follow guess.
 SCFMinFind following SCF Guess.
 using 3 threads for integral computing
 -------------------------------------------------------
 OpenMP Integral computing Module                
 Release: version 1.0, May 2013, Q-Chem Inc. Pittsburgh 
 -------------------------------------------------------
 using 3 threads for integral computing
 -------------------------------------------------------
 OpenMP Integral computing Module                
 Release: version 1.0, May 2013, Q-Chem Inc. Pittsburgh 
 -------------------------------------------------------
 ---------------------------------------
  Cycle       Energy         DIIS Error
 ---------------------------------------
    1    -119.1202787646      4.21E-03
    2    -119.1423205135      5.98E-04 Done RCA. Switching to DIIS
    3    -119.1431540887      4.19E-04
    4    -119.1441141340      4.56E-05
    5    -119.1441288977      9.98E-06 Convergence criterion met
 ---------------------------------------
 SCF time:  CPU 43.90 s  wall 14.85 s
 SCF   energy in the final basis set = -119.14412890
 Total energy in the final basis set = -119.14412890
 
 --------------------------------------------------------------
 
                    Orbital Energies (a.u.)
 --------------------------------------------------------------
 
 Alpha MOs
 -- Occupied --
-10.2744 -10.2646 -10.2646  -0.8810  -0.7775  -0.6773  -0.5456  -0.5226
 -0.4848  -0.4652  -0.4192  -0.4180  -0.4030
 -- Virtual --
  0.0688   0.0861   0.0909   0.0990   0.1249   0.1302   0.1331   0.1427
  0.1434   0.1708   0.1726   0.1911   0.2366   0.2417   0.2434   0.2534
  0.2838   0.2901   0.3114   0.3148   0.3360   0.3464   0.4602   0.4635
  0.4731   0.5116   0.5124   0.5166   0.5406   0.5629   0.5843   0.5866
  0.6195   0.6201   0.6466   0.6488   0.6545   0.6617   0.7066   0.7248
  0.7257   0.7696   0.8062   0.8450   0.8770   0.8876   0.8908   0.9595
  1.0039   1.0585   1.0588   1.1284   1.1524   1.1610   1.1949   1.2129
  1.2318   1.2454   1.2630   1.2632   1.2799   1.2999   1.3404   1.3713
  1.3804   1.3881   1.4120   1.4515   1.4538   1.4755   1.4782   1.4990
  1.5277   1.5759   1.5972   1.6053   1.6394   1.6474   1.6843   1.6938
  1.7316   2.3730   2.4593   2.4854   2.4964   2.5445   2.5549   2.6102
  2.6398   2.6924   2.8105   2.8333   2.8542   2.8963   2.9301   2.9315
  2.9340   2.9502   3.0030   3.0152   3.0517   3.0765   3.0823   3.0998
  3.1221   3.1358   3.1815   3.2064   3.2087   3.2232   3.2857   3.2864
  3.3234   3.3255   3.3412   3.3701   3.3715   3.3725   3.4057   3.4353
  3.4520   3.4775   3.5138   3.5310   3.5715   3.5773   3.6035   3.6172
  3.6258   3.6649   3.6815   3.7077   3.7758   3.8058   3.8709   3.8870
  3.9115   3.9280   3.9515   3.9637   3.9767   4.0199   4.0384   4.0685
  4.0690   4.1002   4.1174   4.1310   4.1594   4.1722   4.1733   4.2029
  4.2095   4.2419   4.2842   4.3635   4.3646   4.4035   4.4259   4.4351
  4.4371   4.5450   4.5880   4.6203   4.6783   4.8138   4.8508   4.9006
  4.9360   4.9629   4.9638   4.9839   5.0226   5.0445   5.0497   5.1119
  5.1384   5.2415   5.2435   5.2747   5.3173   5.3366   5.3490   5.3511
  5.3795   5.3895   5.4481   5.4943   5.5374   5.5766   5.6329   5.7251
  5.9606   6.3785   6.3831   6.3955   6.4261   6.4653  25.2028  25.4364
 25.4551
 --------------------------------------------------------------
 
 -----------------------------------------------------------------
                    Cartesian Multipole Moments
 -----------------------------------------------------------------
    Charge (ESU x 10^10)
                -0.0000
    Dipole Moment (Debye)
         X      -0.0000      Y      -0.0000      Z      -0.1020
       Tot       0.1020
    Quadrupole Moments (Debye-Ang)
        XX     -22.2919     XY      -0.1287     YY     -21.2983
        XZ      -0.0000     YZ      -0.0000     ZZ     -21.7925
    Octopole Moments (Debye-Ang^2)
       XXX      -0.0000    XXY       0.0000    XYY       0.0000
       YYY      -0.0001    XXZ      -1.4012    XYZ      -0.4479
       YYZ       0.2425    XZZ      -0.0000    YZZ       0.0001
       ZZZ      -0.6725
    Hexadecapole Moments (Debye-Ang^3)
      XXXX    -188.0568   XXXY     -24.2525   XXYY     -42.3586
      XYYY     -24.3163   YYYY     -59.8545   XXXZ       0.0003
      XXYZ      -0.0002   XYYZ       0.0000   YYYZ      -0.0001
      XXZZ     -42.2645   XYZZ      -8.5849   YYZZ     -20.0862
      XZZZ       0.0002   YZZZ      -0.0001   ZZZZ     -71.9613
 -----------------------------------------------------------------
Archival summary:
1\1\centos77-c1\SP\ProcedureUnspecified\BasisUnspecified\38\shihchen\ThuJul203:22:122020ThuJul203:22:122020\0\\#,ProcedureUnspecified,BasisUnspecified,\\0,1\C\H,1,1.09259\H,1,1.09259,2,106.314\C,1,1.52405,2,113.043,3,-115.831,0\H,4,1.08943,1,109.66,2,51.367,0\H,4,1.09047,1,111.624,2,-67.8108,0\H,4,1.09431,1,112.152,2,170.761,0\C,1,1.52405,2,105.953,3,120.521,0\H,8,1.08943,1,109.66,2,-64.6749,0\H,8,1.09047,1,111.624,2,176.147,0\H,8,1.09431,1,112.152,2,54.7195,0\\\@

 Total job time:  24.50s(wall), 66.26s(cpu) 
 Thu Jul  2 03:22:12 2020

        *************************************************************
        *                                                           *
        *  Thank you very much for using Q-Chem.  Have a nice day.  *
        *                                                           *
        *************************************************************


