                  Welcome to Q-Chem
     A Quantum Leap Into The Future Of Chemistry


 Q-Chem 5.3 (devel), Q-Chem, Inc., Pleasanton, CA (2020)

 Yihan Shao,  Zhengting Gan,  E. Epifanovsky,  A. T. B. Gilbert,  M. Wormit,  
 J. Kussmann,  A. W. Lange,  A. Behn,  Jia Deng,  Xintian Feng,  D. Ghosh,  
 M. Goldey,  P. R. Horn,  L. D. Jacobson,  I. Kaliman,  T. Kus,  A. Landau,  
 Jie Liu,  E. I. Proynov,  R. M. Richard,  R. P. Steele,  E. J. Sundstrom,  
 H. L. Woodcock III,  P. M. Zimmerman,  D. Zuev,  B. Alam,  B. Albrecht,  
 E. Alguire,  S. A. Baeppler,  D. Barton,  Z. Benda,  Y. A. Bernard,  
 E. J. Berquist,  K. B. Bravaya,  H. Burton,  K. Carter-Fenk,  D. Casanova,  
 Chun-Min Chang,  Yunqing Chen,  A. Chien,  K. D. Closser,  M. P. Coons,  
 S. Coriani,  S. Dasgupta,  A. L. Dempwolff,  M. Diedenhofen,  Hainam Do,  
 R. G. Edgar,  Po-Tung Fang,  S. Faraji,  S. Fatehi,  Qingguo Feng,  
 J. Fosso-Tande,  J. Gayvert,  Qinghui Ge,  A. Ghysels,  G. Gidofalvi,  
 J. Gomes,  J. Gonthier,  A. Gunina,  D. Hait,  M. W. D. Hanson-Heine,  
 P. H. P. Harbach,  A. W. Hauser,  M. F. Herbst,  J. E. Herr,  
 E. G. Hohenstein,  Z. C. Holden,  Kerwin Hui,  B. C. Huynh,  T.-C. Jagau,  
 Hyunjun Ji,  B. Kaduk,  K. Khistyaev,  Jaehoon Kim,  P. Klunzinger,  K. Koh,  
 D. Kosenkov,  L. Koulias,  T. Kowalczyk,  C. M. Krauter,  A. Kunitsa,  
 Ka Un Lao,  A. Laurent,  K. V. Lawler,  Joonho Lee,  D. Lefrancois,  
 S. Lehtola,  D. S. Levine,  Yi-Pei Li,  You-Sheng Lin,  Fenglai Liu,  
 Kuan-Yu Liu,  E. Livshits,  M. Loipersberger,  A. Luenser,  P. Manohar,  
 E. Mansoor,  S. F. Manzer,  Shan-Ping Mao,  Yuezhi Mao,  N. Mardirossian,  
 A. V. Marenich,  T. Markovich,  L. A. Martinez-Martinez,  S. A. Maurer,  
 N. J. Mayhall,  S. C. McKenzie,  J.-M. Mewes,  P. Morgante,  A. F. Morrison,  
 J. W. Mullinax,  K. Nanda,  T. S. Nguyen-Beck,  R. Olivares-Amaya,  
 K. J. Oosterbaan,  J. A. Parkhill,  S. K. Paul,  F. Pavosevic,  Zheng Pei,  
 T. M. Perrine,  F. Plasser,  P. Pokhilko,  S. Prager,  A. Prociuk,  
 E. Ramos,  B. Rana,  D. R. Rehn,  F. Rob,  M. Scheurer,  M. Schneider,  
 N. Sergueev,  S. M. Sharada,  S. Sharma,  D. W. Small,  T. Stauch,  
 C. J. Stein,  T. Stein,  Yu-Chuan Su,  S. P. Veccham,  Zhen Tao,  
 A. J. W. Thom,  A. Tkatchenko,  T. Tsuchimochi,  N. M. Tubman,  L. Vogt,  
 M. L. Vidal,  O. Vydrov,  M. A. Watson,  J. Wenzel,  M. de Wergifosse,  
 T. A. Wesolowski,  A. White,  J. Witte,  A. Yamada,  Jun Yang,  K. Yao,  
 S. Yeganeh,  S. R. Yost,  Zhi-Qiang You,  A. Zech,  Igor Ying Zhang,  
 Xing Zhang,  Yan Zhao,  Ying Zhu,  B. R. Brooks,  G. K. L. Chan,  
 C. J. Cramer,  M. S. Gordon,  W. J. Hehre,  A. Klamt,  M. W. Schmidt,  
 C. D. Sherrill,  D. G. Truhlar,  A. Aspuru-Guzik,  R. Baer,  A. T. Bell,  
 N. A. Besley,  Jeng-Da Chai,  A. E. DePrince, III,  R. A. DiStasio Jr.,  
 A. Dreuw,  B. D. Dunietz,  T. R. Furlani,  Chao-Ping Hsu,  Yousung Jung,  
 Jing Kong,  D. S. Lambrecht,  WanZhen Liang,  C. Ochsenfeld,  
 V. A. Rassolov,  L. V. Slipchenko,  J. E. Subotnik,  T. Van Voorhis,  
 J. M. Herbert,  A. I. Krylov,  P. M. W. Gill,  M. Head-Gordon

 Contributors to earlier versions of Q-Chem not listed above: 
 R. D. Adamson,  B. Austin,  J. Baker,  G. J. O. Beran,  K. Brandhorst,  
 S. T. Brown,  E. F. C. Byrd,  A. K. Chakraborty,  C.-L. Cheng,  
 Siu Hung Chien,  D. M. Chipman,  D. L. Crittenden,  H. Dachsel,  
 R. J. Doerksen,  A. D. Dutoi,  L. Fusti-Molnar,  W. A. Goddard III,  
 A. Golubeva-Zadorozhnaya,  S. R. Gwaltney,  G. Hawkins,  A. Heyden,  
 S. Hirata,  G. Kedziora,  F. J. Keil,  C. Kelley,  Jihan Kim,  R. A. King,  
 R. Z. Khaliullin,  P. P. Korambath,  W. Kurlancheek,  A. M. Lee,  M. S. Lee,  
 S. V. Levchenko,  Ching Yeh Lin,  D. Liotard,  R. C. Lochan,  I. Lotan,  
 P. E. Maslen,  N. Nair,  D. P. O'Neill,  D. Neuhauser,  E. Neuscamman,  
 C. M. Oana,  R. Olson,  B. Peters,  R. Peverati,  P. A. Pieniazek,  
 Y. M. Rhee,  J. Ritchie,  M. A. Rohrdanz,  E. Rosta,  N. J. Russ,  
 H. F. Schaefer III,  N. E. Schultz,  N. Shenvi,  A. C. Simmonett,  A. Sodt,  
 D. Stuck,  K. S. Thanthiriwatte,  V. Vanovschi,  Tao Wang,  A. Warshel,  
 C. F. Williams,  Q. Wu,  X. Xu,  W. Zhang

 Please cite Q-Chem as follows:
 Y. Shao et al., Mol. Phys. 113, 184-215 (2015)
 DOI: 10.1080/00268976.2014.952696

 Q-Chem 5.3.0 for Intel X86 EM64T Linux

 Parts of Q-Chem use Armadillo 9.800.1 (Horizon Scraper).
 http://arma.sourceforge.net/

 Q-Chem begins on Thu Jul  2 04:57:22 2020  

Host: centos77-c1
0

     Scratch files written to /tmp/26650.centos77-h1/qchem76274//
Processing $rem in /opt/qchem-5.3.0-intel2020u1//config/preferences:
Processing $rem in /home/shihchengli/.qchemrc:

Checking the input file for inconsistencies... 	...done.

--------------------------------------------------------------
User input:
--------------------------------------------------------------
$rem
   JOBTYPE  sp
   EXCHANGE   omegaB97X-D
   BASIS   6-311+G(2df,2pd)
   max_scf_cycles   250
   geom_opt_max_cycles   1500
   basis2 6-31G*
   scf_algorithm rca_diis
   SYM_IGNORE  TRUE
   print_input   true
   geom_opt_dmax   80
   pop_mulliken false
   XC_GRID 000075000302
$end

$molecule
0 1
C       1.2178378425     -0.0000000263     0.2167683013
C       0.0809648182     0.0000000093     -0.5851397098
H       1.2574213231     -0.8867602405     0.8496715109
H       1.2574213497     0.8867601804     0.8496715192
H       2.0989724983     -0.0000000202     -0.4256595543
C       -1.3204863953     0.0000000912     0.2986683556
H       0.1781895435     -0.8717535148     -1.2365610942
H       0.1781893656     0.8717535340     -1.2365611384
H       -1.3579282628     -0.8742470040     0.9545414513
H       -2.2326538689     0.0000005468     -0.2988961655
H       -1.3579282746     0.8742471100     0.9545415429
$end
--------------------------------------------------------------
 ----------------------------------------------------------------
             Standard Nuclear Orientation (Angstroms)
    I     Atom           X                Y                Z
 ----------------------------------------------------------------
    1      C       1.2178378425    -0.0000000263     0.2167683013
    2      C       0.0809648182     0.0000000093    -0.5851397098
    3      H       1.2574213231    -0.8867602405     0.8496715109
    4      H       1.2574213497     0.8867601804     0.8496715192
    5      H       2.0989724983    -0.0000000202    -0.4256595543
    6      C      -1.3204863953     0.0000000912     0.2986683556
    7      H       0.1781895435    -0.8717535148    -1.2365610942
    8      H       0.1781893656     0.8717535340    -1.2365611384
    9      H      -1.3579282628    -0.8742470040     0.9545414513
   10      H      -2.2326538689     0.0000005468    -0.2988961655
   11      H      -1.3579282746     0.8742471100     0.9545415429
 ----------------------------------------------------------------
 Nuclear Repulsion Energy =          82.96502373 hartrees
 There are       13 alpha and       13 beta electrons
 Requested basis set is 6-311+G(2df,2pd)
 There are 72 shells and 214 basis functions

 Total QAlloc Memory Limit   2000 MB
 Mega-Array Size       188 MB
 MEM_STATIC part       192 MB

                       Distance Matrix (Angstroms)
             C (  1)   C (  2)   H (  3)   H (  4)   H (  5)   C (  6)
   C (  2)  1.391236
   H (  3)  1.090173  2.056472
   H (  4)  1.090173  2.056472  1.773520
   H (  5)  1.090464  2.024300  1.766641  1.766641
   C (  6)  2.539645  1.656859  2.781287  2.781287  3.495333
   H (  7)  1.988213  1.092592  2.348900  2.934191  2.259850  2.315796
   H (  8)  1.988213  1.092592  2.934191  2.348901  2.259850  2.315796
   H (  9)  2.818366  2.281521  2.617481  3.154710  3.823536  1.093563
   H ( 10)  3.488811  2.331259  3.779706  3.779706  4.333481  1.090474
   H ( 11)  2.818366  2.281521  3.154710  2.617481  3.823536  1.093563
             H (  7)   H (  8)   H (  9)   H ( 10)
   H (  8)  1.743507
   H (  9)  2.675929  3.195169
   H ( 10)  2.729714  2.729713  1.760841
   H ( 11)  3.195169  2.675929  1.748494  1.760840
 
 A cutoff of  1.0D-09 yielded   2534 shell pairs
 There are     22588 function pairs (     27769 Cartesian)
 Smallest overlap matrix eigenvalue = 7.21E-05

 Scale SEOQF with 1.000000e-01/1.000000e-01/1.000000e-01

 Standard Electronic Orientation quadrupole field applied
 Nucleus-field energy     =     0.0000000006 hartrees
 Requested basis set is 6-31G(d)
 There are 28 shells and 58 basis functions
 A cutoff of  1.0D-09 yielded    402 shell pairs
 There are      1773 function pairs (      1968 Cartesian)
 Smallest overlap matrix eigenvalue = 5.65E-03
 Guess from superposition of atomic densities
 Warning:  Energy on first SCF cycle will be non-variational
 SAD guess density has 26.000000 electrons
 Long-range K will be added via erf
 Coulomb attenuation parameter = 0.2 bohr**(-1)
 A restricted hybrid HF-DFT SCF calculation will be
 performed using Relaxed Constraint Minimization + Pulay DIIS
 Exchange:     0.2220 Hartree-Fock + 1.0000 wB97X-D + LR-HF
 Correlation:  1.0000 wB97X-D
 Using Euler-Maclaurin-Lebedev (75,302) quadrature formula
 Dispersion:   Grimme D
 SCF converges when DIIS error is below 1.0E-04
 using 3 threads for integral computing
 -------------------------------------------------------
 OpenMP Integral computing Module                
 Release: version 1.0, May 2013, Q-Chem Inc. Pittsburgh 
 -------------------------------------------------------
 using 3 threads for integral computing
 -------------------------------------------------------
 OpenMP Integral computing Module                
 Release: version 1.0, May 2013, Q-Chem Inc. Pittsburgh 
 -------------------------------------------------------
 ---------------------------------------
  Cycle       Energy         DIIS Error
 ---------------------------------------
    1    -119.6697648828      1.03E-01
    2    -119.0404101139      9.39E-03
    3    -119.0629724105      2.45E-03
    4    -119.0782410919      1.68E-03
    5    -119.0789272293      2.54E-04 Done RCA. Switching to DIIS
    6    -119.0794438052      1.92E-04
    7    -119.0794597080      5.22E-06 Convergence criterion met
 ---------------------------------------
 SCF time:  CPU 17.00 s  wall 5.69 s
 SCF   energy in the small basis set = -119.07945971
 Total energy in the small basis set = -119.07945971
 ----------------------------------------------------
  Cycle       Energy    
 ----------------------------------------------------
    1     -16.5534159952     -1.66E+01
 Long-range K will be added via erf
 Coulomb attenuation parameter = 0.2 bohr**(-1)
 A restricted hybrid HF-DFT SCF calculation will be
 performed using Relaxed Constraint Minimization + Pulay DIIS
 Exchange:     0.2220 Hartree-Fock + 1.0000 wB97X-D + LR-HF
 Correlation:  1.0000 wB97X-D
 Using Euler-Maclaurin-Lebedev (75,302) quadrature formula
 Dispersion:   Grimme D
 SCF converges when DIIS error is below 1.0E-05
 Basis2 calculation detected. Using small basis as guess for larger.
 SCFMinFind is unable to tell whether the solution found is close.
 Resetting ReadMinima to 0 and attempting to follow guess.
 SCFMinFind following SCF Guess.
 using 3 threads for integral computing
 -------------------------------------------------------
 OpenMP Integral computing Module                
 Release: version 1.0, May 2013, Q-Chem Inc. Pittsburgh 
 -------------------------------------------------------
 using 3 threads for integral computing
 -------------------------------------------------------
 OpenMP Integral computing Module                
 Release: version 1.0, May 2013, Q-Chem Inc. Pittsburgh 
 -------------------------------------------------------
 ---------------------------------------
  Cycle       Energy         DIIS Error
 ---------------------------------------
    1    -119.0994877418      4.21E-03
    2    -119.1215695513      5.97E-04 Done RCA. Switching to DIIS
    3    -119.1223909551      4.22E-04
    4    -119.1233586932      4.65E-05
    5    -119.1233736744      1.22E-05
    6    -119.1233745846      4.64E-06 Convergence criterion met
 ---------------------------------------
 SCF time:  CPU 48.90 s  wall 16.32 s
 SCF   energy in the final basis set = -119.12337458
 Total energy in the final basis set = -119.12337458
 
 --------------------------------------------------------------
 
                    Orbital Energies (a.u.)
 --------------------------------------------------------------
 
 Alpha MOs
 -- Occupied --
-10.2744 -10.2731 -10.2548  -0.8940  -0.7759  -0.6738  -0.5525  -0.5297
 -0.4815  -0.4640  -0.4371  -0.4024  -0.3971
 -- Virtual --
  0.0689   0.0849   0.0916   0.0984   0.1241   0.1296   0.1326   0.1420
  0.1441   0.1693   0.1734   0.1916   0.2326   0.2402   0.2425   0.2641
  0.2685   0.2826   0.2835   0.3244   0.3350   0.3682   0.4573   0.4606
  0.4770   0.4931   0.5145   0.5313   0.5488   0.5543   0.5783   0.5891
  0.6070   0.6297   0.6377   0.6577   0.6660   0.6800   0.7095   0.7277
  0.7410   0.7731   0.7943   0.8570   0.8662   0.8972   0.9051   0.9621
  1.0015   1.0544   1.0572   1.1283   1.1343   1.1739   1.1787   1.2055
  1.2184   1.2578   1.2764   1.2810   1.2892   1.3063   1.3302   1.3774
  1.3832   1.3856   1.4175   1.4417   1.4450   1.4707   1.4826   1.5058
  1.5289   1.5630   1.6116   1.6173   1.6311   1.6446   1.6698   1.6857
  1.7434   2.3721   2.4497   2.5033   2.5138   2.5406   2.6047   2.6168
  2.6583   2.6900   2.7612   2.7967   2.8361   2.9026   2.9238   2.9316
  2.9696   2.9769   2.9971   3.0291   3.0516   3.0820   3.0876   3.0968
  3.1227   3.1310   3.1754   3.1815   3.2243   3.2319   3.2847   3.3094
  3.3182   3.3286   3.3323   3.3361   3.3504   3.3614   3.3951   3.4525
  3.4654   3.4809   3.4876   3.5289   3.5695   3.5808   3.6036   3.6095
  3.6382   3.6643   3.7153   3.7219   3.7535   3.8356   3.8455   3.8702
  3.9003   3.9008   3.9826   3.9844   4.0123   4.0219   4.0320   4.0454
  4.0751   4.1157   4.1383   4.1458   4.1543   4.1734   4.1910   4.2167
  4.2207   4.2492   4.2793   4.3221   4.3496   4.4072   4.4347   4.4492
  4.4904   4.5474   4.6835   4.7112   4.7190   4.7987   4.8617   4.9121
  4.9319   4.9555   4.9639   4.9702   4.9999   5.0509   5.0681   5.1129
  5.1535   5.2072   5.2148   5.2431   5.3084   5.3273   5.3335   5.3627
  5.3706   5.3988   5.4672   5.5131   5.5530   5.5707   5.6241   5.7364
  6.1595   6.3718   6.3871   6.3922   6.4251   6.4773  25.1730  25.3697
 25.6450
 --------------------------------------------------------------
 
 -----------------------------------------------------------------
                    Cartesian Multipole Moments
 -----------------------------------------------------------------
    Charge (ESU x 10^10)
                -0.0000
    Dipole Moment (Debye)
         X       0.0845      Y       0.0000      Z      -0.0812
       Tot       0.1172
    Quadrupole Moments (Debye-Ang)
        XX     -22.0838     XY      -0.0000     YY     -21.3618
        XZ      -0.6230     YZ      -0.0000     ZZ     -21.8741
    Octopole Moments (Debye-Ang^2)
       XXX      -0.7391    XXY       0.0000    XYY       0.5047
       YYY      -0.0000    XXZ      -1.6357    XYZ       0.0000
       YYZ       0.4880    XZZ       0.4997    YZZ      -0.0000
       ZZZ      -0.3303
    Hexadecapole Moments (Debye-Ang^3)
      XXXX    -203.2670   XXXY      -0.0000   XXYY     -42.3612
      XYYY       0.0000   YYYY     -44.1053   XXXZ       4.9299
      XXYZ      -0.0000   XYYZ       1.1482   YYYZ      -0.0000
      XXZZ     -45.3694   XYZZ       0.0000   YYZZ     -17.1570
      XZZZ       4.3613   YZZZ      -0.0000   ZZZZ     -72.2425
 -----------------------------------------------------------------
Archival summary:
1\1\centos77-c1\SP\ProcedureUnspecified\BasisUnspecified\38\shihchen\ThuJul204:57:472020ThuJul204:57:472020\0\\#,ProcedureUnspecified,BasisUnspecified,\\0,1\C\H,1,1.09259\H,1,1.09259,2,105.856\C,1,1.39124,2,105.72,3,-111.873,0\H,4,1.09017,1,111.365,2,175.124,0\H,4,1.09017,1,111.365,2,-63.1559,0\H,4,1.09046,1,108.707,2,55.9839,0\C,1,1.65686,2,113.16,3,124.485,0\H,8,1.09047,1,114.534,2,-60.2058,0\H,8,1.09356,1,110.419,2,178.339,0\H,8,1.09356,1,110.419,2,61.2493,0\\\@

 Total job time:  24.94s(wall), 69.49s(cpu) 
 Thu Jul  2 04:57:47 2020

        *************************************************************
        *                                                           *
        *  Thank you very much for using Q-Chem.  Have a nice day.  *
        *                                                           *
        *************************************************************


