                  Welcome to Q-Chem
     A Quantum Leap Into The Future Of Chemistry


 Q-Chem 5.3 (devel), Q-Chem, Inc., Pleasanton, CA (2020)

 Yihan Shao,  Zhengting Gan,  E. Epifanovsky,  A. T. B. Gilbert,  M. Wormit,  
 J. Kussmann,  A. W. Lange,  A. Behn,  Jia Deng,  Xintian Feng,  D. Ghosh,  
 M. Goldey,  P. R. Horn,  L. D. Jacobson,  I. Kaliman,  T. Kus,  A. Landau,  
 Jie Liu,  E. I. Proynov,  R. M. Richard,  R. P. Steele,  E. J. Sundstrom,  
 H. L. Woodcock III,  P. M. Zimmerman,  D. Zuev,  B. Alam,  B. Albrecht,  
 E. Alguire,  S. A. Baeppler,  D. Barton,  Z. Benda,  Y. A. Bernard,  
 E. J. Berquist,  K. B. Bravaya,  H. Burton,  K. Carter-Fenk,  D. Casanova,  
 Chun-Min Chang,  Yunqing Chen,  A. Chien,  K. D. Closser,  M. P. Coons,  
 S. Coriani,  S. Dasgupta,  A. L. Dempwolff,  M. Diedenhofen,  Hainam Do,  
 R. G. Edgar,  Po-Tung Fang,  S. Faraji,  S. Fatehi,  Qingguo Feng,  
 J. Fosso-Tande,  J. Gayvert,  Qinghui Ge,  A. Ghysels,  G. Gidofalvi,  
 J. Gomes,  J. Gonthier,  A. Gunina,  D. Hait,  M. W. D. Hanson-Heine,  
 P. H. P. Harbach,  A. W. Hauser,  M. F. Herbst,  J. E. Herr,  
 E. G. Hohenstein,  Z. C. Holden,  Kerwin Hui,  B. C. Huynh,  T.-C. Jagau,  
 Hyunjun Ji,  B. Kaduk,  K. Khistyaev,  Jaehoon Kim,  P. Klunzinger,  K. Koh,  
 D. Kosenkov,  L. Koulias,  T. Kowalczyk,  C. M. Krauter,  A. Kunitsa,  
 Ka Un Lao,  A. Laurent,  K. V. Lawler,  Joonho Lee,  D. Lefrancois,  
 S. Lehtola,  D. S. Levine,  Yi-Pei Li,  You-Sheng Lin,  Fenglai Liu,  
 Kuan-Yu Liu,  E. Livshits,  M. Loipersberger,  A. Luenser,  P. Manohar,  
 E. Mansoor,  S. F. Manzer,  Shan-Ping Mao,  Yuezhi Mao,  N. Mardirossian,  
 A. V. Marenich,  T. Markovich,  L. A. Martinez-Martinez,  S. A. Maurer,  
 N. J. Mayhall,  S. C. McKenzie,  J.-M. Mewes,  P. Morgante,  A. F. Morrison,  
 J. W. Mullinax,  K. Nanda,  T. S. Nguyen-Beck,  R. Olivares-Amaya,  
 K. J. Oosterbaan,  J. A. Parkhill,  S. K. Paul,  F. Pavosevic,  Zheng Pei,  
 T. M. Perrine,  F. Plasser,  P. Pokhilko,  S. Prager,  A. Prociuk,  
 E. Ramos,  B. Rana,  D. R. Rehn,  F. Rob,  M. Scheurer,  M. Schneider,  
 N. Sergueev,  S. M. Sharada,  S. Sharma,  D. W. Small,  T. Stauch,  
 C. J. Stein,  T. Stein,  Yu-Chuan Su,  S. P. Veccham,  Zhen Tao,  
 A. J. W. Thom,  A. Tkatchenko,  T. Tsuchimochi,  N. M. Tubman,  L. Vogt,  
 M. L. Vidal,  O. Vydrov,  M. A. Watson,  J. Wenzel,  M. de Wergifosse,  
 T. A. Wesolowski,  A. White,  J. Witte,  A. Yamada,  Jun Yang,  K. Yao,  
 S. Yeganeh,  S. R. Yost,  Zhi-Qiang You,  A. Zech,  Igor Ying Zhang,  
 Xing Zhang,  Yan Zhao,  Ying Zhu,  B. R. Brooks,  G. K. L. Chan,  
 C. J. Cramer,  M. S. Gordon,  W. J. Hehre,  A. Klamt,  M. W. Schmidt,  
 C. D. Sherrill,  D. G. Truhlar,  A. Aspuru-Guzik,  R. Baer,  A. T. Bell,  
 N. A. Besley,  Jeng-Da Chai,  A. E. DePrince, III,  R. A. DiStasio Jr.,  
 A. Dreuw,  B. D. Dunietz,  T. R. Furlani,  Chao-Ping Hsu,  Yousung Jung,  
 Jing Kong,  D. S. Lambrecht,  WanZhen Liang,  C. Ochsenfeld,  
 V. A. Rassolov,  L. V. Slipchenko,  J. E. Subotnik,  T. Van Voorhis,  
 J. M. Herbert,  A. I. Krylov,  P. M. W. Gill,  M. Head-Gordon

 Contributors to earlier versions of Q-Chem not listed above: 
 R. D. Adamson,  B. Austin,  J. Baker,  G. J. O. Beran,  K. Brandhorst,  
 S. T. Brown,  E. F. C. Byrd,  A. K. Chakraborty,  C.-L. Cheng,  
 Siu Hung Chien,  D. M. Chipman,  D. L. Crittenden,  H. Dachsel,  
 R. J. Doerksen,  A. D. Dutoi,  L. Fusti-Molnar,  W. A. Goddard III,  
 A. Golubeva-Zadorozhnaya,  S. R. Gwaltney,  G. Hawkins,  A. Heyden,  
 S. Hirata,  G. Kedziora,  F. J. Keil,  C. Kelley,  Jihan Kim,  R. A. King,  
 R. Z. Khaliullin,  P. P. Korambath,  W. Kurlancheek,  A. M. Lee,  M. S. Lee,  
 S. V. Levchenko,  Ching Yeh Lin,  D. Liotard,  R. C. Lochan,  I. Lotan,  
 P. E. Maslen,  N. Nair,  D. P. O'Neill,  D. Neuhauser,  E. Neuscamman,  
 C. M. Oana,  R. Olson,  B. Peters,  R. Peverati,  P. A. Pieniazek,  
 Y. M. Rhee,  J. Ritchie,  M. A. Rohrdanz,  E. Rosta,  N. J. Russ,  
 H. F. Schaefer III,  N. E. Schultz,  N. Shenvi,  A. C. Simmonett,  A. Sodt,  
 D. Stuck,  K. S. Thanthiriwatte,  V. Vanovschi,  Tao Wang,  A. Warshel,  
 C. F. Williams,  Q. Wu,  X. Xu,  W. Zhang

 Please cite Q-Chem as follows:
 Y. Shao et al., Mol. Phys. 113, 184-215 (2015)
 DOI: 10.1080/00268976.2014.952696

 Q-Chem 5.3.0 for Intel X86 EM64T Linux

 Parts of Q-Chem use Armadillo 9.800.1 (Horizon Scraper).
 http://arma.sourceforge.net/

 Q-Chem begins on Thu Jul  2 04:10:52 2020  

Host: centos77-c1
0

     Scratch files written to /tmp/26650.centos77-h1/qchem72032//
Processing $rem in /opt/qchem-5.3.0-intel2020u1//config/preferences:
Processing $rem in /home/shihchengli/.qchemrc:

Checking the input file for inconsistencies... 	...done.

--------------------------------------------------------------
User input:
--------------------------------------------------------------
$rem
   JOBTYPE  sp
   EXCHANGE   omegaB97X-D
   BASIS   6-311+G(2df,2pd)
   max_scf_cycles   250
   geom_opt_max_cycles   1500
   basis2 6-31G*
   scf_algorithm rca_diis
   SYM_IGNORE  TRUE
   print_input   true
   geom_opt_dmax   80
   pop_mulliken false
   XC_GRID 000075000302
$end

$molecule
0 1
C       1.2671854966     -0.0131060466     0.2589273158
C       0.0000000003     0.0469632141     -0.5856750705
H       1.2264423215     -0.8572793579     0.9505184432
H       1.3904464181     0.8937511617     0.8540580760
H       2.1574101085     -0.1310116425     -0.3597169926
C       -1.2671854452     -0.0131067414     0.2589273826
H       0.0000002475     -0.7883145206     -1.2899325607
H       -0.0000003902     0.9566462418     -1.1909210047
H       -1.2264437209     -0.8572820023     0.9505161420
H       -2.1574102684     -0.1310086693     -0.3597173488
H       -1.3904448284     0.8937490290     0.8540606366
$end
--------------------------------------------------------------
 ----------------------------------------------------------------
             Standard Nuclear Orientation (Angstroms)
    I     Atom           X                Y                Z
 ----------------------------------------------------------------
    1      C       1.2671854966    -0.0131060466     0.2589273158
    2      C       0.0000000003     0.0469632141    -0.5856750705
    3      H       1.2264423215    -0.8572793579     0.9505184432
    4      H       1.3904464181     0.8937511617     0.8540580760
    5      H       2.1574101085    -0.1310116425    -0.3597169926
    6      C      -1.2671854452    -0.0131067414     0.2589273826
    7      H       0.0000002475    -0.7883145206    -1.2899325607
    8      H      -0.0000003902     0.9566462418    -1.1909210047
    9      H      -1.2264437209    -0.8572820023     0.9505161420
   10      H      -2.1574102684    -0.1310086693    -0.3597173488
   11      H      -1.3904448284     0.8937490290     0.8540606366
 ----------------------------------------------------------------
 Nuclear Repulsion Energy =          82.73509247 hartrees
 There are       13 alpha and       13 beta electrons
 Requested basis set is 6-311+G(2df,2pd)
 There are 72 shells and 214 basis functions

 Total QAlloc Memory Limit   2000 MB
 Mega-Array Size       188 MB
 MEM_STATIC part       192 MB

                       Distance Matrix (Angstroms)
             C (  1)   C (  2)   H (  3)   H (  4)   H (  5)   C (  6)
   C (  2)  1.524047
   H (  3)  1.092056  2.163725
   H (  4)  1.091679  2.173298  1.761338
   H (  5)  1.090469  2.176500  1.763769  1.763979
   C (  6)  2.534371  1.524047  2.721967  2.870467  3.482022
   H (  7)  2.146083  1.092551  2.555100  3.059311  2.439624  2.146083
   H (  8)  2.155978  1.092633  3.062719  2.473709  2.555058  2.155978
   H (  9)  2.721969  2.163725  2.452886  3.150164  3.700628  1.092056
   H ( 10)  3.482022  2.176499  3.700628  3.887245  4.314820  1.090469
   H ( 11)  2.870465  2.173297  3.150159  2.780891  3.887244  1.091679
             H (  7)   H (  8)   H (  9)   H ( 10)
   H (  8)  1.747768
   H (  9)  2.555099  3.062720
   H ( 10)  2.439625  2.555056  1.763770
   H ( 11)  3.059311  2.473710  1.761337  1.763979
 
 A cutoff of  1.0D-09 yielded   2534 shell pairs
 There are     22580 function pairs (     27761 Cartesian)
 Smallest overlap matrix eigenvalue = 8.64E-05

 Scale SEOQF with 1.000000e-01/1.000000e-01/1.000000e-01

 Standard Electronic Orientation quadrupole field applied
 Nucleus-field energy     =     0.0000000006 hartrees
 Requested basis set is 6-31G(d)
 There are 28 shells and 58 basis functions
 A cutoff of  1.0D-09 yielded    402 shell pairs
 There are      1773 function pairs (      1968 Cartesian)
 Smallest overlap matrix eigenvalue = 6.75E-03
 Guess from superposition of atomic densities
 Warning:  Energy on first SCF cycle will be non-variational
 SAD guess density has 26.000000 electrons
 Long-range K will be added via erf
 Coulomb attenuation parameter = 0.2 bohr**(-1)
 A restricted hybrid HF-DFT SCF calculation will be
 performed using Relaxed Constraint Minimization + Pulay DIIS
 Exchange:     0.2220 Hartree-Fock + 1.0000 wB97X-D + LR-HF
 Correlation:  1.0000 wB97X-D
 Using Euler-Maclaurin-Lebedev (75,302) quadrature formula
 Dispersion:   Grimme D
 SCF converges when DIIS error is below 1.0E-04
 using 3 threads for integral computing
 -------------------------------------------------------
 OpenMP Integral computing Module                
 Release: version 1.0, May 2013, Q-Chem Inc. Pittsburgh 
 -------------------------------------------------------
 using 3 threads for integral computing
 -------------------------------------------------------
 OpenMP Integral computing Module                
 Release: version 1.0, May 2013, Q-Chem Inc. Pittsburgh 
 -------------------------------------------------------
 ---------------------------------------
  Cycle       Energy         DIIS Error
 ---------------------------------------
    1    -119.6189682828      1.00E-01
    2    -119.0663478716      9.00E-03
    3    -119.0874197056      2.46E-03
    4    -119.1012818206      1.68E-03
    5    -119.1019794336      2.67E-04 Done RCA. Switching to DIIS
    6    -119.1024902044      1.98E-04
    7    -119.1025071233      4.48E-06 Convergence criterion met
 ---------------------------------------
 SCF time:  CPU 21.66 s  wall 8.30 s
 SCF   energy in the small basis set = -119.10250712
 Total energy in the small basis set = -119.10250712
 ----------------------------------------------------
  Cycle       Energy    
 ----------------------------------------------------
    1     -16.5397587731     -1.65E+01
 Long-range K will be added via erf
 Coulomb attenuation parameter = 0.2 bohr**(-1)
 A restricted hybrid HF-DFT SCF calculation will be
 performed using Relaxed Constraint Minimization + Pulay DIIS
 Exchange:     0.2220 Hartree-Fock + 1.0000 wB97X-D + LR-HF
 Correlation:  1.0000 wB97X-D
 Using Euler-Maclaurin-Lebedev (75,302) quadrature formula
 Dispersion:   Grimme D
 SCF converges when DIIS error is below 1.0E-05
 Basis2 calculation detected. Using small basis as guess for larger.
 SCFMinFind is unable to tell whether the solution found is close.
 Resetting ReadMinima to 0 and attempting to follow guess.
 SCFMinFind following SCF Guess.
 using 3 threads for integral computing
 -------------------------------------------------------
 OpenMP Integral computing Module                
 Release: version 1.0, May 2013, Q-Chem Inc. Pittsburgh 
 -------------------------------------------------------
 using 3 threads for integral computing
 -------------------------------------------------------
 OpenMP Integral computing Module                
 Release: version 1.0, May 2013, Q-Chem Inc. Pittsburgh 
 -------------------------------------------------------
 ---------------------------------------
  Cycle       Energy         DIIS Error
 ---------------------------------------
    1    -119.1215988242      4.21E-03
    2    -119.1436383060      5.97E-04 Done RCA. Switching to DIIS
    3    -119.1444704505      4.18E-04
    4    -119.1454271798      4.56E-05
    5    -119.1454418926      1.01E-05
    6    -119.1454425750      3.88E-06 Convergence criterion met
 ---------------------------------------
 SCF time:  CPU 48.60 s  wall 16.22 s
 SCF   energy in the final basis set = -119.14544258
 Total energy in the final basis set = -119.14544258
 
 --------------------------------------------------------------
 
                    Orbital Energies (a.u.)
 --------------------------------------------------------------
 
 Alpha MOs
 -- Occupied --
-10.2739 -10.2650 -10.2650  -0.8812  -0.7771  -0.6777  -0.5457  -0.5245
 -0.4823  -0.4637  -0.4185  -0.4181  -0.4069
 -- Virtual --
  0.0693   0.0861   0.0911   0.0992   0.1249   0.1300   0.1334   0.1408
  0.1447   0.1703   0.1723   0.1911   0.2275   0.2399   0.2457   0.2676
  0.2846   0.2849   0.3114   0.3129   0.3358   0.3510   0.4570   0.4689
  0.4710   0.5083   0.5117   0.5177   0.5437   0.5615   0.5850   0.5868
  0.6249   0.6254   0.6368   0.6401   0.6568   0.6574   0.7091   0.7228
  0.7278   0.7642   0.8274   0.8661   0.8707   0.8733   0.8874   0.9608
  0.9967   1.0294   1.0778   1.1302   1.1447   1.1877   1.1905   1.2112
  1.2355   1.2393   1.2630   1.2727   1.2875   1.3007   1.3285   1.3543
  1.3928   1.3932   1.4089   1.4484   1.4582   1.4684   1.4733   1.4866
  1.5216   1.5749   1.6067   1.6192   1.6354   1.6439   1.6773   1.7050
  1.7429   2.3782   2.4364   2.4895   2.4968   2.5543   2.5666   2.5909
  2.6320   2.7141   2.8107   2.8279   2.8440   2.9079   2.9272   2.9303
  2.9375   2.9433   3.0077   3.0153   3.0551   3.0616   3.0800   3.1015
  3.1365   3.1413   3.1641   3.1888   3.2061   3.2345   3.2814   3.3052
  3.3226   3.3364   3.3416   3.3426   3.3753   3.3902   3.3968   3.4403
  3.4713   3.4840   3.4995   3.5102   3.5642   3.5810   3.5987   3.6223
  3.6235   3.6817   3.6872   3.7024   3.7802   3.7901   3.8735   3.8869
  3.9220   3.9296   3.9526   3.9724   3.9752   3.9859   4.0607   4.0641
  4.0871   4.1041   4.1072   4.1393   4.1534   4.1570   4.2018   4.2095
  4.2175   4.2464   4.2555   4.3742   4.3804   4.4112   4.4176   4.4306
  4.4498   4.5721   4.5722   4.6150   4.6522   4.8114   4.8244   4.9012
  4.9407   4.9486   4.9670   4.9774   5.0355   5.0463   5.0663   5.1052
  5.1163   5.2408   5.2516   5.2713   5.2950   5.3511   5.3531   5.3677
  5.3810   5.3842   5.4521   5.4991   5.5388   5.5527   5.6305   5.7452
  5.9521   6.3810   6.3853   6.3890   6.4146   6.4702  25.1939  25.4437
 25.4503
 --------------------------------------------------------------
 
 -----------------------------------------------------------------
                    Cartesian Multipole Moments
 -----------------------------------------------------------------
    Charge (ESU x 10^10)
                -0.0000
    Dipole Moment (Debye)
         X      -0.0000      Y       0.0032      Z      -0.0860
       Tot       0.0861
    Quadrupole Moments (Debye-Ang)
        XX     -22.1769     XY      -0.0000     YY     -21.3560
        XZ      -0.0000     YZ       0.0323     ZZ     -21.8415
    Octopole Moments (Debye-Ang^2)
       XXX      -0.0000    XXY      -0.1690    XYY       0.0000
       YYY       0.1396    XXZ      -1.5302    XYZ       0.0000
       YYZ       0.4519    XZZ      -0.0000    YZZ      -0.2996
       ZZZ      -0.4026
    Hexadecapole Moments (Debye-Ang^3)
      XXXX    -202.4840   XXXY      -0.0000   XXYY     -42.0870
      XYYY      -0.0000   YYYY     -44.2332   XXXZ       0.0000
      XXYZ       1.0221   XYYZ      -0.0000   YYYZ       0.7984
      XXZZ     -45.3159   XYZZ      -0.0000   YYZZ     -17.1120
      XZZZ      -0.0000   YZZZ       0.8014   ZZZZ     -72.0191
 -----------------------------------------------------------------
Archival summary:
1\1\centos77-c1\SP\ProcedureUnspecified\BasisUnspecified\38\shihchen\ThuJul204:11:202020ThuJul204:11:202020\0\\#,ProcedureUnspecified,BasisUnspecified,\\0,1\C\H,1,1.09255\H,1,1.09263,2,106.227\C,1,1.52405,2,109.092,3,-118.375,0\H,4,1.09047,1,111.632,2,49.634,0\H,4,1.09168,1,111.3,2,170.231,0\H,4,1.09206,1,110.512,2,-70.367,0\C,1,1.52405,2,109.092,3,118.375,0\H,8,1.09047,1,111.632,2,-49.6342,0\H,8,1.09168,1,111.3,2,-170.231,0\H,8,1.09206,1,110.512,2,70.3668,0\\\@

 Total job time:  27.42s(wall), 73.83s(cpu) 
 Thu Jul  2 04:11:20 2020

        *************************************************************
        *                                                           *
        *  Thank you very much for using Q-Chem.  Have a nice day.  *
        *                                                           *
        *************************************************************


