                  Welcome to Q-Chem
     A Quantum Leap Into The Future Of Chemistry


 Q-Chem 5.3 (devel), Q-Chem, Inc., Pleasanton, CA (2020)

 Yihan Shao,  Zhengting Gan,  E. Epifanovsky,  A. T. B. Gilbert,  M. Wormit,  
 J. Kussmann,  A. W. Lange,  A. Behn,  Jia Deng,  Xintian Feng,  D. Ghosh,  
 M. Goldey,  P. R. Horn,  L. D. Jacobson,  I. Kaliman,  T. Kus,  A. Landau,  
 Jie Liu,  E. I. Proynov,  R. M. Richard,  R. P. Steele,  E. J. Sundstrom,  
 H. L. Woodcock III,  P. M. Zimmerman,  D. Zuev,  B. Alam,  B. Albrecht,  
 E. Alguire,  S. A. Baeppler,  D. Barton,  Z. Benda,  Y. A. Bernard,  
 E. J. Berquist,  K. B. Bravaya,  H. Burton,  K. Carter-Fenk,  D. Casanova,  
 Chun-Min Chang,  Yunqing Chen,  A. Chien,  K. D. Closser,  M. P. Coons,  
 S. Coriani,  S. Dasgupta,  A. L. Dempwolff,  M. Diedenhofen,  Hainam Do,  
 R. G. Edgar,  Po-Tung Fang,  S. Faraji,  S. Fatehi,  Qingguo Feng,  
 J. Fosso-Tande,  J. Gayvert,  Qinghui Ge,  A. Ghysels,  G. Gidofalvi,  
 J. Gomes,  J. Gonthier,  A. Gunina,  D. Hait,  M. W. D. Hanson-Heine,  
 P. H. P. Harbach,  A. W. Hauser,  M. F. Herbst,  J. E. Herr,  
 E. G. Hohenstein,  Z. C. Holden,  Kerwin Hui,  B. C. Huynh,  T.-C. Jagau,  
 Hyunjun Ji,  B. Kaduk,  K. Khistyaev,  Jaehoon Kim,  P. Klunzinger,  K. Koh,  
 D. Kosenkov,  L. Koulias,  T. Kowalczyk,  C. M. Krauter,  A. Kunitsa,  
 Ka Un Lao,  A. Laurent,  K. V. Lawler,  Joonho Lee,  D. Lefrancois,  
 S. Lehtola,  D. S. Levine,  Yi-Pei Li,  You-Sheng Lin,  Fenglai Liu,  
 Kuan-Yu Liu,  E. Livshits,  M. Loipersberger,  A. Luenser,  P. Manohar,  
 E. Mansoor,  S. F. Manzer,  Shan-Ping Mao,  Yuezhi Mao,  N. Mardirossian,  
 A. V. Marenich,  T. Markovich,  L. A. Martinez-Martinez,  S. A. Maurer,  
 N. J. Mayhall,  S. C. McKenzie,  J.-M. Mewes,  P. Morgante,  A. F. Morrison,  
 J. W. Mullinax,  K. Nanda,  T. S. Nguyen-Beck,  R. Olivares-Amaya,  
 K. J. Oosterbaan,  J. A. Parkhill,  S. K. Paul,  F. Pavosevic,  Zheng Pei,  
 T. M. Perrine,  F. Plasser,  P. Pokhilko,  S. Prager,  A. Prociuk,  
 E. Ramos,  B. Rana,  D. R. Rehn,  F. Rob,  M. Scheurer,  M. Schneider,  
 N. Sergueev,  S. M. Sharada,  S. Sharma,  D. W. Small,  T. Stauch,  
 C. J. Stein,  T. Stein,  Yu-Chuan Su,  S. P. Veccham,  Zhen Tao,  
 A. J. W. Thom,  A. Tkatchenko,  T. Tsuchimochi,  N. M. Tubman,  L. Vogt,  
 M. L. Vidal,  O. Vydrov,  M. A. Watson,  J. Wenzel,  M. de Wergifosse,  
 T. A. Wesolowski,  A. White,  J. Witte,  A. Yamada,  Jun Yang,  K. Yao,  
 S. Yeganeh,  S. R. Yost,  Zhi-Qiang You,  A. Zech,  Igor Ying Zhang,  
 Xing Zhang,  Yan Zhao,  Ying Zhu,  B. R. Brooks,  G. K. L. Chan,  
 C. J. Cramer,  M. S. Gordon,  W. J. Hehre,  A. Klamt,  M. W. Schmidt,  
 C. D. Sherrill,  D. G. Truhlar,  A. Aspuru-Guzik,  R. Baer,  A. T. Bell,  
 N. A. Besley,  Jeng-Da Chai,  A. E. DePrince, III,  R. A. DiStasio Jr.,  
 A. Dreuw,  B. D. Dunietz,  T. R. Furlani,  Chao-Ping Hsu,  Yousung Jung,  
 Jing Kong,  D. S. Lambrecht,  WanZhen Liang,  C. Ochsenfeld,  
 V. A. Rassolov,  L. V. Slipchenko,  J. E. Subotnik,  T. Van Voorhis,  
 J. M. Herbert,  A. I. Krylov,  P. M. W. Gill,  M. Head-Gordon

 Contributors to earlier versions of Q-Chem not listed above: 
 R. D. Adamson,  B. Austin,  J. Baker,  G. J. O. Beran,  K. Brandhorst,  
 S. T. Brown,  E. F. C. Byrd,  A. K. Chakraborty,  C.-L. Cheng,  
 Siu Hung Chien,  D. M. Chipman,  D. L. Crittenden,  H. Dachsel,  
 R. J. Doerksen,  A. D. Dutoi,  L. Fusti-Molnar,  W. A. Goddard III,  
 A. Golubeva-Zadorozhnaya,  S. R. Gwaltney,  G. Hawkins,  A. Heyden,  
 S. Hirata,  G. Kedziora,  F. J. Keil,  C. Kelley,  Jihan Kim,  R. A. King,  
 R. Z. Khaliullin,  P. P. Korambath,  W. Kurlancheek,  A. M. Lee,  M. S. Lee,  
 S. V. Levchenko,  Ching Yeh Lin,  D. Liotard,  R. C. Lochan,  I. Lotan,  
 P. E. Maslen,  N. Nair,  D. P. O'Neill,  D. Neuhauser,  E. Neuscamman,  
 C. M. Oana,  R. Olson,  B. Peters,  R. Peverati,  P. A. Pieniazek,  
 Y. M. Rhee,  J. Ritchie,  M. A. Rohrdanz,  E. Rosta,  N. J. Russ,  
 H. F. Schaefer III,  N. E. Schultz,  N. Shenvi,  A. C. Simmonett,  A. Sodt,  
 D. Stuck,  K. S. Thanthiriwatte,  V. Vanovschi,  Tao Wang,  A. Warshel,  
 C. F. Williams,  Q. Wu,  X. Xu,  W. Zhang

 Please cite Q-Chem as follows:
 Y. Shao et al., Mol. Phys. 113, 184-215 (2015)
 DOI: 10.1080/00268976.2014.952696

 Q-Chem 5.3.0 for Intel X86 EM64T Linux

 Parts of Q-Chem use Armadillo 9.800.1 (Horizon Scraper).
 http://arma.sourceforge.net/

 Q-Chem begins on Thu Jul  2 03:40:41 2020  

Host: centos77-c1
0

     Scratch files written to /tmp/26650.centos77-h1/qchem69300//
Processing $rem in /opt/qchem-5.3.0-intel2020u1//config/preferences:
Processing $rem in /home/shihchengli/.qchemrc:

Checking the input file for inconsistencies... 	...done.

--------------------------------------------------------------
User input:
--------------------------------------------------------------
$rem
   JOBTYPE  sp
   EXCHANGE   omegaB97X-D
   BASIS   6-311+G(2df,2pd)
   max_scf_cycles   250
   geom_opt_max_cycles   1500
   basis2 6-31G*
   scf_algorithm rca_diis
   SYM_IGNORE  TRUE
   print_input   true
   geom_opt_dmax   80
   pop_mulliken false
   XC_GRID 000075000302
$end

$molecule
0 1
C       1.2176698806     -0.3507681759     0.2663651385
C       0.0000010741     0.0000081147     -0.5803684908
H       2.0121353950     -0.7378702442     -0.3712376902
H       0.9905117469     -1.1180564771     1.0123320217
H       1.6089368666     0.5227156235     0.7889150884
C       -1.2176699861     0.3507632255     0.2663708397
H       -0.1774941582     -0.8560320085     -1.2356903499
H       0.1774975939     0.8560652475     -1.2356683870
H       -0.9905314210     1.1180760413     1.0123177110
H       -1.6089020851     -0.5227240313     0.7889412126
H       -2.0121549673     0.7378233506     -0.3712320752
$end
--------------------------------------------------------------
 ----------------------------------------------------------------
             Standard Nuclear Orientation (Angstroms)
    I     Atom           X                Y                Z
 ----------------------------------------------------------------
    1      C       1.2176698806    -0.3507681759     0.2663651385
    2      C       0.0000010741     0.0000081147    -0.5803684908
    3      H       2.0121353950    -0.7378702442    -0.3712376902
    4      H       0.9905117469    -1.1180564771     1.0123320217
    5      H       1.6089368666     0.5227156235     0.7889150884
    6      C      -1.2176699861     0.3507632255     0.2663708397
    7      H      -0.1774941582    -0.8560320085    -1.2356903499
    8      H       0.1774975939     0.8560652475    -1.2356683870
    9      H      -0.9905314210     1.1180760413     1.0123177110
   10      H      -1.6089020851    -0.5227240313     0.7889412126
   11      H      -2.0121549673     0.7378233506    -0.3712320752
 ----------------------------------------------------------------
 Nuclear Repulsion Energy =          82.70499528 hartrees
 There are       13 alpha and       13 beta electrons
 Requested basis set is 6-311+G(2df,2pd)
 There are 72 shells and 214 basis functions

 Total QAlloc Memory Limit   2000 MB
 Mega-Array Size       188 MB
 MEM_STATIC part       192 MB

                       Distance Matrix (Angstroms)
             C (  1)   C (  2)   H (  3)   H (  4)   H (  5)   C (  6)
   C (  2)  1.524047
   H (  3)  1.089753  2.153343
   H (  4)  1.093983  2.183546  1.761398
   H (  5)  1.090469  2.176427  1.760000  1.767625
   C (  6)  2.534369  1.524047  3.467465  2.754987  2.879640
   H (  7)  2.111385  1.092591  2.357057  2.546861  3.031717  2.189637
   H (  8)  2.189637  1.092592  2.579490  3.100267  2.501815  2.111385
   H (  9)  2.755014  2.183548  3.791407  2.987444  2.676116  1.093982
   H ( 10)  2.879612  2.176425  3.808440  2.676056  3.383405  1.090469
   H ( 11)  3.467467  2.153342  4.286325  3.791378  3.808480  1.089752
             H (  7)   H (  8)   H (  9)   H ( 10)
   H (  8)  1.748513
   H (  9)  3.100270  2.546838
   H ( 10)  2.501830  3.031720  1.767627
   H ( 11)  2.579466  2.357076  1.761396  1.759998
 
 A cutoff of  1.0D-09 yielded   2531 shell pairs
 There are     22545 function pairs (     27718 Cartesian)
 Smallest overlap matrix eigenvalue = 8.64E-05

 Scale SEOQF with 1.000000e-01/1.000000e-01/1.000000e-01

 Standard Electronic Orientation quadrupole field applied
 Nucleus-field energy     =     0.0000000007 hartrees
 Requested basis set is 6-31G(d)
 There are 28 shells and 58 basis functions
 A cutoff of  1.0D-09 yielded    402 shell pairs
 There are      1773 function pairs (      1968 Cartesian)
 Smallest overlap matrix eigenvalue = 6.70E-03
 Guess from superposition of atomic densities
 Warning:  Energy on first SCF cycle will be non-variational
 SAD guess density has 26.000000 electrons
 Long-range K will be added via erf
 Coulomb attenuation parameter = 0.2 bohr**(-1)
 A restricted hybrid HF-DFT SCF calculation will be
 performed using Relaxed Constraint Minimization + Pulay DIIS
 Exchange:     0.2220 Hartree-Fock + 1.0000 wB97X-D + LR-HF
 Correlation:  1.0000 wB97X-D
 Using Euler-Maclaurin-Lebedev (75,302) quadrature formula
 Dispersion:   Grimme D
 SCF converges when DIIS error is below 1.0E-04
 using 3 threads for integral computing
 -------------------------------------------------------
 OpenMP Integral computing Module                
 Release: version 1.0, May 2013, Q-Chem Inc. Pittsburgh 
 -------------------------------------------------------
 using 3 threads for integral computing
 -------------------------------------------------------
 OpenMP Integral computing Module                
 Release: version 1.0, May 2013, Q-Chem Inc. Pittsburgh 
 -------------------------------------------------------
 ---------------------------------------
  Cycle       Energy         DIIS Error
 ---------------------------------------
    1    -119.6188192563      1.00E-01
    2    -119.0648987326      9.03E-03
    3    -119.0860798695      2.46E-03
    4    -119.1000472624      1.68E-03
    5    -119.1007446170      2.67E-04 Done RCA. Switching to DIIS
    6    -119.1012557038      1.97E-04
    7    -119.1012725374      4.60E-06 Convergence criterion met
 ---------------------------------------
 SCF time:  CPU 20.18 s  wall 7.51 s
 SCF   energy in the small basis set = -119.10127254
 Total energy in the small basis set = -119.10127254
 ----------------------------------------------------
  Cycle       Energy    
 ----------------------------------------------------
    1     -16.5398652743     -1.65E+01
 Long-range K will be added via erf
 Coulomb attenuation parameter = 0.2 bohr**(-1)
 A restricted hybrid HF-DFT SCF calculation will be
 performed using Relaxed Constraint Minimization + Pulay DIIS
 Exchange:     0.2220 Hartree-Fock + 1.0000 wB97X-D + LR-HF
 Correlation:  1.0000 wB97X-D
 Using Euler-Maclaurin-Lebedev (75,302) quadrature formula
 Dispersion:   Grimme D
 SCF converges when DIIS error is below 1.0E-05
 Basis2 calculation detected. Using small basis as guess for larger.
 SCFMinFind is unable to tell whether the solution found is close.
 Resetting ReadMinima to 0 and attempting to follow guess.
 SCFMinFind following SCF Guess.
 using 3 threads for integral computing
 -------------------------------------------------------
 OpenMP Integral computing Module                
 Release: version 1.0, May 2013, Q-Chem Inc. Pittsburgh 
 -------------------------------------------------------
 using 3 threads for integral computing
 -------------------------------------------------------
 OpenMP Integral computing Module                
 Release: version 1.0, May 2013, Q-Chem Inc. Pittsburgh 
 -------------------------------------------------------
 ---------------------------------------
  Cycle       Energy         DIIS Error
 ---------------------------------------
    1    -119.1203858978      4.21E-03
    2    -119.1424277152      5.97E-04 Done RCA. Switching to DIIS
    3    -119.1432612805      4.18E-04
    4    -119.1442207596      4.56E-05
    5    -119.1442355440      9.98E-06 Convergence criterion met
 ---------------------------------------
 SCF time:  CPU 42.16 s  wall 14.07 s
 SCF   energy in the final basis set = -119.14423554
 Total energy in the final basis set = -119.14423554
 
 --------------------------------------------------------------
 
                    Orbital Energies (a.u.)
 --------------------------------------------------------------
 
 Alpha MOs
 -- Occupied --
-10.2743 -10.2645 -10.2645  -0.8810  -0.7775  -0.6773  -0.5457  -0.5226
 -0.4847  -0.4651  -0.4192  -0.4161  -0.4050
 -- Virtual --
  0.0689   0.0862   0.0909   0.0990   0.1250   0.1305   0.1330   0.1424
  0.1434   0.1706   0.1725   0.1911   0.2354   0.2373   0.2473   0.2546
  0.2838   0.2922   0.3128   0.3134   0.3354   0.3467   0.4595   0.4650
  0.4728   0.5108   0.5134   0.5163   0.5404   0.5593   0.5841   0.5874
  0.6206   0.6242   0.6383   0.6435   0.6526   0.6658   0.7070   0.7227
  0.7258   0.7671   0.8092   0.8686   0.8740   0.8801   0.8919   0.9573
  1.0004   1.0578   1.0585   1.1353   1.1493   1.1815   1.1870   1.1954
  1.2341   1.2368   1.2627   1.2707   1.2821   1.3002   1.3365   1.3706
  1.3813   1.3902   1.4078   1.4531   1.4639   1.4671   1.4674   1.4963
  1.5253   1.5728   1.5943   1.6089   1.6407   1.6509   1.6818   1.6885
  1.7232   2.3617   2.4334   2.4952   2.5009   2.5488   2.5530   2.6106
  2.6446   2.6952   2.8062   2.8332   2.8502   2.9039   2.9310   2.9328
  2.9368   2.9465   2.9909   3.0273   3.0543   3.0793   3.0797   3.0981
  3.1346   3.1348   3.1753   3.1806   3.1977   3.2388   3.2796   3.2988
  3.3258   3.3332   3.3458   3.3534   3.3571   3.3891   3.3909   3.4433
  3.4525   3.4773   3.5094   3.5351   3.5706   3.5776   3.6052   3.6199
  3.6287   3.6590   3.6797   3.7108   3.7747   3.8210   3.8422   3.8945
  3.9165   3.9463   3.9477   3.9687   3.9721   3.9968   4.0496   4.0601
  4.0717   4.0962   4.1167   4.1423   4.1543   4.1658   4.1780   4.1994
  4.2059   4.2601   4.2837   4.3635   4.3653   4.3909   4.4260   4.4363
  4.4432   4.5705   4.5927   4.5967   4.6326   4.8080   4.8319   4.9188
  4.9359   4.9667   4.9739   4.9926   5.0186   5.0265   5.0457   5.1115
  5.1484   5.2399   5.2439   5.2687   5.3011   5.3414   5.3505   5.3605
  5.3801   5.4235   5.4322   5.4868   5.5163   5.5586   5.6309   5.7270
  5.9631   6.3747   6.3879   6.3988   6.4101   6.4751  25.1887  25.4298
 25.4547
 --------------------------------------------------------------
 
 -----------------------------------------------------------------
                    Cartesian Multipole Moments
 -----------------------------------------------------------------
    Charge (ESU x 10^10)
                -0.0000
    Dipole Moment (Debye)
         X      -0.0000      Y       0.0000      Z      -0.0975
       Tot       0.0975
    Quadrupole Moments (Debye-Ang)
        XX     -22.3001     XY       0.1072     YY     -21.3082
        XZ       0.0000     YZ       0.0000     ZZ     -21.7798
    Octopole Moments (Debye-Ang^2)
       XXX      -0.0000    XXY       0.0000    XYY       0.0000
       YYY       0.0000    XXZ      -1.2062    XYZ       0.7543
       YYZ       0.0329    XZZ      -0.0000    YZZ      -0.0001
       ZZZ      -0.6316
    Hexadecapole Moments (Debye-Ang^3)
      XXXX    -193.1796   XXXY      20.9181   XXYY     -41.0314
      XYYY      22.1158   YYYY     -57.4181   XXXZ       0.0003
      XXYZ       0.0001   XYYZ      -0.0000   YYYZ       0.0002
      XXZZ     -43.3733   XYZZ       6.9450   YYZZ     -18.9788
      XZZZ       0.0002   YZZZ       0.0001   ZZZZ     -71.9130
 -----------------------------------------------------------------
Archival summary:
1\1\centos77-c1\SP\ProcedureUnspecified\BasisUnspecified\38\shihchen\ThuJul203:41:062020ThuJul203:41:062020\0\\#,ProcedureUnspecified,BasisUnspecified,\\0,1\C\H,1,1.09259\H,1,1.09259,2,106.292\C,1,1.52405,2,106.421,3,-120.195,0\H,4,1.08975,1,109.826,2,47.7519,0\H,4,1.09047,1,111.626,2,167.079,0\H,4,1.09398,1,111.985,2,-71.6443,0\C,1,1.52405,2,112.567,3,116.13,0\H,8,1.08975,1,109.826,2,-68.297,0\H,8,1.09047,1,111.626,2,51.0298,0\H,8,1.09398,1,111.985,2,172.307,0\\\@

 Total job time:  24.46s(wall), 65.89s(cpu) 
 Thu Jul  2 03:41:06 2020

        *************************************************************
        *                                                           *
        *  Thank you very much for using Q-Chem.  Have a nice day.  *
        *                                                           *
        *************************************************************


