                  Welcome to Q-Chem
     A Quantum Leap Into The Future Of Chemistry


 Q-Chem 5.3 (devel), Q-Chem, Inc., Pleasanton, CA (2020)

 Yihan Shao,  Zhengting Gan,  E. Epifanovsky,  A. T. B. Gilbert,  M. Wormit,  
 J. Kussmann,  A. W. Lange,  A. Behn,  Jia Deng,  Xintian Feng,  D. Ghosh,  
 M. Goldey,  P. R. Horn,  L. D. Jacobson,  I. Kaliman,  T. Kus,  A. Landau,  
 Jie Liu,  E. I. Proynov,  R. M. Richard,  R. P. Steele,  E. J. Sundstrom,  
 H. L. Woodcock III,  P. M. Zimmerman,  D. Zuev,  B. Alam,  B. Albrecht,  
 E. Alguire,  S. A. Baeppler,  D. Barton,  Z. Benda,  Y. A. Bernard,  
 E. J. Berquist,  K. B. Bravaya,  H. Burton,  K. Carter-Fenk,  D. Casanova,  
 Chun-Min Chang,  Yunqing Chen,  A. Chien,  K. D. Closser,  M. P. Coons,  
 S. Coriani,  S. Dasgupta,  A. L. Dempwolff,  M. Diedenhofen,  Hainam Do,  
 R. G. Edgar,  Po-Tung Fang,  S. Faraji,  S. Fatehi,  Qingguo Feng,  
 J. Fosso-Tande,  J. Gayvert,  Qinghui Ge,  A. Ghysels,  G. Gidofalvi,  
 J. Gomes,  J. Gonthier,  A. Gunina,  D. Hait,  M. W. D. Hanson-Heine,  
 P. H. P. Harbach,  A. W. Hauser,  M. F. Herbst,  J. E. Herr,  
 E. G. Hohenstein,  Z. C. Holden,  Kerwin Hui,  B. C. Huynh,  T.-C. Jagau,  
 Hyunjun Ji,  B. Kaduk,  K. Khistyaev,  Jaehoon Kim,  P. Klunzinger,  K. Koh,  
 D. Kosenkov,  L. Koulias,  T. Kowalczyk,  C. M. Krauter,  A. Kunitsa,  
 Ka Un Lao,  A. Laurent,  K. V. Lawler,  Joonho Lee,  D. Lefrancois,  
 S. Lehtola,  D. S. Levine,  Yi-Pei Li,  You-Sheng Lin,  Fenglai Liu,  
 Kuan-Yu Liu,  E. Livshits,  M. Loipersberger,  A. Luenser,  P. Manohar,  
 E. Mansoor,  S. F. Manzer,  Shan-Ping Mao,  Yuezhi Mao,  N. Mardirossian,  
 A. V. Marenich,  T. Markovich,  L. A. Martinez-Martinez,  S. A. Maurer,  
 N. J. Mayhall,  S. C. McKenzie,  J.-M. Mewes,  P. Morgante,  A. F. Morrison,  
 J. W. Mullinax,  K. Nanda,  T. S. Nguyen-Beck,  R. Olivares-Amaya,  
 K. J. Oosterbaan,  J. A. Parkhill,  S. K. Paul,  F. Pavosevic,  Zheng Pei,  
 T. M. Perrine,  F. Plasser,  P. Pokhilko,  S. Prager,  A. Prociuk,  
 E. Ramos,  B. Rana,  D. R. Rehn,  F. Rob,  M. Scheurer,  M. Schneider,  
 N. Sergueev,  S. M. Sharada,  S. Sharma,  D. W. Small,  T. Stauch,  
 C. J. Stein,  T. Stein,  Yu-Chuan Su,  S. P. Veccham,  Zhen Tao,  
 A. J. W. Thom,  A. Tkatchenko,  T. Tsuchimochi,  N. M. Tubman,  L. Vogt,  
 M. L. Vidal,  O. Vydrov,  M. A. Watson,  J. Wenzel,  M. de Wergifosse,  
 T. A. Wesolowski,  A. White,  J. Witte,  A. Yamada,  Jun Yang,  K. Yao,  
 S. Yeganeh,  S. R. Yost,  Zhi-Qiang You,  A. Zech,  Igor Ying Zhang,  
 Xing Zhang,  Yan Zhao,  Ying Zhu,  B. R. Brooks,  G. K. L. Chan,  
 C. J. Cramer,  M. S. Gordon,  W. J. Hehre,  A. Klamt,  M. W. Schmidt,  
 C. D. Sherrill,  D. G. Truhlar,  A. Aspuru-Guzik,  R. Baer,  A. T. Bell,  
 N. A. Besley,  Jeng-Da Chai,  A. E. DePrince, III,  R. A. DiStasio Jr.,  
 A. Dreuw,  B. D. Dunietz,  T. R. Furlani,  Chao-Ping Hsu,  Yousung Jung,  
 Jing Kong,  D. S. Lambrecht,  WanZhen Liang,  C. Ochsenfeld,  
 V. A. Rassolov,  L. V. Slipchenko,  J. E. Subotnik,  T. Van Voorhis,  
 J. M. Herbert,  A. I. Krylov,  P. M. W. Gill,  M. Head-Gordon

 Contributors to earlier versions of Q-Chem not listed above: 
 R. D. Adamson,  B. Austin,  J. Baker,  G. J. O. Beran,  K. Brandhorst,  
 S. T. Brown,  E. F. C. Byrd,  A. K. Chakraborty,  C.-L. Cheng,  
 Siu Hung Chien,  D. M. Chipman,  D. L. Crittenden,  H. Dachsel,  
 R. J. Doerksen,  A. D. Dutoi,  L. Fusti-Molnar,  W. A. Goddard III,  
 A. Golubeva-Zadorozhnaya,  S. R. Gwaltney,  G. Hawkins,  A. Heyden,  
 S. Hirata,  G. Kedziora,  F. J. Keil,  C. Kelley,  Jihan Kim,  R. A. King,  
 R. Z. Khaliullin,  P. P. Korambath,  W. Kurlancheek,  A. M. Lee,  M. S. Lee,  
 S. V. Levchenko,  Ching Yeh Lin,  D. Liotard,  R. C. Lochan,  I. Lotan,  
 P. E. Maslen,  N. Nair,  D. P. O'Neill,  D. Neuhauser,  E. Neuscamman,  
 C. M. Oana,  R. Olson,  B. Peters,  R. Peverati,  P. A. Pieniazek,  
 Y. M. Rhee,  J. Ritchie,  M. A. Rohrdanz,  E. Rosta,  N. J. Russ,  
 H. F. Schaefer III,  N. E. Schultz,  N. Shenvi,  A. C. Simmonett,  A. Sodt,  
 D. Stuck,  K. S. Thanthiriwatte,  V. Vanovschi,  Tao Wang,  A. Warshel,  
 C. F. Williams,  Q. Wu,  X. Xu,  W. Zhang

 Please cite Q-Chem as follows:
 Y. Shao et al., Mol. Phys. 113, 184-215 (2015)
 DOI: 10.1080/00268976.2014.952696

 Q-Chem 5.3.0 for Intel X86 EM64T Linux

 Parts of Q-Chem use Armadillo 9.800.1 (Horizon Scraper).
 http://arma.sourceforge.net/

 Q-Chem begins on Thu Jul  2 04:22:36 2020  

Host: centos77-c1
0

     Scratch files written to /tmp/26650.centos77-h1/qchem73093//
Processing $rem in /opt/qchem-5.3.0-intel2020u1//config/preferences:
Processing $rem in /home/shihchengli/.qchemrc:

Checking the input file for inconsistencies... 	...done.

--------------------------------------------------------------
User input:
--------------------------------------------------------------
$rem
   JOBTYPE  sp
   EXCHANGE   omegaB97X-D
   BASIS   6-311+G(2df,2pd)
   max_scf_cycles   250
   geom_opt_max_cycles   1500
   basis2 6-31G*
   scf_algorithm rca_diis
   SYM_IGNORE  TRUE
   print_input   true
   geom_opt_dmax   80
   pop_mulliken false
   XC_GRID 000075000302
$end

$molecule
0 1
C       1.2543097179     -0.2492946957     -0.0509077363
C       -0.0000029874     0.5496515881     0.2824103613
H       2.0296113713     0.4666482603     0.2484998608
H       1.4679332863     -0.5733087682     -1.0660287697
H       1.3550893266     -1.1137626517     0.6061010815
C       -1.2543104542     -0.2492996804     -0.0509182323
H       -0.0000011691     1.2057040846     -0.5899112466
H       -0.0000082837     1.1841312482     1.1732530767
H       -2.0296250268     0.4665914633     0.2485765686
H       -1.3550347458     -1.1138227101     0.6060273128
H       -1.4679610956     -0.5732374724     -1.0660572579
$end
--------------------------------------------------------------
 ----------------------------------------------------------------
             Standard Nuclear Orientation (Angstroms)
    I     Atom           X                Y                Z
 ----------------------------------------------------------------
    1      C       1.2543097179    -0.2492946957    -0.0509077363
    2      C      -0.0000029874     0.5496515881     0.2824103613
    3      H       2.0296113713     0.4666482603     0.2484998608
    4      H       1.4679332863    -0.5733087682    -1.0660287697
    5      H       1.3550893266    -1.1137626517     0.6061010815
    6      C      -1.2543104542    -0.2492996804    -0.0509182323
    7      H      -0.0000011691     1.2057040846    -0.5899112466
    8      H      -0.0000082837     1.1841312482     1.1732530767
    9      H      -2.0296250268     0.4665914633     0.2485765686
   10      H      -1.3550347458    -1.1138227101     0.6060273128
   11      H      -1.4679610956    -0.5732374724    -1.0660572579
 ----------------------------------------------------------------
 Nuclear Repulsion Energy =          82.89124004 hartrees
 There are       13 alpha and       13 beta electrons
 Requested basis set is 6-311+G(2df,2pd)
 There are 72 shells and 214 basis functions

 Total QAlloc Memory Limit   2000 MB
 Mega-Array Size       188 MB
 MEM_STATIC part       192 MB

                       Distance Matrix (Angstroms)
             C (  1)   C (  2)   H (  3)   H (  4)   H (  5)   C (  6)
   C (  2)  1.524046
   H (  3)  1.096956  2.031594
   H (  4)  1.086780  2.287830  1.767761
   H (  5)  1.090469  2.169792  1.755152  1.760921
   C (  6)  2.508620  1.524047  3.374370  2.923361  2.826294
   H (  7)  1.995205  1.091490  2.316995  2.355081  2.940517  1.995205
   H (  8)  2.264198  1.093693  2.342927  3.202785  2.727319  2.264198
   H (  9)  3.374376  2.031603  4.059236  3.878465  3.752550  1.096955
   H ( 10)  2.826243  2.169789  3.752538  3.325218  2.710124  1.090469
   H ( 11)  2.923393  2.287826  3.878458  2.935894  3.325341  1.086779
             H (  7)   H (  8)   H (  9)   H ( 10)
   H (  8)  1.763296
   H (  9)  2.317050  2.342911
   H ( 10)  2.940508  2.727349  1.755150
   H ( 11)  2.355049  3.202771  1.767759  1.760923
 
 A cutoff of  1.0D-09 yielded   2527 shell pairs
 There are     22531 function pairs (     27720 Cartesian)
 Smallest overlap matrix eigenvalue = 8.92E-05

 Scale SEOQF with 1.000000e-01/1.000000e-01/1.000000e-01

 Standard Electronic Orientation quadrupole field applied
 Nucleus-field energy     =     0.0000000013 hartrees
 Requested basis set is 6-31G(d)
 There are 28 shells and 58 basis functions
 A cutoff of  1.0D-09 yielded    403 shell pairs
 There are      1774 function pairs (      1969 Cartesian)
 Smallest overlap matrix eigenvalue = 5.83E-03
 Guess from superposition of atomic densities
 Warning:  Energy on first SCF cycle will be non-variational
 SAD guess density has 26.000000 electrons
 Long-range K will be added via erf
 Coulomb attenuation parameter = 0.2 bohr**(-1)
 A restricted hybrid HF-DFT SCF calculation will be
 performed using Relaxed Constraint Minimization + Pulay DIIS
 Exchange:     0.2220 Hartree-Fock + 1.0000 wB97X-D + LR-HF
 Correlation:  1.0000 wB97X-D
 Using Euler-Maclaurin-Lebedev (75,302) quadrature formula
 Dispersion:   Grimme D
 SCF converges when DIIS error is below 1.0E-04
 using 3 threads for integral computing
 -------------------------------------------------------
 OpenMP Integral computing Module                
 Release: version 1.0, May 2013, Q-Chem Inc. Pittsburgh 
 -------------------------------------------------------
 using 3 threads for integral computing
 -------------------------------------------------------
 OpenMP Integral computing Module                
 Release: version 1.0, May 2013, Q-Chem Inc. Pittsburgh 
 -------------------------------------------------------
 ---------------------------------------
  Cycle       Energy         DIIS Error
 ---------------------------------------
    1    -119.6429923177      1.01E-01
    2    -119.0378215041      9.21E-03
    3    -119.0597631073      2.48E-03
    4    -119.0744673678      1.69E-03
    5    -119.0751704102      2.67E-04 Done RCA. Switching to DIIS
    6    -119.0756886798      1.96E-04
    7    -119.0757052861      6.12E-06 Convergence criterion met
 ---------------------------------------
 SCF time:  CPU 21.84 s  wall 8.39 s
 SCF   energy in the small basis set = -119.07570529
 Total energy in the small basis set = -119.07570529
 ----------------------------------------------------
  Cycle       Energy    
 ----------------------------------------------------
    1     -16.5425188222     -1.65E+01
 Long-range K will be added via erf
 Coulomb attenuation parameter = 0.2 bohr**(-1)
 A restricted hybrid HF-DFT SCF calculation will be
 performed using Relaxed Constraint Minimization + Pulay DIIS
 Exchange:     0.2220 Hartree-Fock + 1.0000 wB97X-D + LR-HF
 Correlation:  1.0000 wB97X-D
 Using Euler-Maclaurin-Lebedev (75,302) quadrature formula
 Dispersion:   Grimme D
 SCF converges when DIIS error is below 1.0E-05
 Basis2 calculation detected. Using small basis as guess for larger.
 SCFMinFind is unable to tell whether the solution found is close.
 Resetting ReadMinima to 0 and attempting to follow guess.
 SCFMinFind following SCF Guess.
 using 3 threads for integral computing
 -------------------------------------------------------
 OpenMP Integral computing Module                
 Release: version 1.0, May 2013, Q-Chem Inc. Pittsburgh 
 -------------------------------------------------------
 using 3 threads for integral computing
 -------------------------------------------------------
 OpenMP Integral computing Module                
 Release: version 1.0, May 2013, Q-Chem Inc. Pittsburgh 
 -------------------------------------------------------
 ---------------------------------------
  Cycle       Energy         DIIS Error
 ---------------------------------------
    1    -119.0954398170      4.21E-03
    2    -119.1175156387      6.15E-04 Done RCA. Switching to DIIS
    3    -119.1183751263      4.36E-04
    4    -119.1194166719      4.57E-05
    5    -119.1194317918      9.15E-06 Convergence criterion met
 ---------------------------------------
 SCF time:  CPU 44.38 s  wall 15.04 s
 SCF   energy in the final basis set = -119.11943179
 Total energy in the final basis set = -119.11943179
 
 --------------------------------------------------------------
 
                    Orbital Energies (a.u.)
 --------------------------------------------------------------
 
 Alpha MOs
 -- Occupied --
-10.2761 -10.2632 -10.2632  -0.8847  -0.7784  -0.6766  -0.5473  -0.5164
 -0.5000  -0.4644  -0.4436  -0.3884  -0.3873
 -- Virtual --
  0.0672   0.0868   0.0886   0.0976   0.1239   0.1292   0.1336   0.1379
  0.1421   0.1720   0.1722   0.1904   0.2248   0.2403   0.2478   0.2791
  0.2805   0.2869   0.3015   0.3053   0.3428   0.3501   0.4550   0.4685
  0.4761   0.5051   0.5115   0.5265   0.5331   0.5586   0.5807   0.5956
  0.6034   0.6211   0.6409   0.6574   0.6691   0.6799   0.7006   0.7166
  0.7302   0.7587   0.8347   0.8528   0.8715   0.8969   0.9289   0.9581
  0.9864   1.0411   1.0602   1.1411   1.1452   1.1660   1.1926   1.2063
  1.2212   1.2611   1.2639   1.2738   1.3047   1.3235   1.3314   1.3671
  1.3713   1.4218   1.4381   1.4449   1.4498   1.4680   1.5023   1.5125
  1.5365   1.5494   1.5781   1.6134   1.6145   1.6642   1.6755   1.6790
  1.7306   2.3489   2.4637   2.4692   2.5100   2.5796   2.5914   2.5921
  2.6288   2.6807   2.8045   2.8129   2.8624   2.9091   2.9217   2.9410
  2.9620   2.9713   3.0106   3.0451   3.0588   3.0627   3.0915   3.0987
  3.1146   3.1582   3.1753   3.1809   3.2149   3.2600   3.2897   3.3046
  3.3120   3.3242   3.3336   3.3534   3.3895   3.3984   3.4272   3.4326
  3.4674   3.5181   3.5289   3.5511   3.5660   3.5806   3.6016   3.6083
  3.6142   3.6792   3.6884   3.7263   3.7553   3.7676   3.8077   3.8092
  3.9008   3.9174   3.9484   3.9524   3.9759   4.0149   4.0270   4.0489
  4.0896   4.0897   4.1061   4.1300   4.1487   4.1954   4.2149   4.2468
  4.2559   4.2674   4.3008   4.3502   4.3570   4.3953   4.4143   4.4436
  4.4778   4.5650   4.5935   4.6599   4.7337   4.7983   4.8366   4.8526
  4.8848   4.8977   4.9415   5.0057   5.0133   5.0942   5.1267   5.1455
  5.1790   5.1814   5.2142   5.2405   5.3084   5.3396   5.3654   5.3941
  5.4076   5.4621   5.5196   5.5305   5.5389   5.5898   5.6236   5.7495
  5.9820   6.3647   6.3982   6.4196   6.4232   6.4735  25.1625  25.4305
 25.4493
 --------------------------------------------------------------
 
 -----------------------------------------------------------------
                    Cartesian Multipole Moments
 -----------------------------------------------------------------
    Charge (ESU x 10^10)
                -0.0000
    Dipole Moment (Debye)
         X       0.0000      Y       0.2166      Z      -0.0559
       Tot       0.2237
    Quadrupole Moments (Debye-Ang)
        XX     -22.9923     XY      -0.0000     YY     -21.6747
        XZ      -0.0000     YZ       0.5912     ZZ     -20.9658
    Octopole Moments (Debye-Ang^2)
       XXX      -0.0000    XXY       0.6476    XYY       0.0001
       YYY      -0.4198    XXZ      -1.8391    XYZ      -0.0000
       YYZ       0.0181    XZZ      -0.0000    YZZ      -0.0362
       ZZZ      -3.9213
    Hexadecapole Moments (Debye-Ang^3)
      XXXX    -212.4472   XXXY      -0.0003   XXYY     -44.1320
      XYYY      -0.0001   YYYY     -69.0652   XXXZ      -0.0003
      XXYZ       0.3808   XYYZ      -0.0002   YYYZ      -4.1906
      XXZZ     -40.9246   XYZZ      -0.0003   YYZZ     -17.1751
      XZZZ      -0.0001   YZZZ      -2.6656   ZZZZ     -46.2011
 -----------------------------------------------------------------
Archival summary:
1\1\centos77-c1\SP\ProcedureUnspecified\BasisUnspecified\38\shihchen\ThuJul204:23:022020ThuJul204:23:022020\0\\#,ProcedureUnspecified,BasisUnspecified,\\0,1\C\H,1,1.09149\H,1,1.09369,2,107.595\C,1,1.52405,2,98.0653,3,-123.774,0\H,4,1.08678,1,121.49,2,-40.6475,0\H,4,1.09047,1,111.092,2,-169.237,0\H,4,1.09696,1,100.361,2,78.1871,0\C,1,1.52405,2,98.0652,3,123.774,0\H,8,1.08678,1,121.49,2,40.6422,0\H,8,1.09047,1,111.092,2,169.231,0\H,8,1.09695,1,100.362,2,-78.1926,0\\\@

 Total job time:  26.38s(wall), 69.85s(cpu) 
 Thu Jul  2 04:23:02 2020

        *************************************************************
        *                                                           *
        *  Thank you very much for using Q-Chem.  Have a nice day.  *
        *                                                           *
        *************************************************************


