                  Welcome to Q-Chem
     A Quantum Leap Into The Future Of Chemistry


 Q-Chem 5.3 (devel), Q-Chem, Inc., Pleasanton, CA (2020)

 Yihan Shao,  Zhengting Gan,  E. Epifanovsky,  A. T. B. Gilbert,  M. Wormit,  
 J. Kussmann,  A. W. Lange,  A. Behn,  Jia Deng,  Xintian Feng,  D. Ghosh,  
 M. Goldey,  P. R. Horn,  L. D. Jacobson,  I. Kaliman,  T. Kus,  A. Landau,  
 Jie Liu,  E. I. Proynov,  R. M. Richard,  R. P. Steele,  E. J. Sundstrom,  
 H. L. Woodcock III,  P. M. Zimmerman,  D. Zuev,  B. Alam,  B. Albrecht,  
 E. Alguire,  S. A. Baeppler,  D. Barton,  Z. Benda,  Y. A. Bernard,  
 E. J. Berquist,  K. B. Bravaya,  H. Burton,  K. Carter-Fenk,  D. Casanova,  
 Chun-Min Chang,  Yunqing Chen,  A. Chien,  K. D. Closser,  M. P. Coons,  
 S. Coriani,  S. Dasgupta,  A. L. Dempwolff,  M. Diedenhofen,  Hainam Do,  
 R. G. Edgar,  Po-Tung Fang,  S. Faraji,  S. Fatehi,  Qingguo Feng,  
 J. Fosso-Tande,  J. Gayvert,  Qinghui Ge,  A. Ghysels,  G. Gidofalvi,  
 J. Gomes,  J. Gonthier,  A. Gunina,  D. Hait,  M. W. D. Hanson-Heine,  
 P. H. P. Harbach,  A. W. Hauser,  M. F. Herbst,  J. E. Herr,  
 E. G. Hohenstein,  Z. C. Holden,  Kerwin Hui,  B. C. Huynh,  T.-C. Jagau,  
 Hyunjun Ji,  B. Kaduk,  K. Khistyaev,  Jaehoon Kim,  P. Klunzinger,  K. Koh,  
 D. Kosenkov,  L. Koulias,  T. Kowalczyk,  C. M. Krauter,  A. Kunitsa,  
 Ka Un Lao,  A. Laurent,  K. V. Lawler,  Joonho Lee,  D. Lefrancois,  
 S. Lehtola,  D. S. Levine,  Yi-Pei Li,  You-Sheng Lin,  Fenglai Liu,  
 Kuan-Yu Liu,  E. Livshits,  M. Loipersberger,  A. Luenser,  P. Manohar,  
 E. Mansoor,  S. F. Manzer,  Shan-Ping Mao,  Yuezhi Mao,  N. Mardirossian,  
 A. V. Marenich,  T. Markovich,  L. A. Martinez-Martinez,  S. A. Maurer,  
 N. J. Mayhall,  S. C. McKenzie,  J.-M. Mewes,  P. Morgante,  A. F. Morrison,  
 J. W. Mullinax,  K. Nanda,  T. S. Nguyen-Beck,  R. Olivares-Amaya,  
 K. J. Oosterbaan,  J. A. Parkhill,  S. K. Paul,  F. Pavosevic,  Zheng Pei,  
 T. M. Perrine,  F. Plasser,  P. Pokhilko,  S. Prager,  A. Prociuk,  
 E. Ramos,  B. Rana,  D. R. Rehn,  F. Rob,  M. Scheurer,  M. Schneider,  
 N. Sergueev,  S. M. Sharada,  S. Sharma,  D. W. Small,  T. Stauch,  
 C. J. Stein,  T. Stein,  Yu-Chuan Su,  S. P. Veccham,  Zhen Tao,  
 A. J. W. Thom,  A. Tkatchenko,  T. Tsuchimochi,  N. M. Tubman,  L. Vogt,  
 M. L. Vidal,  O. Vydrov,  M. A. Watson,  J. Wenzel,  M. de Wergifosse,  
 T. A. Wesolowski,  A. White,  J. Witte,  A. Yamada,  Jun Yang,  K. Yao,  
 S. Yeganeh,  S. R. Yost,  Zhi-Qiang You,  A. Zech,  Igor Ying Zhang,  
 Xing Zhang,  Yan Zhao,  Ying Zhu,  B. R. Brooks,  G. K. L. Chan,  
 C. J. Cramer,  M. S. Gordon,  W. J. Hehre,  A. Klamt,  M. W. Schmidt,  
 C. D. Sherrill,  D. G. Truhlar,  A. Aspuru-Guzik,  R. Baer,  A. T. Bell,  
 N. A. Besley,  Jeng-Da Chai,  A. E. DePrince, III,  R. A. DiStasio Jr.,  
 A. Dreuw,  B. D. Dunietz,  T. R. Furlani,  Chao-Ping Hsu,  Yousung Jung,  
 Jing Kong,  D. S. Lambrecht,  WanZhen Liang,  C. Ochsenfeld,  
 V. A. Rassolov,  L. V. Slipchenko,  J. E. Subotnik,  T. Van Voorhis,  
 J. M. Herbert,  A. I. Krylov,  P. M. W. Gill,  M. Head-Gordon

 Contributors to earlier versions of Q-Chem not listed above: 
 R. D. Adamson,  B. Austin,  J. Baker,  G. J. O. Beran,  K. Brandhorst,  
 S. T. Brown,  E. F. C. Byrd,  A. K. Chakraborty,  C.-L. Cheng,  
 Siu Hung Chien,  D. M. Chipman,  D. L. Crittenden,  H. Dachsel,  
 R. J. Doerksen,  A. D. Dutoi,  L. Fusti-Molnar,  W. A. Goddard III,  
 A. Golubeva-Zadorozhnaya,  S. R. Gwaltney,  G. Hawkins,  A. Heyden,  
 S. Hirata,  G. Kedziora,  F. J. Keil,  C. Kelley,  Jihan Kim,  R. A. King,  
 R. Z. Khaliullin,  P. P. Korambath,  W. Kurlancheek,  A. M. Lee,  M. S. Lee,  
 S. V. Levchenko,  Ching Yeh Lin,  D. Liotard,  R. C. Lochan,  I. Lotan,  
 P. E. Maslen,  N. Nair,  D. P. O'Neill,  D. Neuhauser,  E. Neuscamman,  
 C. M. Oana,  R. Olson,  B. Peters,  R. Peverati,  P. A. Pieniazek,  
 Y. M. Rhee,  J. Ritchie,  M. A. Rohrdanz,  E. Rosta,  N. J. Russ,  
 H. F. Schaefer III,  N. E. Schultz,  N. Shenvi,  A. C. Simmonett,  A. Sodt,  
 D. Stuck,  K. S. Thanthiriwatte,  V. Vanovschi,  Tao Wang,  A. Warshel,  
 C. F. Williams,  Q. Wu,  X. Xu,  W. Zhang

 Please cite Q-Chem as follows:
 Y. Shao et al., Mol. Phys. 113, 184-215 (2015)
 DOI: 10.1080/00268976.2014.952696

 Q-Chem 5.3.0 for Intel X86 EM64T Linux

 Parts of Q-Chem use Armadillo 9.800.1 (Horizon Scraper).
 http://arma.sourceforge.net/

 Q-Chem begins on Thu Jul  2 05:55:09 2020  

Host: centos77-c1
0

     Scratch files written to /tmp/26650.centos77-h1/qchem81608//
Processing $rem in /opt/qchem-5.3.0-intel2020u1//config/preferences:
Processing $rem in /home/shihchengli/.qchemrc:

Checking the input file for inconsistencies... 	...done.

--------------------------------------------------------------
User input:
--------------------------------------------------------------
$rem
   JOBTYPE  sp
   EXCHANGE   omegaB97X-D
   BASIS   6-311+G(2df,2pd)
   max_scf_cycles   250
   geom_opt_max_cycles   1500
   basis2 6-31G*
   scf_algorithm rca_diis
   SYM_IGNORE  TRUE
   print_input   true
   geom_opt_dmax   80
   pop_mulliken false
   XC_GRID 000075000302
$end

$molecule
0 1
C       1.2692192348     0.0000000022     0.2786450676
C       0.0000002677     -0.0000000110     -0.5373655597
H       1.3059501079     -0.8893686902     0.9313933340
H       1.3059501580     0.8893686422     0.9313932105
H       2.1320621346     -0.0000000269     -0.3129756789
C       -1.2692185338     0.0000002008     0.2786447359
H       0.0000003111     -1.1035467576     -1.3892509870
H       0.0000003272     1.1035472090     -1.3892513992
H       -1.3059498583     -0.8893719706     0.9313956231
H       -2.1320644562     0.0000008345     -0.3129780283
H       -1.3059497537     0.8893712337     0.9313947008
$end
--------------------------------------------------------------
 ----------------------------------------------------------------
             Standard Nuclear Orientation (Angstroms)
    I     Atom           X                Y                Z
 ----------------------------------------------------------------
    1      C       1.2692192348     0.0000000022     0.2786450676
    2      C       0.0000002677    -0.0000000110    -0.5373655597
    3      H       1.3059501079    -0.8893686902     0.9313933340
    4      H       1.3059501580     0.8893686422     0.9313932105
    5      H       2.1320621346    -0.0000000269    -0.3129756789
    6      C      -1.2692185338     0.0000002008     0.2786447359
    7      H       0.0000003111    -1.1035467576    -1.3892509870
    8      H       0.0000003272     1.1035472090    -1.3892513992
    9      H      -1.3059498583    -0.8893719706     0.9313956231
   10      H      -2.1320644562     0.0000008345    -0.3129780283
   11      H      -1.3059497537     0.8893712337     0.9313947008
 ----------------------------------------------------------------
 Nuclear Repulsion Energy =          81.17809902 hartrees
 There are       13 alpha and       13 beta electrons
 Requested basis set is 6-311+G(2df,2pd)
 There are 72 shells and 214 basis functions

 Total QAlloc Memory Limit   2000 MB
 Mega-Array Size       188 MB
 MEM_STATIC part       192 MB

                       Distance Matrix (Angstroms)
             C (  1)   C (  2)   H (  3)   H (  4)   H (  5)   C (  6)
   C (  2)  1.508904
   H (  3)  1.103814  2.157252
   H (  4)  1.103814  2.157252  1.778737
   H (  5)  1.046190  2.143837  1.738359  1.738359
   C (  6)  2.538438  1.508903  2.801527  2.801526  3.452351
   H (  7)  2.368672  1.394103  2.671473  3.326050  2.630945  2.368672
   H (  8)  2.368673  1.394104  3.326050  2.671473  2.630945  2.368673
   H (  9)  2.801528  2.157255  2.611900  3.160054  3.762894  1.103819
   H ( 10)  3.452354  2.143840  3.762895  3.762895  4.264127  1.046193
   H ( 11)  2.801528  2.157254  3.160053  2.611900  3.762893  1.103817
             H (  7)   H (  8)   H (  9)   H ( 10)
   H (  8)  2.207094
   H (  9)  2.671475  3.326054
   H ( 10)  2.630947  2.630946  1.738366
   H ( 11)  3.326052  2.671474  1.778743  1.738364
 
 A cutoff of  1.0D-09 yielded   2514 shell pairs
 There are     22428 function pairs (     27583 Cartesian)
 Smallest overlap matrix eigenvalue = 8.74E-05

 Scale SEOQF with 1.000000e-01/1.000000e-01/1.000000e-01

 Standard Electronic Orientation quadrupole field applied
 Nucleus-field energy     =     0.0000000006 hartrees
 Requested basis set is 6-31G(d)
 There are 28 shells and 58 basis functions
 A cutoff of  1.0D-09 yielded    402 shell pairs
 There are      1773 function pairs (      1968 Cartesian)
 Smallest overlap matrix eigenvalue = 7.24E-03
 Guess from superposition of atomic densities
 Warning:  Energy on first SCF cycle will be non-variational
 SAD guess density has 26.000000 electrons
 Long-range K will be added via erf
 Coulomb attenuation parameter = 0.2 bohr**(-1)
 A restricted hybrid HF-DFT SCF calculation will be
 performed using Relaxed Constraint Minimization + Pulay DIIS
 Exchange:     0.2220 Hartree-Fock + 1.0000 wB97X-D + LR-HF
 Correlation:  1.0000 wB97X-D
 Using Euler-Maclaurin-Lebedev (75,302) quadrature formula
 Dispersion:   Grimme D
 SCF converges when DIIS error is below 1.0E-04
 using 3 threads for integral computing
 -------------------------------------------------------
 OpenMP Integral computing Module                
 Release: version 1.0, May 2013, Q-Chem Inc. Pittsburgh 
 -------------------------------------------------------
 using 3 threads for integral computing
 -------------------------------------------------------
 OpenMP Integral computing Module                
 Release: version 1.0, May 2013, Q-Chem Inc. Pittsburgh 
 -------------------------------------------------------
 ---------------------------------------
  Cycle       Energy         DIIS Error
 ---------------------------------------
    1    -119.3656273534      9.48E-02
    2    -119.0027849224      8.72E-03
    3    -119.0224866058      2.42E-03
    4    -119.0355033369      1.75E-03
    5    -119.0362378476      2.15E-04 Done RCA. Switching to DIIS
    6    -119.0368604484      1.82E-04
    7    -119.0368756100      5.43E-06 Convergence criterion met
 ---------------------------------------
 SCF time:  CPU 21.78 s  wall 8.35 s
 SCF   energy in the small basis set = -119.03687561
 Total energy in the small basis set = -119.03687561
 ----------------------------------------------------
  Cycle       Energy    
 ----------------------------------------------------
    1     -16.3999529213     -1.64E+01
 Long-range K will be added via erf
 Coulomb attenuation parameter = 0.2 bohr**(-1)
 A restricted hybrid HF-DFT SCF calculation will be
 performed using Relaxed Constraint Minimization + Pulay DIIS
 Exchange:     0.2220 Hartree-Fock + 1.0000 wB97X-D + LR-HF
 Correlation:  1.0000 wB97X-D
 Using Euler-Maclaurin-Lebedev (75,302) quadrature formula
 Dispersion:   Grimme D
 SCF converges when DIIS error is below 1.0E-05
 Basis2 calculation detected. Using small basis as guess for larger.
 SCFMinFind is unable to tell whether the solution found is close.
 Resetting ReadMinima to 0 and attempting to follow guess.
 SCFMinFind following SCF Guess.
 using 3 threads for integral computing
 -------------------------------------------------------
 OpenMP Integral computing Module                
 Release: version 1.0, May 2013, Q-Chem Inc. Pittsburgh 
 -------------------------------------------------------
 using 3 threads for integral computing
 -------------------------------------------------------
 OpenMP Integral computing Module                
 Release: version 1.0, May 2013, Q-Chem Inc. Pittsburgh 
 -------------------------------------------------------
 ---------------------------------------
  Cycle       Energy         DIIS Error
 ---------------------------------------
    1    -119.0558471130      4.19E-03
    2    -119.0777338560      5.25E-04 Done RCA. Switching to DIIS
    3    -119.0783928049      3.76E-04
    4    -119.0791808580      5.88E-05
    5    -119.0792025974      2.38E-05
    6    -119.0792058882      3.96E-06 Convergence criterion met
 ---------------------------------------
 SCF time:  CPU 47.45 s  wall 15.84 s

 Q-Chem warning in module 0, line  198:

 OriOrb: Failure to resolve orbital degeneracies.


 Q-Chem warning in module 0, line  198:

 OriOrb: Failure to resolve orbital degeneracies.

 SCF   energy in the final basis set = -119.07920589
 Total energy in the final basis set = -119.07920589
 
 --------------------------------------------------------------
 
                    Orbital Energies (a.u.)
 --------------------------------------------------------------
 
 Alpha MOs
 -- Occupied --
-10.3307 -10.2699 -10.2699  -0.8804  -0.7884  -0.6475  -0.5334  -0.5306
 -0.4890  -0.4667  -0.4372  -0.4021  -0.3726
 -- Virtual --
  0.0676   0.0832   0.0838   0.0904   0.1225   0.1282   0.1322   0.1356
  0.1400   0.1644   0.1690   0.1909   0.1913   0.2144   0.2333   0.2370
  0.2748   0.2911   0.3041   0.3141   0.3246   0.3515   0.4487   0.4691
  0.4795   0.5075   0.5087   0.5150   0.5436   0.5445   0.5492   0.5745
  0.6150   0.6215   0.6284   0.6347   0.6405   0.6529   0.6585   0.7038
  0.7225   0.7503   0.7938   0.8442   0.8538   0.8609   0.9301   0.9311
  0.9972   0.9981   1.0551   1.1155   1.1532   1.1557   1.1579   1.1670
  1.1807   1.1874   1.2147   1.2314   1.2574   1.2854   1.3353   1.3673
  1.3796   1.3943   1.3996   1.4030   1.4257   1.4311   1.4449   1.4654
  1.4715   1.5237   1.5919   1.6181   1.6238   1.6361   1.6752   1.6934
  1.7022   2.3469   2.4031   2.4343   2.5080   2.5639   2.5944   2.6693
  2.6712   2.7217   2.7241   2.8055   2.8119   2.8308   2.8322   2.8523
  2.8880   2.9293   2.9311   2.9721   2.9779   3.0519   3.0816   3.0907
  3.0942   3.1244   3.1384   3.1719   3.1853   3.1918   3.2032   3.2059
  3.2262   3.2900   3.3182   3.3233   3.3470   3.3501   3.3548   3.3576
  3.4517   3.4863   3.4964   3.5166   3.5276   3.5447   3.5727   3.5941
  3.6269   3.6321   3.6559   3.6807   3.7347   3.7444   3.7626   3.7934
  3.8367   3.8529   3.8700   3.8916   3.9013   3.9484   3.9673   3.9964
  3.9987   4.0065   4.0639   4.0676   4.0911   4.1058   4.1139   4.1483
  4.1654   4.2183   4.2206   4.2362   4.3055   4.3137   4.3156   4.3282
  4.3863   4.4052   4.4232   4.4481   4.5208   4.5447   4.5763   4.7064
  4.7454   4.7963   4.8482   4.8496   4.9245   4.9728   4.9744   5.0035
  5.0157   5.1281   5.2055   5.2365   5.2485   5.2492   5.2699   5.3058
  5.3445   5.3505   5.3990   5.4005   5.4081   5.4422   5.4844   5.6172
  5.6954   5.7690   6.3447   6.3449   6.4471   6.4537  24.2925  25.4495
 25.4827
 --------------------------------------------------------------
 
 -----------------------------------------------------------------
                    Cartesian Multipole Moments
 -----------------------------------------------------------------
    Charge (ESU x 10^10)
                 0.0000
    Dipole Moment (Debye)
         X       0.0000      Y       0.0000      Z       0.4313
       Tot       0.4313
    Quadrupole Moments (Debye-Ang)
        XX     -21.7178     XY      -0.0000     YY     -21.9109
        XZ       0.0000     YZ       0.0000     ZZ     -22.8770
    Octopole Moments (Debye-Ang^2)
       XXX       0.0000    XXY       0.0000    XYY       0.0000
       YYY      -0.0000    XXZ      -0.9237    XYZ       0.0000
       YYZ       0.9051    XZZ       0.0000    YZZ      -0.0000
       ZZZ       1.5710
    Hexadecapole Moments (Debye-Ang^3)
      XXXX    -194.3030   XXXY      -0.0000   XXYY     -42.8025
      XYYY       0.0000   YYYY     -53.1806   XXXZ       0.0000
      XXYZ       0.0000   XYYZ      -0.0000   YYYZ       0.0000
      XXZZ     -46.5689   XYZZ       0.0000   YYZZ     -19.5665
      XZZZ       0.0000   YZZZ       0.0000   ZZZZ     -83.8546
 -----------------------------------------------------------------
Archival summary:
1\1\centos77-c1\SP\ProcedureUnspecified\BasisUnspecified\38\shihchen\ThuJul205:55:372020ThuJul205:55:372020\0\\#,ProcedureUnspecified,BasisUnspecified,\\0,1\C\H,1,1.3941\H,1,1.3941,2,104.667\C,1,1.5089,2,109.297,3,116.973,0\H,4,1.04619,1,112.825,2,-57.0032,0\H,4,1.10382,1,110.352,2,-177.757,0\H,4,1.10382,1,110.352,2,63.7506,0\C,1,1.5089,2,109.297,3,-116.973,0\H,8,1.04619,1,112.825,2,57.0031,0\H,8,1.10381,1,110.352,2,177.757,0\H,8,1.10381,1,110.352,2,-63.7506,0\\\@

 Total job time:  27.66s(wall), 74.57s(cpu) 
 Thu Jul  2 05:55:37 2020

        *************************************************************
        *                                                           *
        *  Thank you very much for using Q-Chem.  Have a nice day.  *
        *                                                           *
        *************************************************************


