                  Welcome to Q-Chem
     A Quantum Leap Into The Future Of Chemistry


 Q-Chem 5.3 (devel), Q-Chem, Inc., Pleasanton, CA (2020)

 Yihan Shao,  Zhengting Gan,  E. Epifanovsky,  A. T. B. Gilbert,  M. Wormit,  
 J. Kussmann,  A. W. Lange,  A. Behn,  Jia Deng,  Xintian Feng,  D. Ghosh,  
 M. Goldey,  P. R. Horn,  L. D. Jacobson,  I. Kaliman,  T. Kus,  A. Landau,  
 Jie Liu,  E. I. Proynov,  R. M. Richard,  R. P. Steele,  E. J. Sundstrom,  
 H. L. Woodcock III,  P. M. Zimmerman,  D. Zuev,  B. Alam,  B. Albrecht,  
 E. Alguire,  S. A. Baeppler,  D. Barton,  Z. Benda,  Y. A. Bernard,  
 E. J. Berquist,  K. B. Bravaya,  H. Burton,  K. Carter-Fenk,  D. Casanova,  
 Chun-Min Chang,  Yunqing Chen,  A. Chien,  K. D. Closser,  M. P. Coons,  
 S. Coriani,  S. Dasgupta,  A. L. Dempwolff,  M. Diedenhofen,  Hainam Do,  
 R. G. Edgar,  Po-Tung Fang,  S. Faraji,  S. Fatehi,  Qingguo Feng,  
 J. Fosso-Tande,  J. Gayvert,  Qinghui Ge,  A. Ghysels,  G. Gidofalvi,  
 J. Gomes,  J. Gonthier,  A. Gunina,  D. Hait,  M. W. D. Hanson-Heine,  
 P. H. P. Harbach,  A. W. Hauser,  M. F. Herbst,  J. E. Herr,  
 E. G. Hohenstein,  Z. C. Holden,  Kerwin Hui,  B. C. Huynh,  T.-C. Jagau,  
 Hyunjun Ji,  B. Kaduk,  K. Khistyaev,  Jaehoon Kim,  P. Klunzinger,  K. Koh,  
 D. Kosenkov,  L. Koulias,  T. Kowalczyk,  C. M. Krauter,  A. Kunitsa,  
 Ka Un Lao,  A. Laurent,  K. V. Lawler,  Joonho Lee,  D. Lefrancois,  
 S. Lehtola,  D. S. Levine,  Yi-Pei Li,  You-Sheng Lin,  Fenglai Liu,  
 Kuan-Yu Liu,  E. Livshits,  M. Loipersberger,  A. Luenser,  P. Manohar,  
 E. Mansoor,  S. F. Manzer,  Shan-Ping Mao,  Yuezhi Mao,  N. Mardirossian,  
 A. V. Marenich,  T. Markovich,  L. A. Martinez-Martinez,  S. A. Maurer,  
 N. J. Mayhall,  S. C. McKenzie,  J.-M. Mewes,  P. Morgante,  A. F. Morrison,  
 J. W. Mullinax,  K. Nanda,  T. S. Nguyen-Beck,  R. Olivares-Amaya,  
 K. J. Oosterbaan,  J. A. Parkhill,  S. K. Paul,  F. Pavosevic,  Zheng Pei,  
 T. M. Perrine,  F. Plasser,  P. Pokhilko,  S. Prager,  A. Prociuk,  
 E. Ramos,  B. Rana,  D. R. Rehn,  F. Rob,  M. Scheurer,  M. Schneider,  
 N. Sergueev,  S. M. Sharada,  S. Sharma,  D. W. Small,  T. Stauch,  
 C. J. Stein,  T. Stein,  Yu-Chuan Su,  S. P. Veccham,  Zhen Tao,  
 A. J. W. Thom,  A. Tkatchenko,  T. Tsuchimochi,  N. M. Tubman,  L. Vogt,  
 M. L. Vidal,  O. Vydrov,  M. A. Watson,  J. Wenzel,  M. de Wergifosse,  
 T. A. Wesolowski,  A. White,  J. Witte,  A. Yamada,  Jun Yang,  K. Yao,  
 S. Yeganeh,  S. R. Yost,  Zhi-Qiang You,  A. Zech,  Igor Ying Zhang,  
 Xing Zhang,  Yan Zhao,  Ying Zhu,  B. R. Brooks,  G. K. L. Chan,  
 C. J. Cramer,  M. S. Gordon,  W. J. Hehre,  A. Klamt,  M. W. Schmidt,  
 C. D. Sherrill,  D. G. Truhlar,  A. Aspuru-Guzik,  R. Baer,  A. T. Bell,  
 N. A. Besley,  Jeng-Da Chai,  A. E. DePrince, III,  R. A. DiStasio Jr.,  
 A. Dreuw,  B. D. Dunietz,  T. R. Furlani,  Chao-Ping Hsu,  Yousung Jung,  
 Jing Kong,  D. S. Lambrecht,  WanZhen Liang,  C. Ochsenfeld,  
 V. A. Rassolov,  L. V. Slipchenko,  J. E. Subotnik,  T. Van Voorhis,  
 J. M. Herbert,  A. I. Krylov,  P. M. W. Gill,  M. Head-Gordon

 Contributors to earlier versions of Q-Chem not listed above: 
 R. D. Adamson,  B. Austin,  J. Baker,  G. J. O. Beran,  K. Brandhorst,  
 S. T. Brown,  E. F. C. Byrd,  A. K. Chakraborty,  C.-L. Cheng,  
 Siu Hung Chien,  D. M. Chipman,  D. L. Crittenden,  H. Dachsel,  
 R. J. Doerksen,  A. D. Dutoi,  L. Fusti-Molnar,  W. A. Goddard III,  
 A. Golubeva-Zadorozhnaya,  S. R. Gwaltney,  G. Hawkins,  A. Heyden,  
 S. Hirata,  G. Kedziora,  F. J. Keil,  C. Kelley,  Jihan Kim,  R. A. King,  
 R. Z. Khaliullin,  P. P. Korambath,  W. Kurlancheek,  A. M. Lee,  M. S. Lee,  
 S. V. Levchenko,  Ching Yeh Lin,  D. Liotard,  R. C. Lochan,  I. Lotan,  
 P. E. Maslen,  N. Nair,  D. P. O'Neill,  D. Neuhauser,  E. Neuscamman,  
 C. M. Oana,  R. Olson,  B. Peters,  R. Peverati,  P. A. Pieniazek,  
 Y. M. Rhee,  J. Ritchie,  M. A. Rohrdanz,  E. Rosta,  N. J. Russ,  
 H. F. Schaefer III,  N. E. Schultz,  N. Shenvi,  A. C. Simmonett,  A. Sodt,  
 D. Stuck,  K. S. Thanthiriwatte,  V. Vanovschi,  Tao Wang,  A. Warshel,  
 C. F. Williams,  Q. Wu,  X. Xu,  W. Zhang

 Please cite Q-Chem as follows:
 Y. Shao et al., Mol. Phys. 113, 184-215 (2015)
 DOI: 10.1080/00268976.2014.952696

 Q-Chem 5.3.0 for Intel X86 EM64T Linux

 Parts of Q-Chem use Armadillo 9.800.1 (Horizon Scraper).
 http://arma.sourceforge.net/

 Q-Chem begins on Thu Jul  2 04:29:30 2020  

Host: centos77-c1
0

     Scratch files written to /tmp/26650.centos77-h1/qchem73733//
Processing $rem in /opt/qchem-5.3.0-intel2020u1//config/preferences:
Processing $rem in /home/shihchengli/.qchemrc:

Checking the input file for inconsistencies... 	...done.

--------------------------------------------------------------
User input:
--------------------------------------------------------------
$rem
   JOBTYPE  sp
   EXCHANGE   omegaB97X-D
   BASIS   6-311+G(2df,2pd)
   max_scf_cycles   250
   geom_opt_max_cycles   1500
   basis2 6-31G*
   scf_algorithm rca_diis
   SYM_IGNORE  TRUE
   print_input   true
   geom_opt_dmax   80
   pop_mulliken false
   XC_GRID 000075000302
$end

$molecule
0 1
C       1.3355326544     -0.0000002522     0.2608596686
C       -0.0000000436     0.0000010790     -0.4891266064
H       1.4605976167     -0.8828932502     0.8903065910
H       1.4605998559     0.8828922146     0.8903068862
H       2.1446176454     -0.0000015707     -0.4717366961
C       -1.3355327784     0.0000001861     0.2608595683
H       0.0000002561     -0.8674638998     -1.1546509619
H       -0.0000001649     0.8674666481     -1.1546501984
H       -1.4605970366     -0.8828917644     0.8903080734
H       -2.1446178401     -0.0000024097     -0.4717366127
H       -1.4606002255     0.8828936851     0.8903053069
$end
--------------------------------------------------------------
 ----------------------------------------------------------------
             Standard Nuclear Orientation (Angstroms)
    I     Atom           X                Y                Z
 ----------------------------------------------------------------
    1      C       1.3355326544    -0.0000002522     0.2608596686
    2      C      -0.0000000436     0.0000010790    -0.4891266064
    3      H       1.4605976167    -0.8828932502     0.8903065910
    4      H       1.4605998559     0.8828922146     0.8903068862
    5      H       2.1446176454    -0.0000015707    -0.4717366961
    6      C      -1.3355327784     0.0000001861     0.2608595683
    7      H       0.0000002561    -0.8674638998    -1.1546509619
    8      H      -0.0000001649     0.8674666481    -1.1546501984
    9      H      -1.4605970366    -0.8828917644     0.8903080734
   10      H      -2.1446178401    -0.0000024097    -0.4717366127
   11      H      -1.4606002255     0.8828936851     0.8903053069
 ----------------------------------------------------------------
 Nuclear Repulsion Energy =          81.84202871 hartrees
 There are       13 alpha and       13 beta electrons
 Requested basis set is 6-311+G(2df,2pd)
 There are 72 shells and 214 basis functions

 Total QAlloc Memory Limit   2000 MB
 Mega-Array Size       188 MB
 MEM_STATIC part       192 MB

                       Distance Matrix (Angstroms)
             C (  1)   C (  2)   H (  3)   H (  4)   H (  5)   C (  6)
   C (  2)  1.531707
   H (  3)  1.091487  2.194467
   H (  4)  1.091487  2.194467  1.765785
   H (  5)  1.091474  2.144688  1.761404  1.761404
   C (  6)  2.671065  1.531707  2.999008  2.999010  3.556423
   H (  7)  2.130683  1.093352  2.513053  3.062507  2.412104  2.130684
   H (  8)  2.130684  1.093352  3.062508  2.513054  2.412106  2.130684
   H (  9)  2.999007  2.194467  2.921195  3.413412  3.953762  1.091487
   H ( 10)  3.556423  2.144688  3.953762  3.953765  4.289235  1.091474
   H ( 11)  2.999010  2.194467  3.413415  2.921200  3.953765  1.091487
             H (  7)   H (  8)   H (  9)   H ( 10)
   H (  8)  1.734931
   H (  9)  2.513054  3.062507
   H ( 10)  2.412105  2.412107  1.761404
   H ( 11)  3.062507  2.513053  1.765785  1.761404
 
 A cutoff of  1.0D-09 yielded   2512 shell pairs
 There are     22404 function pairs (     27565 Cartesian)
 Smallest overlap matrix eigenvalue = 8.76E-05

 Scale SEOQF with 1.000000e-01/1.000000e-01/1.000000e-01

 Standard Electronic Orientation quadrupole field applied
 Nucleus-field energy     =     0.0000000008 hartrees
 Requested basis set is 6-31G(d)
 There are 28 shells and 58 basis functions
 A cutoff of  1.0D-09 yielded    402 shell pairs
 There are      1773 function pairs (      1968 Cartesian)
 Smallest overlap matrix eigenvalue = 6.93E-03
 Guess from superposition of atomic densities
 Warning:  Energy on first SCF cycle will be non-variational
 SAD guess density has 26.000000 electrons
 Long-range K will be added via erf
 Coulomb attenuation parameter = 0.2 bohr**(-1)
 A restricted hybrid HF-DFT SCF calculation will be
 performed using Relaxed Constraint Minimization + Pulay DIIS
 Exchange:     0.2220 Hartree-Fock + 1.0000 wB97X-D + LR-HF
 Correlation:  1.0000 wB97X-D
 Using Euler-Maclaurin-Lebedev (75,302) quadrature formula
 Dispersion:   Grimme D
 SCF converges when DIIS error is below 1.0E-04
 using 3 threads for integral computing
 -------------------------------------------------------
 OpenMP Integral computing Module                
 Release: version 1.0, May 2013, Q-Chem Inc. Pittsburgh 
 -------------------------------------------------------
 using 3 threads for integral computing
 -------------------------------------------------------
 OpenMP Integral computing Module                
 Release: version 1.0, May 2013, Q-Chem Inc. Pittsburgh 
 -------------------------------------------------------
 ---------------------------------------
  Cycle       Energy         DIIS Error
 ---------------------------------------
    1    -119.5913446798      9.96E-02
    2    -119.0651853174      8.84E-03
    3    -119.0857637001      2.50E-03
    4    -119.0989198654      1.71E-03
    5    -119.0996499315      2.82E-04 Done RCA. Switching to DIIS
    6    -119.1001761128      2.09E-04
    7    -119.1001951033      4.28E-06 Convergence criterion met
 ---------------------------------------
 SCF time:  CPU 19.44 s  wall 7.10 s
 SCF   energy in the small basis set = -119.10019510
 Total energy in the small basis set = -119.10019510
 ----------------------------------------------------
  Cycle       Energy    
 ----------------------------------------------------
    1     -16.5308290754     -1.65E+01
 Long-range K will be added via erf
 Coulomb attenuation parameter = 0.2 bohr**(-1)
 A restricted hybrid HF-DFT SCF calculation will be
 performed using Relaxed Constraint Minimization + Pulay DIIS
 Exchange:     0.2220 Hartree-Fock + 1.0000 wB97X-D + LR-HF
 Correlation:  1.0000 wB97X-D
 Using Euler-Maclaurin-Lebedev (75,302) quadrature formula
 Dispersion:   Grimme D
 SCF converges when DIIS error is below 1.0E-05
 Basis2 calculation detected. Using small basis as guess for larger.
 SCFMinFind is unable to tell whether the solution found is close.
 Resetting ReadMinima to 0 and attempting to follow guess.
 SCFMinFind following SCF Guess.
 using 3 threads for integral computing
 -------------------------------------------------------
 OpenMP Integral computing Module                
 Release: version 1.0, May 2013, Q-Chem Inc. Pittsburgh 
 -------------------------------------------------------
 using 3 threads for integral computing
 -------------------------------------------------------
 OpenMP Integral computing Module                
 Release: version 1.0, May 2013, Q-Chem Inc. Pittsburgh 
 -------------------------------------------------------
 ---------------------------------------
  Cycle       Energy         DIIS Error
 ---------------------------------------
    1    -119.1192842511      4.21E-03
    2    -119.1413136658      5.87E-04 Done RCA. Switching to DIIS
    3    -119.1421495070      4.04E-04
    4    -119.1430452402      4.58E-05
    5    -119.1430599285      1.13E-05
    6    -119.1430607414      4.09E-06 Convergence criterion met
 ---------------------------------------
 SCF time:  CPU 48.14 s  wall 16.09 s
 SCF   energy in the final basis set = -119.14306074
 Total energy in the final basis set = -119.14306074
 
 --------------------------------------------------------------
 
                    Orbital Energies (a.u.)
 --------------------------------------------------------------
 
 Alpha MOs
 -- Occupied --
-10.2751 -10.2667 -10.2667  -0.8765  -0.7825  -0.6752  -0.5422  -0.5179
 -0.4886  -0.4685  -0.4233  -0.4098  -0.4043
 -- Virtual --
  0.0676   0.0867   0.0927   0.0991   0.1213   0.1294   0.1329   0.1468
  0.1476   0.1734   0.1755   0.1928   0.2377   0.2387   0.2439   0.2558
  0.2770   0.2859   0.3021   0.3103   0.3310   0.3547   0.4580   0.4620
  0.4771   0.5125   0.5189   0.5225   0.5370   0.5704   0.5794   0.5884
  0.6134   0.6158   0.6415   0.6489   0.6496   0.6535   0.7020   0.7251
  0.7319   0.7620   0.8428   0.8463   0.8521   0.8667   0.8904   0.9695
  0.9745   1.0391   1.0527   1.1349   1.1606   1.1696   1.1729   1.2073
  1.2324   1.2386   1.2723   1.2725   1.2777   1.2815   1.3360   1.3590
  1.3737   1.3757   1.3853   1.4571   1.4598   1.4780   1.4799   1.4979
  1.5283   1.5592   1.6045   1.6157   1.6410   1.6563   1.6821   1.6879
  1.7571   2.3655   2.4800   2.4822   2.4873   2.5380   2.5569   2.5649
  2.6407   2.7049   2.8061   2.8337   2.8361   2.9029   2.9310   2.9427
  2.9487   2.9642   2.9859   3.0033   3.0505   3.0852   3.0989   3.1113
  3.1378   3.1420   3.1550   3.1853   3.1959   3.2000   3.2443   3.2981
  3.3211   3.3276   3.3305   3.3443   3.3593   3.3603   3.4116   3.4335
  3.4524   3.4587   3.5188   3.5347   3.5612   3.5941   3.6028   3.6128
  3.6290   3.6487   3.6726   3.7085   3.7550   3.8453   3.8480   3.8513
  3.8889   3.9208   3.9256   3.9406   3.9662   4.0065   4.0196   4.0369
  4.0840   4.1097   4.1115   4.1551   4.1658   4.1674   4.1834   4.1842
  4.1923   4.2656   4.2736   4.3821   4.4012   4.4060   4.4373   4.4461
  4.4556   4.5416   4.5593   4.5881   4.7189   4.8064   4.8085   4.8816
  4.9224   4.9356   4.9771   4.9802   5.0119   5.0477   5.0697   5.1117
  5.1274   5.2236   5.2394   5.2488   5.3062   5.3229   5.3294   5.3383
  5.3746   5.3819   5.4082   5.4691   5.5573   5.5974   5.6054   5.7695
  5.9403   6.3703   6.3837   6.3971   6.4004   6.4666  25.2123  25.4317
 25.4436
 --------------------------------------------------------------
 
 -----------------------------------------------------------------
                    Cartesian Multipole Moments
 -----------------------------------------------------------------
    Charge (ESU x 10^10)
                 0.0000
    Dipole Moment (Debye)
         X       0.0000      Y      -0.0000      Z      -0.1127
       Tot       0.1127
    Quadrupole Moments (Debye-Ang)
        XX     -22.0648     XY      -0.0000     YY     -21.3911
        XZ       0.0000     YZ       0.0000     ZZ     -21.8060
    Octopole Moments (Debye-Ang^2)
       XXX       0.0000    XXY      -0.0000    XYY       0.0000
       YYY      -0.0000    XXZ      -1.8941    XYZ       0.0000
       YYZ       0.1861    XZZ       0.0000    YZZ      -0.0000
       ZZZ      -1.6239
    Hexadecapole Moments (Debye-Ang^3)
      XXXX    -223.1914   XXXY       0.0000   XXYY     -44.7094
      XYYY       0.0000   YYYY     -44.1400   XXXZ       0.0000
      XXYZ       0.0000   XYYZ      -0.0000   YYYZ       0.0000
      XXZZ     -46.6486   XYZZ       0.0000   YYZZ     -16.4324
      XZZZ      -0.0000   YZZZ       0.0000   ZZZZ     -67.3241
 -----------------------------------------------------------------
Archival summary:
1\1\centos77-c1\SP\ProcedureUnspecified\BasisUnspecified\38\shihchen\ThuJul204:29:562020ThuJul204:29:562020\0\\#,ProcedureUnspecified,BasisUnspecified,\\0,1\C\H,1,1.09335\H,1,1.09335,2,105.009\C,1,1.53171,2,107.34,3,114.015,0\H,4,1.09147,1,108.523,2,-56.2195,0\H,4,1.09149,1,112.475,2,62.6909,0\H,4,1.09149,1,112.475,2,-175.13,0\C,1,1.53171,2,107.34,3,-114.015,0\H,8,1.09147,1,108.523,2,56.2196,0\H,8,1.09149,1,112.475,2,175.13,0\H,8,1.09149,1,112.475,2,-62.6908,0\\\@

 Total job time:  26.02s(wall), 71.08s(cpu) 
 Thu Jul  2 04:29:56 2020

        *************************************************************
        *                                                           *
        *  Thank you very much for using Q-Chem.  Have a nice day.  *
        *                                                           *
        *************************************************************


