                  Welcome to Q-Chem
     A Quantum Leap Into The Future Of Chemistry


 Q-Chem 5.3 (devel), Q-Chem, Inc., Pleasanton, CA (2020)

 Yihan Shao,  Zhengting Gan,  E. Epifanovsky,  A. T. B. Gilbert,  M. Wormit,  
 J. Kussmann,  A. W. Lange,  A. Behn,  Jia Deng,  Xintian Feng,  D. Ghosh,  
 M. Goldey,  P. R. Horn,  L. D. Jacobson,  I. Kaliman,  T. Kus,  A. Landau,  
 Jie Liu,  E. I. Proynov,  R. M. Richard,  R. P. Steele,  E. J. Sundstrom,  
 H. L. Woodcock III,  P. M. Zimmerman,  D. Zuev,  B. Alam,  B. Albrecht,  
 E. Alguire,  S. A. Baeppler,  D. Barton,  Z. Benda,  Y. A. Bernard,  
 E. J. Berquist,  K. B. Bravaya,  H. Burton,  K. Carter-Fenk,  D. Casanova,  
 Chun-Min Chang,  Yunqing Chen,  A. Chien,  K. D. Closser,  M. P. Coons,  
 S. Coriani,  S. Dasgupta,  A. L. Dempwolff,  M. Diedenhofen,  Hainam Do,  
 R. G. Edgar,  Po-Tung Fang,  S. Faraji,  S. Fatehi,  Qingguo Feng,  
 J. Fosso-Tande,  J. Gayvert,  Qinghui Ge,  A. Ghysels,  G. Gidofalvi,  
 J. Gomes,  J. Gonthier,  A. Gunina,  D. Hait,  M. W. D. Hanson-Heine,  
 P. H. P. Harbach,  A. W. Hauser,  M. F. Herbst,  J. E. Herr,  
 E. G. Hohenstein,  Z. C. Holden,  Kerwin Hui,  B. C. Huynh,  T.-C. Jagau,  
 Hyunjun Ji,  B. Kaduk,  K. Khistyaev,  Jaehoon Kim,  P. Klunzinger,  K. Koh,  
 D. Kosenkov,  L. Koulias,  T. Kowalczyk,  C. M. Krauter,  A. Kunitsa,  
 Ka Un Lao,  A. Laurent,  K. V. Lawler,  Joonho Lee,  D. Lefrancois,  
 S. Lehtola,  D. S. Levine,  Yi-Pei Li,  You-Sheng Lin,  Fenglai Liu,  
 Kuan-Yu Liu,  E. Livshits,  M. Loipersberger,  A. Luenser,  P. Manohar,  
 E. Mansoor,  S. F. Manzer,  Shan-Ping Mao,  Yuezhi Mao,  N. Mardirossian,  
 A. V. Marenich,  T. Markovich,  L. A. Martinez-Martinez,  S. A. Maurer,  
 N. J. Mayhall,  S. C. McKenzie,  J.-M. Mewes,  P. Morgante,  A. F. Morrison,  
 J. W. Mullinax,  K. Nanda,  T. S. Nguyen-Beck,  R. Olivares-Amaya,  
 K. J. Oosterbaan,  J. A. Parkhill,  S. K. Paul,  F. Pavosevic,  Zheng Pei,  
 T. M. Perrine,  F. Plasser,  P. Pokhilko,  S. Prager,  A. Prociuk,  
 E. Ramos,  B. Rana,  D. R. Rehn,  F. Rob,  M. Scheurer,  M. Schneider,  
 N. Sergueev,  S. M. Sharada,  S. Sharma,  D. W. Small,  T. Stauch,  
 C. J. Stein,  T. Stein,  Yu-Chuan Su,  S. P. Veccham,  Zhen Tao,  
 A. J. W. Thom,  A. Tkatchenko,  T. Tsuchimochi,  N. M. Tubman,  L. Vogt,  
 M. L. Vidal,  O. Vydrov,  M. A. Watson,  J. Wenzel,  M. de Wergifosse,  
 T. A. Wesolowski,  A. White,  J. Witte,  A. Yamada,  Jun Yang,  K. Yao,  
 S. Yeganeh,  S. R. Yost,  Zhi-Qiang You,  A. Zech,  Igor Ying Zhang,  
 Xing Zhang,  Yan Zhao,  Ying Zhu,  B. R. Brooks,  G. K. L. Chan,  
 C. J. Cramer,  M. S. Gordon,  W. J. Hehre,  A. Klamt,  M. W. Schmidt,  
 C. D. Sherrill,  D. G. Truhlar,  A. Aspuru-Guzik,  R. Baer,  A. T. Bell,  
 N. A. Besley,  Jeng-Da Chai,  A. E. DePrince, III,  R. A. DiStasio Jr.,  
 A. Dreuw,  B. D. Dunietz,  T. R. Furlani,  Chao-Ping Hsu,  Yousung Jung,  
 Jing Kong,  D. S. Lambrecht,  WanZhen Liang,  C. Ochsenfeld,  
 V. A. Rassolov,  L. V. Slipchenko,  J. E. Subotnik,  T. Van Voorhis,  
 J. M. Herbert,  A. I. Krylov,  P. M. W. Gill,  M. Head-Gordon

 Contributors to earlier versions of Q-Chem not listed above: 
 R. D. Adamson,  B. Austin,  J. Baker,  G. J. O. Beran,  K. Brandhorst,  
 S. T. Brown,  E. F. C. Byrd,  A. K. Chakraborty,  C.-L. Cheng,  
 Siu Hung Chien,  D. M. Chipman,  D. L. Crittenden,  H. Dachsel,  
 R. J. Doerksen,  A. D. Dutoi,  L. Fusti-Molnar,  W. A. Goddard III,  
 A. Golubeva-Zadorozhnaya,  S. R. Gwaltney,  G. Hawkins,  A. Heyden,  
 S. Hirata,  G. Kedziora,  F. J. Keil,  C. Kelley,  Jihan Kim,  R. A. King,  
 R. Z. Khaliullin,  P. P. Korambath,  W. Kurlancheek,  A. M. Lee,  M. S. Lee,  
 S. V. Levchenko,  Ching Yeh Lin,  D. Liotard,  R. C. Lochan,  I. Lotan,  
 P. E. Maslen,  N. Nair,  D. P. O'Neill,  D. Neuhauser,  E. Neuscamman,  
 C. M. Oana,  R. Olson,  B. Peters,  R. Peverati,  P. A. Pieniazek,  
 Y. M. Rhee,  J. Ritchie,  M. A. Rohrdanz,  E. Rosta,  N. J. Russ,  
 H. F. Schaefer III,  N. E. Schultz,  N. Shenvi,  A. C. Simmonett,  A. Sodt,  
 D. Stuck,  K. S. Thanthiriwatte,  V. Vanovschi,  Tao Wang,  A. Warshel,  
 C. F. Williams,  Q. Wu,  X. Xu,  W. Zhang

 Please cite Q-Chem as follows:
 Y. Shao et al., Mol. Phys. 113, 184-215 (2015)
 DOI: 10.1080/00268976.2014.952696

 Q-Chem 5.3.0 for Intel X86 EM64T Linux

 Parts of Q-Chem use Armadillo 9.800.1 (Horizon Scraper).
 http://arma.sourceforge.net/

 Q-Chem begins on Thu Jul  2 04:18:42 2020  

Host: centos77-c1
0

     Scratch files written to /tmp/26650.centos77-h1/qchem72718//
Processing $rem in /opt/qchem-5.3.0-intel2020u1//config/preferences:
Processing $rem in /home/shihchengli/.qchemrc:

Checking the input file for inconsistencies... 	...done.

--------------------------------------------------------------
User input:
--------------------------------------------------------------
$rem
   JOBTYPE  sp
   EXCHANGE   omegaB97X-D
   BASIS   6-311+G(2df,2pd)
   max_scf_cycles   250
   geom_opt_max_cycles   1500
   basis2 6-31G*
   scf_algorithm rca_diis
   SYM_IGNORE  TRUE
   print_input   true
   geom_opt_dmax   80
   pop_mulliken false
   XC_GRID 000075000302
$end

$molecule
0 1
C       1.2613265589     -0.2135262892     0.0874224878
C       -0.0000021086     0.6113305152     -0.1392472012
H       1.5823775650     0.0701442537     1.0954161478
H       2.1021544977     -0.0564376727     -0.5857130677
H       1.0400584068     -1.2811159871     0.1077877927
C       -1.2613268382     -0.2135341133     0.0874186057
H       -0.0000011430     0.7356525718     -1.2240033477
H       -0.0000061388     1.6149390215     0.2944947137
H       -1.5823506896     0.0700782527     1.0954366428
H       -1.0400582744     -1.2811252813     0.1077176142
H       -2.1021718962     -0.0564046054     -0.5856853692
$end
--------------------------------------------------------------
 ----------------------------------------------------------------
             Standard Nuclear Orientation (Angstroms)
    I     Atom           X                Y                Z
 ----------------------------------------------------------------
    1      C       1.2613265589    -0.2135262892     0.0874224878
    2      C      -0.0000021086     0.6113305152    -0.1392472012
    3      H       1.5823775650     0.0701442537     1.0954161478
    4      H       2.1021544977    -0.0564376727    -0.5857130677
    5      H       1.0400584068    -1.2811159871     0.1077877927
    6      C      -1.2613268382    -0.2135341133     0.0874186057
    7      H      -0.0000011430     0.7356525718    -1.2240033477
    8      H      -0.0000061388     1.6149390215     0.2944947137
    9      H      -1.5823506896     0.0700782527     1.0954366428
   10      H      -1.0400582744    -1.2811252813     0.1077176142
   11      H      -2.1021718962    -0.0564046054    -0.5856853692
 ----------------------------------------------------------------
 Nuclear Repulsion Energy =          82.95079886 hartrees
 There are       13 alpha and       13 beta electrons
 Requested basis set is 6-311+G(2df,2pd)
 There are 72 shells and 214 basis functions

 Total QAlloc Memory Limit   2000 MB
 Mega-Array Size       188 MB
 MEM_STATIC part       192 MB

                       Distance Matrix (Angstroms)
             C (  1)   C (  2)   H (  3)   H (  4)   H (  5)   C (  6)
   C (  2)  1.524047
   H (  3)  1.095260  2.078750
   H (  4)  1.088476  2.250402  1.764196
   H (  5)  1.090469  2.173501  1.759382  1.763187
   C (  6)  2.522653  1.524047  3.030377  3.433772  2.537030
   H (  7)  2.052249  1.091857  2.885573  2.335354  2.631111  2.052249
   H (  8)  2.230947  1.093326  2.351979  2.826189  3.082812  2.230947
   H (  9)  3.030351  2.078756  3.164728  4.051895  3.110981  1.095259
   H ( 10)  2.537036  2.173499  3.111052  3.442994  2.080117  1.090469
   H ( 11)  3.433786  2.250399  4.051916  4.204326  3.443027  1.088476
             H (  7)   H (  8)   H (  9)   H ( 10)
   H (  8)  1.754703
   H (  9)  2.885589  2.352003
   H ( 10)  2.631082  3.082821  1.759381
   H ( 11)  2.335364  2.826165  1.764195  1.763189
 
 A cutoff of  1.0D-09 yielded   2536 shell pairs
 There are     22622 function pairs (     27829 Cartesian)
 Smallest overlap matrix eigenvalue = 8.56E-05

 Scale SEOQF with 1.000000e-01/1.000000e-01/1.000000e-01

 Standard Electronic Orientation quadrupole field applied
 Nucleus-field energy     =     0.0000000014 hartrees
 Requested basis set is 6-31G(d)
 There are 28 shells and 58 basis functions
 A cutoff of  1.0D-09 yielded    402 shell pairs
 There are      1773 function pairs (      1968 Cartesian)
 Smallest overlap matrix eigenvalue = 6.14E-03
 Guess from superposition of atomic densities
 Warning:  Energy on first SCF cycle will be non-variational
 SAD guess density has 26.000000 electrons
 Long-range K will be added via erf
 Coulomb attenuation parameter = 0.2 bohr**(-1)
 A restricted hybrid HF-DFT SCF calculation will be
 performed using Relaxed Constraint Minimization + Pulay DIIS
 Exchange:     0.2220 Hartree-Fock + 1.0000 wB97X-D + LR-HF
 Correlation:  1.0000 wB97X-D
 Using Euler-Maclaurin-Lebedev (75,302) quadrature formula
 Dispersion:   Grimme D
 SCF converges when DIIS error is below 1.0E-04
 using 3 threads for integral computing
 -------------------------------------------------------
 OpenMP Integral computing Module                
 Release: version 1.0, May 2013, Q-Chem Inc. Pittsburgh 
 -------------------------------------------------------
 using 3 threads for integral computing
 -------------------------------------------------------
 OpenMP Integral computing Module                
 Release: version 1.0, May 2013, Q-Chem Inc. Pittsburgh 
 -------------------------------------------------------
 ---------------------------------------
  Cycle       Energy         DIIS Error
 ---------------------------------------
    1    -119.6397325826      1.01E-01
    2    -119.0469279868      9.04E-03
    3    -119.0681247006      2.47E-03
    4    -119.0820783101      1.70E-03
    5    -119.0827848332      2.67E-04 Done RCA. Switching to DIIS
    6    -119.0833035256      1.99E-04
    7    -119.0833206513      4.68E-06 Convergence criterion met
 ---------------------------------------
 SCF time:  CPU 19.94 s  wall 7.34 s
 SCF   energy in the small basis set = -119.08332065
 Total energy in the small basis set = -119.08332065
 ----------------------------------------------------
  Cycle       Energy    
 ----------------------------------------------------
    1     -16.5458765390     -1.65E+01
 Long-range K will be added via erf
 Coulomb attenuation parameter = 0.2 bohr**(-1)
 A restricted hybrid HF-DFT SCF calculation will be
 performed using Relaxed Constraint Minimization + Pulay DIIS
 Exchange:     0.2220 Hartree-Fock + 1.0000 wB97X-D + LR-HF
 Correlation:  1.0000 wB97X-D
 Using Euler-Maclaurin-Lebedev (75,302) quadrature formula
 Dispersion:   Grimme D
 SCF converges when DIIS error is below 1.0E-05
 Basis2 calculation detected. Using small basis as guess for larger.
 SCFMinFind is unable to tell whether the solution found is close.
 Resetting ReadMinima to 0 and attempting to follow guess.
 SCFMinFind following SCF Guess.
 using 3 threads for integral computing
 -------------------------------------------------------
 OpenMP Integral computing Module                
 Release: version 1.0, May 2013, Q-Chem Inc. Pittsburgh 
 -------------------------------------------------------
 using 3 threads for integral computing
 -------------------------------------------------------
 OpenMP Integral computing Module                
 Release: version 1.0, May 2013, Q-Chem Inc. Pittsburgh 
 -------------------------------------------------------
 ---------------------------------------
  Cycle       Energy         DIIS Error
 ---------------------------------------
    1    -119.1031488981      4.21E-03
    2    -119.1251417327      6.06E-04 Done RCA. Switching to DIIS
    3    -119.1259814866      4.28E-04
    4    -119.1269866110      4.52E-05
    5    -119.1270014149      1.04E-05
    6    -119.1270021447      4.18E-06 Convergence criterion met
 ---------------------------------------
 SCF time:  CPU 49.15 s  wall 16.40 s
 SCF   energy in the final basis set = -119.12700214
 Total energy in the final basis set = -119.12700214
 
 --------------------------------------------------------------
 
                    Orbital Energies (a.u.)
 --------------------------------------------------------------
 
 Alpha MOs
 -- Occupied --
-10.2727 -10.2647 -10.2647  -0.8836  -0.7762  -0.6784  -0.5470  -0.5298
 -0.4771  -0.4672  -0.4338  -0.4150  -0.3816
 -- Virtual --
  0.0707   0.0871   0.0916   0.1016   0.1219   0.1306   0.1318   0.1340
  0.1432   0.1662   0.1740   0.1872   0.2061   0.2398   0.2678   0.2731
  0.2883   0.2917   0.3134   0.3272   0.3450   0.3633   0.4527   0.4745
  0.4854   0.5020   0.5071   0.5173   0.5387   0.5439   0.5491   0.5881
  0.6237   0.6266   0.6348   0.6451   0.6523   0.6536   0.6924   0.7090
  0.7399   0.7555   0.8765   0.8824   0.8865   0.9096   0.9416   0.9550
  0.9773   0.9999   1.0636   1.1136   1.1449   1.1983   1.2087   1.2337
  1.2362   1.2560   1.2584   1.2807   1.3007   1.3116   1.3420   1.3646
  1.3891   1.3963   1.4065   1.4225   1.4431   1.4820   1.4893   1.4986
  1.5222   1.5505   1.5772   1.5904   1.6367   1.6519   1.6619   1.7059
  1.7306   2.2882   2.4131   2.4266   2.5154   2.5225   2.5952   2.6087
  2.6617   2.7356   2.7735   2.8110   2.8572   2.9040   2.9238   2.9334
  2.9522   2.9553   2.9913   2.9940   3.0729   3.0919   3.0977   3.1117
  3.1494   3.1561   3.1757   3.2111   3.2150   3.2344   3.2430   3.2845
  3.3060   3.3275   3.3309   3.3539   3.3805   3.3874   3.4040   3.4370
  3.4378   3.4669   3.5189   3.5482   3.5667   3.5931   3.5947   3.6190
  3.6412   3.6511   3.7035   3.7277   3.7637   3.7891   3.8193   3.8207
  3.8620   3.9304   3.9513   3.9634   4.0202   4.0315   4.0490   4.0625
  4.0999   4.1218   4.1463   4.1483   4.1623   4.1904   4.2123   4.2199
  4.2585   4.2862   4.2969   4.3470   4.3804   4.3926   4.4334   4.4432
  4.4852   4.5107   4.5652   4.5887   4.6793   4.7936   4.8241   4.9069
  4.9360   4.9385   4.9742   4.9943   5.0242   5.0617   5.0706   5.1269
  5.1865   5.1940   5.2415   5.2476   5.2848   5.2932   5.3303   5.3623
  5.3632   5.4261   5.4343   5.4708   5.5217   5.5484   5.6311   5.7435
  5.9561   6.3692   6.3859   6.3895   6.4211   6.5061  25.1182  25.4275
 25.4368
 --------------------------------------------------------------
 
 -----------------------------------------------------------------
                    Cartesian Multipole Moments
 -----------------------------------------------------------------
    Charge (ESU x 10^10)
                 0.0000
    Dipole Moment (Debye)
         X       0.0000      Y       0.0562      Z      -0.0612
       Tot       0.0831
    Quadrupole Moments (Debye-Ang)
        XX     -22.2656     XY      -0.0000     YY     -21.4827
        XZ      -0.0000     YZ       0.5442     ZZ     -21.7577
    Octopole Moments (Debye-Ang^2)
       XXX      -0.0000    XXY      -0.1228    XYY       0.0000
       YYY      -2.5428    XXZ      -2.4406    XYZ       0.0000
       YYZ       0.2066    XZZ       0.0000    YZZ       0.0058
       ZZZ      -1.4308
    Hexadecapole Moments (Debye-Ang^3)
      XXXX    -201.1443   XXXY      -0.0004   XXYY     -46.5664
      XYYY      -0.0002   YYYY     -64.7191   XXXZ      -0.0002
      XXYZ       1.7579   XYYZ       0.0000   YYYZ       4.7245
      XXZZ     -40.1021   XYZZ      -0.0000   YYZZ     -20.3071
      XZZZ      -0.0003   YZZZ       4.1531   ZZZZ     -45.8469
 -----------------------------------------------------------------
Archival summary:
1\1\centos77-c1\SP\ProcedureUnspecified\BasisUnspecified\38\shihchen\ThuJul204:19:092020ThuJul204:19:092020\0\\#,ProcedureUnspecified,BasisUnspecified,\\0,1\C\H,1,1.09186\H,1,1.09333,2,106.835\C,1,1.52405,2,102.086,3,-122.18,0\H,4,1.08848,1,117.985,2,32.3992,0\H,4,1.09047,1,111.39,2,-93.3788,0\H,4,1.09526,1,103.845,2,151.547,0\C,1,1.52405,2,102.086,3,122.18,0\H,8,1.08848,1,117.984,2,-32.4028,0\H,8,1.09047,1,111.39,2,93.3751,0\H,8,1.09526,1,103.846,2,-151.551,0\\\@

 Total job time:  26.66s(wall), 72.65s(cpu) 
 Thu Jul  2 04:19:09 2020

        *************************************************************
        *                                                           *
        *  Thank you very much for using Q-Chem.  Have a nice day.  *
        *                                                           *
        *************************************************************


