                  Welcome to Q-Chem
     A Quantum Leap Into The Future Of Chemistry


 Q-Chem 5.2 (devel), Q-Chem, Inc., Pleasanton, CA (2019)

 Yihan Shao,  Zhengting Gan,  E. Epifanovsky,  A. T. B. Gilbert,  M. Wormit,  
 J. Kussmann,  A. W. Lange,  A. Behn,  Jia Deng,  Xintian Feng,  D. Ghosh,  
 M. Goldey,  P. R. Horn,  L. D. Jacobson,  I. Kaliman,  T. Kus,  A. Landau,  
 Jie Liu,  E. I. Proynov,  R. M. Richard,  R. P. Steele,  E. J. Sundstrom,  
 H. L. Woodcock III,  P. M. Zimmerman,  D. Zuev,  B. Alam,  B. Albrecht,  
 E. Alguire,  S. A. Baeppler,  D. Barton,  Z. Benda,  Y. A. Bernard,  
 E. J. Berquist,  K. B. Bravaya,  H. Burton,  K. Carter-Fenk,  D. Casanova,  
 Chun-Min Chang,  Yunqing Chen,  A. Chien,  K. D. Closser,  M. P. Coons,  
 S. Coriani,  S. Dasgupta,  A. L. Dempwolff,  M. Diedenhofen,  Hainam Do,  
 R. G. Edgar,  Po-Tung Fang,  S. Faraji,  S. Fatehi,  Qingguo Feng,  
 J. Fosso-Tande,  J. Gayvert,  Qinghui Ge,  A. Ghysels,  G. Gidofalvi,  
 J. Gomes,  J. Gonthier,  A. Gunina,  D. Hait,  M. W. D. Hanson-Heine,  
 P. H. P. Harbach,  A. W. Hauser,  M. F. Herbst,  J. E. Herr,  
 E. G. Hohenstein,  Z. C. Holden,  Kerwin Hui,  B. C. Huynh,  T.-C. Jagau,  
 Hyunjun Ji,  B. Kaduk,  K. Khistyaev,  Jaehoon Kim,  P. Klunzinger,  K. Koh,  
 D. Kosenkov,  L. Koulias,  T. Kowalczyk,  C. M. Krauter,  A. Kunitsa,  
 Ka Un Lao,  A. Laurent,  K. V. Lawler,  Joonho Lee,  D. Lefrancois,  
 S. Lehtola,  D. S. Levine,  Yi-Pei Li,  You-Sheng Lin,  Fenglai Liu,  
 Kuan-Yu Liu,  E. Livshits,  M. Loipersberger,  A. Luenser,  P. Manohar,  
 E. Mansoor,  S. F. Manzer,  Shan-Ping Mao,  Yuezhi Mao,  N. Mardirossian,  
 A. V. Marenich,  T. Markovich,  L. A. Martinez-Martinez,  S. A. Maurer,  
 N. J. Mayhall,  S. C. McKenzie,  J.-M. Mewes,  P. Morgante,  A. F. Morrison,  
 J. W. Mullinax,  K. Nanda,  T. S. Nguyen-Beck,  R. Olivares-Amaya,  
 J. A. Parkhill,  S. K. Paul,  Zheng Pei,  T. M. Perrine,  F. Plasser,  
 P. Pokhilko,  S. Prager,  A. Prociuk,  E. Ramos,  B. Rana,  D. R. Rehn,  
 F. Rob,  M. Scheurer,  M. Schneider,  N. Sergueev,  S. M. Sharada,  
 S. Sharma,  D. W. Small,  T. Stauch,  C. J. Stein,  T. Stein,  Yu-Chuan Su,  
 S. P. Veccham,  A. J. W. Thom,  A. Tkatchenko,  T. Tsuchimochi,  
 N. M. Tubman,  L. Vogt,  M. L. Vidal,  O. Vydrov,  M. A. Watson,  J. Wenzel,  
 M. de Wergifosse,  T. A. Wesolowski,  A. White,  J. Witte,  A. Yamada,  
 Jun Yang,  K. Yao,  S. Yeganeh,  S. R. Yost,  Zhi-Qiang You,  A. Zech,  
 Igor Ying Zhang,  Xing Zhang,  Yan Zhao,  Ying Zhu,  B. R. Brooks,  
 G. K. L. Chan,  C. J. Cramer,  M. S. Gordon,  W. J. Hehre,  A. Klamt,  
 M. W. Schmidt,  C. D. Sherrill,  D. G. Truhlar,  A. Aspuru-Guzik,  R. Baer,  
 A. T. Bell,  N. A. Besley,  Jeng-Da Chai,  A. E. DePrince, III,  
 R. A. DiStasio Jr.,  A. Dreuw,  B. D. Dunietz,  T. R. Furlani,  
 Chao-Ping Hsu,  Yousung Jung,  Jing Kong,  D. S. Lambrecht,  WanZhen Liang,  
 C. Ochsenfeld,  V. A. Rassolov,  L. V. Slipchenko,  J. E. Subotnik,  
 T. Van Voorhis,  J. M. Herbert,  A. I. Krylov,  P. M. W. Gill,  M. Head-Gordon

 Contributors to earlier versions of Q-Chem not listed above: 
 R. D. Adamson,  B. Austin,  J. Baker,  G. J. O. Beran,  K. Brandhorst,  
 S. T. Brown,  E. F. C. Byrd,  A. K. Chakraborty,  C.-L. Cheng,  
 Siu Hung Chien,  D. M. Chipman,  D. L. Crittenden,  H. Dachsel,  
 R. J. Doerksen,  A. D. Dutoi,  L. Fusti-Molnar,  W. A. Goddard III,  
 A. Golubeva-Zadorozhnaya,  S. R. Gwaltney,  G. Hawkins,  A. Heyden,  
 S. Hirata,  G. Kedziora,  F. J. Keil,  C. Kelley,  Jihan Kim,  R. A. King,  
 R. Z. Khaliullin,  P. P. Korambath,  W. Kurlancheek,  A. M. Lee,  M. S. Lee,  
 S. V. Levchenko,  Ching Yeh Lin,  D. Liotard,  R. C. Lochan,  I. Lotan,  
 P. E. Maslen,  N. Nair,  D. P. O'Neill,  D. Neuhauser,  E. Neuscamman,  
 C. M. Oana,  R. Olson,  B. Peters,  R. Peverati,  P. A. Pieniazek,  
 Y. M. Rhee,  J. Ritchie,  M. A. Rohrdanz,  E. Rosta,  N. J. Russ,  
 H. F. Schaefer III,  N. E. Schultz,  N. Shenvi,  A. C. Simmonett,  A. Sodt,  
 D. Stuck,  K. S. Thanthiriwatte,  V. Vanovschi,  Tao Wang,  A. Warshel,  
 C. F. Williams,  Q. Wu,  X. Xu,  W. Zhang

 Please cite Q-Chem as follows:
 Y. Shao et al., Mol. Phys. 113, 184-215 (2015)
 DOI: 10.1080/00268976.2014.952696

 Q-Chem 5.2.2 for Intel X86 EM64T Linux

 Parts of Q-Chem use Armadillo 9.800.1 (Horizon Scraper).
 http://arma.sourceforge.net/

 Q-Chem begins on Sun Apr 12 06:50:30 2020  

Host: cn0913
0

     Scratch files written to /tmp/ypli/6721341.srvc1/qchem238891//
Warning:  Did not find "$end" marker in "$molecule" section

Checking the input file for inconsistencies... 	...done.

--------------------------------------------------------------
User input:
--------------------------------------------------------------
$rem
   JOBTYPE  sp
   EXCHANGE   omegaB97X-D
   BASIS   6-311+G(2df,2pd)
   max_scf_cycles   250
   geom_opt_max_cycles   1500
   basis2 6-31G*
   scf_algorithm rca_diis
   SYM_IGNORE  TRUE
   print_input   true
   geom_opt_dmax   80
   pop_mulliken false
   XC_GRID 000075000302
$end

$molecule
0 1
C       1.2604852504     0.0000013765     0.2588916687
C       -0.0000008556     0.0000003964     -0.6095877186
H       1.3188281731     -0.9292537327     0.8261451180
H       1.3188227960     0.9292557585     0.8261464307
H       2.1922035685     -0.0000047074     -0.3143234656
C       -1.2604870296     -0.0000009820     0.2588899608
H       0.0000007984     -0.9597748844     -1.1215463503
H       0.0000006244     0.9597754802     -1.1215467643
H       -1.3188234865     -0.9292503146     0.8261534462
H       -2.1922020243     0.0000035655     -0.3143300143
H       -1.3188278752     0.9292487100     0.8261527076
--------------------------------------------------------------
 ----------------------------------------------------------------
             Standard Nuclear Orientation (Angstroms)
    I     Atom           X                Y                Z
 ----------------------------------------------------------------
    1      C       1.2604852504     0.0000013765     0.2588916687
    2      C      -0.0000008556     0.0000003964    -0.6095877186
    3      H       1.3188281731    -0.9292537327     0.8261451180
    4      H       1.3188227960     0.9292557585     0.8261464307
    5      H       2.1922035685    -0.0000047074    -0.3143234656
    6      C      -1.2604870296    -0.0000009820     0.2588899608
    7      H       0.0000007984    -0.9597748844    -1.1215463503
    8      H       0.0000006244     0.9597754802    -1.1215467643
    9      H      -1.3188234865    -0.9292503146     0.8261534462
   10      H      -2.1922020243     0.0000035655    -0.3143300143
   11      H      -1.3188278752     0.9292487100     0.8261527076
 ----------------------------------------------------------------
 Nuclear Repulsion Energy =          82.80876666 hartrees
 There are       13 alpha and       13 beta electrons
 Requested basis set is 6-311+G(2df,2pd)
 There are 72 shells and 214 basis functions

 Total QAlloc Memory Limit   2000 MB
 Mega-Array Size       188 MB
 MEM_STATIC part       192 MB

                       Distance Matrix (Angstroms)
             C (  1)   C (  2)   H (  3)   H (  4)   H (  5)   C (  6)
   C (  2)  1.530713
   H (  3)  1.090273  2.159665
   H (  4)  1.090273  2.159663  1.858509
   H (  5)  1.093926  2.211999  1.710835  1.710845
   C (  6)  2.520972  1.530712  2.799671  2.799667  3.499949
   H (  7)  2.101333  1.087782  2.352390  3.016825  2.525573  2.101333
   H (  8)  2.101332  1.087782  3.016826  2.352389  2.525577  2.101334
   H (  9)  2.799666  2.159665  2.637652  3.226643  3.806770  1.090273
   H ( 10)  3.499948  2.211995  3.806775  3.806769  4.384406  1.093926
   H ( 11)  2.799668  2.159666  3.226649  2.637651  3.806775  1.090273
             H (  7)   H (  8)   H (  9)   H ( 10)
   H (  8)  1.919550
   H (  9)  2.352395  3.016828
   H ( 10)  2.525574  2.525572  1.710849
   H ( 11)  3.016828  2.352397  1.858499  1.710842
 
 A cutoff of  1.0D-09 yielded   2528 shell pairs
 There are     22518 function pairs (     27687 Cartesian)
 Smallest overlap matrix eigenvalue = 8.58E-05

 Scale SEOQF with 1.000000e-01/1.000000e-01/1.000000e-01

 Standard Electronic Orientation quadrupole field applied
 Nucleus-field energy     =     0.0000000007 hartrees
 Requested basis set is 6-31G(d)
 There are 28 shells and 58 basis functions
 A cutoff of  1.0D-09 yielded    402 shell pairs
 There are      1773 function pairs (      1968 Cartesian)
 Smallest overlap matrix eigenvalue = 6.66E-03
 Guess from superposition of atomic densities
 Warning:  Energy on first SCF cycle will be non-variational
 SAD guess density has 26.000000 electrons
 Long-range K will be added via erf
 Coulomb attenuation parameter = 0.2 bohr**(-1)
 A restricted hybrid HF-DFT SCF calculation will be
 performed using Relaxed Constraint Minimization + Pulay DIIS
 Exchange:     0.2220 Hartree-Fock + 1.0000 wB97X-D + LR-HF
 Correlation:  1.0000 wB97X-D
 Using Euler-Maclaurin-Lebedev (75,302) quadrature formula
 Dispersion:   Grimme D
 SCF converges when DIIS error is below 1.0E-04
 using 3 threads for integral computing
 -------------------------------------------------------
 OpenMP Integral computing Module                
 Release: version 1.0, May 2013, Q-Chem Inc. Pittsburgh 
 -------------------------------------------------------
 using 3 threads for integral computing
 -------------------------------------------------------
 OpenMP Integral computing Module                
 Release: version 1.0, May 2013, Q-Chem Inc. Pittsburgh 
 -------------------------------------------------------
 ---------------------------------------
  Cycle       Energy         DIIS Error
 ---------------------------------------
    1    -119.6209281745      1.00E-01
    2    -119.0515355420      9.16E-03
    3    -119.0734402554      2.51E-03
    4    -119.0878136575      1.72E-03
    5    -119.0885409936      2.81E-04 Done RCA. Switching to DIIS
    6    -119.0890687558      2.05E-04
    7    -119.0890871352      6.01E-06 Convergence criterion met
 ---------------------------------------
 SCF time:  CPU 24.73 s  wall 8.46 s
 SCF   energy in the small basis set = -119.08908714
 Total energy in the small basis set = -119.08908714
 ----------------------------------------------------
  Cycle       Energy    
 ----------------------------------------------------
    1     -16.5387363100     -1.65E+01
 Long-range K will be added via erf
 Coulomb attenuation parameter = 0.2 bohr**(-1)
 A restricted hybrid HF-DFT SCF calculation will be
 performed using Relaxed Constraint Minimization + Pulay DIIS
 Exchange:     0.2220 Hartree-Fock + 1.0000 wB97X-D + LR-HF
 Correlation:  1.0000 wB97X-D
 Using Euler-Maclaurin-Lebedev (75,302) quadrature formula
 Dispersion:   Grimme D
 SCF converges when DIIS error is below 1.0E-05
 Basis2 calculation detected. Using small basis as guess for larger.
 SCFMinFind is unable to tell whether the solution found is close.
 Resetting ReadMinima to 0 and attempting to follow guess.
 SCFMinFind following SCF Guess.
 using 3 threads for integral computing
 -------------------------------------------------------
 OpenMP Integral computing Module                
 Release: version 1.0, May 2013, Q-Chem Inc. Pittsburgh 
 -------------------------------------------------------
 using 3 threads for integral computing
 -------------------------------------------------------
 OpenMP Integral computing Module                
 Release: version 1.0, May 2013, Q-Chem Inc. Pittsburgh 
 -------------------------------------------------------
 ---------------------------------------
  Cycle       Energy         DIIS Error
 ---------------------------------------
    1    -119.1086008157      4.21E-03
    2    -119.1306729044      6.18E-04 Done RCA. Switching to DIIS
    3    -119.1315559121      4.36E-04
    4    -119.1325973424      4.47E-05
    5    -119.1326121295      9.41E-06 Convergence criterion met
 ---------------------------------------
 SCF time:  CPU 58.82 s  wall 19.81 s
 SCF   energy in the final basis set = -119.13261213
 Total energy in the final basis set = -119.13261213
 
 --------------------------------------------------------------
 
                    Orbital Energies (a.u.)
 --------------------------------------------------------------
 
 Alpha MOs
 -- Occupied --
-10.2755 -10.2642 -10.2642  -0.8832  -0.7771  -0.6720  -0.5692  -0.5139
 -0.4797  -0.4636  -0.4270  -0.4180  -0.3913
 -- Virtual --
  0.0706   0.0852   0.0937   0.0940   0.1283   0.1309   0.1328   0.1339
  0.1386   0.1731   0.1739   0.1880   0.2353   0.2425   0.2516   0.2775
  0.2787   0.2844   0.2914   0.3153   0.3307   0.3399   0.4590   0.4683
  0.4695   0.4923   0.5084   0.5168   0.5574   0.5577   0.5892   0.6073
  0.6249   0.6260   0.6353   0.6364   0.6642   0.6649   0.7076   0.7170
  0.7264   0.7756   0.8365   0.8529   0.8700   0.8731   0.8750   0.9442
  1.0087   1.0377   1.0474   1.1382   1.1594   1.1684   1.1908   1.1950
  1.2188   1.2285   1.2540   1.2734   1.3075   1.3100   1.3313   1.3642
  1.3756   1.3821   1.4108   1.4550   1.4572   1.4619   1.4875   1.5086
  1.5120   1.5693   1.5796   1.6172   1.6396   1.6543   1.6845   1.7205
  1.7345   2.3743   2.4517   2.5082   2.5208   2.5858   2.5947   2.6155
  2.6447   2.6905   2.8270   2.8418   2.8467   2.8942   2.9146   2.9194
  2.9228   2.9542   2.9913   3.0281   3.0355   3.0713   3.0809   3.1154
  3.1218   3.1444   3.1498   3.1863   3.2115   3.2419   3.2634   3.2759
  3.3000   3.3474   3.3575   3.3603   3.3766   3.3943   3.4008   3.4299
  3.4462   3.5005   3.5104   3.5464   3.5667   3.5710   3.6052   3.6056
  3.6298   3.6506   3.7017   3.7469   3.7936   3.8148   3.8269   3.8358
  3.8954   3.9360   3.9525   3.9734   3.9791   3.9794   4.0492   4.0535
  4.0544   4.0616   4.0770   4.1057   4.1524   4.1577   4.1783   4.2058
  4.2075   4.2365   4.2667   4.3565   4.3925   4.4185   4.4279   4.4363
  4.4550   4.6091   4.6322   4.6818   4.7173   4.7574   4.7722   4.8666
  4.9219   4.9332   4.9336   4.9752   4.9844   4.9923   5.0354   5.1374
  5.1612   5.1910   5.1914   5.1929   5.3275   5.3423   5.3726   5.4090
  5.4341   5.5422   5.5423   5.5661   5.5779   5.5858   5.7367   5.7669
  6.0396   6.3177   6.3206   6.4490   6.4510   6.4522  25.2099  25.4407
 25.4514
 --------------------------------------------------------------
 
 -----------------------------------------------------------------
                    Cartesian Multipole Moments
 -----------------------------------------------------------------
    Charge (ESU x 10^10)
                -0.0000
    Dipole Moment (Debye)
         X       0.0000      Y      -0.0000      Z      -0.0950
       Tot       0.0950
    Quadrupole Moments (Debye-Ang)
        XX     -22.0975     XY      -0.0000     YY     -20.4522
        XZ      -0.0000     YZ       0.0000     ZZ     -23.0540
    Octopole Moments (Debye-Ang^2)
       XXX       0.0001    XXY      -0.0000    XYY       0.0001
       YYY      -0.0000    XXZ      -1.0559    XYZ       0.0000
       YYZ       0.3726    XZZ      -0.0000    YZZ      -0.0000
       ZZZ       0.1104
    Hexadecapole Moments (Debye-Ang^3)
      XXXX    -202.0664   XXXY      -0.0002   XXYY     -41.7016
      XYYY      -0.0000   YYYY     -44.5571   XXXZ       0.0000
      XXYZ       0.0000   XYYZ      -0.0000   YYYZ       0.0000
      XXZZ     -46.2891   XYZZ       0.0000   YYZZ     -17.1172
      XZZZ      -0.0001   YZZZ       0.0000   ZZZZ     -71.7479
 -----------------------------------------------------------------
Archival summary:
1\1\cn0913\SP\ProcedureUnspecified\BasisUnspecified\38\r0852400\SunApr1206:51:022020SunApr1206:51:022020\0\\#,ProcedureUnspecified,BasisUnspecified,\\0,1\C\H,1,1.08778\H,1,1.08778,2,123.848\C,1,1.53071,2,105.488,3,121.297,0\H,4,1.09027,1,109.832,2,48.7491,0\H,4,1.09027,1,109.832,2,178.678,0\H,4,1.09393,1,113.832,2,-66.2869,0\C,1,1.53071,2,105.488,3,-121.296,0\H,8,1.09027,1,109.832,2,-178.678,0\H,8,1.09027,1,109.832,2,-48.7484,0\H,8,1.09393,1,113.832,2,66.2862,0\\\@

 Total job time:  31.56s(wall), 87.63s(cpu) 
 Sun Apr 12 06:51:02 2020

        *************************************************************
        *                                                           *
        *  Thank you very much for using Q-Chem.  Have a nice day.  *
        *                                                           *
        *************************************************************


