                  Welcome to Q-Chem
     A Quantum Leap Into The Future Of Chemistry


 Q-Chem 5.2 (devel), Q-Chem, Inc., Pleasanton, CA (2019)

 Yihan Shao,  Zhengting Gan,  E. Epifanovsky,  A. T. B. Gilbert,  M. Wormit,  
 J. Kussmann,  A. W. Lange,  A. Behn,  Jia Deng,  Xintian Feng,  D. Ghosh,  
 M. Goldey,  P. R. Horn,  L. D. Jacobson,  I. Kaliman,  T. Kus,  A. Landau,  
 Jie Liu,  E. I. Proynov,  R. M. Richard,  R. P. Steele,  E. J. Sundstrom,  
 H. L. Woodcock III,  P. M. Zimmerman,  D. Zuev,  B. Alam,  B. Albrecht,  
 E. Alguire,  S. A. Baeppler,  D. Barton,  Z. Benda,  Y. A. Bernard,  
 E. J. Berquist,  K. B. Bravaya,  H. Burton,  K. Carter-Fenk,  D. Casanova,  
 Chun-Min Chang,  Yunqing Chen,  A. Chien,  K. D. Closser,  M. P. Coons,  
 S. Coriani,  S. Dasgupta,  A. L. Dempwolff,  M. Diedenhofen,  Hainam Do,  
 R. G. Edgar,  Po-Tung Fang,  S. Faraji,  S. Fatehi,  Qingguo Feng,  
 J. Fosso-Tande,  J. Gayvert,  Qinghui Ge,  A. Ghysels,  G. Gidofalvi,  
 J. Gomes,  J. Gonthier,  A. Gunina,  D. Hait,  M. W. D. Hanson-Heine,  
 P. H. P. Harbach,  A. W. Hauser,  M. F. Herbst,  J. E. Herr,  
 E. G. Hohenstein,  Z. C. Holden,  Kerwin Hui,  B. C. Huynh,  T.-C. Jagau,  
 Hyunjun Ji,  B. Kaduk,  K. Khistyaev,  Jaehoon Kim,  P. Klunzinger,  K. Koh,  
 D. Kosenkov,  L. Koulias,  T. Kowalczyk,  C. M. Krauter,  A. Kunitsa,  
 Ka Un Lao,  A. Laurent,  K. V. Lawler,  Joonho Lee,  D. Lefrancois,  
 S. Lehtola,  D. S. Levine,  Yi-Pei Li,  You-Sheng Lin,  Fenglai Liu,  
 Kuan-Yu Liu,  E. Livshits,  M. Loipersberger,  A. Luenser,  P. Manohar,  
 E. Mansoor,  S. F. Manzer,  Shan-Ping Mao,  Yuezhi Mao,  N. Mardirossian,  
 A. V. Marenich,  T. Markovich,  L. A. Martinez-Martinez,  S. A. Maurer,  
 N. J. Mayhall,  S. C. McKenzie,  J.-M. Mewes,  P. Morgante,  A. F. Morrison,  
 J. W. Mullinax,  K. Nanda,  T. S. Nguyen-Beck,  R. Olivares-Amaya,  
 J. A. Parkhill,  S. K. Paul,  Zheng Pei,  T. M. Perrine,  F. Plasser,  
 P. Pokhilko,  S. Prager,  A. Prociuk,  E. Ramos,  B. Rana,  D. R. Rehn,  
 F. Rob,  M. Scheurer,  M. Schneider,  N. Sergueev,  S. M. Sharada,  
 S. Sharma,  D. W. Small,  T. Stauch,  C. J. Stein,  T. Stein,  Yu-Chuan Su,  
 S. P. Veccham,  A. J. W. Thom,  A. Tkatchenko,  T. Tsuchimochi,  
 N. M. Tubman,  L. Vogt,  M. L. Vidal,  O. Vydrov,  M. A. Watson,  J. Wenzel,  
 M. de Wergifosse,  T. A. Wesolowski,  A. White,  J. Witte,  A. Yamada,  
 Jun Yang,  K. Yao,  S. Yeganeh,  S. R. Yost,  Zhi-Qiang You,  A. Zech,  
 Igor Ying Zhang,  Xing Zhang,  Yan Zhao,  Ying Zhu,  B. R. Brooks,  
 G. K. L. Chan,  C. J. Cramer,  M. S. Gordon,  W. J. Hehre,  A. Klamt,  
 M. W. Schmidt,  C. D. Sherrill,  D. G. Truhlar,  A. Aspuru-Guzik,  R. Baer,  
 A. T. Bell,  N. A. Besley,  Jeng-Da Chai,  A. E. DePrince, III,  
 R. A. DiStasio Jr.,  A. Dreuw,  B. D. Dunietz,  T. R. Furlani,  
 Chao-Ping Hsu,  Yousung Jung,  Jing Kong,  D. S. Lambrecht,  WanZhen Liang,  
 C. Ochsenfeld,  V. A. Rassolov,  L. V. Slipchenko,  J. E. Subotnik,  
 T. Van Voorhis,  J. M. Herbert,  A. I. Krylov,  P. M. W. Gill,  M. Head-Gordon

 Contributors to earlier versions of Q-Chem not listed above: 
 R. D. Adamson,  B. Austin,  J. Baker,  G. J. O. Beran,  K. Brandhorst,  
 S. T. Brown,  E. F. C. Byrd,  A. K. Chakraborty,  C.-L. Cheng,  
 Siu Hung Chien,  D. M. Chipman,  D. L. Crittenden,  H. Dachsel,  
 R. J. Doerksen,  A. D. Dutoi,  L. Fusti-Molnar,  W. A. Goddard III,  
 A. Golubeva-Zadorozhnaya,  S. R. Gwaltney,  G. Hawkins,  A. Heyden,  
 S. Hirata,  G. Kedziora,  F. J. Keil,  C. Kelley,  Jihan Kim,  R. A. King,  
 R. Z. Khaliullin,  P. P. Korambath,  W. Kurlancheek,  A. M. Lee,  M. S. Lee,  
 S. V. Levchenko,  Ching Yeh Lin,  D. Liotard,  R. C. Lochan,  I. Lotan,  
 P. E. Maslen,  N. Nair,  D. P. O'Neill,  D. Neuhauser,  E. Neuscamman,  
 C. M. Oana,  R. Olson,  B. Peters,  R. Peverati,  P. A. Pieniazek,  
 Y. M. Rhee,  J. Ritchie,  M. A. Rohrdanz,  E. Rosta,  N. J. Russ,  
 H. F. Schaefer III,  N. E. Schultz,  N. Shenvi,  A. C. Simmonett,  A. Sodt,  
 D. Stuck,  K. S. Thanthiriwatte,  V. Vanovschi,  Tao Wang,  A. Warshel,  
 C. F. Williams,  Q. Wu,  X. Xu,  W. Zhang

 Please cite Q-Chem as follows:
 Y. Shao et al., Mol. Phys. 113, 184-215 (2015)
 DOI: 10.1080/00268976.2014.952696

 Q-Chem 5.2.2 for Intel X86 EM64T Linux

 Parts of Q-Chem use Armadillo 9.800.1 (Horizon Scraper).
 http://arma.sourceforge.net/

 Q-Chem begins on Sun Apr 12 13:14:02 2020  

Host: cn0909
0

     Scratch files written to /tmp/ypli/6724609.srvc1/qchem69982//
Warning:  Did not find "$end" marker in "$molecule" section

Checking the input file for inconsistencies... 	...done.

--------------------------------------------------------------
User input:
--------------------------------------------------------------
$rem
   JOBTYPE  sp
   EXCHANGE   omegaB97X-D
   BASIS   6-311+G(2df,2pd)
   max_scf_cycles   250
   geom_opt_max_cycles   1500
   basis2 6-31G*
   scf_algorithm rca_diis
   SYM_IGNORE  TRUE
   print_input   true
   geom_opt_dmax   80
   pop_mulliken false
   XC_GRID 000075000302
$end

$molecule
0 1
C       1.1816046628     0.4577694894     0.2665868488
C       0.0000021503     -0.0000104318     -0.5801575388
H       1.1064342962     1.5125676044     0.5493936740
H       2.1037846501     0.3347931878     -0.2996368288
H       1.2741268937     -0.1316717845     1.1793448043
C       -1.1816052633     -0.4577619823     0.2665951274
H       0.2334564474     -0.8428148702     -1.2350907020
H       -0.2334474253     0.8427713288     -1.2351207741
H       -2.1037888569     -0.3347286965     -0.2996115275
H       -1.2740909170     0.1316588500     1.1793699290
H       -1.1064766986     -1.5125720292     0.5493720067
--------------------------------------------------------------
 ----------------------------------------------------------------
             Standard Nuclear Orientation (Angstroms)
    I     Atom           X                Y                Z
 ----------------------------------------------------------------
    1      C       1.1816046628     0.4577694894     0.2665868488
    2      C       0.0000021503    -0.0000104318    -0.5801575388
    3      H       1.1064342962     1.5125676044     0.5493936740
    4      H       2.1037846501     0.3347931878    -0.2996368288
    5      H       1.2741268937    -0.1316717845     1.1793448043
    6      C      -1.1816052633    -0.4577619823     0.2665951274
    7      H       0.2334564474    -0.8428148702    -1.2350907020
    8      H      -0.2334474253     0.8427713288    -1.2351207741
    9      H      -2.1037888569    -0.3347286965    -0.2996115275
   10      H      -1.2740909170     0.1316588500     1.1793699290
   11      H      -1.1064766986    -1.5125720292     0.5493720067
 ----------------------------------------------------------------
 Nuclear Repulsion Energy =          82.72381349 hartrees
 There are       13 alpha and       13 beta electrons
 Requested basis set is 6-311+G(2df,2pd)
 There are 72 shells and 214 basis functions

 Total QAlloc Memory Limit   2000 MB
 Mega-Array Size       188 MB
 MEM_STATIC part       192 MB

                       Distance Matrix (Angstroms)
             C (  1)   C (  2)   H (  3)   H (  4)   H (  5)   C (  6)
   C (  2)  1.524048
   H (  3)  1.094637  2.188143
   H (  4)  1.089104  2.148648  1.761452
   H (  5)  1.090472  2.176368  1.768752  1.758780
   C (  6)  2.534356  1.524048  3.032705  3.426740  2.640088
   H (  7)  2.201259  1.092592  3.081282  2.399992  2.723641  2.098982
   H (  8)  2.098982  1.092592  2.329893  2.568234  3.008648  2.201259
   H (  9)  3.426725  2.148646  3.799848  4.260509  3.693083  1.089105
   H ( 10)  2.640069  2.176370  2.823239  3.693070  2.561788  1.090472
   H ( 11)  3.032743  2.188144  3.748126  3.799915  2.823300  1.094638
             H (  7)   H (  8)   H (  9)   H ( 10)
   H (  8)  1.749057
   H (  9)  2.568266  2.399971
   H ( 10)  3.008641  2.723671  1.758779
   H ( 11)  2.329872  3.081272  1.761454  1.768753
 
 A cutoff of  1.0D-09 yielded   2533 shell pairs
 There are     22515 function pairs (     27681 Cartesian)
 Smallest overlap matrix eigenvalue = 8.34E-05

 Scale SEOQF with 1.000000e-01/1.000000e-01/1.000000e-01

 Standard Electronic Orientation quadrupole field applied
 Nucleus-field energy     =     0.0000000007 hartrees
 Requested basis set is 6-31G(d)
 There are 28 shells and 58 basis functions
 A cutoff of  1.0D-09 yielded    402 shell pairs
 There are      1773 function pairs (      1968 Cartesian)
 Smallest overlap matrix eigenvalue = 6.45E-03
 Guess from superposition of atomic densities
 Warning:  Energy on first SCF cycle will be non-variational
 SAD guess density has 26.000000 electrons
 Long-range K will be added via erf
 Coulomb attenuation parameter = 0.2 bohr**(-1)
 A restricted hybrid HF-DFT SCF calculation will be
 performed using Relaxed Constraint Minimization + Pulay DIIS
 Exchange:     0.2220 Hartree-Fock + 1.0000 wB97X-D + LR-HF
 Correlation:  1.0000 wB97X-D
 Using Euler-Maclaurin-Lebedev (75,302) quadrature formula
 Dispersion:   Grimme D
 SCF converges when DIIS error is below 1.0E-04
 using 3 threads for integral computing
 -------------------------------------------------------
 OpenMP Integral computing Module                
 Release: version 1.0, May 2013, Q-Chem Inc. Pittsburgh 
 -------------------------------------------------------
 using 3 threads for integral computing
 -------------------------------------------------------
 OpenMP Integral computing Module                
 Release: version 1.0, May 2013, Q-Chem Inc. Pittsburgh 
 -------------------------------------------------------
 ---------------------------------------
  Cycle       Energy         DIIS Error
 ---------------------------------------
    1    -119.6218598870      1.00E-01
    2    -119.0609023773      9.04E-03
    3    -119.0821333523      2.46E-03
    4    -119.0961415187      1.68E-03
    5    -119.0968384613      2.66E-04 Done RCA. Switching to DIIS
    6    -119.0973497298      1.97E-04
    7    -119.0973665096      4.54E-06 Convergence criterion met
 ---------------------------------------
 SCF time:  CPU 26.33 s  wall 9.02 s
 SCF   energy in the small basis set = -119.09736651
 Total energy in the small basis set = -119.09736651
 ----------------------------------------------------
  Cycle       Energy    
 ----------------------------------------------------
    1     -16.5420012816     -1.65E+01
 Long-range K will be added via erf
 Coulomb attenuation parameter = 0.2 bohr**(-1)
 A restricted hybrid HF-DFT SCF calculation will be
 performed using Relaxed Constraint Minimization + Pulay DIIS
 Exchange:     0.2220 Hartree-Fock + 1.0000 wB97X-D + LR-HF
 Correlation:  1.0000 wB97X-D
 Using Euler-Maclaurin-Lebedev (75,302) quadrature formula
 Dispersion:   Grimme D
 SCF converges when DIIS error is below 1.0E-05
 Basis2 calculation detected. Using small basis as guess for larger.
 SCFMinFind is unable to tell whether the solution found is close.
 Resetting ReadMinima to 0 and attempting to follow guess.
 SCFMinFind following SCF Guess.
 using 3 threads for integral computing
 -------------------------------------------------------
 OpenMP Integral computing Module                
 Release: version 1.0, May 2013, Q-Chem Inc. Pittsburgh 
 -------------------------------------------------------
 using 3 threads for integral computing
 -------------------------------------------------------
 OpenMP Integral computing Module                
 Release: version 1.0, May 2013, Q-Chem Inc. Pittsburgh 
 -------------------------------------------------------
 ---------------------------------------
  Cycle       Energy         DIIS Error
 ---------------------------------------
    1    -119.1165762739      4.21E-03
    2    -119.1386033846      6.00E-04 Done RCA. Switching to DIIS
    3    -119.1394389091      4.22E-04
    4    -119.1404144624      4.55E-05
    5    -119.1404291888      1.01E-05
    6    -119.1404298810      3.85E-06 Convergence criterion met
 ---------------------------------------
 SCF time:  CPU 83.37 s  wall 28.26 s
 SCF   energy in the final basis set = -119.14042988
 Total energy in the final basis set = -119.14042988
 
 --------------------------------------------------------------
 
                    Orbital Energies (a.u.)
 --------------------------------------------------------------
 
 Alpha MOs
 -- Occupied --
-10.2731 -10.2643 -10.2643  -0.8810  -0.7773  -0.6772  -0.5448  -0.5238
 -0.4831  -0.4679  -0.4197  -0.4177  -0.3982
 -- Virtual --
  0.0692   0.0867   0.0907   0.1002   0.1232   0.1307   0.1321   0.1396
  0.1453   0.1684   0.1744   0.1909   0.2190   0.2471   0.2485   0.2524
  0.2897   0.3020   0.3127   0.3249   0.3350   0.3408   0.4579   0.4710
  0.4825   0.4987   0.5127   0.5177   0.5376   0.5671   0.5780   0.5930
  0.6055   0.6144   0.6420   0.6441   0.6519   0.6596   0.7069   0.7154
  0.7234   0.7734   0.7908   0.8381   0.8818   0.9181   0.9491   0.9576
  1.0275   1.0586   1.0852   1.1148   1.1288   1.1515   1.1892   1.1929
  1.2169   1.2444   1.2646   1.2675   1.2910   1.3189   1.3625   1.3754
  1.3863   1.4091   1.4418   1.4425   1.4511   1.4537   1.4750   1.5191
  1.5224   1.5314   1.5767   1.5776   1.6431   1.6454   1.6712   1.6774
  1.7154   2.3662   2.3751   2.4482   2.4982   2.5554   2.6018   2.6483
  2.6560   2.6793   2.7736   2.8226   2.8655   2.8664   2.9303   2.9313
  2.9461   2.9652   3.0078   3.0439   3.0670   3.0761   3.0914   3.1024
  3.1228   3.1361   3.1787   3.1827   3.1943   3.2398   3.2819   3.2874
  3.3163   3.3433   3.3471   3.3571   3.3937   3.3942   3.4117   3.4198
  3.4342   3.4637   3.5167   3.5260   3.5767   3.5998   3.6130   3.6143
  3.6293   3.6595   3.6898   3.7063   3.7507   3.8011   3.8085   3.8584
  3.8787   3.9300   3.9386   3.9767   3.9929   4.0088   4.0305   4.0536
  4.0675   4.1186   4.1378   4.1471   4.1664   4.1960   4.2101   4.2184
  4.2245   4.2347   4.2836   4.3377   4.3512   4.3689   4.4213   4.4679
  4.4716   4.5162   4.5665   4.6263   4.6609   4.8349   4.8873   4.8974
  4.9222   4.9278   4.9517   4.9583   5.0044   5.0710   5.0788   5.1445
  5.1639   5.1889   5.2227   5.2533   5.2913   5.2928   5.3494   5.3510
  5.3910   5.3916   5.4171   5.4944   5.5072   5.5616   5.6216   5.7197
  5.9637   6.3527   6.3708   6.4036   6.4412   6.4854  25.1534  25.4011
 25.4716
 --------------------------------------------------------------
 
 -----------------------------------------------------------------
                    Cartesian Multipole Moments
 -----------------------------------------------------------------
    Charge (ESU x 10^10)
                -0.0000
    Dipole Moment (Debye)
         X      -0.0000      Y       0.0000      Z      -0.1010
       Tot       0.1010
    Quadrupole Moments (Debye-Ang)
        XX     -22.3222     XY      -0.1748     YY     -21.2512
        XZ       0.0000     YZ      -0.0000     ZZ     -21.8212
    Octopole Moments (Debye-Ang^2)
       XXX       0.0000    XXY       0.0001    XYY      -0.0000
       YYY      -0.0001    XXZ      -1.4892    XYZ      -0.0716
       YYZ      -0.1704    XZZ       0.0000    YZZ       0.0001
       ZZZ      -0.1871
    Hexadecapole Moments (Debye-Ang^3)
      XXXX    -182.8521   XXXY     -28.3034   XXYY     -42.7750
      XYYY     -25.9250   YYYY     -62.1486   XXXZ       0.0003
      XXYZ      -0.0002   XYYZ       0.0001   YYYZ      -0.0000
      XXZZ     -41.9531   XYZZ      -9.9362   YYZZ     -21.9381
      XZZZ       0.0003   YZZZ      -0.0002   ZZZZ     -71.0794
 -----------------------------------------------------------------
Archival summary:
1\1\cn0909\SP\ProcedureUnspecified\BasisUnspecified\38\r0852400\SunApr1213:14:432020SunApr1213:14:432020\0\\#,ProcedureUnspecified,BasisUnspecified,\\0,1\C\H,1,1.09259\H,1,1.09259,2,106.34\C,1,1.52405,2,113.521,3,-115.535,0\H,4,1.08911,1,109.494,2,34.4365,0\H,4,1.09047,1,111.621,2,-84.5925,0\H,4,1.09464,1,112.317,2,153.829,0\C,1,1.52405,2,105.487,3,120.849,0\H,8,1.0891,1,109.494,2,-81.5976,0\H,8,1.09047,1,111.621,2,159.373,0\H,8,1.09464,1,112.317,2,37.7944,0\\\@

 Total job time:  41.13s(wall), 114.45s(cpu) 
 Sun Apr 12 13:14:43 2020

        *************************************************************
        *                                                           *
        *  Thank you very much for using Q-Chem.  Have a nice day.  *
        *                                                           *
        *************************************************************


