                  Welcome to Q-Chem
     A Quantum Leap Into The Future Of Chemistry


 Q-Chem 5.2 (devel), Q-Chem, Inc., Pleasanton, CA (2019)

 Yihan Shao,  Zhengting Gan,  E. Epifanovsky,  A. T. B. Gilbert,  M. Wormit,  
 J. Kussmann,  A. W. Lange,  A. Behn,  Jia Deng,  Xintian Feng,  D. Ghosh,  
 M. Goldey,  P. R. Horn,  L. D. Jacobson,  I. Kaliman,  T. Kus,  A. Landau,  
 Jie Liu,  E. I. Proynov,  R. M. Richard,  R. P. Steele,  E. J. Sundstrom,  
 H. L. Woodcock III,  P. M. Zimmerman,  D. Zuev,  B. Alam,  B. Albrecht,  
 E. Alguire,  S. A. Baeppler,  D. Barton,  Z. Benda,  Y. A. Bernard,  
 E. J. Berquist,  K. B. Bravaya,  H. Burton,  K. Carter-Fenk,  D. Casanova,  
 Chun-Min Chang,  Yunqing Chen,  A. Chien,  K. D. Closser,  M. P. Coons,  
 S. Coriani,  S. Dasgupta,  A. L. Dempwolff,  M. Diedenhofen,  Hainam Do,  
 R. G. Edgar,  Po-Tung Fang,  S. Faraji,  S. Fatehi,  Qingguo Feng,  
 J. Fosso-Tande,  J. Gayvert,  Qinghui Ge,  A. Ghysels,  G. Gidofalvi,  
 J. Gomes,  J. Gonthier,  A. Gunina,  D. Hait,  M. W. D. Hanson-Heine,  
 P. H. P. Harbach,  A. W. Hauser,  M. F. Herbst,  J. E. Herr,  
 E. G. Hohenstein,  Z. C. Holden,  Kerwin Hui,  B. C. Huynh,  T.-C. Jagau,  
 Hyunjun Ji,  B. Kaduk,  K. Khistyaev,  Jaehoon Kim,  P. Klunzinger,  K. Koh,  
 D. Kosenkov,  L. Koulias,  T. Kowalczyk,  C. M. Krauter,  A. Kunitsa,  
 Ka Un Lao,  A. Laurent,  K. V. Lawler,  Joonho Lee,  D. Lefrancois,  
 S. Lehtola,  D. S. Levine,  Yi-Pei Li,  You-Sheng Lin,  Fenglai Liu,  
 Kuan-Yu Liu,  E. Livshits,  M. Loipersberger,  A. Luenser,  P. Manohar,  
 E. Mansoor,  S. F. Manzer,  Shan-Ping Mao,  Yuezhi Mao,  N. Mardirossian,  
 A. V. Marenich,  T. Markovich,  L. A. Martinez-Martinez,  S. A. Maurer,  
 N. J. Mayhall,  S. C. McKenzie,  J.-M. Mewes,  P. Morgante,  A. F. Morrison,  
 J. W. Mullinax,  K. Nanda,  T. S. Nguyen-Beck,  R. Olivares-Amaya,  
 J. A. Parkhill,  S. K. Paul,  Zheng Pei,  T. M. Perrine,  F. Plasser,  
 P. Pokhilko,  S. Prager,  A. Prociuk,  E. Ramos,  B. Rana,  D. R. Rehn,  
 F. Rob,  M. Scheurer,  M. Schneider,  N. Sergueev,  S. M. Sharada,  
 S. Sharma,  D. W. Small,  T. Stauch,  C. J. Stein,  T. Stein,  Yu-Chuan Su,  
 S. P. Veccham,  A. J. W. Thom,  A. Tkatchenko,  T. Tsuchimochi,  
 N. M. Tubman,  L. Vogt,  M. L. Vidal,  O. Vydrov,  M. A. Watson,  J. Wenzel,  
 M. de Wergifosse,  T. A. Wesolowski,  A. White,  J. Witte,  A. Yamada,  
 Jun Yang,  K. Yao,  S. Yeganeh,  S. R. Yost,  Zhi-Qiang You,  A. Zech,  
 Igor Ying Zhang,  Xing Zhang,  Yan Zhao,  Ying Zhu,  B. R. Brooks,  
 G. K. L. Chan,  C. J. Cramer,  M. S. Gordon,  W. J. Hehre,  A. Klamt,  
 M. W. Schmidt,  C. D. Sherrill,  D. G. Truhlar,  A. Aspuru-Guzik,  R. Baer,  
 A. T. Bell,  N. A. Besley,  Jeng-Da Chai,  A. E. DePrince, III,  
 R. A. DiStasio Jr.,  A. Dreuw,  B. D. Dunietz,  T. R. Furlani,  
 Chao-Ping Hsu,  Yousung Jung,  Jing Kong,  D. S. Lambrecht,  WanZhen Liang,  
 C. Ochsenfeld,  V. A. Rassolov,  L. V. Slipchenko,  J. E. Subotnik,  
 T. Van Voorhis,  J. M. Herbert,  A. I. Krylov,  P. M. W. Gill,  M. Head-Gordon

 Contributors to earlier versions of Q-Chem not listed above: 
 R. D. Adamson,  B. Austin,  J. Baker,  G. J. O. Beran,  K. Brandhorst,  
 S. T. Brown,  E. F. C. Byrd,  A. K. Chakraborty,  C.-L. Cheng,  
 Siu Hung Chien,  D. M. Chipman,  D. L. Crittenden,  H. Dachsel,  
 R. J. Doerksen,  A. D. Dutoi,  L. Fusti-Molnar,  W. A. Goddard III,  
 A. Golubeva-Zadorozhnaya,  S. R. Gwaltney,  G. Hawkins,  A. Heyden,  
 S. Hirata,  G. Kedziora,  F. J. Keil,  C. Kelley,  Jihan Kim,  R. A. King,  
 R. Z. Khaliullin,  P. P. Korambath,  W. Kurlancheek,  A. M. Lee,  M. S. Lee,  
 S. V. Levchenko,  Ching Yeh Lin,  D. Liotard,  R. C. Lochan,  I. Lotan,  
 P. E. Maslen,  N. Nair,  D. P. O'Neill,  D. Neuhauser,  E. Neuscamman,  
 C. M. Oana,  R. Olson,  B. Peters,  R. Peverati,  P. A. Pieniazek,  
 Y. M. Rhee,  J. Ritchie,  M. A. Rohrdanz,  E. Rosta,  N. J. Russ,  
 H. F. Schaefer III,  N. E. Schultz,  N. Shenvi,  A. C. Simmonett,  A. Sodt,  
 D. Stuck,  K. S. Thanthiriwatte,  V. Vanovschi,  Tao Wang,  A. Warshel,  
 C. F. Williams,  Q. Wu,  X. Xu,  W. Zhang

 Please cite Q-Chem as follows:
 Y. Shao et al., Mol. Phys. 113, 184-215 (2015)
 DOI: 10.1080/00268976.2014.952696

 Q-Chem 5.2.2 for Intel X86 EM64T Linux

 Parts of Q-Chem use Armadillo 9.800.1 (Horizon Scraper).
 http://arma.sourceforge.net/

 Q-Chem begins on Sun Apr 12 13:37:55 2020  

Host: cn0909
0

     Scratch files written to /tmp/ypli/6724609.srvc1/qchem73822//
Warning:  Did not find "$end" marker in "$molecule" section

Checking the input file for inconsistencies... 	...done.

--------------------------------------------------------------
User input:
--------------------------------------------------------------
$rem
   JOBTYPE  sp
   EXCHANGE   omegaB97X-D
   BASIS   6-311+G(2df,2pd)
   max_scf_cycles   250
   geom_opt_max_cycles   1500
   basis2 6-31G*
   scf_algorithm rca_diis
   SYM_IGNORE  TRUE
   print_input   true
   geom_opt_dmax   80
   pop_mulliken false
   XC_GRID 000075000302
$end

$molecule
0 1
C       1.2585239193     0.2377770656     0.0219589508
C       -0.0000030200     -0.6214417133     0.0461225499
H       1.8433098843     0.3069687812     -0.8925929282
H       1.8824619171     -0.2407903314     0.7854638767
H       1.0523612559     1.2511865200     0.3678653297
C       -1.2585229321     0.2377862903     0.0219516518
H       -0.0000076632     -1.4915703532     0.7083931575
H       -0.0000013102     -0.9973273100     -0.9788225334
H       -1.8433373549     0.3069170211     -0.8925874600
H       -1.0523433524     1.2512176386     0.3677826859
H       -1.8824414045     -0.2407229429     0.7855097382
--------------------------------------------------------------
 ----------------------------------------------------------------
             Standard Nuclear Orientation (Angstroms)
    I     Atom           X                Y                Z
 ----------------------------------------------------------------
    1      C       1.2585239193     0.2377770656     0.0219589508
    2      C      -0.0000030200    -0.6214417133     0.0461225499
    3      H       1.8433098843     0.3069687812    -0.8925929282
    4      H       1.8824619171    -0.2407903314     0.7854638767
    5      H       1.0523612559     1.2511865200     0.3678653297
    6      C      -1.2585229321     0.2377862903     0.0219516518
    7      H      -0.0000076632    -1.4915703532     0.7083931575
    8      H      -0.0000013102    -0.9973273100    -0.9788225334
    9      H      -1.8433373549     0.3069170211    -0.8925874600
   10      H      -1.0523433524     1.2512176386     0.3677826859
   11      H      -1.8824414045    -0.2407229429     0.7855097382
 ----------------------------------------------------------------
 Nuclear Repulsion Energy =          82.94683854 hartrees
 There are       13 alpha and       13 beta electrons
 Requested basis set is 6-311+G(2df,2pd)
 There are 72 shells and 214 basis functions

 Total QAlloc Memory Limit   2000 MB
 Mega-Array Size       188 MB
 MEM_STATIC part       192 MB

                       Distance Matrix (Angstroms)
             C (  1)   C (  2)   H (  3)   H (  4)   H (  5)   C (  6)
   C (  2)  1.524051
   H (  3)  1.087735  2.267363
   H (  4)  1.096022  2.057959  1.765630
   H (  5)  1.090483  2.172033  1.762357  1.757683
   C (  6)  2.517047  1.524050  3.234586  3.267686  2.546924
   H (  7)  2.246272  1.093493  3.032444  2.261434  2.957390  2.246272
   H (  8)  2.027543  1.091697  2.259739  2.688628  2.824332  2.027543
   H (  9)  3.234613  2.267357  3.686647  4.122793  3.296279  1.087736
   H ( 10)  2.546913  2.172036  3.296204  3.318679  2.104705  1.090483
   H ( 11)  3.267665  2.057964  4.122768  3.764903  3.318627  1.096023
             H (  7)   H (  8)   H (  9)   H ( 10)
   H (  8)  1.758116
   H (  9)  3.032418  2.259730
   H ( 10)  2.957416  2.824309  1.762359
   H ( 11)  2.261443  2.688661  1.765630  1.757682
 
 A cutoff of  1.0D-09 yielded   2523 shell pairs
 There are     22491 function pairs (     27691 Cartesian)
 Smallest overlap matrix eigenvalue = 8.47E-05

 Scale SEOQF with 1.000000e-01/1.000000e-01/1.000000e-01

 Standard Electronic Orientation quadrupole field applied
 Nucleus-field energy     =     0.0000000015 hartrees
 Requested basis set is 6-31G(d)
 There are 28 shells and 58 basis functions
 A cutoff of  1.0D-09 yielded    399 shell pairs
 There are      1770 function pairs (      1965 Cartesian)
 Smallest overlap matrix eigenvalue = 5.84E-03
 Guess from superposition of atomic densities
 Warning:  Energy on first SCF cycle will be non-variational
 SAD guess density has 26.000000 electrons
 Long-range K will be added via erf
 Coulomb attenuation parameter = 0.2 bohr**(-1)
 A restricted hybrid HF-DFT SCF calculation will be
 performed using Relaxed Constraint Minimization + Pulay DIIS
 Exchange:     0.2220 Hartree-Fock + 1.0000 wB97X-D + LR-HF
 Correlation:  1.0000 wB97X-D
 Using Euler-Maclaurin-Lebedev (75,302) quadrature formula
 Dispersion:   Grimme D
 SCF converges when DIIS error is below 1.0E-04
 using 3 threads for integral computing
 -------------------------------------------------------
 OpenMP Integral computing Module                
 Release: version 1.0, May 2013, Q-Chem Inc. Pittsburgh 
 -------------------------------------------------------
 using 3 threads for integral computing
 -------------------------------------------------------
 OpenMP Integral computing Module                
 Release: version 1.0, May 2013, Q-Chem Inc. Pittsburgh 
 -------------------------------------------------------
 ---------------------------------------
  Cycle       Energy         DIIS Error
 ---------------------------------------
    1    -119.6459610972      1.01E-01
    2    -119.0368639099      9.16E-03
    3    -119.0585100684      2.45E-03
    4    -119.0729503954      1.68E-03
    5    -119.0736431567      2.63E-04 Done RCA. Switching to DIIS
    6    -119.0741536890      1.95E-04
    7    -119.0741701424      4.75E-06 Convergence criterion met
 ---------------------------------------
 SCF time:  CPU 26.74 s  wall 9.25 s
 SCF   energy in the small basis set = -119.07417014
 Total energy in the small basis set = -119.07417014
 ----------------------------------------------------
  Cycle       Energy    
 ----------------------------------------------------
    1     -16.5479752089     -1.65E+01
 Long-range K will be added via erf
 Coulomb attenuation parameter = 0.2 bohr**(-1)
 A restricted hybrid HF-DFT SCF calculation will be
 performed using Relaxed Constraint Minimization + Pulay DIIS
 Exchange:     0.2220 Hartree-Fock + 1.0000 wB97X-D + LR-HF
 Correlation:  1.0000 wB97X-D
 Using Euler-Maclaurin-Lebedev (75,302) quadrature formula
 Dispersion:   Grimme D
 SCF converges when DIIS error is below 1.0E-05
 Basis2 calculation detected. Using small basis as guess for larger.
 SCFMinFind is unable to tell whether the solution found is close.
 Resetting ReadMinima to 0 and attempting to follow guess.
 SCFMinFind following SCF Guess.
 using 3 threads for integral computing
 -------------------------------------------------------
 OpenMP Integral computing Module                
 Release: version 1.0, May 2013, Q-Chem Inc. Pittsburgh 
 -------------------------------------------------------
 using 3 threads for integral computing
 -------------------------------------------------------
 OpenMP Integral computing Module                
 Release: version 1.0, May 2013, Q-Chem Inc. Pittsburgh 
 -------------------------------------------------------
 ---------------------------------------
  Cycle       Energy         DIIS Error
 ---------------------------------------
    1    -119.0942347885      4.21E-03
    2    -119.1162579861      6.15E-04 Done RCA. Switching to DIIS
    3    -119.1171099475      4.39E-04
    4    -119.1181655014      4.52E-05
    5    -119.1181804681      9.80E-06 Convergence criterion met
 ---------------------------------------
 SCF time:  CPU 72.01 s  wall 24.45 s
 SCF   energy in the final basis set = -119.11818047
 Total energy in the final basis set = -119.11818047
 
 --------------------------------------------------------------
 
                    Orbital Energies (a.u.)
 --------------------------------------------------------------
 
 Alpha MOs
 -- Occupied --
-10.2727 -10.2631 -10.2631  -0.8838  -0.7766  -0.6777  -0.5466  -0.5275
 -0.4889  -0.4631  -0.4346  -0.4014  -0.3826
 -- Virtual --
  0.0715   0.0879   0.0908   0.1008   0.1216   0.1300   0.1308   0.1330
  0.1428   0.1650   0.1749   0.1904   0.1967   0.2393   0.2584   0.2769
  0.2887   0.3049   0.3065   0.3191   0.3371   0.3671   0.4526   0.4720
  0.4939   0.5109   0.5155   0.5194   0.5240   0.5261   0.5683   0.5807
  0.6064   0.6210   0.6346   0.6347   0.6519   0.6691   0.6819   0.7108
  0.7336   0.7429   0.8840   0.8942   0.9295   0.9331   0.9755   0.9915
  0.9964   0.9981   1.0132   1.0807   1.1556   1.1572   1.2125   1.2158
  1.2349   1.2431   1.2693   1.2804   1.3151   1.3161   1.3520   1.3734
  1.3877   1.3885   1.4159   1.4555   1.4580   1.4770   1.4807   1.4940
  1.5138   1.5303   1.5664   1.5937   1.6393   1.6489   1.6608   1.6644
  1.7070   2.2963   2.3473   2.4234   2.4933   2.5170   2.6146   2.6374
  2.6984   2.7015   2.8100   2.8641   2.8805   2.8937   2.9077   2.9210
  2.9454   2.9859   2.9920   3.0339   3.0449   3.1113   3.1162   3.1286
  3.1605   3.1629   3.1711   3.1875   3.1910   3.2130   3.2564   3.2586
  3.2989   3.3019   3.3351   3.3397   3.3446   3.3761   3.4079   3.4508
  3.4760   3.4830   3.5187   3.5702   3.5746   3.5766   3.6005   3.6263
  3.6285   3.6681   3.6820   3.7329   3.7398   3.7501   3.7706   3.7837
  3.8805   3.9332   3.9440   3.9459   3.9629   4.0331   4.0355   4.0782
  4.1133   4.1295   4.1397   4.1635   4.1665   4.1894   4.2164   4.2234
  4.2365   4.2853   4.3060   4.3575   4.3647   4.4032   4.4332   4.4610
  4.4824   4.5237   4.5329   4.5724   4.7000   4.8155   4.8589   4.9125
  4.9172   4.9558   4.9678   4.9920   5.0466   5.0509   5.1508   5.1553
  5.1738   5.1816   5.2215   5.2593   5.2710   5.2818   5.3511   5.3775
  5.3908   5.3994   5.4640   5.4675   5.5413   5.5538   5.6039   5.7403
  5.9970   6.3429   6.3863   6.4105   6.4296   6.5098  25.0790  25.4434
 25.4468
 --------------------------------------------------------------
 
 -----------------------------------------------------------------
                    Cartesian Multipole Moments
 -----------------------------------------------------------------
    Charge (ESU x 10^10)
                -0.0000
    Dipole Moment (Debye)
         X       0.0000      Y      -0.1427      Z      -0.0640
       Tot       0.1564
    Quadrupole Moments (Debye-Ang)
        XX     -22.6382     XY       0.0000     YY     -21.6331
        XZ      -0.0000     YZ      -0.5344     ZZ     -21.3122
    Octopole Moments (Debye-Ang^2)
       XXX       0.0000    XXY      -0.1592    XYY       0.0001
       YYY       1.9597    XXZ      -2.0922    XYZ      -0.0001
       YYZ       0.6960    XZZ      -0.0000    YZZ      -0.2567
       ZZZ      -3.0643
    Hexadecapole Moments (Debye-Ang^3)
      XXXX    -207.8888   XXXY       0.0003   XXYY     -46.5178
      XYYY       0.0002   YYYY     -69.4147   XXXZ      -0.0002
      XXYZ      -2.1408   XYYZ      -0.0000   YYYZ      -0.6969
      XXZZ     -38.5032   XYZZ       0.0002   YYZZ     -18.8917
      XZZZ      -0.0004   YZZZ      -0.4496   ZZZZ     -43.7838
 -----------------------------------------------------------------
Archival summary:
1\1\cn0909\SP\ProcedureUnspecified\BasisUnspecified\38\r0852400\SunApr1213:38:332020SunApr1213:38:332020\0\\#,ProcedureUnspecified,BasisUnspecified,\\0,1\C\H,1,1.0917\H,1,1.09349,2,107.136\C,1,1.52405,2,100.325,3,-122.927,0\H,4,1.08774,1,119.547,2,-0.054224,0\H,4,1.09048,1,111.271,2,-127.076,0\H,4,1.09602,1,102.292,2,118.97,0\C,1,1.52405,2,100.325,3,122.927,0\H,8,1.08773,1,119.548,2,0.0587651,0\H,8,1.09048,1,111.271,2,127.081,0\H,8,1.09602,1,102.291,2,-118.966,0\\\@

 Total job time:  37.66s(wall), 103.56s(cpu) 
 Sun Apr 12 13:38:33 2020

        *************************************************************
        *                                                           *
        *  Thank you very much for using Q-Chem.  Have a nice day.  *
        *                                                           *
        *************************************************************


