                  Welcome to Q-Chem
     A Quantum Leap Into The Future Of Chemistry


 Q-Chem 5.2 (devel), Q-Chem, Inc., Pleasanton, CA (2019)

 Yihan Shao,  Zhengting Gan,  E. Epifanovsky,  A. T. B. Gilbert,  M. Wormit,  
 J. Kussmann,  A. W. Lange,  A. Behn,  Jia Deng,  Xintian Feng,  D. Ghosh,  
 M. Goldey,  P. R. Horn,  L. D. Jacobson,  I. Kaliman,  T. Kus,  A. Landau,  
 Jie Liu,  E. I. Proynov,  R. M. Richard,  R. P. Steele,  E. J. Sundstrom,  
 H. L. Woodcock III,  P. M. Zimmerman,  D. Zuev,  B. Alam,  B. Albrecht,  
 E. Alguire,  S. A. Baeppler,  D. Barton,  Z. Benda,  Y. A. Bernard,  
 E. J. Berquist,  K. B. Bravaya,  H. Burton,  K. Carter-Fenk,  D. Casanova,  
 Chun-Min Chang,  Yunqing Chen,  A. Chien,  K. D. Closser,  M. P. Coons,  
 S. Coriani,  S. Dasgupta,  A. L. Dempwolff,  M. Diedenhofen,  Hainam Do,  
 R. G. Edgar,  Po-Tung Fang,  S. Faraji,  S. Fatehi,  Qingguo Feng,  
 J. Fosso-Tande,  J. Gayvert,  Qinghui Ge,  A. Ghysels,  G. Gidofalvi,  
 J. Gomes,  J. Gonthier,  A. Gunina,  D. Hait,  M. W. D. Hanson-Heine,  
 P. H. P. Harbach,  A. W. Hauser,  M. F. Herbst,  J. E. Herr,  
 E. G. Hohenstein,  Z. C. Holden,  Kerwin Hui,  B. C. Huynh,  T.-C. Jagau,  
 Hyunjun Ji,  B. Kaduk,  K. Khistyaev,  Jaehoon Kim,  P. Klunzinger,  K. Koh,  
 D. Kosenkov,  L. Koulias,  T. Kowalczyk,  C. M. Krauter,  A. Kunitsa,  
 Ka Un Lao,  A. Laurent,  K. V. Lawler,  Joonho Lee,  D. Lefrancois,  
 S. Lehtola,  D. S. Levine,  Yi-Pei Li,  You-Sheng Lin,  Fenglai Liu,  
 Kuan-Yu Liu,  E. Livshits,  M. Loipersberger,  A. Luenser,  P. Manohar,  
 E. Mansoor,  S. F. Manzer,  Shan-Ping Mao,  Yuezhi Mao,  N. Mardirossian,  
 A. V. Marenich,  T. Markovich,  L. A. Martinez-Martinez,  S. A. Maurer,  
 N. J. Mayhall,  S. C. McKenzie,  J.-M. Mewes,  P. Morgante,  A. F. Morrison,  
 J. W. Mullinax,  K. Nanda,  T. S. Nguyen-Beck,  R. Olivares-Amaya,  
 J. A. Parkhill,  S. K. Paul,  Zheng Pei,  T. M. Perrine,  F. Plasser,  
 P. Pokhilko,  S. Prager,  A. Prociuk,  E. Ramos,  B. Rana,  D. R. Rehn,  
 F. Rob,  M. Scheurer,  M. Schneider,  N. Sergueev,  S. M. Sharada,  
 S. Sharma,  D. W. Small,  T. Stauch,  C. J. Stein,  T. Stein,  Yu-Chuan Su,  
 S. P. Veccham,  A. J. W. Thom,  A. Tkatchenko,  T. Tsuchimochi,  
 N. M. Tubman,  L. Vogt,  M. L. Vidal,  O. Vydrov,  M. A. Watson,  J. Wenzel,  
 M. de Wergifosse,  T. A. Wesolowski,  A. White,  J. Witte,  A. Yamada,  
 Jun Yang,  K. Yao,  S. Yeganeh,  S. R. Yost,  Zhi-Qiang You,  A. Zech,  
 Igor Ying Zhang,  Xing Zhang,  Yan Zhao,  Ying Zhu,  B. R. Brooks,  
 G. K. L. Chan,  C. J. Cramer,  M. S. Gordon,  W. J. Hehre,  A. Klamt,  
 M. W. Schmidt,  C. D. Sherrill,  D. G. Truhlar,  A. Aspuru-Guzik,  R. Baer,  
 A. T. Bell,  N. A. Besley,  Jeng-Da Chai,  A. E. DePrince, III,  
 R. A. DiStasio Jr.,  A. Dreuw,  B. D. Dunietz,  T. R. Furlani,  
 Chao-Ping Hsu,  Yousung Jung,  Jing Kong,  D. S. Lambrecht,  WanZhen Liang,  
 C. Ochsenfeld,  V. A. Rassolov,  L. V. Slipchenko,  J. E. Subotnik,  
 T. Van Voorhis,  J. M. Herbert,  A. I. Krylov,  P. M. W. Gill,  M. Head-Gordon

 Contributors to earlier versions of Q-Chem not listed above: 
 R. D. Adamson,  B. Austin,  J. Baker,  G. J. O. Beran,  K. Brandhorst,  
 S. T. Brown,  E. F. C. Byrd,  A. K. Chakraborty,  C.-L. Cheng,  
 Siu Hung Chien,  D. M. Chipman,  D. L. Crittenden,  H. Dachsel,  
 R. J. Doerksen,  A. D. Dutoi,  L. Fusti-Molnar,  W. A. Goddard III,  
 A. Golubeva-Zadorozhnaya,  S. R. Gwaltney,  G. Hawkins,  A. Heyden,  
 S. Hirata,  G. Kedziora,  F. J. Keil,  C. Kelley,  Jihan Kim,  R. A. King,  
 R. Z. Khaliullin,  P. P. Korambath,  W. Kurlancheek,  A. M. Lee,  M. S. Lee,  
 S. V. Levchenko,  Ching Yeh Lin,  D. Liotard,  R. C. Lochan,  I. Lotan,  
 P. E. Maslen,  N. Nair,  D. P. O'Neill,  D. Neuhauser,  E. Neuscamman,  
 C. M. Oana,  R. Olson,  B. Peters,  R. Peverati,  P. A. Pieniazek,  
 Y. M. Rhee,  J. Ritchie,  M. A. Rohrdanz,  E. Rosta,  N. J. Russ,  
 H. F. Schaefer III,  N. E. Schultz,  N. Shenvi,  A. C. Simmonett,  A. Sodt,  
 D. Stuck,  K. S. Thanthiriwatte,  V. Vanovschi,  Tao Wang,  A. Warshel,  
 C. F. Williams,  Q. Wu,  X. Xu,  W. Zhang

 Please cite Q-Chem as follows:
 Y. Shao et al., Mol. Phys. 113, 184-215 (2015)
 DOI: 10.1080/00268976.2014.952696

 Q-Chem 5.2.2 for Intel X86 EM64T Linux

 Parts of Q-Chem use Armadillo 9.800.1 (Horizon Scraper).
 http://arma.sourceforge.net/

 Q-Chem begins on Sun Apr 12 06:42:57 2020  

Host: cn0913
0

     Scratch files written to /tmp/ypli/6721341.srvc1/qchem237561//
Warning:  Did not find "$end" marker in "$molecule" section

Checking the input file for inconsistencies... 	...done.

--------------------------------------------------------------
User input:
--------------------------------------------------------------
$rem
   JOBTYPE  sp
   EXCHANGE   omegaB97X-D
   BASIS   6-311+G(2df,2pd)
   max_scf_cycles   250
   geom_opt_max_cycles   1500
   basis2 6-31G*
   scf_algorithm rca_diis
   SYM_IGNORE  TRUE
   print_input   true
   geom_opt_dmax   80
   pop_mulliken false
   XC_GRID 000075000302
$end

$molecule
0 1
C       1.2669324663     0.0262136852     0.2578969380
C       -0.0000005771     0.0000001771     -0.5888115150
H       1.4144475509     -0.8687355164     0.8729463075
H       1.1964647677     0.8787605476     0.9299092000
H       2.1593927642     -0.1208908568     -0.3511983350
C       -1.2669333356     -0.0262133592     0.2578959248
H       0.0265342257     -0.8734739767     -1.2446283519
H       -0.0265328504     0.8734743256     -1.2446284841
H       -1.1964662384     -0.8787559602     0.9299138966
H       -2.1593915498     0.1208900289     -0.3512024679
H       -1.4144472843     0.8687315708     0.8729519059
--------------------------------------------------------------
 ----------------------------------------------------------------
             Standard Nuclear Orientation (Angstroms)
    I     Atom           X                Y                Z
 ----------------------------------------------------------------
    1      C       1.2669324663     0.0262136852     0.2578969380
    2      C      -0.0000005771     0.0000001771    -0.5888115150
    3      H       1.4144475509    -0.8687355164     0.8729463075
    4      H       1.1964647677     0.8787605476     0.9299092000
    5      H       2.1593927642    -0.1208908568    -0.3511983350
    6      C      -1.2669333356    -0.0262133592     0.2578959248
    7      H       0.0265342257    -0.8734739767    -1.2446283519
    8      H      -0.0265328504     0.8734743256    -1.2446284841
    9      H      -1.1964662384    -0.8787559602     0.9299138966
   10      H      -2.1593915498     0.1208900289    -0.3512024679
   11      H      -1.4144472843     0.8687315708     0.8729519059
 ----------------------------------------------------------------
 Nuclear Repulsion Energy =          82.76332482 hartrees
 There are       13 alpha and       13 beta electrons
 Requested basis set is 6-311+G(2df,2pd)
 There are 72 shells and 214 basis functions

 Total QAlloc Memory Limit   2000 MB
 Mega-Array Size       188 MB
 MEM_STATIC part       192 MB

                       Distance Matrix (Angstroms)
             C (  1)   C (  2)   H (  3)   H (  4)   H (  5)   C (  6)
   C (  2)  1.524048
   H (  3)  1.095893  2.211809
   H (  4)  1.087843  2.123738  1.761960
   H (  5)  1.090469  2.175788  1.616399  1.888854
   C (  6)  2.534408  1.524047  2.877140  2.709042  3.481332
   H (  7)  2.146068  1.092592  2.531886  3.027817  2.431807  2.156035
   H (  8)  2.156035  1.092592  3.097716  2.494868  2.562274  2.146069
   H (  9)  2.709042  2.123739  2.611554  2.969004  3.671158  1.087843
   H ( 10)  3.481330  2.175785  3.905154  3.671156  4.325547  1.090469
   H ( 11)  2.877139  2.211811  3.319855  2.611552  3.905154  1.095893
             H (  7)   H (  8)   H (  9)   H ( 10)
   H (  8)  1.747754
   H (  9)  2.494873  3.027819
   H ( 10)  2.562273  2.431806  1.888856
   H ( 11)  3.097718  2.531892  1.761951  1.616404
 
 A cutoff of  1.0D-09 yielded   2533 shell pairs
 There are     22547 function pairs (     27720 Cartesian)
 Smallest overlap matrix eigenvalue = 8.80E-05

 Scale SEOQF with 1.000000e-01/1.000000e-01/1.000000e-01

 Standard Electronic Orientation quadrupole field applied
 Nucleus-field energy     =     0.0000000006 hartrees
 Requested basis set is 6-31G(d)
 There are 28 shells and 58 basis functions
 A cutoff of  1.0D-09 yielded    402 shell pairs
 There are      1773 function pairs (      1968 Cartesian)
 Smallest overlap matrix eigenvalue = 6.82E-03
 Guess from superposition of atomic densities
 Warning:  Energy on first SCF cycle will be non-variational
 SAD guess density has 26.000000 electrons
 Long-range K will be added via erf
 Coulomb attenuation parameter = 0.2 bohr**(-1)
 A restricted hybrid HF-DFT SCF calculation will be
 performed using Relaxed Constraint Minimization + Pulay DIIS
 Exchange:     0.2220 Hartree-Fock + 1.0000 wB97X-D + LR-HF
 Correlation:  1.0000 wB97X-D
 Using Euler-Maclaurin-Lebedev (75,302) quadrature formula
 Dispersion:   Grimme D
 SCF converges when DIIS error is below 1.0E-04
 using 3 threads for integral computing
 -------------------------------------------------------
 OpenMP Integral computing Module                
 Release: version 1.0, May 2013, Q-Chem Inc. Pittsburgh 
 -------------------------------------------------------
 using 3 threads for integral computing
 -------------------------------------------------------
 OpenMP Integral computing Module                
 Release: version 1.0, May 2013, Q-Chem Inc. Pittsburgh 
 -------------------------------------------------------
 ---------------------------------------
  Cycle       Energy         DIIS Error
 ---------------------------------------
    1    -119.6259282662      1.01E-01
    2    -119.0514881867      9.11E-03
    3    -119.0731207770      2.49E-03
    4    -119.0874764245      1.70E-03
    5    -119.0881887004      2.70E-04 Done RCA. Switching to DIIS
    6    -119.0887136720      1.98E-04
    7    -119.0887308504      5.25E-06 Convergence criterion met
 ---------------------------------------
 SCF time:  CPU 23.22 s  wall 7.91 s
 SCF   energy in the small basis set = -119.08873085
 Total energy in the small basis set = -119.08873085
 ----------------------------------------------------
  Cycle       Energy    
 ----------------------------------------------------
    1     -16.5374769971     -1.65E+01
 Long-range K will be added via erf
 Coulomb attenuation parameter = 0.2 bohr**(-1)
 A restricted hybrid HF-DFT SCF calculation will be
 performed using Relaxed Constraint Minimization + Pulay DIIS
 Exchange:     0.2220 Hartree-Fock + 1.0000 wB97X-D + LR-HF
 Correlation:  1.0000 wB97X-D
 Using Euler-Maclaurin-Lebedev (75,302) quadrature formula
 Dispersion:   Grimme D
 SCF converges when DIIS error is below 1.0E-05
 Basis2 calculation detected. Using small basis as guess for larger.
 SCFMinFind is unable to tell whether the solution found is close.
 Resetting ReadMinima to 0 and attempting to follow guess.
 SCFMinFind following SCF Guess.
 using 3 threads for integral computing
 -------------------------------------------------------
 OpenMP Integral computing Module                
 Release: version 1.0, May 2013, Q-Chem Inc. Pittsburgh 
 -------------------------------------------------------
 using 3 threads for integral computing
 -------------------------------------------------------
 OpenMP Integral computing Module                
 Release: version 1.0, May 2013, Q-Chem Inc. Pittsburgh 
 -------------------------------------------------------
 ---------------------------------------
  Cycle       Energy         DIIS Error
 ---------------------------------------
    1    -119.1085294754      4.21E-03
    2    -119.1305393831      6.07E-04 Done RCA. Switching to DIIS
    3    -119.1313881745      4.29E-04
    4    -119.1323958532      4.59E-05
    5    -119.1324110070      1.02E-05
    6    -119.1324117268      3.95E-06 Convergence criterion met
 ---------------------------------------
 SCF time:  CPU 69.94 s  wall 23.55 s
 SCF   energy in the final basis set = -119.13241173
 Total energy in the final basis set = -119.13241173
 
 --------------------------------------------------------------
 
                    Orbital Energies (a.u.)
 --------------------------------------------------------------
 
 Alpha MOs
 -- Occupied --
-10.2742 -10.2655 -10.2654  -0.8819  -0.7788  -0.6791  -0.5491  -0.5343
 -0.4808  -0.4535  -0.4301  -0.4159  -0.3927
 -- Virtual --
  0.0689   0.0849   0.0909   0.0993   0.1239   0.1301   0.1331   0.1421
  0.1430   0.1705   0.1723   0.1927   0.2255   0.2275   0.2586   0.2588
  0.2811   0.2878   0.3116   0.3124   0.3344   0.3496   0.4581   0.4655
  0.4708   0.5085   0.5173   0.5180   0.5474   0.5593   0.5840   0.5869
  0.6147   0.6297   0.6373   0.6382   0.6636   0.6654   0.7125   0.7242
  0.7316   0.7691   0.8053   0.8656   0.8697   0.8733   0.8888   0.9469
  0.9849   1.0454   1.0544   1.1345   1.1453   1.1732   1.1955   1.2084
  1.2407   1.2428   1.2640   1.2652   1.2922   1.3171   1.3286   1.3513
  1.3762   1.3885   1.4322   1.4466   1.4613   1.4700   1.4758   1.4897
  1.5139   1.5762   1.6137   1.6235   1.6332   1.6449   1.6897   1.6943
  1.7537   2.3924   2.4715   2.4752   2.5044   2.5454   2.5511   2.6024
  2.6357   2.7047   2.8121   2.8202   2.8376   2.8869   2.9115   2.9131
  2.9535   2.9626   2.9963   3.0163   3.0286   3.0598   3.0664   3.1088
  3.1427   3.1591   3.1718   3.1903   3.2010   3.2189   3.2682   3.2893
  3.2968   3.3463   3.3488   3.3653   3.3828   3.4008   3.4278   3.4687
  3.4900   3.5085   3.5223   3.5255   3.5548   3.5787   3.5796   3.6060
  3.6277   3.6406   3.6788   3.6987   3.7415   3.7616   3.8530   3.8746
  3.8843   3.9143   3.9157   3.9469   3.9589   3.9754   3.9867   4.0254
  4.0608   4.1049   4.1290   4.1370   4.1577   4.1951   4.2107   4.2190
  4.2258   4.2523   4.2819   4.3623   4.3715   4.4016   4.4326   4.4565
  4.4727   4.5791   4.6107   4.6258   4.6749   4.7621   4.7675   4.8500
  4.9334   4.9409   4.9773   4.9854   5.0109   5.0196   5.0355   5.0683
  5.1608   5.2073   5.2501   5.2596   5.3161   5.3199   5.3782   5.4242
  5.4448   5.4471   5.5031   5.5668   5.6125   5.6494   5.7162   5.7588
  5.9600   6.3302   6.3310   6.4218   6.4490   6.4722  25.2056  25.4402
 25.4564
 --------------------------------------------------------------
 
 -----------------------------------------------------------------
                    Cartesian Multipole Moments
 -----------------------------------------------------------------
    Charge (ESU x 10^10)
                -0.0000
    Dipole Moment (Debye)
         X       0.0000      Y      -0.0000      Z      -0.0727
       Tot       0.0727
    Quadrupole Moments (Debye-Ang)
        XX     -22.1387     XY      -1.0762     YY     -21.4011
        XZ      -0.0000     YZ       0.0000     ZZ     -21.9142
    Octopole Moments (Debye-Ang^2)
       XXX       0.0000    XXY      -0.0000    XYY       0.0000
       YYY      -0.0000    XXZ      -1.3210    XYZ       0.2980
       YYZ       0.4043    XZZ      -0.0000    YZZ       0.0000
       ZZZ      -0.3644
    Hexadecapole Moments (Debye-Ang^3)
      XXXX    -202.4169   XXXY      -5.6429   XXYY     -42.0937
      XYYY       0.1386   YYYY     -44.3422   XXXZ       0.0000
      XXYZ      -0.0000   XYYZ       0.0000   YYYZ       0.0000
      XXZZ     -45.6013   XYZZ       0.1520   YYZZ     -17.1762
      XZZZ      -0.0001   YZZZ       0.0000   ZZZZ     -72.3368
 -----------------------------------------------------------------
Archival summary:
1\1\cn0913\SP\ProcedureUnspecified\BasisUnspecified\38\r0852400\SunApr1206:43:322020SunApr1206:43:322020\0\\#,ProcedureUnspecified,BasisUnspecified,\\0,1\C\H,1,1.09259\H,1,1.09259,2,106.226\C,1,1.52405,2,109.871,3,117.862,0\H,4,1.08784,1,107.628,2,66.3017,0\H,4,1.09047,1,111.574,2,-67.652,0\H,4,1.09589,1,114.183,2,-174.353,0\C,1,1.52405,2,109.089,3,-118.38,0\H,8,1.08784,1,107.628,2,-177.628,0\H,8,1.09047,1,111.574,2,48.4187,0\H,8,1.09589,1,114.183,2,-58.2819,0\\\@

 Total job time:  34.99s(wall), 97.50s(cpu) 
 Sun Apr 12 06:43:32 2020

        *************************************************************
        *                                                           *
        *  Thank you very much for using Q-Chem.  Have a nice day.  *
        *                                                           *
        *************************************************************


