                  Welcome to Q-Chem
     A Quantum Leap Into The Future Of Chemistry


 Q-Chem 5.3 (devel), Q-Chem, Inc., Pleasanton, CA (2020)

 Yihan Shao,  Zhengting Gan,  E. Epifanovsky,  A. T. B. Gilbert,  M. Wormit,  
 J. Kussmann,  A. W. Lange,  A. Behn,  Jia Deng,  Xintian Feng,  D. Ghosh,  
 M. Goldey,  P. R. Horn,  L. D. Jacobson,  I. Kaliman,  T. Kus,  A. Landau,  
 Jie Liu,  E. I. Proynov,  R. M. Richard,  R. P. Steele,  E. J. Sundstrom,  
 H. L. Woodcock III,  P. M. Zimmerman,  D. Zuev,  B. Alam,  B. Albrecht,  
 E. Alguire,  S. A. Baeppler,  D. Barton,  Z. Benda,  Y. A. Bernard,  
 E. J. Berquist,  K. B. Bravaya,  H. Burton,  K. Carter-Fenk,  D. Casanova,  
 Chun-Min Chang,  Yunqing Chen,  A. Chien,  K. D. Closser,  M. P. Coons,  
 S. Coriani,  S. Dasgupta,  A. L. Dempwolff,  M. Diedenhofen,  Hainam Do,  
 R. G. Edgar,  Po-Tung Fang,  S. Faraji,  S. Fatehi,  Qingguo Feng,  
 J. Fosso-Tande,  J. Gayvert,  Qinghui Ge,  A. Ghysels,  G. Gidofalvi,  
 J. Gomes,  J. Gonthier,  A. Gunina,  D. Hait,  M. W. D. Hanson-Heine,  
 P. H. P. Harbach,  A. W. Hauser,  M. F. Herbst,  J. E. Herr,  
 E. G. Hohenstein,  Z. C. Holden,  Kerwin Hui,  B. C. Huynh,  T.-C. Jagau,  
 Hyunjun Ji,  B. Kaduk,  K. Khistyaev,  Jaehoon Kim,  P. Klunzinger,  K. Koh,  
 D. Kosenkov,  L. Koulias,  T. Kowalczyk,  C. M. Krauter,  A. Kunitsa,  
 Ka Un Lao,  A. Laurent,  K. V. Lawler,  Joonho Lee,  D. Lefrancois,  
 S. Lehtola,  D. S. Levine,  Yi-Pei Li,  You-Sheng Lin,  Fenglai Liu,  
 Kuan-Yu Liu,  E. Livshits,  M. Loipersberger,  A. Luenser,  P. Manohar,  
 E. Mansoor,  S. F. Manzer,  Shan-Ping Mao,  Yuezhi Mao,  N. Mardirossian,  
 A. V. Marenich,  T. Markovich,  L. A. Martinez-Martinez,  S. A. Maurer,  
 N. J. Mayhall,  S. C. McKenzie,  J.-M. Mewes,  P. Morgante,  A. F. Morrison,  
 J. W. Mullinax,  K. Nanda,  T. S. Nguyen-Beck,  R. Olivares-Amaya,  
 K. J. Oosterbaan,  J. A. Parkhill,  S. K. Paul,  F. Pavosevic,  Zheng Pei,  
 T. M. Perrine,  F. Plasser,  P. Pokhilko,  S. Prager,  A. Prociuk,  
 E. Ramos,  B. Rana,  D. R. Rehn,  F. Rob,  M. Scheurer,  M. Schneider,  
 N. Sergueev,  S. M. Sharada,  S. Sharma,  D. W. Small,  T. Stauch,  
 C. J. Stein,  T. Stein,  Yu-Chuan Su,  S. P. Veccham,  Zhen Tao,  
 A. J. W. Thom,  A. Tkatchenko,  T. Tsuchimochi,  N. M. Tubman,  L. Vogt,  
 M. L. Vidal,  O. Vydrov,  M. A. Watson,  J. Wenzel,  M. de Wergifosse,  
 T. A. Wesolowski,  A. White,  J. Witte,  A. Yamada,  Jun Yang,  K. Yao,  
 S. Yeganeh,  S. R. Yost,  Zhi-Qiang You,  A. Zech,  Igor Ying Zhang,  
 Xing Zhang,  Yan Zhao,  Ying Zhu,  B. R. Brooks,  G. K. L. Chan,  
 C. J. Cramer,  M. S. Gordon,  W. J. Hehre,  A. Klamt,  M. W. Schmidt,  
 C. D. Sherrill,  D. G. Truhlar,  A. Aspuru-Guzik,  R. Baer,  A. T. Bell,  
 N. A. Besley,  Jeng-Da Chai,  A. E. DePrince, III,  R. A. DiStasio Jr.,  
 A. Dreuw,  B. D. Dunietz,  T. R. Furlani,  Chao-Ping Hsu,  Yousung Jung,  
 Jing Kong,  D. S. Lambrecht,  WanZhen Liang,  C. Ochsenfeld,  
 V. A. Rassolov,  L. V. Slipchenko,  J. E. Subotnik,  T. Van Voorhis,  
 J. M. Herbert,  A. I. Krylov,  P. M. W. Gill,  M. Head-Gordon

 Contributors to earlier versions of Q-Chem not listed above: 
 R. D. Adamson,  B. Austin,  J. Baker,  G. J. O. Beran,  K. Brandhorst,  
 S. T. Brown,  E. F. C. Byrd,  A. K. Chakraborty,  C.-L. Cheng,  
 Siu Hung Chien,  D. M. Chipman,  D. L. Crittenden,  H. Dachsel,  
 R. J. Doerksen,  A. D. Dutoi,  L. Fusti-Molnar,  W. A. Goddard III,  
 A. Golubeva-Zadorozhnaya,  S. R. Gwaltney,  G. Hawkins,  A. Heyden,  
 S. Hirata,  G. Kedziora,  F. J. Keil,  C. Kelley,  Jihan Kim,  R. A. King,  
 R. Z. Khaliullin,  P. P. Korambath,  W. Kurlancheek,  A. M. Lee,  M. S. Lee,  
 S. V. Levchenko,  Ching Yeh Lin,  D. Liotard,  R. C. Lochan,  I. Lotan,  
 P. E. Maslen,  N. Nair,  D. P. O'Neill,  D. Neuhauser,  E. Neuscamman,  
 C. M. Oana,  R. Olson,  B. Peters,  R. Peverati,  P. A. Pieniazek,  
 Y. M. Rhee,  J. Ritchie,  M. A. Rohrdanz,  E. Rosta,  N. J. Russ,  
 H. F. Schaefer III,  N. E. Schultz,  N. Shenvi,  A. C. Simmonett,  A. Sodt,  
 D. Stuck,  K. S. Thanthiriwatte,  V. Vanovschi,  Tao Wang,  A. Warshel,  
 C. F. Williams,  Q. Wu,  X. Xu,  W. Zhang

 Please cite Q-Chem as follows:
 Y. Shao et al., Mol. Phys. 113, 184-215 (2015)
 DOI: 10.1080/00268976.2014.952696

 Q-Chem 5.3.0 for Intel X86 EM64T Linux

 Parts of Q-Chem use Armadillo 9.800.1 (Horizon Scraper).
 http://arma.sourceforge.net/

 Q-Chem begins on Thu Jul  2 06:11:07 2020  

Host: centos77-c1
0

     Scratch files written to /tmp/26650.centos77-h1/qchem83150//
Processing $rem in /opt/qchem-5.3.0-intel2020u1//config/preferences:
Processing $rem in /home/shihchengli/.qchemrc:

Checking the input file for inconsistencies... 	...done.

--------------------------------------------------------------
User input:
--------------------------------------------------------------
$rem
   JOBTYPE  sp
   EXCHANGE   omegaB97X-D
   BASIS   6-311+G(2df,2pd)
   max_scf_cycles   250
   geom_opt_max_cycles   1500
   basis2 6-31G*
   scf_algorithm rca_diis
   SYM_IGNORE  TRUE
   print_input   true
   geom_opt_dmax   80
   pop_mulliken false
   XC_GRID 000075000302
$end

$molecule
0 1
C       1.2594717695     -0.0000009082     0.2922542944
C       0.0000000823     -0.0000010017     -0.5622288030
H       1.3017399323     -0.8387571949     0.8988555009
H       1.3017399183     0.8387586090     0.8988575088
H       2.2613893401     -0.0000005828     -0.4053351320
C       -1.2594712334     -0.0000011041     0.2922548187
H       0.0000000320     -0.8908899742     -1.2329939463
H       -0.0000000882     0.8908908961     -1.2329957961
H       -1.3017393038     -0.8387560588     0.8988549701
H       -2.2613911227     -0.0000000250     -0.4053359902
H       -1.3017393870     0.8387580105     0.8988575935
$end
--------------------------------------------------------------
 ----------------------------------------------------------------
             Standard Nuclear Orientation (Angstroms)
    I     Atom           X                Y                Z
 ----------------------------------------------------------------
    1      C       1.2594717695    -0.0000009082     0.2922542944
    2      C       0.0000000823    -0.0000010017    -0.5622288030
    3      H       1.3017399323    -0.8387571949     0.8988555009
    4      H       1.3017399183     0.8387586090     0.8988575088
    5      H       2.2613893401    -0.0000005828    -0.4053351320
    6      C      -1.2594712334    -0.0000011041     0.2922548187
    7      H       0.0000000320    -0.8908899742    -1.2329939463
    8      H      -0.0000000882     0.8908908961    -1.2329957961
    9      H      -1.3017393038    -0.8387560588     0.8988549701
   10      H      -2.2613911227    -0.0000000250    -0.4053359902
   11      H      -1.3017393870     0.8387580105     0.8988575935
 ----------------------------------------------------------------
 Nuclear Repulsion Energy =          82.60172060 hartrees
 There are       13 alpha and       13 beta electrons
 Requested basis set is 6-311+G(2df,2pd)
 There are 72 shells and 214 basis functions

 Total QAlloc Memory Limit   2000 MB
 Mega-Array Size       188 MB
 MEM_STATIC part       192 MB

                       Distance Matrix (Angstroms)
             C (  1)   C (  2)   H (  3)   H (  4)   H (  5)   C (  6)
   C (  2)  1.521976
   H (  3)  1.035984  2.129039
   H (  4)  1.035988  2.129041  1.677516
   H (  5)  1.220848  2.266825  1.823555  1.823558
   C (  6)  2.518943  1.521976  2.762477  2.762478  3.589302
   H (  7)  2.169409  1.115172  2.498405  3.038256  2.567603  2.169409
   H (  8)  2.169411  1.115176  3.038256  2.498408  2.567604  2.169411
   H (  9)  2.762477  2.129038  2.603479  3.097121  3.885912  1.035983
   H ( 10)  3.589305  2.266827  3.885915  3.885916  4.522780  1.220851
   H ( 11)  2.762478  2.129041  3.097122  2.603479  3.885913  1.035988
             H (  7)   H (  8)   H (  9)   H ( 10)
   H (  8)  1.781781
   H (  9)  2.498404  3.038255
   H ( 10)  2.567604  2.567605  1.823556
   H ( 11)  3.038256  2.498408  1.677514  1.823559
 
 A cutoff of  1.0D-09 yielded   2530 shell pairs
 There are     22556 function pairs (     27737 Cartesian)
 Smallest overlap matrix eigenvalue = 8.38E-05

 Scale SEOQF with 1.000000e-01/1.000000e-01/1.000000e-01

 Standard Electronic Orientation quadrupole field applied
 Nucleus-field energy     =     0.0000000006 hartrees
 Requested basis set is 6-31G(d)
 There are 28 shells and 58 basis functions
 A cutoff of  1.0D-09 yielded    402 shell pairs
 There are      1773 function pairs (      1968 Cartesian)
 Smallest overlap matrix eigenvalue = 6.95E-03
 Guess from superposition of atomic densities
 Warning:  Energy on first SCF cycle will be non-variational
 SAD guess density has 26.000000 electrons
 Long-range K will be added via erf
 Coulomb attenuation parameter = 0.2 bohr**(-1)
 A restricted hybrid HF-DFT SCF calculation will be
 performed using Relaxed Constraint Minimization + Pulay DIIS
 Exchange:     0.2220 Hartree-Fock + 1.0000 wB97X-D + LR-HF
 Correlation:  1.0000 wB97X-D
 Using Euler-Maclaurin-Lebedev (75,302) quadrature formula
 Dispersion:   Grimme D
 SCF converges when DIIS error is below 1.0E-04
 using 3 threads for integral computing
 -------------------------------------------------------
 OpenMP Integral computing Module                
 Release: version 1.0, May 2013, Q-Chem Inc. Pittsburgh 
 -------------------------------------------------------
 using 3 threads for integral computing
 -------------------------------------------------------
 OpenMP Integral computing Module                
 Release: version 1.0, May 2013, Q-Chem Inc. Pittsburgh 
 -------------------------------------------------------
 ---------------------------------------
  Cycle       Energy         DIIS Error
 ---------------------------------------
    1    -119.5778122356      1.00E-01
    2    -119.0402475884      9.11E-03
    3    -119.0616696051      2.34E-03
    4    -119.0767072814      1.58E-03
    5    -119.0773191093      2.31E-04 Done RCA. Switching to DIIS
    6    -119.0777880629      1.70E-04
    7    -119.0778007741      4.20E-06 Convergence criterion met
 ---------------------------------------
 SCF time:  CPU 19.12 s  wall 6.91 s
 SCF   energy in the small basis set = -119.07780077
 Total energy in the small basis set = -119.07780077
 ----------------------------------------------------
  Cycle       Energy    
 ----------------------------------------------------
    1     -16.5248848100     -1.65E+01
 Long-range K will be added via erf
 Coulomb attenuation parameter = 0.2 bohr**(-1)
 A restricted hybrid HF-DFT SCF calculation will be
 performed using Relaxed Constraint Minimization + Pulay DIIS
 Exchange:     0.2220 Hartree-Fock + 1.0000 wB97X-D + LR-HF
 Correlation:  1.0000 wB97X-D
 Using Euler-Maclaurin-Lebedev (75,302) quadrature formula
 Dispersion:   Grimme D
 SCF converges when DIIS error is below 1.0E-05
 Basis2 calculation detected. Using small basis as guess for larger.
 SCFMinFind is unable to tell whether the solution found is close.
 Resetting ReadMinima to 0 and attempting to follow guess.
 SCFMinFind following SCF Guess.
 using 3 threads for integral computing
 -------------------------------------------------------
 OpenMP Integral computing Module                
 Release: version 1.0, May 2013, Q-Chem Inc. Pittsburgh 
 -------------------------------------------------------
 using 3 threads for integral computing
 -------------------------------------------------------
 OpenMP Integral computing Module                
 Release: version 1.0, May 2013, Q-Chem Inc. Pittsburgh 
 -------------------------------------------------------
 ---------------------------------------
  Cycle       Energy         DIIS Error
 ---------------------------------------
    1    -119.0974954135      4.21E-03
    2    -119.1194649696      5.82E-04 Done RCA. Switching to DIIS
    3    -119.1202299173      4.15E-04
    4    -119.1211806612      4.76E-05
    5    -119.1211966800      1.00E-05
    6    -119.1211973830      3.60E-06 Convergence criterion met
 ---------------------------------------
 SCF time:  CPU 50.61 s  wall 17.13 s
 SCF   energy in the final basis set = -119.12119738
 Total energy in the final basis set = -119.12119738
 
 --------------------------------------------------------------
 
                    Orbital Energies (a.u.)
 --------------------------------------------------------------
 
 Alpha MOs
 -- Occupied --
-10.2792 -10.2675 -10.2674  -0.8834  -0.7782  -0.6797  -0.5526  -0.5065
 -0.4851  -0.4797  -0.4167  -0.4111  -0.4051
 -- Virtual --
  0.0664   0.0880   0.0899   0.0981   0.1264   0.1287   0.1317   0.1427
  0.1431   0.1624   0.1715   0.1926   0.2203   0.2428   0.2534   0.2579
  0.2601   0.2888   0.3103   0.3159   0.3267   0.3576   0.4641   0.4651
  0.4652   0.5096   0.5111   0.5156   0.5530   0.5543   0.5867   0.5941
  0.5998   0.6184   0.6322   0.6423   0.6535   0.6597   0.7132   0.7217
  0.7428   0.7650   0.8205   0.8676   0.8739   0.8743   0.8752   0.9613
  0.9872   1.0331   1.0633   1.1119   1.1266   1.1703   1.1771   1.2258
  1.2388   1.2414   1.2692   1.2770   1.2789   1.2975   1.3233   1.3476
  1.3631   1.3738   1.3806   1.4509   1.4551   1.4663   1.4791   1.4874
  1.5070   1.5697   1.5944   1.6224   1.6478   1.6574   1.7050   1.7150
  1.7544   2.3328   2.4690   2.4751   2.5382   2.5405   2.6039   2.6080
  2.6181   2.7143   2.7814   2.8168   2.8404   2.8996   2.9081   2.9253
  2.9282   2.9445   2.9884   3.0188   3.0432   3.0632   3.0769   3.1027
  3.1142   3.1408   3.1464   3.1743   3.2216   3.2295   3.2643   3.2869
  3.2883   3.3386   3.3401   3.3643   3.3692   3.3825   3.3855   3.4098
  3.4421   3.4693   3.4738   3.4802   3.5248   3.5508   3.5605   3.6247
  3.6422   3.6472   3.6979   3.7361   3.7543   3.7592   3.8449   3.8663
  3.9190   3.9315   3.9536   3.9631   3.9745   4.0264   4.0318   4.0518
  4.0731   4.0994   4.1234   4.1243   4.1513   4.1597   4.1788   4.1869
  4.2135   4.2257   4.2820   4.3154   4.3779   4.3915   4.3981   4.4270
  4.4667   4.5503   4.5591   4.5781   4.6108   4.6967   4.7976   4.8371
  4.8610   4.8952   4.9676   4.9918   5.0129   5.0219   5.0301   5.0376
  5.0747   5.2232   5.2406   5.2938   5.3197   5.3711   5.3997   5.4117
  5.4223   5.4233   5.4640   5.5407   5.5839   5.6058   5.6568   5.7594
  5.9167   6.2302   6.2740   6.3959   6.5063   6.5174  25.1368  25.4060
 25.4087
 --------------------------------------------------------------
 
 -----------------------------------------------------------------
                    Cartesian Multipole Moments
 -----------------------------------------------------------------
    Charge (ESU x 10^10)
                 0.0000
    Dipole Moment (Debye)
         X       0.0000      Y      -0.0000      Z       0.1415
       Tot       0.1415
    Quadrupole Moments (Debye-Ang)
        XX     -22.7038     XY      -0.0000     YY     -21.4159
        XZ      -0.0000     YZ      -0.0000     ZZ     -21.7284
    Octopole Moments (Debye-Ang^2)
       XXX       0.0000    XXY       0.0000    XYY       0.0000
       YYY       0.0000    XXZ      -1.4428    XYZ       0.0000
       YYZ       0.4009    XZZ      -0.0000    YZZ       0.0000
       ZZZ      -0.4109
    Hexadecapole Moments (Debye-Ang^3)
      XXXX    -212.1351   XXXY      -0.0000   XXYY     -43.4935
      XYYY       0.0000   YYYY     -42.3627   XXXZ      -0.0000
      XXYZ      -0.0000   XYYZ      -0.0000   YYYZ      -0.0000
      XXZZ     -46.0891   XYZZ       0.0000   YYZZ     -16.7853
      XZZZ      -0.0000   YZZZ      -0.0000   ZZZZ     -71.5239
 -----------------------------------------------------------------
Archival summary:
1\1\centos77-c1\SP\ProcedureUnspecified\BasisUnspecified\38\shihchen\ThuJul206:11:332020ThuJul206:11:332020\0\\#,ProcedureUnspecified,BasisUnspecified,\\0,1\C\H,1,1.11517\H,1,1.11518,2,106.047\C,1,1.52198,2,109.736,3,118.458,0\H,4,1.03598,1,111.254,2,61.6164,0\H,4,1.03599,1,111.254,2,-177.766,0\H,4,1.22085,1,110.997,2,-58.0748,0\C,1,1.52198,2,109.736,3,-118.458,0\H,8,1.03598,1,111.254,2,-61.6164,0\H,8,1.03599,1,111.254,2,177.766,0\H,8,1.22085,1,110.998,2,58.0748,0\\\@

 Total job time:  26.93s(wall), 73.33s(cpu) 
 Thu Jul  2 06:11:33 2020

        *************************************************************
        *                                                           *
        *  Thank you very much for using Q-Chem.  Have a nice day.  *
        *                                                           *
        *************************************************************


