                  Welcome to Q-Chem
     A Quantum Leap Into The Future Of Chemistry


 Q-Chem 5.3 (devel), Q-Chem, Inc., Pleasanton, CA (2020)

 Yihan Shao,  Zhengting Gan,  E. Epifanovsky,  A. T. B. Gilbert,  M. Wormit,  
 J. Kussmann,  A. W. Lange,  A. Behn,  Jia Deng,  Xintian Feng,  D. Ghosh,  
 M. Goldey,  P. R. Horn,  L. D. Jacobson,  I. Kaliman,  T. Kus,  A. Landau,  
 Jie Liu,  E. I. Proynov,  R. M. Richard,  R. P. Steele,  E. J. Sundstrom,  
 H. L. Woodcock III,  P. M. Zimmerman,  D. Zuev,  B. Alam,  B. Albrecht,  
 E. Alguire,  S. A. Baeppler,  D. Barton,  Z. Benda,  Y. A. Bernard,  
 E. J. Berquist,  K. B. Bravaya,  H. Burton,  K. Carter-Fenk,  D. Casanova,  
 Chun-Min Chang,  Yunqing Chen,  A. Chien,  K. D. Closser,  M. P. Coons,  
 S. Coriani,  S. Dasgupta,  A. L. Dempwolff,  M. Diedenhofen,  Hainam Do,  
 R. G. Edgar,  Po-Tung Fang,  S. Faraji,  S. Fatehi,  Qingguo Feng,  
 J. Fosso-Tande,  J. Gayvert,  Qinghui Ge,  A. Ghysels,  G. Gidofalvi,  
 J. Gomes,  J. Gonthier,  A. Gunina,  D. Hait,  M. W. D. Hanson-Heine,  
 P. H. P. Harbach,  A. W. Hauser,  M. F. Herbst,  J. E. Herr,  
 E. G. Hohenstein,  Z. C. Holden,  Kerwin Hui,  B. C. Huynh,  T.-C. Jagau,  
 Hyunjun Ji,  B. Kaduk,  K. Khistyaev,  Jaehoon Kim,  P. Klunzinger,  K. Koh,  
 D. Kosenkov,  L. Koulias,  T. Kowalczyk,  C. M. Krauter,  A. Kunitsa,  
 Ka Un Lao,  A. Laurent,  K. V. Lawler,  Joonho Lee,  D. Lefrancois,  
 S. Lehtola,  D. S. Levine,  Yi-Pei Li,  You-Sheng Lin,  Fenglai Liu,  
 Kuan-Yu Liu,  E. Livshits,  M. Loipersberger,  A. Luenser,  P. Manohar,  
 E. Mansoor,  S. F. Manzer,  Shan-Ping Mao,  Yuezhi Mao,  N. Mardirossian,  
 A. V. Marenich,  T. Markovich,  L. A. Martinez-Martinez,  S. A. Maurer,  
 N. J. Mayhall,  S. C. McKenzie,  J.-M. Mewes,  P. Morgante,  A. F. Morrison,  
 J. W. Mullinax,  K. Nanda,  T. S. Nguyen-Beck,  R. Olivares-Amaya,  
 K. J. Oosterbaan,  J. A. Parkhill,  S. K. Paul,  F. Pavosevic,  Zheng Pei,  
 T. M. Perrine,  F. Plasser,  P. Pokhilko,  S. Prager,  A. Prociuk,  
 E. Ramos,  B. Rana,  D. R. Rehn,  F. Rob,  M. Scheurer,  M. Schneider,  
 N. Sergueev,  S. M. Sharada,  S. Sharma,  D. W. Small,  T. Stauch,  
 C. J. Stein,  T. Stein,  Yu-Chuan Su,  S. P. Veccham,  Zhen Tao,  
 A. J. W. Thom,  A. Tkatchenko,  T. Tsuchimochi,  N. M. Tubman,  L. Vogt,  
 M. L. Vidal,  O. Vydrov,  M. A. Watson,  J. Wenzel,  M. de Wergifosse,  
 T. A. Wesolowski,  A. White,  J. Witte,  A. Yamada,  Jun Yang,  K. Yao,  
 S. Yeganeh,  S. R. Yost,  Zhi-Qiang You,  A. Zech,  Igor Ying Zhang,  
 Xing Zhang,  Yan Zhao,  Ying Zhu,  B. R. Brooks,  G. K. L. Chan,  
 C. J. Cramer,  M. S. Gordon,  W. J. Hehre,  A. Klamt,  M. W. Schmidt,  
 C. D. Sherrill,  D. G. Truhlar,  A. Aspuru-Guzik,  R. Baer,  A. T. Bell,  
 N. A. Besley,  Jeng-Da Chai,  A. E. DePrince, III,  R. A. DiStasio Jr.,  
 A. Dreuw,  B. D. Dunietz,  T. R. Furlani,  Chao-Ping Hsu,  Yousung Jung,  
 Jing Kong,  D. S. Lambrecht,  WanZhen Liang,  C. Ochsenfeld,  
 V. A. Rassolov,  L. V. Slipchenko,  J. E. Subotnik,  T. Van Voorhis,  
 J. M. Herbert,  A. I. Krylov,  P. M. W. Gill,  M. Head-Gordon

 Contributors to earlier versions of Q-Chem not listed above: 
 R. D. Adamson,  B. Austin,  J. Baker,  G. J. O. Beran,  K. Brandhorst,  
 S. T. Brown,  E. F. C. Byrd,  A. K. Chakraborty,  C.-L. Cheng,  
 Siu Hung Chien,  D. M. Chipman,  D. L. Crittenden,  H. Dachsel,  
 R. J. Doerksen,  A. D. Dutoi,  L. Fusti-Molnar,  W. A. Goddard III,  
 A. Golubeva-Zadorozhnaya,  S. R. Gwaltney,  G. Hawkins,  A. Heyden,  
 S. Hirata,  G. Kedziora,  F. J. Keil,  C. Kelley,  Jihan Kim,  R. A. King,  
 R. Z. Khaliullin,  P. P. Korambath,  W. Kurlancheek,  A. M. Lee,  M. S. Lee,  
 S. V. Levchenko,  Ching Yeh Lin,  D. Liotard,  R. C. Lochan,  I. Lotan,  
 P. E. Maslen,  N. Nair,  D. P. O'Neill,  D. Neuhauser,  E. Neuscamman,  
 C. M. Oana,  R. Olson,  B. Peters,  R. Peverati,  P. A. Pieniazek,  
 Y. M. Rhee,  J. Ritchie,  M. A. Rohrdanz,  E. Rosta,  N. J. Russ,  
 H. F. Schaefer III,  N. E. Schultz,  N. Shenvi,  A. C. Simmonett,  A. Sodt,  
 D. Stuck,  K. S. Thanthiriwatte,  V. Vanovschi,  Tao Wang,  A. Warshel,  
 C. F. Williams,  Q. Wu,  X. Xu,  W. Zhang

 Please cite Q-Chem as follows:
 Y. Shao et al., Mol. Phys. 113, 184-215 (2015)
 DOI: 10.1080/00268976.2014.952696

 Q-Chem 5.3.0 for Intel X86 EM64T Linux

 Parts of Q-Chem use Armadillo 9.800.1 (Horizon Scraper).
 http://arma.sourceforge.net/

 Q-Chem begins on Thu Jul  2 05:18:38 2020  

Host: centos77-c1
0

     Scratch files written to /tmp/26650.centos77-h1/qchem78256//
Processing $rem in /opt/qchem-5.3.0-intel2020u1//config/preferences:
Processing $rem in /home/shihchengli/.qchemrc:

Checking the input file for inconsistencies... 	...done.

--------------------------------------------------------------
User input:
--------------------------------------------------------------
$rem
   JOBTYPE  sp
   EXCHANGE   omegaB97X-D
   BASIS   6-311+G(2df,2pd)
   max_scf_cycles   250
   geom_opt_max_cycles   1500
   basis2 6-31G*
   scf_algorithm rca_diis
   SYM_IGNORE  TRUE
   print_input   true
   geom_opt_dmax   80
   pop_mulliken false
   XC_GRID 000075000302
$end

$molecule
0 1
C       1.2959529968     -0.0000000402     0.2653525328
C       0.0047350775     0.0000000962     -0.5863339062
H       1.2685939944     -0.8921835773     0.8920097442
H       1.2685941422     0.8921835046     0.8920097485
H       2.1566293756     -0.0000000000     -0.4016014370
C       -1.2388505364     0.0000001221     0.2547120448
H       0.0453669416     -0.8732268772     -1.2417577353
H       0.0453667817     0.8732270164     -1.2417578056
H       -1.3387309594     -0.8669167320     0.9130384634
H       -2.1689273332     0.0000002317     -0.3176652004
H       -1.3387305416     0.8669169218     0.9130385698
$end
--------------------------------------------------------------
 ----------------------------------------------------------------
             Standard Nuclear Orientation (Angstroms)
    I     Atom           X                Y                Z
 ----------------------------------------------------------------
    1      C       1.2959529968    -0.0000000402     0.2653525328
    2      C       0.0047350775     0.0000000962    -0.5863339062
    3      H       1.2685939944    -0.8921835773     0.8920097442
    4      H       1.2685941422     0.8921835046     0.8920097485
    5      H       2.1566293756     0.0000000000    -0.4016014370
    6      C      -1.2388505364     0.0000001221     0.2547120448
    7      H       0.0453669416    -0.8732268772    -1.2417577353
    8      H       0.0453667817     0.8732270164    -1.2417578056
    9      H      -1.3387309594    -0.8669167320     0.9130384634
   10      H      -2.1689273332     0.0000002317    -0.3176652004
   11      H      -1.3387305416     0.8669169218     0.9130385698
 ----------------------------------------------------------------
 Nuclear Repulsion Energy =          82.75939179 hartrees
 There are       13 alpha and       13 beta electrons
 Requested basis set is 6-311+G(2df,2pd)
 There are 72 shells and 214 basis functions

 Total QAlloc Memory Limit   2000 MB
 Mega-Array Size       188 MB
 MEM_STATIC part       192 MB

                       Distance Matrix (Angstroms)
             C (  1)   C (  2)   H (  3)   H (  4)   H (  5)   C (  6)
   C (  2)  1.546808
   H (  3)  1.090614  2.139820
   H (  4)  1.090614  2.139820  1.784367
   H (  5)  1.088849  2.159809  1.805001  1.805001
   C (  6)  2.534826  1.501287  2.736680  2.736680  3.458328
   H (  7)  2.144265  1.092592  2.459595  3.027527  2.434300  2.156655
   H (  8)  2.144265  1.092592  3.027528  2.459595  2.434300  2.156655
   H (  9)  2.848263  2.191931  2.607532  3.145317  3.833714  1.093121
   H ( 10)  3.513589  2.190203  3.751781  3.751781  4.326371  1.092089
   H ( 11)  2.848263  2.191931  3.145317  2.607532  3.833714  1.093121
             H (  7)   H (  8)   H (  9)   H ( 10)
   H (  8)  1.746454
   H (  9)  2.561038  3.096284
   H ( 10)  2.553345  2.553345  1.719128
   H ( 11)  3.096284  2.561037  1.733834  1.719129
 
 A cutoff of  1.0D-09 yielded   2533 shell pairs
 There are     22585 function pairs (     27769 Cartesian)
 Smallest overlap matrix eigenvalue = 8.61E-05

 Scale SEOQF with 1.000000e-01/1.000000e-01/1.000000e-01

 Standard Electronic Orientation quadrupole field applied
 Nucleus-field energy     =     0.0000000006 hartrees
 Requested basis set is 6-31G(d)
 There are 28 shells and 58 basis functions
 A cutoff of  1.0D-09 yielded    402 shell pairs
 There are      1773 function pairs (      1968 Cartesian)
 Smallest overlap matrix eigenvalue = 6.79E-03
 Guess from superposition of atomic densities
 Warning:  Energy on first SCF cycle will be non-variational
 SAD guess density has 26.000000 electrons
 Long-range K will be added via erf
 Coulomb attenuation parameter = 0.2 bohr**(-1)
 A restricted hybrid HF-DFT SCF calculation will be
 performed using Relaxed Constraint Minimization + Pulay DIIS
 Exchange:     0.2220 Hartree-Fock + 1.0000 wB97X-D + LR-HF
 Correlation:  1.0000 wB97X-D
 Using Euler-Maclaurin-Lebedev (75,302) quadrature formula
 Dispersion:   Grimme D
 SCF converges when DIIS error is below 1.0E-04
 using 3 threads for integral computing
 -------------------------------------------------------
 OpenMP Integral computing Module                
 Release: version 1.0, May 2013, Q-Chem Inc. Pittsburgh 
 -------------------------------------------------------
 using 3 threads for integral computing
 -------------------------------------------------------
 OpenMP Integral computing Module                
 Release: version 1.0, May 2013, Q-Chem Inc. Pittsburgh 
 -------------------------------------------------------
 ---------------------------------------
  Cycle       Energy         DIIS Error
 ---------------------------------------
    1    -119.6220968270      1.00E-01
    2    -119.0634168612      9.02E-03
    3    -119.0845612799      2.47E-03
    4    -119.0984929272      1.69E-03
    5    -119.0991943882      2.66E-04 Done RCA. Switching to DIIS
    6    -119.0997101877      1.98E-04
    7    -119.0997271203      4.72E-06 Convergence criterion met
 ---------------------------------------
 SCF time:  CPU 18.75 s  wall 6.68 s
 SCF   energy in the small basis set = -119.09972712
 Total energy in the small basis set = -119.09972712
 ----------------------------------------------------
  Cycle       Energy    
 ----------------------------------------------------
    1     -16.5395609198     -1.65E+01
 Long-range K will be added via erf
 Coulomb attenuation parameter = 0.2 bohr**(-1)
 A restricted hybrid HF-DFT SCF calculation will be
 performed using Relaxed Constraint Minimization + Pulay DIIS
 Exchange:     0.2220 Hartree-Fock + 1.0000 wB97X-D + LR-HF
 Correlation:  1.0000 wB97X-D
 Using Euler-Maclaurin-Lebedev (75,302) quadrature formula
 Dispersion:   Grimme D
 SCF converges when DIIS error is below 1.0E-05
 Basis2 calculation detected. Using small basis as guess for larger.
 SCFMinFind is unable to tell whether the solution found is close.
 Resetting ReadMinima to 0 and attempting to follow guess.
 SCFMinFind following SCF Guess.
 using 3 threads for integral computing
 -------------------------------------------------------
 OpenMP Integral computing Module                
 Release: version 1.0, May 2013, Q-Chem Inc. Pittsburgh 
 -------------------------------------------------------
 using 3 threads for integral computing
 -------------------------------------------------------
 OpenMP Integral computing Module                
 Release: version 1.0, May 2013, Q-Chem Inc. Pittsburgh 
 -------------------------------------------------------
 ---------------------------------------
  Cycle       Energy         DIIS Error
 ---------------------------------------
    1    -119.1189695895      4.21E-03
    2    -119.1410128732      5.99E-04 Done RCA. Switching to DIIS
    3    -119.1418486790      4.21E-04
    4    -119.1428175743      4.60E-05
    5    -119.1428324739      1.08E-05
    6    -119.1428332240      4.15E-06 Convergence criterion met
 ---------------------------------------
 SCF time:  CPU 50.12 s  wall 16.86 s
 SCF   energy in the final basis set = -119.14283322
 Total energy in the final basis set = -119.14283322
 
 --------------------------------------------------------------
 
                    Orbital Energies (a.u.)
 --------------------------------------------------------------
 
 Alpha MOs
 -- Occupied --
-10.2741 -10.2659 -10.2647  -0.8817  -0.7776  -0.6779  -0.5460  -0.5266
 -0.4807  -0.4635  -0.4303  -0.4071  -0.4056
 -- Virtual --
  0.0689   0.0854   0.0914   0.0990   0.1249   0.1301   0.1333   0.1423
  0.1432   0.1706   0.1720   0.1916   0.2327   0.2407   0.2410   0.2682
  0.2800   0.2829   0.3082   0.3132   0.3342   0.3526   0.4589   0.4667
  0.4700   0.5096   0.5130   0.5185   0.5449   0.5620   0.5788   0.5913
  0.6202   0.6273   0.6413   0.6470   0.6561   0.6573   0.7097   0.7254
  0.7265   0.7665   0.8137   0.8616   0.8668   0.8758   0.8896   0.9582
  1.0032   1.0525   1.0548   1.1230   1.1482   1.1816   1.1851   1.2164
  1.2313   1.2344   1.2706   1.2761   1.2793   1.3087   1.3274   1.3790
  1.3817   1.3923   1.4004   1.4461   1.4671   1.4692   1.4782   1.4787
  1.5194   1.5733   1.6119   1.6122   1.6188   1.6463   1.6841   1.7189
  1.7491   2.3770   2.4574   2.4889   2.5036   2.5479   2.5603   2.6153
  2.6212   2.7133   2.8176   2.8343   2.8345   2.9111   2.9262   2.9305
  2.9377   2.9454   3.0003   3.0127   3.0259   3.0561   3.0897   3.1037
  3.1364   3.1412   3.1841   3.1968   3.2081   3.2234   3.2824   3.2951
  3.3318   3.3445   3.3461   3.3592   3.3692   3.3772   3.4015   3.4374
  3.4738   3.4740   3.4957   3.5260   3.5625   3.5770   3.5996   3.6091
  3.6175   3.6567   3.6753   3.7021   3.7829   3.8035   3.8698   3.8866
  3.8929   3.9260   3.9477   3.9883   3.9987   3.9988   4.0439   4.0607
  4.0765   4.1052   4.1238   4.1275   4.1383   4.1671   4.1908   4.2093
  4.2337   4.2622   4.2660   4.3743   4.3939   4.3986   4.4123   4.4391
  4.4488   4.5807   4.5920   4.6099   4.6725   4.8096   4.8174   4.8262
  4.9203   4.9509   4.9683   5.0088   5.0313   5.0522   5.0680   5.1067
  5.1246   5.1804   5.2278   5.2801   5.2951   5.3404   5.3657   5.3933
  5.4085   5.4659   5.4909   5.5154   5.5622   5.5671   5.6343   5.7448
  5.9614   6.3647   6.3739   6.4053   6.4302   6.4630  25.2043  25.4414
 25.4554
 --------------------------------------------------------------
 
 -----------------------------------------------------------------
                    Cartesian Multipole Moments
 -----------------------------------------------------------------
    Charge (ESU x 10^10)
                 0.0000
    Dipole Moment (Debye)
         X      -0.0630      Y      -0.0000      Z      -0.0914
       Tot       0.1110
    Quadrupole Moments (Debye-Ang)
        XX     -22.1747     XY       0.0000     YY     -21.3761
        XZ      -0.4899     YZ      -0.0000     ZZ     -21.8622
    Octopole Moments (Debye-Ang^2)
       XXX      -1.9958    XXY      -0.0000    XYY      -0.2099
       YYY      -0.0000    XXZ      -1.5694    XYZ       0.0000
       YYZ       0.4659    XZZ      -0.2565    YZZ      -0.0000
       ZZZ      -0.4672
    Hexadecapole Moments (Debye-Ang^3)
      XXXX    -202.3911   XXXY       0.0000   XXYY     -42.2574
      XYYY       0.0000   YYYY     -44.1139   XXXZ      -1.7614
      XXYZ      -0.0000   XYYZ      -0.0051   YYYZ       0.0000
      XXZZ     -45.3027   XYZZ       0.0000   YYZZ     -17.0970
      XZZZ      -0.1623   YZZZ       0.0000   ZZZZ     -72.2266
 -----------------------------------------------------------------
Archival summary:
1\1\centos77-c1\SP\ProcedureUnspecified\BasisUnspecified\38\shihchen\ThuJul205:19:042020ThuJul205:19:042020\0\\#,ProcedureUnspecified,BasisUnspecified,\\0,1\C\H,1,1.09259\H,1,1.09259,2,106.112\C,1,1.50129,2,111.523,3,-121.629,0\H,4,1.09209,1,114.321,2,59.219,0\H,4,1.09312,1,114.398,2,-60.2254,0\H,4,1.09312,1,114.398,2,178.663,0\C,1,1.54681,2,107.413,3,114.648,0\H,8,1.08885,1,108.818,2,-56.8886,0\H,8,1.09061,1,107.184,2,-177.987,0\H,8,1.09061,1,107.184,2,64.2102,0\\\@

 Total job time:  26.43s(wall), 72.43s(cpu) 
 Thu Jul  2 05:19:04 2020

        *************************************************************
        *                                                           *
        *  Thank you very much for using Q-Chem.  Have a nice day.  *
        *                                                           *
        *************************************************************


