                  Welcome to Q-Chem
     A Quantum Leap Into The Future Of Chemistry


 Q-Chem 5.2 (devel), Q-Chem, Inc., Pleasanton, CA (2019)

 Yihan Shao,  Zhengting Gan,  E. Epifanovsky,  A. T. B. Gilbert,  M. Wormit,  
 J. Kussmann,  A. W. Lange,  A. Behn,  Jia Deng,  Xintian Feng,  D. Ghosh,  
 M. Goldey,  P. R. Horn,  L. D. Jacobson,  I. Kaliman,  T. Kus,  A. Landau,  
 Jie Liu,  E. I. Proynov,  R. M. Richard,  R. P. Steele,  E. J. Sundstrom,  
 H. L. Woodcock III,  P. M. Zimmerman,  D. Zuev,  B. Alam,  B. Albrecht,  
 E. Alguire,  S. A. Baeppler,  D. Barton,  Z. Benda,  Y. A. Bernard,  
 E. J. Berquist,  K. B. Bravaya,  H. Burton,  K. Carter-Fenk,  D. Casanova,  
 Chun-Min Chang,  Yunqing Chen,  A. Chien,  K. D. Closser,  M. P. Coons,  
 S. Coriani,  S. Dasgupta,  A. L. Dempwolff,  M. Diedenhofen,  Hainam Do,  
 R. G. Edgar,  Po-Tung Fang,  S. Faraji,  S. Fatehi,  Qingguo Feng,  
 J. Fosso-Tande,  J. Gayvert,  Qinghui Ge,  A. Ghysels,  G. Gidofalvi,  
 J. Gomes,  J. Gonthier,  A. Gunina,  D. Hait,  M. W. D. Hanson-Heine,  
 P. H. P. Harbach,  A. W. Hauser,  M. F. Herbst,  J. E. Herr,  
 E. G. Hohenstein,  Z. C. Holden,  Kerwin Hui,  B. C. Huynh,  T.-C. Jagau,  
 Hyunjun Ji,  B. Kaduk,  K. Khistyaev,  Jaehoon Kim,  P. Klunzinger,  K. Koh,  
 D. Kosenkov,  L. Koulias,  T. Kowalczyk,  C. M. Krauter,  A. Kunitsa,  
 Ka Un Lao,  A. Laurent,  K. V. Lawler,  Joonho Lee,  D. Lefrancois,  
 S. Lehtola,  D. S. Levine,  Yi-Pei Li,  You-Sheng Lin,  Fenglai Liu,  
 Kuan-Yu Liu,  E. Livshits,  M. Loipersberger,  A. Luenser,  P. Manohar,  
 E. Mansoor,  S. F. Manzer,  Shan-Ping Mao,  Yuezhi Mao,  N. Mardirossian,  
 A. V. Marenich,  T. Markovich,  L. A. Martinez-Martinez,  S. A. Maurer,  
 N. J. Mayhall,  S. C. McKenzie,  J.-M. Mewes,  P. Morgante,  A. F. Morrison,  
 J. W. Mullinax,  K. Nanda,  T. S. Nguyen-Beck,  R. Olivares-Amaya,  
 J. A. Parkhill,  S. K. Paul,  Zheng Pei,  T. M. Perrine,  F. Plasser,  
 P. Pokhilko,  S. Prager,  A. Prociuk,  E. Ramos,  B. Rana,  D. R. Rehn,  
 F. Rob,  M. Scheurer,  M. Schneider,  N. Sergueev,  S. M. Sharada,  
 S. Sharma,  D. W. Small,  T. Stauch,  C. J. Stein,  T. Stein,  Yu-Chuan Su,  
 S. P. Veccham,  A. J. W. Thom,  A. Tkatchenko,  T. Tsuchimochi,  
 N. M. Tubman,  L. Vogt,  M. L. Vidal,  O. Vydrov,  M. A. Watson,  J. Wenzel,  
 M. de Wergifosse,  T. A. Wesolowski,  A. White,  J. Witte,  A. Yamada,  
 Jun Yang,  K. Yao,  S. Yeganeh,  S. R. Yost,  Zhi-Qiang You,  A. Zech,  
 Igor Ying Zhang,  Xing Zhang,  Yan Zhao,  Ying Zhu,  B. R. Brooks,  
 G. K. L. Chan,  C. J. Cramer,  M. S. Gordon,  W. J. Hehre,  A. Klamt,  
 M. W. Schmidt,  C. D. Sherrill,  D. G. Truhlar,  A. Aspuru-Guzik,  R. Baer,  
 A. T. Bell,  N. A. Besley,  Jeng-Da Chai,  A. E. DePrince, III,  
 R. A. DiStasio Jr.,  A. Dreuw,  B. D. Dunietz,  T. R. Furlani,  
 Chao-Ping Hsu,  Yousung Jung,  Jing Kong,  D. S. Lambrecht,  WanZhen Liang,  
 C. Ochsenfeld,  V. A. Rassolov,  L. V. Slipchenko,  J. E. Subotnik,  
 T. Van Voorhis,  J. M. Herbert,  A. I. Krylov,  P. M. W. Gill,  M. Head-Gordon

 Contributors to earlier versions of Q-Chem not listed above: 
 R. D. Adamson,  B. Austin,  J. Baker,  G. J. O. Beran,  K. Brandhorst,  
 S. T. Brown,  E. F. C. Byrd,  A. K. Chakraborty,  C.-L. Cheng,  
 Siu Hung Chien,  D. M. Chipman,  D. L. Crittenden,  H. Dachsel,  
 R. J. Doerksen,  A. D. Dutoi,  L. Fusti-Molnar,  W. A. Goddard III,  
 A. Golubeva-Zadorozhnaya,  S. R. Gwaltney,  G. Hawkins,  A. Heyden,  
 S. Hirata,  G. Kedziora,  F. J. Keil,  C. Kelley,  Jihan Kim,  R. A. King,  
 R. Z. Khaliullin,  P. P. Korambath,  W. Kurlancheek,  A. M. Lee,  M. S. Lee,  
 S. V. Levchenko,  Ching Yeh Lin,  D. Liotard,  R. C. Lochan,  I. Lotan,  
 P. E. Maslen,  N. Nair,  D. P. O'Neill,  D. Neuhauser,  E. Neuscamman,  
 C. M. Oana,  R. Olson,  B. Peters,  R. Peverati,  P. A. Pieniazek,  
 Y. M. Rhee,  J. Ritchie,  M. A. Rohrdanz,  E. Rosta,  N. J. Russ,  
 H. F. Schaefer III,  N. E. Schultz,  N. Shenvi,  A. C. Simmonett,  A. Sodt,  
 D. Stuck,  K. S. Thanthiriwatte,  V. Vanovschi,  Tao Wang,  A. Warshel,  
 C. F. Williams,  Q. Wu,  X. Xu,  W. Zhang

 Please cite Q-Chem as follows:
 Y. Shao et al., Mol. Phys. 113, 184-215 (2015)
 DOI: 10.1080/00268976.2014.952696

 Q-Chem 5.2.2 for Intel X86 EM64T Linux

 Parts of Q-Chem use Armadillo 9.800.1 (Horizon Scraper).
 http://arma.sourceforge.net/

 Q-Chem begins on Sun Apr 12 06:36:34 2020  

Host: cn0913
0

     Scratch files written to /tmp/ypli/6721341.srvc1/qchem236552//
Warning:  Did not find "$end" marker in "$molecule" section

Checking the input file for inconsistencies... 	...done.

--------------------------------------------------------------
User input:
--------------------------------------------------------------
$rem
   JOBTYPE  sp
   EXCHANGE   omegaB97X-D
   BASIS   6-311+G(2df,2pd)
   max_scf_cycles   250
   geom_opt_max_cycles   1500
   basis2 6-31G*
   scf_algorithm rca_diis
   SYM_IGNORE  TRUE
   print_input   true
   geom_opt_dmax   80
   pop_mulliken false
   XC_GRID 000075000302
$end

$molecule
0 1
C       1.2558134158     -0.0000000249     0.2369382877
C       -0.0000001938     -0.0000000424     -0.6004128082
H       1.3511337873     -0.8580130538     0.9076487808
H       1.3511337443     0.8580130225     0.9076487582
H       2.1904700796     -0.0000000376     -0.3274025705
C       -1.2558139344     -0.0000000087     0.2369384682
H       -0.0000000779     -0.8746373973     -1.2541042111
H       -0.0000003112     0.8746373649     -1.2541041305
H       -1.3511331533     -0.8580131329     0.9076489444
H       -2.1904699316     0.0000008303     -0.3274033676
H       -1.3511334855     0.8580131460     0.9076488675
--------------------------------------------------------------
 ----------------------------------------------------------------
             Standard Nuclear Orientation (Angstroms)
    I     Atom           X                Y                Z
 ----------------------------------------------------------------
    1      C       1.2558134158    -0.0000000249     0.2369382877
    2      C      -0.0000001938    -0.0000000424    -0.6004128082
    3      H       1.3511337873    -0.8580130538     0.9076487808
    4      H       1.3511337443     0.8580130225     0.9076487582
    5      H       2.1904700796    -0.0000000376    -0.3274025705
    6      C      -1.2558139344    -0.0000000087     0.2369384682
    7      H      -0.0000000779    -0.8746373973    -1.2541042111
    8      H      -0.0000003112     0.8746373649    -1.2541041305
    9      H      -1.3511331533    -0.8580131329     0.9076489444
   10      H      -2.1904699316     0.0000008303    -0.3274033676
   11      H      -1.3511334855     0.8580131460     0.9076488675
 ----------------------------------------------------------------
 Nuclear Repulsion Energy =          82.87600047 hartrees
 There are       13 alpha and       13 beta electrons
 Requested basis set is 6-311+G(2df,2pd)
 There are 72 shells and 214 basis functions

 Total QAlloc Memory Limit   2000 MB
 Mega-Array Size       188 MB
 MEM_STATIC part       192 MB

                       Distance Matrix (Angstroms)
             C (  1)   C (  2)   H (  3)   H (  4)   H (  5)   C (  6)
   C (  2)  1.509379
   H (  3)  1.093218  2.199091
   H (  4)  1.093218  2.199090  1.716026
   H (  5)  1.091817  2.207418  1.722215  1.722215
   C (  6)  2.511627  1.509379  2.825281  2.825281  3.492185
   H (  7)  2.136648  1.091926  2.549317  3.082339  2.534152  2.136649
   H (  8)  2.136648  1.091926  3.082339  2.549317  2.534152  2.136648
   H (  9)  2.825280  2.199090  2.702267  3.201092  3.847661  1.093218
   H ( 10)  3.492184  2.207417  3.847661  3.847661  4.380940  1.091817
   H ( 11)  2.825281  2.199090  3.201093  2.702267  3.847661  1.093218
             H (  7)   H (  8)   H (  9)   H ( 10)
   H (  8)  1.749275
   H (  9)  2.549316  3.082339
   H ( 10)  2.534152  2.534151  1.722216
   H ( 11)  3.082339  2.549316  1.716026  1.722215
 
 A cutoff of  1.0D-09 yielded   2532 shell pairs
 There are     22578 function pairs (     27759 Cartesian)
 Smallest overlap matrix eigenvalue = 8.48E-05

 Scale SEOQF with 1.000000e-01/1.000000e-01/1.000000e-01

 Standard Electronic Orientation quadrupole field applied
 Nucleus-field energy     =     0.0000000006 hartrees
 Requested basis set is 6-31G(d)
 There are 28 shells and 58 basis functions
 A cutoff of  1.0D-09 yielded    402 shell pairs
 There are      1773 function pairs (      1968 Cartesian)
 Smallest overlap matrix eigenvalue = 6.89E-03
 Guess from superposition of atomic densities
 Warning:  Energy on first SCF cycle will be non-variational
 SAD guess density has 26.000000 electrons
 Long-range K will be added via erf
 Coulomb attenuation parameter = 0.2 bohr**(-1)
 A restricted hybrid HF-DFT SCF calculation will be
 performed using Relaxed Constraint Minimization + Pulay DIIS
 Exchange:     0.2220 Hartree-Fock + 1.0000 wB97X-D + LR-HF
 Correlation:  1.0000 wB97X-D
 Using Euler-Maclaurin-Lebedev (75,302) quadrature formula
 Dispersion:   Grimme D
 SCF converges when DIIS error is below 1.0E-04
 using 3 threads for integral computing
 -------------------------------------------------------
 OpenMP Integral computing Module                
 Release: version 1.0, May 2013, Q-Chem Inc. Pittsburgh 
 -------------------------------------------------------
 using 3 threads for integral computing
 -------------------------------------------------------
 OpenMP Integral computing Module                
 Release: version 1.0, May 2013, Q-Chem Inc. Pittsburgh 
 -------------------------------------------------------
 ---------------------------------------
  Cycle       Energy         DIIS Error
 ---------------------------------------
    1    -119.6490425999      1.01E-01
    2    -119.0632573012      9.04E-03
    3    -119.0842534329      2.41E-03
    4    -119.0985392504      1.64E-03
    5    -119.0991962671      2.46E-04 Done RCA. Switching to DIIS
    6    -119.0996917537      1.81E-04
    7    -119.0997061029      4.44E-06 Convergence criterion met
 ---------------------------------------
 SCF time:  CPU 23.26 s  wall 7.93 s
 SCF   energy in the small basis set = -119.09970610
 Total energy in the small basis set = -119.09970610
 ----------------------------------------------------
  Cycle       Energy    
 ----------------------------------------------------
    1     -16.5453051755     -1.65E+01
 Long-range K will be added via erf
 Coulomb attenuation parameter = 0.2 bohr**(-1)
 A restricted hybrid HF-DFT SCF calculation will be
 performed using Relaxed Constraint Minimization + Pulay DIIS
 Exchange:     0.2220 Hartree-Fock + 1.0000 wB97X-D + LR-HF
 Correlation:  1.0000 wB97X-D
 Using Euler-Maclaurin-Lebedev (75,302) quadrature formula
 Dispersion:   Grimme D
 SCF converges when DIIS error is below 1.0E-05
 Basis2 calculation detected. Using small basis as guess for larger.
 SCFMinFind is unable to tell whether the solution found is close.
 Resetting ReadMinima to 0 and attempting to follow guess.
 SCFMinFind following SCF Guess.
 using 3 threads for integral computing
 -------------------------------------------------------
 OpenMP Integral computing Module                
 Release: version 1.0, May 2013, Q-Chem Inc. Pittsburgh 
 -------------------------------------------------------
 using 3 threads for integral computing
 -------------------------------------------------------
 OpenMP Integral computing Module                
 Release: version 1.0, May 2013, Q-Chem Inc. Pittsburgh 
 -------------------------------------------------------
 ---------------------------------------
  Cycle       Energy         DIIS Error
 ---------------------------------------
    1    -119.1191585421      4.21E-03
    2    -119.1411983343      5.86E-04 Done RCA. Switching to DIIS
    3    -119.1419950282      4.11E-04
    4    -119.1429191723      4.72E-05
    5    -119.1429347575      9.71E-06 Convergence criterion met
 ---------------------------------------
 SCF time:  CPU 59.04 s  wall 19.87 s
 SCF   energy in the final basis set = -119.14293476
 Total energy in the final basis set = -119.14293476
 
 --------------------------------------------------------------
 
                    Orbital Energies (a.u.)
 --------------------------------------------------------------
 
 Alpha MOs
 -- Occupied --
-10.2766 -10.2643 -10.2643  -0.8836  -0.7792  -0.6840  -0.5435  -0.5247
 -0.4857  -0.4567  -0.4230  -0.4197  -0.4047
 -- Virtual --
  0.0684   0.0845   0.0909   0.1002   0.1258   0.1290   0.1343   0.1427
  0.1451   0.1713   0.1721   0.1924   0.2363   0.2397   0.2398   0.2654
  0.2835   0.2858   0.3073   0.3137   0.3329   0.3614   0.4619   0.4626
  0.4755   0.5132   0.5163   0.5217   0.5551   0.5628   0.5789   0.5804
  0.6282   0.6299   0.6450   0.6482   0.6536   0.6550   0.7102   0.7255
  0.7299   0.7680   0.8235   0.8545   0.8608   0.8782   0.8862   0.9701
  1.0076   1.0523   1.0542   1.1355   1.1422   1.1860   1.1961   1.2212
  1.2268   1.2406   1.2612   1.2796   1.2857   1.3081   1.3285   1.3603
  1.3706   1.3954   1.4005   1.4523   1.4676   1.4734   1.4736   1.4921
  1.5321   1.5885   1.6125   1.6353   1.6441   1.6804   1.6817   1.7304
  1.7743   2.3663   2.4366   2.4698   2.4798   2.5364   2.5511   2.5859
  2.6024   2.7167   2.8150   2.8227   2.8252   2.8978   2.9066   2.9284
  2.9362   2.9368   2.9921   3.0247   3.0858   3.1011   3.1132   3.1174
  3.1355   3.1409   3.1875   3.2112   3.2323   3.2329   3.2720   3.3332
  3.3401   3.3422   3.3609   3.3702   3.3781   3.3946   3.4165   3.4493
  3.4493   3.4642   3.5072   3.5164   3.5603   3.5771   3.6030   3.6063
  3.6224   3.6569   3.6677   3.6683   3.7699   3.7869   3.8373   3.9013
  3.9038   3.9063   3.9154   3.9727   3.9811   4.0274   4.0351   4.0725
  4.0873   4.0897   4.1354   4.1742   4.1743   4.2133   4.2154   4.2263
  4.2624   4.2707   4.2775   4.3818   4.3884   4.4134   4.4162   4.4234
  4.4799   4.5806   4.5806   4.6027   4.6615   4.7917   4.8089   4.8323
  4.9193   4.9246   4.9575   4.9645   5.0410   5.0427   5.0832   5.0971
  5.1272   5.1659   5.2350   5.2484   5.2637   5.3510   5.3877   5.4239
  5.4302   5.4662   5.4890   5.4989   5.5440   5.5780   5.6425   5.7622
  5.9616   6.4019   6.4216   6.4333   6.4351   6.4648  25.2225  25.4427
 25.4558
 --------------------------------------------------------------
 
 -----------------------------------------------------------------
                    Cartesian Multipole Moments
 -----------------------------------------------------------------
    Charge (ESU x 10^10)
                -0.0000
    Dipole Moment (Debye)
         X       0.0000      Y       0.0000      Z      -0.0443
       Tot       0.0443
    Quadrupole Moments (Debye-Ang)
        XX     -21.7457     XY      -0.0000     YY     -21.5671
        XZ       0.0000     YZ      -0.0000     ZZ     -21.7585
    Octopole Moments (Debye-Ang^2)
       XXX       0.0000    XXY       0.0000    XYY       0.0000
       YYY      -0.0000    XXZ      -0.2591    XYZ       0.0000
       YYZ       0.4836    XZZ       0.0000    YZZ      -0.0000
       ZZZ       0.4284
    Hexadecapole Moments (Debye-Ang^3)
      XXXX    -200.3191   XXXY      -0.0000   XXYY     -42.4276
      XYYY       0.0000   YYYY     -44.0231   XXXZ       0.0000
      XXYZ      -0.0000   XYYZ      -0.0000   YYYZ      -0.0000
      XXZZ     -45.1925   XYZZ       0.0000   YYZZ     -16.9884
      XZZZ      -0.0000   YZZZ      -0.0000   ZZZZ     -71.6815
 -----------------------------------------------------------------
Archival summary:
1\1\cn0913\SP\ProcedureUnspecified\BasisUnspecified\38\r0852400\SunApr1206:37:052020SunApr1206:37:052020\0\\#,ProcedureUnspecified,BasisUnspecified,\\0,1\C\H,1,1.09193\H,1,1.09193,2,106.452\C,1,1.50938,2,109.397,3,118.106,0\H,4,1.09182,1,115.182,2,-58.1254,0\H,4,1.09322,1,114.387,2,62.362,0\H,4,1.09322,1,114.387,2,-178.613,0\C,1,1.50938,2,109.397,3,-118.106,0\H,8,1.09182,1,115.182,2,58.1254,0\H,8,1.09322,1,114.387,2,178.613,0\H,8,1.09322,1,114.387,2,-62.3621,0\\\@

 Total job time:  31.16s(wall), 86.47s(cpu) 
 Sun Apr 12 06:37:05 2020

        *************************************************************
        *                                                           *
        *  Thank you very much for using Q-Chem.  Have a nice day.  *
        *                                                           *
        *************************************************************


