                  Welcome to Q-Chem
     A Quantum Leap Into The Future Of Chemistry


 Q-Chem 5.3 (devel), Q-Chem, Inc., Pleasanton, CA (2020)

 Yihan Shao,  Zhengting Gan,  E. Epifanovsky,  A. T. B. Gilbert,  M. Wormit,  
 J. Kussmann,  A. W. Lange,  A. Behn,  Jia Deng,  Xintian Feng,  D. Ghosh,  
 M. Goldey,  P. R. Horn,  L. D. Jacobson,  I. Kaliman,  T. Kus,  A. Landau,  
 Jie Liu,  E. I. Proynov,  R. M. Richard,  R. P. Steele,  E. J. Sundstrom,  
 H. L. Woodcock III,  P. M. Zimmerman,  D. Zuev,  B. Alam,  B. Albrecht,  
 E. Alguire,  S. A. Baeppler,  D. Barton,  Z. Benda,  Y. A. Bernard,  
 E. J. Berquist,  K. B. Bravaya,  H. Burton,  K. Carter-Fenk,  D. Casanova,  
 Chun-Min Chang,  Yunqing Chen,  A. Chien,  K. D. Closser,  M. P. Coons,  
 S. Coriani,  S. Dasgupta,  A. L. Dempwolff,  M. Diedenhofen,  Hainam Do,  
 R. G. Edgar,  Po-Tung Fang,  S. Faraji,  S. Fatehi,  Qingguo Feng,  
 J. Fosso-Tande,  J. Gayvert,  Qinghui Ge,  A. Ghysels,  G. Gidofalvi,  
 J. Gomes,  J. Gonthier,  A. Gunina,  D. Hait,  M. W. D. Hanson-Heine,  
 P. H. P. Harbach,  A. W. Hauser,  M. F. Herbst,  J. E. Herr,  
 E. G. Hohenstein,  Z. C. Holden,  Kerwin Hui,  B. C. Huynh,  T.-C. Jagau,  
 Hyunjun Ji,  B. Kaduk,  K. Khistyaev,  Jaehoon Kim,  P. Klunzinger,  K. Koh,  
 D. Kosenkov,  L. Koulias,  T. Kowalczyk,  C. M. Krauter,  A. Kunitsa,  
 Ka Un Lao,  A. Laurent,  K. V. Lawler,  Joonho Lee,  D. Lefrancois,  
 S. Lehtola,  D. S. Levine,  Yi-Pei Li,  You-Sheng Lin,  Fenglai Liu,  
 Kuan-Yu Liu,  E. Livshits,  M. Loipersberger,  A. Luenser,  P. Manohar,  
 E. Mansoor,  S. F. Manzer,  Shan-Ping Mao,  Yuezhi Mao,  N. Mardirossian,  
 A. V. Marenich,  T. Markovich,  L. A. Martinez-Martinez,  S. A. Maurer,  
 N. J. Mayhall,  S. C. McKenzie,  J.-M. Mewes,  P. Morgante,  A. F. Morrison,  
 J. W. Mullinax,  K. Nanda,  T. S. Nguyen-Beck,  R. Olivares-Amaya,  
 K. J. Oosterbaan,  J. A. Parkhill,  S. K. Paul,  F. Pavosevic,  Zheng Pei,  
 T. M. Perrine,  F. Plasser,  P. Pokhilko,  S. Prager,  A. Prociuk,  
 E. Ramos,  B. Rana,  D. R. Rehn,  F. Rob,  M. Scheurer,  M. Schneider,  
 N. Sergueev,  S. M. Sharada,  S. Sharma,  D. W. Small,  T. Stauch,  
 C. J. Stein,  T. Stein,  Yu-Chuan Su,  S. P. Veccham,  Zhen Tao,  
 A. J. W. Thom,  A. Tkatchenko,  T. Tsuchimochi,  N. M. Tubman,  L. Vogt,  
 M. L. Vidal,  O. Vydrov,  M. A. Watson,  J. Wenzel,  M. de Wergifosse,  
 T. A. Wesolowski,  A. White,  J. Witte,  A. Yamada,  Jun Yang,  K. Yao,  
 S. Yeganeh,  S. R. Yost,  Zhi-Qiang You,  A. Zech,  Igor Ying Zhang,  
 Xing Zhang,  Yan Zhao,  Ying Zhu,  B. R. Brooks,  G. K. L. Chan,  
 C. J. Cramer,  M. S. Gordon,  W. J. Hehre,  A. Klamt,  M. W. Schmidt,  
 C. D. Sherrill,  D. G. Truhlar,  A. Aspuru-Guzik,  R. Baer,  A. T. Bell,  
 N. A. Besley,  Jeng-Da Chai,  A. E. DePrince, III,  R. A. DiStasio Jr.,  
 A. Dreuw,  B. D. Dunietz,  T. R. Furlani,  Chao-Ping Hsu,  Yousung Jung,  
 Jing Kong,  D. S. Lambrecht,  WanZhen Liang,  C. Ochsenfeld,  
 V. A. Rassolov,  L. V. Slipchenko,  J. E. Subotnik,  T. Van Voorhis,  
 J. M. Herbert,  A. I. Krylov,  P. M. W. Gill,  M. Head-Gordon

 Contributors to earlier versions of Q-Chem not listed above: 
 R. D. Adamson,  B. Austin,  J. Baker,  G. J. O. Beran,  K. Brandhorst,  
 S. T. Brown,  E. F. C. Byrd,  A. K. Chakraborty,  C.-L. Cheng,  
 Siu Hung Chien,  D. M. Chipman,  D. L. Crittenden,  H. Dachsel,  
 R. J. Doerksen,  A. D. Dutoi,  L. Fusti-Molnar,  W. A. Goddard III,  
 A. Golubeva-Zadorozhnaya,  S. R. Gwaltney,  G. Hawkins,  A. Heyden,  
 S. Hirata,  G. Kedziora,  F. J. Keil,  C. Kelley,  Jihan Kim,  R. A. King,  
 R. Z. Khaliullin,  P. P. Korambath,  W. Kurlancheek,  A. M. Lee,  M. S. Lee,  
 S. V. Levchenko,  Ching Yeh Lin,  D. Liotard,  R. C. Lochan,  I. Lotan,  
 P. E. Maslen,  N. Nair,  D. P. O'Neill,  D. Neuhauser,  E. Neuscamman,  
 C. M. Oana,  R. Olson,  B. Peters,  R. Peverati,  P. A. Pieniazek,  
 Y. M. Rhee,  J. Ritchie,  M. A. Rohrdanz,  E. Rosta,  N. J. Russ,  
 H. F. Schaefer III,  N. E. Schultz,  N. Shenvi,  A. C. Simmonett,  A. Sodt,  
 D. Stuck,  K. S. Thanthiriwatte,  V. Vanovschi,  Tao Wang,  A. Warshel,  
 C. F. Williams,  Q. Wu,  X. Xu,  W. Zhang

 Please cite Q-Chem as follows:
 Y. Shao et al., Mol. Phys. 113, 184-215 (2015)
 DOI: 10.1080/00268976.2014.952696

 Q-Chem 5.3.0 for Intel X86 EM64T Linux

 Parts of Q-Chem use Armadillo 9.800.1 (Horizon Scraper).
 http://arma.sourceforge.net/

 Q-Chem begins on Thu Jul  2 03:20:28 2020  

Host: centos77-c1
0

     Scratch files written to /tmp/26650.centos77-h1/qchem67462//
Processing $rem in /opt/qchem-5.3.0-intel2020u1//config/preferences:
Processing $rem in /home/shihchengli/.qchemrc:

Checking the input file for inconsistencies... 	...done.

--------------------------------------------------------------
User input:
--------------------------------------------------------------
$rem
   JOBTYPE  sp
   EXCHANGE   omegaB97X-D
   BASIS   6-311+G(2df,2pd)
   max_scf_cycles   250
   geom_opt_max_cycles   1500
   basis2 6-31G*
   scf_algorithm rca_diis
   SYM_IGNORE  TRUE
   print_input   true
   geom_opt_dmax   80
   pop_mulliken false
   XC_GRID 000075000302
$end

$molecule
0 1
C       1.2251307586     0.3237743387     0.2659196582
C       0.0000011070     -0.0000071786     -0.5808064316
H       0.9791349326     0.9810087675     1.1049499146
H       1.9724112439     0.8334170592     -0.3421524432
H       1.6855418306     -0.5790875924     0.6683926210
C       -1.2251308934     -0.3237683638     0.2659238792
H       0.1635469970     -0.8587812073     -1.2361820868
H       -0.1635423715     0.8587504915     -1.2362035643
H       -1.9724314903     -0.8333756541     -0.3421540012
H       -1.6855139203     0.5790981630     0.6684185151
H       -0.9791482550     -0.9810281578     1.1049389579
$end
--------------------------------------------------------------
 ----------------------------------------------------------------
             Standard Nuclear Orientation (Angstroms)
    I     Atom           X                Y                Z
 ----------------------------------------------------------------
    1      C       1.2251307586     0.3237743387     0.2659196582
    2      C       0.0000011070    -0.0000071786    -0.5808064316
    3      H       0.9791349326     0.9810087675     1.1049499146
    4      H       1.9724112439     0.8334170592    -0.3421524432
    5      H       1.6855418306    -0.5790875924     0.6683926210
    6      C      -1.2251308934    -0.3237683638     0.2659238792
    7      H       0.1635469970    -0.8587812073    -1.2361820868
    8      H      -0.1635423715     0.8587504915    -1.2362035643
    9      H      -1.9724314903    -0.8333756541    -0.3421540012
   10      H      -1.6855139203     0.5790981630     0.6684185151
   11      H      -0.9791482550    -0.9810281578     1.1049389579
 ----------------------------------------------------------------
 Nuclear Repulsion Energy =          82.71230246 hartrees
 There are       13 alpha and       13 beta electrons
 Requested basis set is 6-311+G(2df,2pd)
 There are 72 shells and 214 basis functions

 Total QAlloc Memory Limit   2000 MB
 Mega-Array Size       188 MB
 MEM_STATIC part       192 MB

                       Distance Matrix (Angstroms)
             C (  1)   C (  2)   H (  3)   H (  4)   H (  5)   C (  6)
   C (  2)  1.524048
   H (  3)  1.093820  2.182400
   H (  4)  1.089915  2.154519  1.761388
   H (  5)  1.090469  2.176437  1.767341  1.760302
   C (  6)  2.534382  1.524048  2.695403  3.454433  2.949438
   H (  7)  2.186712  1.092592  3.087217  2.633403  2.453997  2.114471
   H (  8)  2.114471  1.092592  2.607999  2.315657  3.018936  2.186712
   H (  9)  3.454440  2.154518  3.754710  4.282521  3.803503  1.089916
   H ( 10)  2.949415  2.176439  2.729917  3.803465  3.564465  1.090469
   H ( 11)  2.695424  2.182401  2.772086  3.754729  2.729964  1.093821
             H (  7)   H (  8)   H (  9)   H ( 10)
   H (  8)  1.748400
   H (  9)  2.315672  2.633381
   H ( 10)  3.018945  2.454015  1.760301
   H ( 11)  2.607977  3.087223  1.761389  1.767342
 
 A cutoff of  1.0D-09 yielded   2531 shell pairs
 There are     22511 function pairs (     27677 Cartesian)
 Smallest overlap matrix eigenvalue = 8.51E-05

 Scale SEOQF with 1.000000e-01/1.000000e-01/1.000000e-01

 Standard Electronic Orientation quadrupole field applied
 Nucleus-field energy     =     0.0000000007 hartrees
 Requested basis set is 6-31G(d)
 There are 28 shells and 58 basis functions
 A cutoff of  1.0D-09 yielded    402 shell pairs
 There are      1773 function pairs (      1968 Cartesian)
 Smallest overlap matrix eigenvalue = 6.60E-03
 Guess from superposition of atomic densities
 Warning:  Energy on first SCF cycle will be non-variational
 SAD guess density has 26.000000 electrons
 Long-range K will be added via erf
 Coulomb attenuation parameter = 0.2 bohr**(-1)
 A restricted hybrid HF-DFT SCF calculation will be
 performed using Relaxed Constraint Minimization + Pulay DIIS
 Exchange:     0.2220 Hartree-Fock + 1.0000 wB97X-D + LR-HF
 Correlation:  1.0000 wB97X-D
 Using Euler-Maclaurin-Lebedev (75,302) quadrature formula
 Dispersion:   Grimme D
 SCF converges when DIIS error is below 1.0E-04
 using 3 threads for integral computing
 -------------------------------------------------------
 OpenMP Integral computing Module                
 Release: version 1.0, May 2013, Q-Chem Inc. Pittsburgh 
 -------------------------------------------------------
 using 3 threads for integral computing
 -------------------------------------------------------
 OpenMP Integral computing Module                
 Release: version 1.0, May 2013, Q-Chem Inc. Pittsburgh 
 -------------------------------------------------------
 ---------------------------------------
  Cycle       Energy         DIIS Error
 ---------------------------------------
    1    -119.6197504459      1.00E-01
    2    -119.0635418368      9.03E-03
    3    -119.0847449220      2.46E-03
    4    -119.0987276325      1.68E-03
    5    -119.0994250466      2.67E-04 Done RCA. Switching to DIIS
    6    -119.0999364096      1.97E-04
    7    -119.0999532251      4.57E-06 Convergence criterion met
 ---------------------------------------
 SCF time:  CPU 21.99 s  wall 8.47 s
 SCF   energy in the small basis set = -119.09995323
 Total energy in the small basis set = -119.09995323
 ----------------------------------------------------
  Cycle       Energy    
 ----------------------------------------------------
    1     -16.5408132796     -1.65E+01
 Long-range K will be added via erf
 Coulomb attenuation parameter = 0.2 bohr**(-1)
 A restricted hybrid HF-DFT SCF calculation will be
 performed using Relaxed Constraint Minimization + Pulay DIIS
 Exchange:     0.2220 Hartree-Fock + 1.0000 wB97X-D + LR-HF
 Correlation:  1.0000 wB97X-D
 Using Euler-Maclaurin-Lebedev (75,302) quadrature formula
 Dispersion:   Grimme D
 SCF converges when DIIS error is below 1.0E-05
 Basis2 calculation detected. Using small basis as guess for larger.
 SCFMinFind is unable to tell whether the solution found is close.
 Resetting ReadMinima to 0 and attempting to follow guess.
 SCFMinFind following SCF Guess.
 using 3 threads for integral computing
 -------------------------------------------------------
 OpenMP Integral computing Module                
 Release: version 1.0, May 2013, Q-Chem Inc. Pittsburgh 
 -------------------------------------------------------
 using 3 threads for integral computing
 -------------------------------------------------------
 OpenMP Integral computing Module                
 Release: version 1.0, May 2013, Q-Chem Inc. Pittsburgh 
 -------------------------------------------------------
 ---------------------------------------
  Cycle       Energy         DIIS Error
 ---------------------------------------
    1    -119.1191146858      4.21E-03
    2    -119.1411542951      5.99E-04 Done RCA. Switching to DIIS
    3    -119.1419888553      4.20E-04
    4    -119.1429550187      4.56E-05
    5    -119.1429697815      1.00E-05
    6    -119.1429704661      3.82E-06 Convergence criterion met
 ---------------------------------------
 SCF time:  CPU 51.75 s  wall 17.58 s
 SCF   energy in the final basis set = -119.14297047
 Total energy in the final basis set = -119.14297047
 
 --------------------------------------------------------------
 
                    Orbital Energies (a.u.)
 --------------------------------------------------------------
 
 Alpha MOs
 -- Occupied --
-10.2735 -10.2646 -10.2646  -0.8809  -0.7774  -0.6772  -0.5454  -0.5230
 -0.4838  -0.4664  -0.4192  -0.4150  -0.4043
 -- Virtual --
  0.0690   0.0865   0.0909   0.0992   0.1243   0.1312   0.1326   0.1410
  0.1442   0.1695   0.1734   0.1911   0.2323   0.2381   0.2456   0.2499
  0.2868   0.3012   0.3159   0.3194   0.3347   0.3409   0.4631   0.4632
  0.4761   0.5036   0.5151   0.5152   0.5383   0.5576   0.5864   0.5918
  0.6130   0.6207   0.6386   0.6394   0.6537   0.6577   0.7063   0.7186
  0.7244   0.7690   0.7964   0.8680   0.8831   0.8892   0.9262   0.9560
  1.0078   1.0594   1.0699   1.1238   1.1445   1.1752   1.1822   1.2029
  1.2285   1.2316   1.2563   1.2680   1.2815   1.3154   1.3622   1.3661
  1.3747   1.3963   1.4288   1.4384   1.4499   1.4559   1.4679   1.5128
  1.5316   1.5484   1.5777   1.6009   1.6403   1.6486   1.6769   1.6820
  1.7143   2.3528   2.3918   2.4689   2.5076   2.5585   2.5670   2.6465
  2.6484   2.6785   2.7901   2.8303   2.8499   2.8958   2.9318   2.9372
  2.9394   2.9519   2.9932   3.0487   3.0549   3.0785   3.0867   3.1035
  3.1295   3.1339   3.1680   3.1730   3.1922   3.2555   3.2763   3.2884
  3.3228   3.3341   3.3459   3.3471   3.3706   3.3934   3.4099   3.4245
  3.4307   3.4722   3.5173   3.5340   3.5786   3.5852   3.6119   3.6130
  3.6383   3.6438   3.6831   3.7049   3.7630   3.8143   3.8374   3.8872
  3.8927   3.9449   3.9544   3.9662   3.9843   4.0111   4.0274   4.0714
  4.0765   4.0910   4.1361   4.1490   4.1611   4.1679   4.1864   4.1978
  4.2089   4.2591   4.3096   4.3288   4.3501   4.4011   4.4193   4.4540
  4.4557   4.5495   4.5674   4.6012   4.6291   4.8166   4.8359   4.9245
  4.9488   4.9588   4.9860   4.9906   5.0000   5.0120   5.0612   5.1223
  5.1610   5.2109   5.2276   5.2666   5.2824   5.3321   5.3535   5.3568
  5.3957   5.3969   5.4306   5.4880   5.5026   5.5441   5.6364   5.7145
  5.9622   6.3688   6.3699   6.4071   6.4225   6.4855  25.1654  25.4071
 25.4675
 --------------------------------------------------------------
 
 -----------------------------------------------------------------
                    Cartesian Multipole Moments
 -----------------------------------------------------------------
    Charge (ESU x 10^10)
                 0.0000
    Dipole Moment (Debye)
         X      -0.0000      Y      -0.0000      Z      -0.0943
       Tot       0.0943
    Quadrupole Moments (Debye-Ang)
        XX     -22.3100     XY      -0.1087     YY     -21.2954
        XZ      -0.0000     YZ      -0.0000     ZZ     -21.7859
    Octopole Moments (Debye-Ang^2)
       XXX      -0.0000    XXY      -0.0000    XYY       0.0000
       YYY      -0.0000    XXZ      -1.1140    XYZ      -0.8032
       YYZ      -0.2676    XZZ      -0.0000    YZZ       0.0000
       ZZZ      -0.4063
    Hexadecapole Moments (Debye-Ang^3)
      XXXX    -195.4990   XXXY     -19.6046   XXYY     -40.2069
      XYYY     -20.6576   YYYY     -55.8261   XXXZ       0.0002
      XXYZ      -0.0001   XYYZ      -0.0000   YYYZ      -0.0002
      XXZZ     -44.1407   XYZZ      -6.1681   YYZZ     -18.8428
      XZZZ       0.0001   YZZZ      -0.0001   ZZZZ     -71.5371
 -----------------------------------------------------------------
Archival summary:
1\1\centos77-c1\SP\ProcedureUnspecified\BasisUnspecified\38\shihchen\ThuJul203:20:572020ThuJul203:20:572020\0\\#,ProcedureUnspecified,BasisUnspecified,\\0,1\C\H,1,1.09259\H,1,1.09259,2,106.282\C,1,1.52405,2,112.328,3,-116.279,0\H,4,1.08992,1,109.909,2,76.7616,0\H,4,1.09047,1,111.627,2,-42.6396,0\H,4,1.09382,1,111.903,2,-163.841,0\C,1,1.52405,2,106.655,3,120.033,0\H,8,1.08992,1,109.91,2,-39.2903,0\H,8,1.09047,1,111.627,2,-158.692,0\H,8,1.09382,1,111.903,2,80.1072,0\\\@

 Total job time:  28.99s(wall), 77.39s(cpu) 
 Thu Jul  2 03:20:57 2020

        *************************************************************
        *                                                           *
        *  Thank you very much for using Q-Chem.  Have a nice day.  *
        *                                                           *
        *************************************************************


