                  Welcome to Q-Chem
     A Quantum Leap Into The Future Of Chemistry


 Q-Chem 5.3 (devel), Q-Chem, Inc., Pleasanton, CA (2020)

 Yihan Shao,  Zhengting Gan,  E. Epifanovsky,  A. T. B. Gilbert,  M. Wormit,  
 J. Kussmann,  A. W. Lange,  A. Behn,  Jia Deng,  Xintian Feng,  D. Ghosh,  
 M. Goldey,  P. R. Horn,  L. D. Jacobson,  I. Kaliman,  T. Kus,  A. Landau,  
 Jie Liu,  E. I. Proynov,  R. M. Richard,  R. P. Steele,  E. J. Sundstrom,  
 H. L. Woodcock III,  P. M. Zimmerman,  D. Zuev,  B. Alam,  B. Albrecht,  
 E. Alguire,  S. A. Baeppler,  D. Barton,  Z. Benda,  Y. A. Bernard,  
 E. J. Berquist,  K. B. Bravaya,  H. Burton,  K. Carter-Fenk,  D. Casanova,  
 Chun-Min Chang,  Yunqing Chen,  A. Chien,  K. D. Closser,  M. P. Coons,  
 S. Coriani,  S. Dasgupta,  A. L. Dempwolff,  M. Diedenhofen,  Hainam Do,  
 R. G. Edgar,  Po-Tung Fang,  S. Faraji,  S. Fatehi,  Qingguo Feng,  
 J. Fosso-Tande,  J. Gayvert,  Qinghui Ge,  A. Ghysels,  G. Gidofalvi,  
 J. Gomes,  J. Gonthier,  A. Gunina,  D. Hait,  M. W. D. Hanson-Heine,  
 P. H. P. Harbach,  A. W. Hauser,  M. F. Herbst,  J. E. Herr,  
 E. G. Hohenstein,  Z. C. Holden,  Kerwin Hui,  B. C. Huynh,  T.-C. Jagau,  
 Hyunjun Ji,  B. Kaduk,  K. Khistyaev,  Jaehoon Kim,  P. Klunzinger,  K. Koh,  
 D. Kosenkov,  L. Koulias,  T. Kowalczyk,  C. M. Krauter,  A. Kunitsa,  
 Ka Un Lao,  A. Laurent,  K. V. Lawler,  Joonho Lee,  D. Lefrancois,  
 S. Lehtola,  D. S. Levine,  Yi-Pei Li,  You-Sheng Lin,  Fenglai Liu,  
 Kuan-Yu Liu,  E. Livshits,  M. Loipersberger,  A. Luenser,  P. Manohar,  
 E. Mansoor,  S. F. Manzer,  Shan-Ping Mao,  Yuezhi Mao,  N. Mardirossian,  
 A. V. Marenich,  T. Markovich,  L. A. Martinez-Martinez,  S. A. Maurer,  
 N. J. Mayhall,  S. C. McKenzie,  J.-M. Mewes,  P. Morgante,  A. F. Morrison,  
 J. W. Mullinax,  K. Nanda,  T. S. Nguyen-Beck,  R. Olivares-Amaya,  
 K. J. Oosterbaan,  J. A. Parkhill,  S. K. Paul,  F. Pavosevic,  Zheng Pei,  
 T. M. Perrine,  F. Plasser,  P. Pokhilko,  S. Prager,  A. Prociuk,  
 E. Ramos,  B. Rana,  D. R. Rehn,  F. Rob,  M. Scheurer,  M. Schneider,  
 N. Sergueev,  S. M. Sharada,  S. Sharma,  D. W. Small,  T. Stauch,  
 C. J. Stein,  T. Stein,  Yu-Chuan Su,  S. P. Veccham,  Zhen Tao,  
 A. J. W. Thom,  A. Tkatchenko,  T. Tsuchimochi,  N. M. Tubman,  L. Vogt,  
 M. L. Vidal,  O. Vydrov,  M. A. Watson,  J. Wenzel,  M. de Wergifosse,  
 T. A. Wesolowski,  A. White,  J. Witte,  A. Yamada,  Jun Yang,  K. Yao,  
 S. Yeganeh,  S. R. Yost,  Zhi-Qiang You,  A. Zech,  Igor Ying Zhang,  
 Xing Zhang,  Yan Zhao,  Ying Zhu,  B. R. Brooks,  G. K. L. Chan,  
 C. J. Cramer,  M. S. Gordon,  W. J. Hehre,  A. Klamt,  M. W. Schmidt,  
 C. D. Sherrill,  D. G. Truhlar,  A. Aspuru-Guzik,  R. Baer,  A. T. Bell,  
 N. A. Besley,  Jeng-Da Chai,  A. E. DePrince, III,  R. A. DiStasio Jr.,  
 A. Dreuw,  B. D. Dunietz,  T. R. Furlani,  Chao-Ping Hsu,  Yousung Jung,  
 Jing Kong,  D. S. Lambrecht,  WanZhen Liang,  C. Ochsenfeld,  
 V. A. Rassolov,  L. V. Slipchenko,  J. E. Subotnik,  T. Van Voorhis,  
 J. M. Herbert,  A. I. Krylov,  P. M. W. Gill,  M. Head-Gordon

 Contributors to earlier versions of Q-Chem not listed above: 
 R. D. Adamson,  B. Austin,  J. Baker,  G. J. O. Beran,  K. Brandhorst,  
 S. T. Brown,  E. F. C. Byrd,  A. K. Chakraborty,  C.-L. Cheng,  
 Siu Hung Chien,  D. M. Chipman,  D. L. Crittenden,  H. Dachsel,  
 R. J. Doerksen,  A. D. Dutoi,  L. Fusti-Molnar,  W. A. Goddard III,  
 A. Golubeva-Zadorozhnaya,  S. R. Gwaltney,  G. Hawkins,  A. Heyden,  
 S. Hirata,  G. Kedziora,  F. J. Keil,  C. Kelley,  Jihan Kim,  R. A. King,  
 R. Z. Khaliullin,  P. P. Korambath,  W. Kurlancheek,  A. M. Lee,  M. S. Lee,  
 S. V. Levchenko,  Ching Yeh Lin,  D. Liotard,  R. C. Lochan,  I. Lotan,  
 P. E. Maslen,  N. Nair,  D. P. O'Neill,  D. Neuhauser,  E. Neuscamman,  
 C. M. Oana,  R. Olson,  B. Peters,  R. Peverati,  P. A. Pieniazek,  
 Y. M. Rhee,  J. Ritchie,  M. A. Rohrdanz,  E. Rosta,  N. J. Russ,  
 H. F. Schaefer III,  N. E. Schultz,  N. Shenvi,  A. C. Simmonett,  A. Sodt,  
 D. Stuck,  K. S. Thanthiriwatte,  V. Vanovschi,  Tao Wang,  A. Warshel,  
 C. F. Williams,  Q. Wu,  X. Xu,  W. Zhang

 Please cite Q-Chem as follows:
 Y. Shao et al., Mol. Phys. 113, 184-215 (2015)
 DOI: 10.1080/00268976.2014.952696

 Q-Chem 5.3.0 for Intel X86 EM64T Linux

 Parts of Q-Chem use Armadillo 9.800.1 (Horizon Scraper).
 http://arma.sourceforge.net/

 Q-Chem begins on Thu Jul  2 03:30:49 2020  

Host: centos77-c1
0

     Scratch files written to /tmp/26650.centos77-h1/qchem68437//
Processing $rem in /opt/qchem-5.3.0-intel2020u1//config/preferences:
Processing $rem in /home/shihchengli/.qchemrc:

Checking the input file for inconsistencies... 	...done.

--------------------------------------------------------------
User input:
--------------------------------------------------------------
$rem
   JOBTYPE  sp
   EXCHANGE   omegaB97X-D
   BASIS   6-311+G(2df,2pd)
   max_scf_cycles   250
   geom_opt_max_cycles   1500
   basis2 6-31G*
   scf_algorithm rca_diis
   SYM_IGNORE  TRUE
   print_input   true
   geom_opt_dmax   80
   pop_mulliken false
   XC_GRID 000075000302
$end

$molecule
0 1
C       0.9144027704     0.8771811116     0.2508598867
C       0.0000074072     -0.0000192946     -0.5959727812
H       1.9833617794     0.6825920966     0.0956013544
H       0.6939178844     0.6810265235     1.2961741674
H       0.7299226168     1.9372638380     0.0739010530
C       -0.9144108379     -0.8771654871     0.2508908818
H       0.4660529555     -0.7425295529     -1.2480760293
H       -0.4660182247     0.7424485836     -1.2481368747
H       -0.6938347092     -0.6810612547     1.2961967447
H       -0.7300370395     -1.9372605866     0.0738959814
H       -1.9833646629     -0.6824753114     0.0957106348
$end
--------------------------------------------------------------
 ----------------------------------------------------------------
             Standard Nuclear Orientation (Angstroms)
    I     Atom           X                Y                Z
 ----------------------------------------------------------------
    1      C       0.9144027704     0.8771811116     0.2508598867
    2      C       0.0000074072    -0.0000192946    -0.5959727812
    3      H       1.9833617794     0.6825920966     0.0956013544
    4      H       0.6939178844     0.6810265235     1.2961741674
    5      H       0.7299226168     1.9372638380     0.0739010530
    6      C      -0.9144108379    -0.8771654871     0.2508908818
    7      H       0.4660529555    -0.7425295529    -1.2480760293
    8      H      -0.4660182247     0.7424485836    -1.2481368747
    9      H      -0.6938347092    -0.6810612547     1.2961967447
   10      H      -0.7300370395    -1.9372605866     0.0738959814
   11      H      -1.9833646629    -0.6824753114     0.0957106348
 ----------------------------------------------------------------
 Nuclear Repulsion Energy =          82.88818790 hartrees
 There are       13 alpha and       13 beta electrons
 Requested basis set is 6-311+G(2df,2pd)
 There are 72 shells and 214 basis functions

 Total QAlloc Memory Limit   2000 MB
 Mega-Array Size       188 MB
 MEM_STATIC part       192 MB

                       Distance Matrix (Angstroms)
             C (  1)   C (  2)   H (  3)   H (  4)   H (  5)   C (  6)
   C (  2)  1.524049
   H (  3)  1.097563  2.208603
   H (  4)  1.086173  2.127335  1.761829
   H (  5)  1.090469  2.175907  1.773635  1.753106
   C (  6)  2.534224  1.524049  3.294548  2.471295  3.264379
   H (  7)  2.251952  1.092593  2.477633  2.924319  2.999757  2.042231
   H (  8)  2.042231  1.092592  2.794401  2.796917  2.146076  2.251952
   H (  9)  2.471290  2.127332  3.235485  1.944515  3.221291  1.086175
   H ( 10)  3.264442  2.175912  3.771821  3.221341  4.140462  1.090469
   H ( 11)  3.294489  2.208605  4.195036  3.235443  3.771662  1.097564
             H (  7)   H (  8)   H (  9)   H ( 10)
   H (  8)  1.753259
   H (  9)  2.796863  2.924366
   H ( 10)  2.146072  2.999720  1.753102
   H ( 11)  2.794462  2.477635  1.761833  1.773638
 
 A cutoff of  1.0D-09 yielded   2531 shell pairs
 There are     22523 function pairs (     27727 Cartesian)
 Smallest overlap matrix eigenvalue = 9.20E-05

 Scale SEOQF with 1.000000e-01/1.000000e-01/1.000000e-01

 Standard Electronic Orientation quadrupole field applied
 Nucleus-field energy     =     0.0000000011 hartrees
 Requested basis set is 6-31G(d)
 There are 28 shells and 58 basis functions
 A cutoff of  1.0D-09 yielded    399 shell pairs
 There are      1770 function pairs (      1965 Cartesian)
 Smallest overlap matrix eigenvalue = 6.33E-03
 Guess from superposition of atomic densities
 Warning:  Energy on first SCF cycle will be non-variational
 SAD guess density has 26.000000 electrons
 Long-range K will be added via erf
 Coulomb attenuation parameter = 0.2 bohr**(-1)
 A restricted hybrid HF-DFT SCF calculation will be
 performed using Relaxed Constraint Minimization + Pulay DIIS
 Exchange:     0.2220 Hartree-Fock + 1.0000 wB97X-D + LR-HF
 Correlation:  1.0000 wB97X-D
 Using Euler-Maclaurin-Lebedev (75,302) quadrature formula
 Dispersion:   Grimme D
 SCF converges when DIIS error is below 1.0E-04
 using 3 threads for integral computing
 -------------------------------------------------------
 OpenMP Integral computing Module                
 Release: version 1.0, May 2013, Q-Chem Inc. Pittsburgh 
 -------------------------------------------------------
 using 3 threads for integral computing
 -------------------------------------------------------
 OpenMP Integral computing Module                
 Release: version 1.0, May 2013, Q-Chem Inc. Pittsburgh 
 -------------------------------------------------------
 ---------------------------------------
  Cycle       Energy         DIIS Error
 ---------------------------------------
    1    -119.6433798530      1.01E-01
    2    -119.0466808077      9.07E-03
    3    -119.0679710312      2.46E-03
    4    -119.0820279941      1.70E-03
    5    -119.0827324150      2.64E-04 Done RCA. Switching to DIIS
    6    -119.0832517710      1.97E-04
    7    -119.0832685932      4.29E-06 Convergence criterion met
 ---------------------------------------
 SCF time:  CPU 21.98 s  wall 8.43 s
 SCF   energy in the small basis set = -119.08326859
 Total energy in the small basis set = -119.08326859
 ----------------------------------------------------
  Cycle       Energy    
 ----------------------------------------------------
    1     -16.5486644883     -1.65E+01
 Long-range K will be added via erf
 Coulomb attenuation parameter = 0.2 bohr**(-1)
 A restricted hybrid HF-DFT SCF calculation will be
 performed using Relaxed Constraint Minimization + Pulay DIIS
 Exchange:     0.2220 Hartree-Fock + 1.0000 wB97X-D + LR-HF
 Correlation:  1.0000 wB97X-D
 Using Euler-Maclaurin-Lebedev (75,302) quadrature formula
 Dispersion:   Grimme D
 SCF converges when DIIS error is below 1.0E-05
 Basis2 calculation detected. Using small basis as guess for larger.
 SCFMinFind is unable to tell whether the solution found is close.
 Resetting ReadMinima to 0 and attempting to follow guess.
 SCFMinFind following SCF Guess.
 using 3 threads for integral computing
 -------------------------------------------------------
 OpenMP Integral computing Module                
 Release: version 1.0, May 2013, Q-Chem Inc. Pittsburgh 
 -------------------------------------------------------
 using 3 threads for integral computing
 -------------------------------------------------------
 OpenMP Integral computing Module                
 Release: version 1.0, May 2013, Q-Chem Inc. Pittsburgh 
 -------------------------------------------------------
 ---------------------------------------
  Cycle       Energy         DIIS Error
 ---------------------------------------
    1    -119.1032441062      4.21E-03
    2    -119.1252443370      6.05E-04 Done RCA. Switching to DIIS
    3    -119.1260812251      4.29E-04
    4    -119.1270895658      4.55E-05
    5    -119.1271045262      1.06E-05
    6    -119.1271052719      4.14E-06 Convergence criterion met
 ---------------------------------------
 SCF time:  CPU 48.71 s  wall 16.26 s
 SCF   energy in the final basis set = -119.12710527
 Total energy in the final basis set = -119.12710527
 
 --------------------------------------------------------------
 
                    Orbital Energies (a.u.)
 --------------------------------------------------------------
 
 Alpha MOs
 -- Occupied --
-10.2713 -10.2641 -10.2641  -0.8829  -0.7767  -0.6788  -0.5456  -0.5327
 -0.4719  -0.4717  -0.4201  -0.4175  -0.3912
 -- Virtual --
  0.0727   0.0878   0.0918   0.1046   0.1211   0.1288   0.1306   0.1333
  0.1452   0.1627   0.1750   0.1875   0.1966   0.2374   0.2765   0.2766
  0.2868   0.3074   0.3103   0.3302   0.3398   0.3729   0.4541   0.4770
  0.4887   0.5049   0.5121   0.5155   0.5279   0.5319   0.5549   0.5768
  0.6156   0.6283   0.6401   0.6434   0.6451   0.6583   0.6786   0.7102
  0.7340   0.7496   0.8586   0.8830   0.9008   0.9329   0.9909   0.9942
  1.0037   1.0210   1.0289   1.0602   1.1459   1.1595   1.2025   1.2079
  1.2347   1.2538   1.2613   1.2659   1.3093   1.3375   1.3462   1.3520
  1.3921   1.3934   1.4340   1.4550   1.4659   1.4683   1.4895   1.4998
  1.5239   1.5461   1.5767   1.5860   1.6472   1.6560   1.6805   1.6986
  1.7062   2.2497   2.3168   2.4217   2.4815   2.5202   2.6252   2.6965
  2.7080   2.7272   2.7315   2.7939   2.8325   2.9202   2.9262   2.9288
  2.9738   2.9868   2.9922   3.0378   3.0398   3.0416   3.1019   3.1505
  3.1510   3.1685   3.1790   3.1882   3.2095   3.2377   3.2453   3.2842
  3.2874   3.3103   3.3571   3.3579   3.3594   3.3821   3.3990   3.4041
  3.4896   3.5021   3.5485   3.5632   3.5721   3.5788   3.6183   3.6242
  3.6593   3.6621   3.6843   3.6895   3.7131   3.7548   3.7835   3.8354
  3.8573   3.9200   3.9248   3.9511   3.9757   4.0305   4.0501   4.0736
  4.0763   4.1322   4.1541   4.1594   4.1610   4.1920   4.2039   4.2610
  4.2842   4.2859   4.3000   4.3196   4.3524   4.4186   4.4701   4.4866
  4.4893   4.5100   4.5367   4.5763   4.7470   4.8001   4.8514   4.8642
  4.9343   4.9590   4.9623   4.9970   5.0414   5.0572   5.0814   5.1089
  5.1316   5.1693   5.2043   5.2251   5.2838   5.2941   5.3498   5.3666
  5.3892   5.4261   5.4324   5.4882   5.5128   5.5974   5.6122   5.7416
  6.0076   6.3189   6.3917   6.3944   6.4395   6.5119  25.0916  25.4391
 25.4512
 --------------------------------------------------------------
 
 -----------------------------------------------------------------
                    Cartesian Multipole Moments
 -----------------------------------------------------------------
    Charge (ESU x 10^10)
                -0.0000
    Dipole Moment (Debye)
         X       0.0000      Y      -0.0000      Z      -0.0576
       Tot       0.0576
    Quadrupole Moments (Debye-Ang)
        XX     -22.1087     XY      -0.4908     YY     -21.3417
        XZ       0.0000     YZ      -0.0000     ZZ     -22.0448
    Octopole Moments (Debye-Ang^2)
       XXX       0.0001    XXY       0.0001    XYY      -0.0001
       YYY      -0.0001    XXZ      -0.5925    XYZ       0.0240
       YYZ      -1.3965    XZZ       0.0001    YZZ       0.0000
       ZZZ       1.0932
    Hexadecapole Moments (Debye-Ang^3)
      XXXX    -121.1268   XXXY     -40.5485   XXYY     -43.6163
      XYYY     -40.5774   YYYY    -115.8121   XXXZ       0.0006
      XXYZ       0.0001   XYYZ       0.0003   YYYZ       0.0005
      XXZZ     -34.5332   XYZZ     -14.2604   YYZZ     -32.3781
      XZZZ       0.0012   YZZZ       0.0001   ZZZZ     -69.8210
 -----------------------------------------------------------------
Archival summary:
1\1\centos77-c1\SP\ProcedureUnspecified\BasisUnspecified\38\shihchen\ThuJul203:31:172020ThuJul203:31:172020\0\\#,ProcedureUnspecified,BasisUnspecified,\\0,1\C\H,1,1.09259\H,1,1.09259,2,106.708\C,1,1.52405,2,117.831,3,-112.979,0\H,4,1.08617,1,107.999,2,-117.942,0\H,4,1.09047,1,111.584,2,124.36,0\H,4,1.09756,1,113.81,2,1.41393,0\C,1,1.52405,2,101.329,3,123.867,0\H,8,1.08617,1,108,2,126.133,0\H,8,1.09047,1,111.584,2,8.43514,0\H,8,1.09756,1,113.809,2,-114.51,0\\\@

 Total job time:  27.59s(wall), 74.31s(cpu) 
 Thu Jul  2 03:31:17 2020

        *************************************************************
        *                                                           *
        *  Thank you very much for using Q-Chem.  Have a nice day.  *
        *                                                           *
        *************************************************************


