                  Welcome to Q-Chem
     A Quantum Leap Into The Future Of Chemistry


 Q-Chem 5.3 (devel), Q-Chem, Inc., Pleasanton, CA (2020)

 Yihan Shao,  Zhengting Gan,  E. Epifanovsky,  A. T. B. Gilbert,  M. Wormit,  
 J. Kussmann,  A. W. Lange,  A. Behn,  Jia Deng,  Xintian Feng,  D. Ghosh,  
 M. Goldey,  P. R. Horn,  L. D. Jacobson,  I. Kaliman,  T. Kus,  A. Landau,  
 Jie Liu,  E. I. Proynov,  R. M. Richard,  R. P. Steele,  E. J. Sundstrom,  
 H. L. Woodcock III,  P. M. Zimmerman,  D. Zuev,  B. Alam,  B. Albrecht,  
 E. Alguire,  S. A. Baeppler,  D. Barton,  Z. Benda,  Y. A. Bernard,  
 E. J. Berquist,  K. B. Bravaya,  H. Burton,  K. Carter-Fenk,  D. Casanova,  
 Chun-Min Chang,  Yunqing Chen,  A. Chien,  K. D. Closser,  M. P. Coons,  
 S. Coriani,  S. Dasgupta,  A. L. Dempwolff,  M. Diedenhofen,  Hainam Do,  
 R. G. Edgar,  Po-Tung Fang,  S. Faraji,  S. Fatehi,  Qingguo Feng,  
 J. Fosso-Tande,  J. Gayvert,  Qinghui Ge,  A. Ghysels,  G. Gidofalvi,  
 J. Gomes,  J. Gonthier,  A. Gunina,  D. Hait,  M. W. D. Hanson-Heine,  
 P. H. P. Harbach,  A. W. Hauser,  M. F. Herbst,  J. E. Herr,  
 E. G. Hohenstein,  Z. C. Holden,  Kerwin Hui,  B. C. Huynh,  T.-C. Jagau,  
 Hyunjun Ji,  B. Kaduk,  K. Khistyaev,  Jaehoon Kim,  P. Klunzinger,  K. Koh,  
 D. Kosenkov,  L. Koulias,  T. Kowalczyk,  C. M. Krauter,  A. Kunitsa,  
 Ka Un Lao,  A. Laurent,  K. V. Lawler,  Joonho Lee,  D. Lefrancois,  
 S. Lehtola,  D. S. Levine,  Yi-Pei Li,  You-Sheng Lin,  Fenglai Liu,  
 Kuan-Yu Liu,  E. Livshits,  M. Loipersberger,  A. Luenser,  P. Manohar,  
 E. Mansoor,  S. F. Manzer,  Shan-Ping Mao,  Yuezhi Mao,  N. Mardirossian,  
 A. V. Marenich,  T. Markovich,  L. A. Martinez-Martinez,  S. A. Maurer,  
 N. J. Mayhall,  S. C. McKenzie,  J.-M. Mewes,  P. Morgante,  A. F. Morrison,  
 J. W. Mullinax,  K. Nanda,  T. S. Nguyen-Beck,  R. Olivares-Amaya,  
 K. J. Oosterbaan,  J. A. Parkhill,  S. K. Paul,  F. Pavosevic,  Zheng Pei,  
 T. M. Perrine,  F. Plasser,  P. Pokhilko,  S. Prager,  A. Prociuk,  
 E. Ramos,  B. Rana,  D. R. Rehn,  F. Rob,  M. Scheurer,  M. Schneider,  
 N. Sergueev,  S. M. Sharada,  S. Sharma,  D. W. Small,  T. Stauch,  
 C. J. Stein,  T. Stein,  Yu-Chuan Su,  S. P. Veccham,  Zhen Tao,  
 A. J. W. Thom,  A. Tkatchenko,  T. Tsuchimochi,  N. M. Tubman,  L. Vogt,  
 M. L. Vidal,  O. Vydrov,  M. A. Watson,  J. Wenzel,  M. de Wergifosse,  
 T. A. Wesolowski,  A. White,  J. Witte,  A. Yamada,  Jun Yang,  K. Yao,  
 S. Yeganeh,  S. R. Yost,  Zhi-Qiang You,  A. Zech,  Igor Ying Zhang,  
 Xing Zhang,  Yan Zhao,  Ying Zhu,  B. R. Brooks,  G. K. L. Chan,  
 C. J. Cramer,  M. S. Gordon,  W. J. Hehre,  A. Klamt,  M. W. Schmidt,  
 C. D. Sherrill,  D. G. Truhlar,  A. Aspuru-Guzik,  R. Baer,  A. T. Bell,  
 N. A. Besley,  Jeng-Da Chai,  A. E. DePrince, III,  R. A. DiStasio Jr.,  
 A. Dreuw,  B. D. Dunietz,  T. R. Furlani,  Chao-Ping Hsu,  Yousung Jung,  
 Jing Kong,  D. S. Lambrecht,  WanZhen Liang,  C. Ochsenfeld,  
 V. A. Rassolov,  L. V. Slipchenko,  J. E. Subotnik,  T. Van Voorhis,  
 J. M. Herbert,  A. I. Krylov,  P. M. W. Gill,  M. Head-Gordon

 Contributors to earlier versions of Q-Chem not listed above: 
 R. D. Adamson,  B. Austin,  J. Baker,  G. J. O. Beran,  K. Brandhorst,  
 S. T. Brown,  E. F. C. Byrd,  A. K. Chakraborty,  C.-L. Cheng,  
 Siu Hung Chien,  D. M. Chipman,  D. L. Crittenden,  H. Dachsel,  
 R. J. Doerksen,  A. D. Dutoi,  L. Fusti-Molnar,  W. A. Goddard III,  
 A. Golubeva-Zadorozhnaya,  S. R. Gwaltney,  G. Hawkins,  A. Heyden,  
 S. Hirata,  G. Kedziora,  F. J. Keil,  C. Kelley,  Jihan Kim,  R. A. King,  
 R. Z. Khaliullin,  P. P. Korambath,  W. Kurlancheek,  A. M. Lee,  M. S. Lee,  
 S. V. Levchenko,  Ching Yeh Lin,  D. Liotard,  R. C. Lochan,  I. Lotan,  
 P. E. Maslen,  N. Nair,  D. P. O'Neill,  D. Neuhauser,  E. Neuscamman,  
 C. M. Oana,  R. Olson,  B. Peters,  R. Peverati,  P. A. Pieniazek,  
 Y. M. Rhee,  J. Ritchie,  M. A. Rohrdanz,  E. Rosta,  N. J. Russ,  
 H. F. Schaefer III,  N. E. Schultz,  N. Shenvi,  A. C. Simmonett,  A. Sodt,  
 D. Stuck,  K. S. Thanthiriwatte,  V. Vanovschi,  Tao Wang,  A. Warshel,  
 C. F. Williams,  Q. Wu,  X. Xu,  W. Zhang

 Please cite Q-Chem as follows:
 Y. Shao et al., Mol. Phys. 113, 184-215 (2015)
 DOI: 10.1080/00268976.2014.952696

 Q-Chem 5.3.0 for Intel X86 EM64T Linux

 Parts of Q-Chem use Armadillo 9.800.1 (Horizon Scraper).
 http://arma.sourceforge.net/

 Q-Chem begins on Thu Jul  2 04:21:46 2020  

Host: centos77-c1
0

     Scratch files written to /tmp/26650.centos77-h1/qchem73012//
Processing $rem in /opt/qchem-5.3.0-intel2020u1//config/preferences:
Processing $rem in /home/shihchengli/.qchemrc:

Checking the input file for inconsistencies... 	...done.

--------------------------------------------------------------
User input:
--------------------------------------------------------------
$rem
   JOBTYPE  sp
   EXCHANGE   omegaB97X-D
   BASIS   6-311+G(2df,2pd)
   max_scf_cycles   250
   geom_opt_max_cycles   1500
   basis2 6-31G*
   scf_algorithm rca_diis
   SYM_IGNORE  TRUE
   print_input   true
   geom_opt_dmax   80
   pop_mulliken false
   XC_GRID 000075000302
$end

$molecule
0 1
C       1.2560769169     -0.2470586146     -0.0236726753
C       -0.0000029933     0.5894138268     0.1891509869
H       2.0107509004     0.3739367352     0.4736372164
H       1.6116428638     -0.4696532169     -1.0266356146
H       1.2034011246     -1.1846517557     0.5306434413
C       -1.2560780592     -0.2470646422     -0.0236815355
H       -0.0000014680     1.1396070744     -0.7536191102
H       -0.0000079072     1.3258861760     0.9976033181
H       -2.0107487909     0.3738728513     0.4737037314
H       -1.2033572244     -1.1846978177     0.5305633604
H       -1.6116754232     -0.4695899504     -1.0266481001
$end
--------------------------------------------------------------
 ----------------------------------------------------------------
             Standard Nuclear Orientation (Angstroms)
    I     Atom           X                Y                Z
 ----------------------------------------------------------------
    1      C       1.2560769169    -0.2470586146    -0.0236726753
    2      C      -0.0000029933     0.5894138268     0.1891509869
    3      H       2.0107509004     0.3739367352     0.4736372164
    4      H       1.6116428638    -0.4696532169    -1.0266356146
    5      H       1.2034011246    -1.1846517557     0.5306434413
    6      C      -1.2560780592    -0.2470646422    -0.0236815355
    7      H      -0.0000014680     1.1396070744    -0.7536191102
    8      H      -0.0000079072     1.3258861760     0.9976033181
    9      H      -2.0107487909     0.3738728513     0.4737037314
   10      H      -1.2033572244    -1.1846978177     0.5305633604
   11      H      -1.6116754232    -0.4695899504    -1.0266481001
 ----------------------------------------------------------------
 Nuclear Repulsion Energy =          82.90132059 hartrees
 There are       13 alpha and       13 beta electrons
 Requested basis set is 6-311+G(2df,2pd)
 There are 72 shells and 214 basis functions

 Total QAlloc Memory Limit   2000 MB
 Mega-Array Size       188 MB
 MEM_STATIC part       192 MB

                       Distance Matrix (Angstroms)
             C (  1)   C (  2)   H (  3)   H (  4)   H (  5)   C (  6)
   C (  2)  1.524046
   H (  3)  1.096579  2.042179
   H (  4)  1.087157  2.279729  1.766847
   H (  5)  1.090469  2.170739  1.756207  1.761534
   C (  6)  2.512155  1.524047  3.362312  3.046192  2.689867
   H (  7)  2.008332  1.091571  2.477001  2.293830  2.915422  2.008332
   H (  8)  2.257191  1.093612  2.285585  3.149432  2.822950  2.257191
   H (  9)  3.362304  2.042187  4.021500  4.010521  3.572534  1.096578
   H ( 10)  2.689825  2.170736  3.572544  3.295510  2.406758  1.090469
   H ( 11)  3.046224  2.279725  4.010532  3.223318  3.295622  1.087156
             H (  7)   H (  8)   H (  9)   H ( 10)
   H (  8)  1.761102
   H (  9)  2.477050  2.285581
   H ( 10)  2.915404  2.822979  1.756205
   H ( 11)  2.293807  3.149413  1.766846  1.761536
 
 A cutoff of  1.0D-09 yielded   2522 shell pairs
 There are     22468 function pairs (     27647 Cartesian)
 Smallest overlap matrix eigenvalue = 8.60E-05

 Scale SEOQF with 1.000000e-01/1.000000e-01/1.000000e-01

 Standard Electronic Orientation quadrupole field applied
 Nucleus-field energy     =     0.0000000014 hartrees
 Requested basis set is 6-31G(d)
 There are 28 shells and 58 basis functions
 A cutoff of  1.0D-09 yielded    403 shell pairs
 There are      1774 function pairs (      1969 Cartesian)
 Smallest overlap matrix eigenvalue = 5.87E-03
 Guess from superposition of atomic densities
 Warning:  Energy on first SCF cycle will be non-variational
 SAD guess density has 26.000000 electrons
 Long-range K will be added via erf
 Coulomb attenuation parameter = 0.2 bohr**(-1)
 A restricted hybrid HF-DFT SCF calculation will be
 performed using Relaxed Constraint Minimization + Pulay DIIS
 Exchange:     0.2220 Hartree-Fock + 1.0000 wB97X-D + LR-HF
 Correlation:  1.0000 wB97X-D
 Using Euler-Maclaurin-Lebedev (75,302) quadrature formula
 Dispersion:   Grimme D
 SCF converges when DIIS error is below 1.0E-04
 using 3 threads for integral computing
 -------------------------------------------------------
 OpenMP Integral computing Module                
 Release: version 1.0, May 2013, Q-Chem Inc. Pittsburgh 
 -------------------------------------------------------
 using 3 threads for integral computing
 -------------------------------------------------------
 OpenMP Integral computing Module                
 Release: version 1.0, May 2013, Q-Chem Inc. Pittsburgh 
 -------------------------------------------------------
 ---------------------------------------
  Cycle       Energy         DIIS Error
 ---------------------------------------
    1    -119.6425122987      1.01E-01
    2    -119.0382006696      9.20E-03
    3    -119.0600338086      2.46E-03
    4    -119.0746546814      1.68E-03
    5    -119.0753491213      2.65E-04 Done RCA. Switching to DIIS
    6    -119.0758606543      1.95E-04
    7    -119.0758771016      5.44E-06 Convergence criterion met
 ---------------------------------------
 SCF time:  CPU 19.03 s  wall 6.89 s
 SCF   energy in the small basis set = -119.07587710
 Total energy in the small basis set = -119.07587710
 ----------------------------------------------------
  Cycle       Energy    
 ----------------------------------------------------
    1     -16.5437791520     -1.65E+01
 Long-range K will be added via erf
 Coulomb attenuation parameter = 0.2 bohr**(-1)
 A restricted hybrid HF-DFT SCF calculation will be
 performed using Relaxed Constraint Minimization + Pulay DIIS
 Exchange:     0.2220 Hartree-Fock + 1.0000 wB97X-D + LR-HF
 Correlation:  1.0000 wB97X-D
 Using Euler-Maclaurin-Lebedev (75,302) quadrature formula
 Dispersion:   Grimme D
 SCF converges when DIIS error is below 1.0E-05
 Basis2 calculation detected. Using small basis as guess for larger.
 SCFMinFind is unable to tell whether the solution found is close.
 Resetting ReadMinima to 0 and attempting to follow guess.
 SCFMinFind following SCF Guess.
 using 3 threads for integral computing
 -------------------------------------------------------
 OpenMP Integral computing Module                
 Release: version 1.0, May 2013, Q-Chem Inc. Pittsburgh 
 -------------------------------------------------------
 using 3 threads for integral computing
 -------------------------------------------------------
 OpenMP Integral computing Module                
 Release: version 1.0, May 2013, Q-Chem Inc. Pittsburgh 
 -------------------------------------------------------
 ---------------------------------------
  Cycle       Energy         DIIS Error
 ---------------------------------------
    1    -119.0956981321      4.21E-03
    2    -119.1177662745      6.17E-04 Done RCA. Switching to DIIS
    3    -119.1186255263      4.39E-04
    4    -119.1196805656      4.55E-05
    5    -119.1196955798      9.33E-06 Convergence criterion met
 ---------------------------------------
 SCF time:  CPU 44.39 s  wall 15.03 s
 SCF   energy in the final basis set = -119.11969558
 Total energy in the final basis set = -119.11969558
 
 --------------------------------------------------------------
 
                    Orbital Energies (a.u.)
 --------------------------------------------------------------
 
 Alpha MOs
 -- Occupied --
-10.2749 -10.2632 -10.2632  -0.8842  -0.7778  -0.6769  -0.5474  -0.5210
 -0.4967  -0.4634  -0.4378  -0.3934  -0.3873
 -- Virtual --
  0.0693   0.0872   0.0895   0.0978   0.1233   0.1292   0.1337   0.1345
  0.1445   0.1689   0.1731   0.1917   0.2117   0.2386   0.2431   0.2772
  0.2827   0.3000   0.3059   0.3152   0.3373   0.3558   0.4552   0.4729
  0.4772   0.5027   0.5132   0.5138   0.5254   0.5509   0.5808   0.6016
  0.6113   0.6192   0.6315   0.6447   0.6582   0.6741   0.6948   0.7115
  0.7287   0.7500   0.8721   0.8832   0.8983   0.9060   0.9328   0.9701
  0.9711   1.0018   1.0691   1.1162   1.1422   1.2049   1.2055   1.2258
  1.2306   1.2535   1.2584   1.2597   1.3199   1.3203   1.3437   1.3504
  1.3617   1.4044   1.4401   1.4545   1.4553   1.4700   1.4792   1.4972
  1.5182   1.5350   1.5572   1.5963   1.6301   1.6495   1.6713   1.6753
  1.7041   2.3649   2.4096   2.4446   2.4630   2.5437   2.6106   2.6200
  2.6635   2.6785   2.8125   2.8193   2.8746   2.9100   2.9152   2.9214
  2.9560   2.9895   3.0269   3.0291   3.0621   3.0695   3.0705   3.1046
  3.1226   3.1408   3.1880   3.1900   3.2024   3.2444   3.2488   3.2842
  3.3187   3.3267   3.3308   3.3526   3.3855   3.3993   3.4194   3.4499
  3.4716   3.4841   3.5379   3.5559   3.5773   3.5859   3.5934   3.6195
  3.6320   3.6673   3.6735   3.7209   3.7389   3.7525   3.7869   3.8037
  3.9118   3.9175   3.9178   3.9261   3.9951   4.0089   4.0232   4.0719
  4.0919   4.0957   4.1189   4.1420   4.1604   4.1984   4.2171   4.2341
  4.2374   4.2824   4.2898   4.3270   4.3369   4.4230   4.4361   4.4545
  4.4727   4.5068   4.5265   4.6525   4.6924   4.8121   4.8501   4.8572
  4.9041   4.9126   4.9544   4.9998   5.0346   5.0833   5.1358   5.1502
  5.1957   5.2008   5.2161   5.2270   5.2618   5.3382   5.3597   5.3971
  5.4338   5.4566   5.4667   5.4821   5.5271   5.5455   5.6521   5.7372
  5.9768   6.3745   6.3783   6.4021   6.4281   6.4908  25.1132  25.4293
 25.4480
 --------------------------------------------------------------
 
 -----------------------------------------------------------------
                    Cartesian Multipole Moments
 -----------------------------------------------------------------
    Charge (ESU x 10^10)
                -0.0000
    Dipole Moment (Debye)
         X       0.0000      Y       0.2040      Z      -0.0672
       Tot       0.2147
    Quadrupole Moments (Debye-Ang)
        XX     -22.8093     XY      -0.0000     YY     -21.6815
        XZ      -0.0000     YZ       0.5539     ZZ     -21.1045
    Octopole Moments (Debye-Ang^2)
       XXX      -0.0000    XXY       0.4922    XYY       0.0001
       YYY      -1.1098    XXZ      -1.8695    XYZ       0.0000
       YYZ       0.4801    XZZ      -0.0001    YZZ       0.1082
       ZZZ      -3.8402
    Hexadecapole Moments (Debye-Ang^3)
      XXXX    -210.4468   XXXY      -0.0003   XXYY     -45.3101
      XYYY      -0.0002   YYYY     -70.1831   XXXZ      -0.0003
      XXYZ       1.4793   XYYZ      -0.0001   YYYZ      -2.4428
      XXZZ     -39.7075   XYZZ      -0.0003   YYZZ     -17.7081
      XZZZ      -0.0002   YZZZ      -1.8052   ZZZZ     -44.7421
 -----------------------------------------------------------------
Archival summary:
1\1\centos77-c1\SP\ProcedureUnspecified\BasisUnspecified\38\shihchen\ThuJul204:22:112020ThuJul204:22:112020\0\\#,ProcedureUnspecified,BasisUnspecified,\\0,1\C\H,1,1.09157\H,1,1.09361,2,107.4\C,1,1.52405,2,98.9767,3,-123.447,0\H,4,1.08716,1,120.715,2,-24.4094,0\H,4,1.09047,1,111.168,2,-152.371,0\H,4,1.09658,1,101.131,2,94.5051,0\C,1,1.52405,2,98.9766,3,123.447,0\H,8,1.08716,1,120.714,2,24.4045,0\H,8,1.09047,1,111.168,2,152.365,0\H,8,1.09658,1,101.132,2,-94.5103,0\\\@

 Total job time:  24.82s(wall), 67.08s(cpu) 
 Thu Jul  2 04:22:11 2020

        *************************************************************
        *                                                           *
        *  Thank you very much for using Q-Chem.  Have a nice day.  *
        *                                                           *
        *************************************************************


