11
# Point -10 Energy = 0.06034174000001258
C       1.5286911956     -0.0001855077     0.2646720744
C       -0.0000000943     0.0026583917     -0.0585668056
H       1.9479209006     -0.8850109058     0.7435298001
H       1.9532562041     0.8806673184     0.7471584022
H       1.8779478195     0.0079152981     -0.7732488300
C       -1.5286914709     -0.0001860061     0.2646714665
H       0.0000011503     -0.8282831826     -0.7744269866
H       -0.0000004642     0.8188526823     -0.7901838669
H       -1.9479213583     -0.8850108641     0.7435300174
H       -1.8779488084     0.0079164822     -0.7732488741
H       -1.9532551345     0.8806669595     0.7471586216
11
# Point -9 Energy = 0.049527259999976536
C       1.5119692746     -0.0001962471     0.2644476541
C       -0.0000000877     0.0027487838     -0.1141400684
H       1.8996684729     -0.8852703500     0.7691526677
H       1.9048579974     0.8812160505     0.7724076461
H       1.9250252612     0.0067853165     -0.7492778002
C       -1.5119695495     -0.0001966807     0.2644471049
H       0.0000010361     -0.8345811622     -0.8218690999
H       -0.0000004303     0.8267630786     -0.8364059405
H       -1.8996688622     -0.8852702806     0.7691528984
H       -1.9250261504     0.0067864134     -0.7492778026
H       -1.9048570227     0.8812157438     0.7724077593
11
# Point -8 Energy = 0.03974285999998983
C       1.4931126700     -0.0001986051     0.2640623599
C       -0.0000000803     0.0027425131     -0.1695550879
H       1.8475006078     -0.8853753567     0.7929150003
H       1.8524452321     0.8816791628     0.7958204085
H       1.9688098817     0.0057180346     -0.7213099363
C       -1.4931129384     -0.0001989752     0.2640618709
H       0.0000009217     -0.8405013139     -0.8695723322
H       -0.0000003964     0.8341125107     -0.8828030273
H       -1.8475009307     -0.8853752627     0.7929152365
H       -1.9688106686     0.0057190505     -0.7213099052
H       -1.8524443595     0.8816789079     0.7958204316
11
# Point -7 Energy = 0.030976490000000467
C       1.4721177546     -0.0001932940     0.2635488047
C       -0.0000000721     0.0026446635     -0.2246507266
H       1.7915066590     -0.8853261920     0.8146968718
H       1.7961089946     0.8820425752     0.8172697318
H       2.0089809138     0.0047212731     -0.6893487600
C       -1.4721180104     -0.0001936024     0.2635483773
H       0.0000008074     -0.8460412819     -0.9173983606
H       -0.0000003622     0.8409080164     -0.9292390034
H       -1.7915069184     -0.8853260771     0.8146971058
H       -2.0089815969     0.0047222141     -0.6893487037
H       -1.7961082301     0.8820423711     0.8172696817
11
# Point -6 Energy = 0.023238619999986554
C       1.4489911165     -0.0001810134     0.2629419419
C       -0.0000000632     0.0024613873     -0.2792611438
H       1.7318017176     -0.8851231405     0.8343868578
H       1.7359678817     0.8822921668     0.8366362756
H       2.0452254000     0.0038011599     -0.6534246948
C       -1.4489913535     -0.0001812620     0.2629415769
H       0.0000006936     -0.8511981454     -0.9652026104
H       -0.0000003274     0.8471584788     -0.9755718144
H       -1.7318019172     -0.8851230094     0.8343870819
H       -2.0452259788     0.0038020318     -0.6534246219
H       -1.7359672298     0.8822920121     0.8366361702
11
# Point -5 Energy = 0.016562889999988784
C       1.4237499683     -0.0001624543     0.2622787416
C       -0.0000000537     0.0021997374     -0.3332171419
H       1.6685267024     -0.8847663874     0.8518836886
H       1.6721681439     0.8824140208     0.8538101720
H       2.0772418098     0.0029620034     -0.6135963131
C       -1.4237501802     -0.0001626454     0.2622784394
H       0.0000005804     -0.8559684519     -1.0128355476
H       -0.0000002919     0.8528743632     -1.0216547140
H       -1.6685268469     -0.8847662454     0.8518838955
H       -2.0772422847     0.0029628120     -0.6135962319
H       -1.6721676079     0.8824139137     0.8538100302
11
# Point -4 Energy = 0.010960759999974812
C       1.3964224585     -0.0001383058     0.2615978059
C       -0.0000000437     0.0018674699     -0.3863475930
H       1.6018480873     -0.8842559091     0.8670978311
H       1.6048834101     0.8823946706     0.8686928321
H       2.1047437400     0.0022062252     -0.5699512592
C       -1.3964226392     -0.0001384419     0.2615975664
H       0.0000004684     -0.8603482800     -1.0601440713
H       -0.0000002555     0.8580674148     -1.0673376020
H       -1.6018481823     -0.8842557625     0.8670980138
H       -2.1047441125     0.0022069759     -0.5699511783
H       -1.6048829916     0.8823946089     0.8686926734
11
# Point -3 Energy = 0.006431440000014277
C       1.3670478892     -0.0001092638     0.2609389259
C       -0.0000000333     0.0014728268     -0.4384809248
H       1.5319572612     -0.8835913793     0.8799529646
H       1.5343139917     0.8822213374     0.8811986594
H       2.1274636488     0.0015343524     -0.5226068157
C       -1.3670480330     -0.0001093477     0.2609387484
H       0.0000003578     -0.8643333264     -1.1069729768
H       -0.0000002180     0.8627503329     -1.1124684391
H       -1.5319573129     -0.8835912350     0.8799531167
H       -2.1274639215     0.0015350505     -0.5226067433
H       -1.5343136907     0.8822213183     0.8811985036
11
# Point -2 Energy = 0.0030105800000086447
C       1.3356768453     -0.0000760421     0.2603425923
C       -0.0000000224     0.0010243073     -0.4894466467
H       1.4590695261     -0.8827720946     0.8903873189
H       1.4606857774     0.8818821503     0.8912566269
H       2.1451565756     0.0009450704     -0.4717100777
C       -1.3356769464     -0.0000760769     0.2603424757
H       0.0000002490     -0.8679190138     -1.1531664653
H       -0.0000001793     0.8669364345     -1.1568947116
H       -1.4590695414     -0.8827719602     0.8903874343
H       -2.1451567522     0.0009457204     -0.4717100220
H       -1.4606855922     0.8818821708     0.8912564941
11
# Point -1 Energy = 0.0007997300000113228
C       1.3023712402     -0.0000386327     0.2598494691
C       -0.0000000113     0.0005335599     -0.5390768918
H       1.3834199552     -0.8817967323     0.8983544511
H       1.3842515324     0.8813665291     0.8988120677
H       2.1576037930     0.0004306942     -0.4174377188
C       -1.3023712933     -0.0000387086     0.2598494119
H       0.0000000978     -0.8710985843     -1.1985682300
H       -0.0000000951     0.8706413516     -1.2004663556
H       -1.3834199788     -0.8817967233     0.8983544916
H       -2.1576038784     0.0004314338     -0.4174376872
H       -1.3842514224     0.8813664786     0.8988120109
11
# Point 0 Energy = 0
C       1.2672042126     0.0000000000     0.2594997522
C       0.0000000000     0.0000000000     -0.5872081259
H       1.3052750505     -0.8806643351     0.9038259677
H       1.3052750505     0.8806643351     0.9038259677
H       2.1646165232     0.0000000000     -0.3599948239
C       -1.2672042126     -0.0000000181     0.2594997522
H       0.0000000000     -0.8738729764     -1.2430302913
H       -0.0000000606     0.8738729764     -1.2430302913
H       -1.3052750505     -0.8806643351     0.9038259677
H       -2.1646165232     0.0000006841     -0.3599948239
H       -1.3052750505     0.8806643351     0.9038259677
11
# Point 1 Energy = 0.0009411600000106546
C       1.2302559090     0.0000430165     0.2593338133
C       0.0000000115     -0.0005526030     -0.6336872531
H       1.2248854103     -0.8793719582     0.9067875997
H       1.2240511916     0.8797699763     0.9062803278
H       2.1660381024     -0.0003781871     -0.2996077629
C       -1.2302558513     0.0000430604     0.2593338679
H       -0.0000000913     -0.8762275642     -1.2864013475
H       -0.0000000290     0.8766544251     -1.2844543846
H       -1.2248853915     -0.8793719664     0.9067875575
H       -2.1660380238     -0.0003775664     -0.2996078010
H       -1.2240512986     0.8797700330     0.9062804017
11
# Point 2 Energy = 0.004071590000009451
C       1.1916162663     0.0000850205     0.2593906142
C       0.0000000231     -0.0011367869     -0.6783679640
H       1.1425493372     -0.8779199612     0.9072457466
H       1.1408571633     0.8786753003     0.9061697879
H       2.1617466607     -0.0006805441     -0.2365258742
C       -1.1916161466     0.0000851009     0.2593907204
H       -0.0000001901     -0.8781691515     -1.3285544974
H       0.0000000139     0.8789862763     -1.3245931712
H       -1.1425493166     -0.8779200138     0.9072456522
H       -2.1617465111     -0.0006799574     -0.2365259564
H       -1.1408573606     0.8786753830     0.9061699610
11
# Point 3 Energy = 0.010061679999992634
C       1.1513901629     0.0001270298     0.2597068874
C       0.0000000348     -0.0017380092     -0.7211061182
H       1.0585675116     -0.8763043575     0.9052215268
H       1.0560248097     0.8773758051     0.9035107849
H       2.1516566158     -0.0009274947     -0.1710312226
C       -1.1513899774     0.0001271426     0.2597070417
H       -0.0000002858     -0.8796885364     -1.3693479655
H       0.0000000575     0.8808845816     -1.3633170145
H       -1.0585674983     -0.8763044643     0.9052213782
H       -2.1516564039     -0.0009269405     -0.1710313539
H       -1.0560250875     0.8773759095     0.9035110745
11
# Point 4 Energy = 0.0199133699999976
C       1.1096927710     0.0001679875     0.2603165767
C       0.0000000465     -0.0023505661     -0.7617680992
H       0.9732592928     -0.8745217848     0.9007551326
H       0.9698901444     0.8758675459     0.8983383133
H       2.1357247243     -0.0011275033     -0.1034268651
C       -1.1096925165     0.0001681285     0.2603167752
H       -0.0000003780     -0.8807817172     -1.4086529476
H       0.0000001015     0.8823598448     -1.4005004814
H       -0.9732592959     -0.8745219558     0.9007549286
H       -2.1357244593     -0.0011269814     -0.1034270498
H       -0.9698904914     0.8758676680     0.8983387355
11
# Point 5 Energy = 0.03532757999998637
C       1.0666493661     0.0002067348     0.2612507216
C       0.0000000582     -0.0029696919     -0.8002315529
H       0.8869534616     -0.8725686001     0.8939047940
H       0.8827989515     0.8741480673     0.8907065604
H       2.1139506610     -0.0012894300     -0.0340353848
C       -1.0666490399     0.0002068998     0.2612509602
H       -0.0000004666     -0.8814453904     -1.4463497807
H       0.0000001457     0.8834216591     -1.4360273372
H       -0.8869534900     -0.8725688452     0.8939045347
H       -2.1139503528     -0.0012889407     -0.0340356260
H       -0.8827993554     0.8741482033     0.8907071296
11
# Point 6 Energy = 0.05915012999997771
C       1.0223947241     0.0002420054     0.2625369223
C       0.0000000699     -0.0035916294     -0.8363869077
H       0.7999849093     -0.8704409631     0.8847462469
H       0.7951032552     0.8722163524     0.8806884486
H       2.0863789207     -0.0014222660     0.0368047161
C       -1.0223943241     0.0002421901     0.2625371965
H       -0.0000005511     -0.8816771392     -1.4823292633
H       0.0000001898     0.8840787193     -1.4697918674
H       -0.7999849719     -0.8704412918     0.8847459330
H       -2.0863785798     -0.0014218105     0.0368044163
H       -0.7951037029     0.8722164988     0.8806891777
