11
# Point -5 Energy = 0.07085802999999657
C       1.1316215916     -0.0059350237     0.2641090536
C       0.0000000632     -0.0039835362     -0.4260217844
H       1.3018021282     -0.8888937668     0.8804346148
H       1.2872486423     0.8892078826     0.8677828833
H       1.8626400823     0.0058603746     -0.5429876645
C       -1.1316211602     -0.0059346565     0.2641096980
H       -0.0000011161     -0.8693834464     -1.0934622523
H       -0.0000001777     0.8728880149     -1.0781489417
H       -1.3018021339     -0.8888940143     0.8804342068
H       -1.8626384433     0.0058606984     -0.5429881668
H       -1.2872495369     0.8892081394     0.8677833722
11
# Point -4 Energy = 0.04222688999999491
C       1.1596070405     -0.0047411074     0.2630047615
C       0.0000000529     -0.0031132858     -0.4574289104
H       1.3041222666     -0.8877157443     0.8864256888
H       1.2927215097     0.8878661621     0.8761164393
H       1.9271012415     0.0046820071     -0.5099342794
C       -1.1596066784     -0.0047408033     0.2630052879
H       -0.0000008773     -0.8702622195     -1.1224996425
H       -0.0000001598     0.8731928139     -1.1102518487
H       -1.3041222742     -0.8877159364     0.8864253810
H       -1.9270999505     0.0046823866     -0.5099347183
H       -1.2927222316     0.8878663931     0.8761168597
11
# Point -3 Energy = 0.02216099999999699
C       1.1871643891     -0.0035484615     0.2619705814
C       0.0000000415     -0.0022769536     -0.4892775708
H       1.3055886808     -0.8863112286     0.8917611076
H       1.2972405338     0.8863523737     0.8838897213
H       1.9896355464     0.0034962800     -0.4750505602
C       -1.1871641047     -0.0035482203     0.2619709837
H       -0.0000006424     -0.8711476198     -1.1520012638
H       -0.0000001426     0.8734465672     -1.1428180132
H       -1.3055886855     -0.8863113598     0.8917608935
H       -1.9896345953     0.0034967131     -0.4750509165
H       -1.2972410815     0.8863525756     0.8838900559
11
# Point -2 Energy = 0.009205870000002392
C       1.2142872113     -0.0023592974     0.2610272587
C       0.0000000289     -0.0014774796     -0.5215417329
H       1.3062410350     -0.8846721786     0.8964383522
H       1.3008244608     0.8846551419     0.8910994836
H       2.0501352149     0.0023132374     -0.4383904189
C       -1.2142870132     -0.0023591189     0.2610275316
H       -0.0000004116     -0.8720427152     -1.1819413702
H       -0.0000001264     0.8736462856     -1.1758213512
H       -1.3062410325     -0.8846722426     0.8964382250
H       -2.0501345935     0.0023137224     -0.4383906741
H       -1.3008248342     0.8846553110     0.8910997151
11
# Point -1 Energy = 0.0021537599999987833
C       1.2409691772     -0.0011757735     0.2601963087
C       0.0000000151     -0.0007176294     -0.5541944717
H       1.3061216657     -0.8827917793     0.9004584923
H       1.3034947524     0.8827629948     0.8977446459
H       2.1084960424     0.0011438539     -0.4000156341
C       -1.2409690739     -0.0011756569     0.2601964472
H       -0.0000001850     -0.8729503222     -1.2122934228
H       -0.0000001114     0.8737892321     -1.2092347790
H       -1.3061216515     -0.8827917695     0.9004584450
H       -2.1084957388     0.0011443892     -0.4000157702
H       -1.3034949528     0.8827631269     0.8977447573
11
# Point 0 Energy = 0
C       1.2672042126     0.0000000000     0.2594997522
C       0.0000000000     0.0000000000     -0.5872081259
H       1.3052750505     -0.8806643351     0.9038259677
H       1.3052750505     0.8806643351     0.9038259677
H       2.1646165232     0.0000000000     -0.3599948239
C       -1.2672042126     -0.0000000181     0.2594997522
H       0.0000000000     -0.8738729764     -1.2430302913
H       -0.0000000606     0.8738729764     -1.2430302913
H       -1.3052750505     -0.8806643351     0.9038259677
H       -2.1646165232     0.0000006841     -0.3599948239
H       -1.3052750505     0.8806643351     0.9038259677
11
# Point 1 Energy = 0.0018996599999923092
C       1.2929859835     0.0011663415     0.2589603156
C       -0.0000000166     0.0006734429     -0.6205545049
H       1.3037389096     -0.8782870307     0.9065479508
H       1.3061856937     0.8783488865     0.9093465246
H       2.2184065040     -0.0011063478     -0.3184031219
C       -1.2929860953     0.0011663375     0.2589601736
H       0.0000002544     -0.8748127924     -1.2741240434
H       -0.0000000855     0.8738954611     -1.2771796932
H       -1.3037388603     -0.8782868504     0.9065480419
H       -2.2184067916     -0.0011057146     -0.3184029698
H       -1.3061855565     0.8783489323     0.9093463457
11
# Point 2 Energy = 0.007143400000018119
C       1.3183085631     0.0023216860     0.2586008497
C       -0.0000000347     0.0013006580     -0.6542049603
H       1.3015522550     -0.8756575970     0.9086339838
H       1.3062479139     0.8758062904     0.9143102144
H       2.2697785586     -0.0021624163     -0.2753196997
C       -1.3183087950     0.0023216234     0.2586005627
H       0.0000004670     -0.8757716853     -1.3055466495
H       -0.0000000753     0.8738548776     -1.3116539004
H       -1.3015521818     -0.8756573200     0.9086341329
H       -2.2697791161     -0.0021617364     -0.2753193808
H       -1.3062476152     0.8758062857     0.9143098661
11
# Point 3 Energy = 0.015139039999993997
C       1.3431658764     0.0034640482     0.2584451678
C       -0.0000000545     0.0018801039     -0.6881299183
H       1.2987631368     -0.8727747161     0.9100996651
H       1.3054909535     0.8730254873     0.9187247032
H       2.3186536343     -0.0031547518     -0.2308358733
C       -1.3431662367     0.0034639284     0.2584447337
H       0.0000006744     -0.8767507268     -1.3372696280
H       -0.0000000673     0.8737502258     -1.3464224920
H       -1.2987630361     -0.8727743339     0.9100998648
H       -2.3186544421     -0.0031540265     -0.2308353742
H       -1.3054904993     0.8730254274     0.9187241701
11
# Point 4 Energy = 0.025392960000004905
C       1.3675521120     0.0045914984     0.2585169516
C       -0.0000000761     0.0024106544     -0.7222997144
H       1.2954195576     -0.8696383612     0.9109638234
H       1.3039450379     0.8699956672     0.9225993004
H       2.3649593564     -0.0040696445     -0.1850478516
C       -1.3675526086     0.0045913231     0.2585163693
H       0.0000008766     -0.8777504060     -1.3692646455
H       -0.0000000616     0.8735811273     -1.3814546879
H       -1.2954194260     -0.8696378649     0.9109640663
H       -2.3649603932     -0.0040688747     -0.1850471605
H       -1.3039444357     0.8699955469     0.9225985677
11
# Point 5 Energy = 0.03749046000001499
C       1.3914615733     0.0057021651     0.2588398576
C       -0.0000000995     0.0028917036     -0.7566846020
H       1.2915689205     -0.8662499737     0.9112487332
H       1.3016413030     0.8667064760     0.9259452465
H       2.4086323268     -0.0048933755     -0.1380573154
C       -1.3914622139     0.0057019363     0.2588391265
H       0.0000010733     -0.8787705369     -1.4015035142
H       -0.0000000585     0.8733478974     -1.4167194035
H       -1.2915687547     -0.8662493543     0.9112490118
H       -2.4086335699     -0.0048925624     -0.1380564222
H       -1.3016405611     0.8667062905     0.9259443006
11
# Point 6 Energy = 0.05108168999998952
C       1.4148886819     0.0067942431     0.2594373697
C       -0.0000001247     0.0033232138     -0.7912549024
H       1.2872574411     -0.8626123818     0.9109798287
H       1.2986115073     0.8631481070     0.9287755121
H       2.4496187595     -0.0056124607     -0.0899705567
C       -1.4148894737     0.0067939631     0.2594364902
H       0.0000012643     -0.8798102209     -1.4339583338
H       -0.0000000581     0.8730515863     -1.4521854116
H       -1.2872572380     -0.8626116299     0.9109801356
H       -2.4496201849     -0.0056116055     -0.0899694532
H       -1.2986106353     0.8631478513     0.9287743402
