11
# Point -5 Energy = 0.06634130999999854
C       1.1861414641     0.0012653585     0.1876532434
C       0.1332760611     0.0000208505     -0.5814987930
H       1.2275068354     -0.8896560212     0.8128157851
H       1.2334857520     0.8892388692     0.8164178224
H       2.0511766229     0.0009970205     -0.4761512732
C       -1.3592770511     -0.0013629809     0.3210222614
H       0.3012821119     -0.8673894557     -1.2242471905
H       0.2975280595     0.8677759403     -1.2247522365
H       -1.3963985770     -0.8707460642     0.9850103695
H       -2.2842956212     -0.0012638390     -0.2566142131
H       -1.3904257182     0.8711209881     0.9813892434
11
# Point -4 Energy = 0.041252970000002165
C       1.2013643267     0.0010222074     0.2028051392
C       0.1065855058     0.0000130526     -0.5835438161
H       1.2418459833     -0.8879272275     0.8317631617
H       1.2466332242     0.8876018749     0.8346498198
H       2.0733237199     0.0008186052     -0.4519078538
C       -1.3401248729     -0.0010844039     0.3095550208
H       0.2415664927     -0.8697076139     -1.2309381103
H       0.2385535144     0.8699546319     -1.2312626575
H       -1.3773009809     -0.8728084092     0.9695680616
H       -2.2599292892     -0.0009887770     -0.2763143196
H       -1.3725176847     0.8731067254     0.9666705733
11
# Point -3 Energy = 0.02268816000000129
C       1.2170938870     0.0007736770     0.2175783510
C       0.0799187962     0.0000072304     -0.5851424322
H       1.2568072417     -0.8861644254     0.8503501483
H       1.2603999426     0.8859258396     0.8525181011
H       2.0957441496     0.0006296542     -0.4281584463
C       -1.3213125488     -0.0008085301     0.2976723937
H       0.1814930400     -0.8715229446     -1.2361971379
H       0.1792275681     0.8716617704     -1.2363802960
H       -1.3586002330     -0.8748306471     0.9537321684
H       -2.2357620864     -0.0007249903     -0.2964865852
H       -1.3550098177     0.8750540320     0.9515587540
11
# Point -2 Energy = 0.009922210000013365
C       1.2333202442     0.0005201976     0.2319591945
C       0.0532700913     0.0000032041     -0.5862886479
H       1.2723784881     -0.8843668505     0.8685633764
H       1.2747746117     0.8842108433     0.8700101527
H       2.1184363221     0.0004302300     -0.4049174186
C       -1.3028697474     -0.0005356340     0.2853697335
H       0.1211464825     -0.8728263144     -1.2399835078
H       0.1196333930     0.8728880087     -1.2400651295
H       -1.3403370523     -0.8768135326     0.9374975828
H       -2.2118108508     -0.0004722894     -0.3171489178
H       -1.3379420431     0.8769628033     0.9360486006
11
# Point -1 Energy = 0.0024562500000087084
C       1.2500295683     0.0002621734     0.2459360619
C       0.0266328384     0.0000008437     -0.5869780611
H       1.2885420897     -0.8825337444     0.8863915878
H       1.2897404103     0.8824569630     0.8871154978
H       2.1413960396     0.0002203425     -0.3821945711
C       -1.2848248428     -0.0002660074     0.2726451733
H       0.0606173179     -0.8736110685     -1.2422672846
H       0.0598598862     0.8736265378     -1.2422877610
H       -1.3225500877     -0.8787578197     0.9208619873
H       -2.1880910758     -0.0002304982     -0.3383151994
H       -1.3213522047     0.8788329439     0.9201375880
11
# Point 0 Energy = 0
C       1.2672042126     0.0000000000     0.2594997522
C       0.0000000000     0.0000000000     -0.5872081259
H       1.3052750505     -0.8806643351     0.9038259677
H       1.3052750505     0.8806643351     0.9038259677
H       2.1646165232     0.0000000000     -0.3599948239
C       -1.2672042126     -0.0000000181     0.2594997522
H       0.0000000000     -0.8738729764     -1.2430302913
H       -0.0000000606     0.8738729764     -1.2430302913
H       -1.3052750505     -0.8806643351     0.9038259677
H       -2.1646165232     0.0000006841     -0.3599948239
H       -1.3052750505     0.8806643351     0.9038259677
11
# Point 1 Energy = 0.0024562500000087084
C       1.2848248648     -0.0002660783     0.2726452038
C       -0.0266328387     0.0000008484     -0.5869780874
H       1.3225501353     -0.8787579379     0.9208619709
H       1.3213522275     0.8788328650     0.9201376134
H       2.1880910956     -0.0002310500     -0.3383151922
C       -1.2500295904     0.0002622142     0.2459360920
H       -0.0606172438     -0.8736110680     -1.2422673168
H       -0.0598600818     0.8736265256     -1.2422877950
H       -1.2885420773     -0.8825336799     0.8863916218
H       -2.1413960592     0.0002209609     -0.3821945639
H       -1.2897404927     0.8824570660     0.8871154723
11
# Point 2 Energy = 0.009922210000013365
C       1.3028697914     -0.0005357204     0.2853697948
C       -0.0532700924     0.0000032138     -0.5862887004
H       1.3403371185     -0.8768136784     0.9374975758
H       1.3379421186     0.8769627371     0.9360486260
H       2.2118108906     -0.0004728087     -0.3171489035
C       -1.2333202884     0.0005202238     0.2319592543
H       -0.1211464085     -0.8728263132     -1.2399835724
H       -0.1196335894     0.8728879847     -1.2400651972
H       -1.2723784927     -0.8843668127     0.8685634180
H       -2.1184363612     0.0004308828     -0.4049174043
H       -1.2747747472     0.8842109572     0.8700101278
11
# Point 3 Energy = 0.022688149999993357
C       1.3213126151     -0.0008086321     0.2976724860
C       -0.0799187987     0.0000072450     -0.5851425106
H       1.3586003187     -0.8748308208     0.9537321712
H       1.3550099461     0.8750539791     0.9515587791
H       2.2357621467     -0.0007254774     -0.2964865640
C       -1.2170939538     0.0007736887     0.2175784403
H       -0.1814929659     -0.8715229427     -1.2361972346
H       -0.1792277660     0.8716617344     -1.2363803971
H       -1.2568072630     -0.8861644140     0.8503501968
H       -2.0957442083     0.0006303420     -0.4281584250
H       -1.2604001316     0.8859259639     0.8525180769
11
# Point 4 Energy = 0.04125293999999258
C       1.3401249619     -0.0010845217     0.3095551444
C       -0.1065855101     0.0000130720     -0.5835439200
H       1.3773010872     -0.8728086111     0.9695680745
H       1.3725178664     0.8731066864     0.9666705980
H       2.2599293706     -0.0009892326     -0.2763142916
C       -1.2013644165     0.0010222052     0.2028052573
H       -0.2415664187     -0.8697076118     -1.2309382388
H       -0.2385537144     0.8699545840     -1.2312627917
H       -1.2418460213     -0.8879272423     0.8317632163
H       -2.0733237983     0.0008193287     -0.4519078259
H       -1.2466334675     0.8876020091     0.8346497965
11
# Point 5 Energy = 0.06634124000001407
C       1.3592771633     -0.0013631147     0.3210224165
C       -0.1332760677     0.0000208746     -0.5814989218
H       1.3963987050     -0.8707462946     0.9850103928
H       1.3904259538     0.8711209634     0.9813892675
H       2.2842957242     -0.0012642633     -0.2566141786
C       -1.1861415776     0.0012653426     0.1876533899
H       -0.3012820379     -0.8673894536     -1.2242473504
H       -0.2975282621     0.8677758803     -1.2247524032
H       -1.2275068902     -0.8896560618     0.8128158448
H       -2.0511767211     0.0009977805     -0.4761512390
H       -1.2334860505     0.8892390127     0.8164178003
