11
# Point -4 Energy = 0.05510425999999313
C       1.2873332900     0.0529942156     0.2382621381
C       0.0226755473     0.0051852339     -0.5908878092
H       1.5050365005     -0.7751751797     0.9304690745
H       1.1231347845     0.7853769411     1.0242522344
H       2.1212032771     -0.2197673494     -0.4031017215
C       -1.2453632440     -0.0392531669     0.2732026622
H       0.0296075543     -0.8703356849     -1.2444719562
H       -0.0655856422     0.8740478742     -1.2474279430
H       -1.1070701041     -0.9371914911     0.8620091506
H       -2.1694925277     0.2117013970     -0.2561280258
H       -1.5014794964     0.9124178762     0.7548672148
11
# Point -3 Energy = 0.030843980000000215
C       1.2824382079     0.0387638718     0.2441174351
C       0.0168987807     0.0029025323     -0.5893284750
H       1.4549075813     -0.8061842850     0.9250375103
H       1.1674420101     0.8152959795     0.9975480016
H       2.1364187682     -0.1640716541     -0.3982746869
C       -1.2509884091     -0.0310348169     0.2705434344
H       0.0222162179     -0.8719072225     -1.2438792127
H       -0.0496117803     0.8739289478     -1.2455650582
H       -1.1564440603     -0.9276715163     0.8740460283
H       -2.1716663284     0.1596509397     -0.2872713126
H       -1.4516110485     0.9103278897     0.7940713546
11
# Point -2 Energy = 0.013674329999986412
C       1.2774744622     0.0251321345     0.2496656157
C       0.0112324088     0.0012863417     -0.5881646271
H       1.4049502176     -0.8340701809     0.9188387396
H       1.2123900767     0.8411013574     0.9684165831
H       2.1484473170     -0.1089157819     -0.3895046703
C       -1.2564916194     -0.0216962134     0.2673773819
H       0.0148374373     -0.8730052931     -1.2434188317
H       -0.0332567979     0.8738848626     -1.2441749264
H       -1.2059343468     -0.9150664798     0.8849983014
H       -2.1715390496     0.1069847307     -0.3150994922
H       -1.4021101664     0.9043651881     0.8321109448
11
# Point -1 Energy = 0.0034173900000098456
C       1.2723996611     0.0121811843     0.2548124710
C       0.0056099392     0.0003211944     -0.5874490210
H       1.3550796258     -0.8588902883     0.9117878181
H       1.2583010824     0.8628771252     0.9371073467
H       2.1577537787     -0.0542299866     -0.3767323961
C       -1.2618973299     -0.0113219207     0.2636941847
H       0.0074311780     -0.8736562902     -1.2431294702
H       -0.0166788104     0.8738736643     -1.2433195395
H       -1.2555509121     -0.8993924161     0.8949103779
H       -2.1691883844     0.0537519525     -0.3394007900
H       -1.3532598889     0.8944864472     0.8687640372
11
# Point 0 Energy = 0
C       1.2672042126     0.0000000000     0.2594997522
C       0.0000000000     0.0000000000     -0.5872081259
H       1.3052750505     -0.8806643351     0.9038259677
H       1.3052750505     0.8806643351     0.9038259677
H       2.1646165232     0.0000000000     -0.3599948239
C       -1.2672042126     -0.0000000181     0.2594997522
H       0.0000000000     -0.8738729764     -1.2430302913
H       -0.0000000606     0.8738729764     -1.2430302913
H       -1.3052750505     -0.8806643351     0.9038259677
H       -2.1646165232     0.0000006841     -0.3599948239
H       -1.3052750505     0.8806643351     0.9038259677
11
# Point 1 Energy = 0.003417360000000258
C       1.2618972210     -0.0113223572     0.2636941784
C       -0.0056099356     0.0003208382     -0.5874494943
H       1.2555505377     -0.8993939940     0.8949086689
H       1.3532612673     0.8944874041     0.8687617138
H       2.1691890831     0.0537525965     -0.3393995541
C       -1.2723995494     0.0121807707     0.2548124637
H       -0.0074311070     -0.8736590388     -1.2431265713
H       0.0166785973     0.8738759063     -1.2433163357
H       -1.3550791027     -0.8588918220     0.9117862379
H       -2.1577546217     -0.0542282091     -0.3767313805
H       -1.2583024505     0.8628785713     0.9371050920
11
# Point 2 Energy = 0.013674300000005246
C       1.2564914088     -0.0216969365     0.2673773663
C       -0.0112323923     0.0012856285     -0.5881655779
H       1.2059336532     -0.9150694110     0.8849948345
H       1.4021130070     0.9043668964     0.8321061695
H       2.1715403045     0.1069866270     -0.3150968118
C       -1.2774742374     0.0251311690     0.2496655942
H       -0.0148373725     -0.8730107926     -1.2434130294
H       0.0332565342     0.8738893485     -1.2441685328
H       -1.4049491041     -0.8340734852     0.9188356342
H       -2.1484491548     -0.1089128553     -0.3895028653
H       -1.2123927073     0.8411044774     0.9684122373
11
# Point 3 Energy = 0.03084396999997807
C       1.2509881131     -0.0310357287     0.2705434033
C       -0.0168987342     0.0029014599     -0.5893299131
H       1.1564431315     -0.9276756730     0.8740407306
H       1.4516153872     0.9103300609     0.7940640417
H       2.1716680003     0.1596540950     -0.2872669949
C       -1.2824378653     0.0387622773     0.2441173831
H       -0.0222161523     -0.8719154772     -1.2438705008
H       0.0496114428     0.8739356819     -1.2455555022
H       -1.4549057668     -0.8061895177     0.9250329585
H       -2.1364217748     -0.1640676197     -0.3982723141
H       -1.1674458421     0.8153011072     0.9975417269
11
# Point 4 Energy = 0.05510429000000272
C       1.2453628938     -0.0392541676     0.2732026060
C       -0.0226754374     0.0051837966     -0.5908897532
H       1.1070690282     -0.9371967496     0.8620019494
H       1.5014853524     0.9124202314     0.7548572942
H       2.1694944868     0.2117057974     -0.2561218970
C       -1.2873328147     0.0529919198     0.2382620235
H       -0.0296074600     -0.8703467042     -1.2444603284
H       0.0655852282     0.8740568592     -1.2474152699
H       -1.5050338499     -0.7751825181     0.9304631482
H       -2.1212076788     -0.2197622341     -0.4030989811
H       -1.1231398090     0.7853844352     1.0242442272
