11
# Point -5 Energy = 0.05223346000001072
C       1.3607428514     -0.0352915703     0.1033704587
C       0.0682809500     -0.0013673018     -0.5919972110
H       1.2092152776     -0.8241351596     0.8431236112
H       1.0972067690     0.8380997531     0.7082945002
H       2.4105109046     -0.0084623492     -0.1770028856
C       -1.1606472732     0.0420084022     0.4001856618
H       -0.2653121799     -0.8449616405     -1.2009477342
H       -0.0736268123     0.8712463733     -1.2339975236
H       -1.3511334454     -0.8954542749     0.9262647827
H       -1.8117464903     -0.0025163334     -0.4778893336
H       -1.4834906121     0.8608347671     1.0416406922
11
# Point -4 Energy = 0.03359716999999307
C       1.3441055769     -0.0292919184     0.1344234358
C       0.0549000783     -0.0008113478     -0.5903497466
H       1.2316429679     -0.8404347119     0.8567878023
H       1.1380460000     0.8508373898     0.7507862508
H       2.3733020383     -0.0049548775     -0.2163730717
C       -1.1817254643     0.0337150796     0.3744640909
H       -0.2154292698     -0.8550575433     -1.2156032271
H       -0.0597508717     0.8723058590     -1.2370941150
H       -1.3454919375     -0.8941380981     0.9260151288
H       -1.8865217281     -0.0018368228     -0.4606187303
H       -1.4530774507     0.8696676575     1.0186072010
11
# Point -3 Energy = 0.018991119999995476
C       1.3263244717     -0.0226908137     0.1658108618
C       0.0413454089     -0.0004249876     -0.5890105836
H       1.2527713858     -0.8540449597     0.8699359985
H       1.1797584915     0.8616888534     0.7920515332
H       2.3298122661     -0.0024852636     -0.2549680066
C       -1.2031481347     0.0252325752     0.3473956718
H       -0.1634675357     -0.8631458183     -1.2273841859
H       -0.0453285613     0.8730474883     -1.2396181372
H       -1.3384044221     -0.8922206213     0.9235760735
H       -1.9599678166     -0.0012271119     -0.4402124849
H       -1.4196956142     0.8762713253     0.9934682785
11
# Point -2 Energy = 0.008481820000014295
C       1.3074786219     -0.0155547963     0.1972958452
C       0.0276433922     -0.0001779972     -0.5880212265
H       1.2722726128     -0.8651159281     0.8823503146
H       1.2219158104     0.8704174608     0.8315783145
H       2.2802259561     -0.0009449834     -0.2921490099
C       -1.2247005867     0.0167006173     0.3190942078
H       -0.1098913147     -0.8690583391     -1.2360086432
H       -0.0304708659     0.8735255597     -1.2414900762
H       -1.3294864819     -0.8895164431     0.9189674773
H       -2.0313458340     -0.0006708880     -0.4166117333
H       -1.3836413707     0.8803964034     0.9660395486
11
# Point -1 Energy = 0.0021289299999978084
C       1.2877073509     -0.0079618992     0.2286164065
C       0.0138407058     -0.0000427078     -0.5874134706
H       1.2898504274     -0.8738867601     0.8937509304
H       1.2639635079     0.8768005984     0.8689366501
H       2.2249566279     -0.0001772947     -0.3273221147
C       -1.2461386993     0.0082504058     0.2897252847
H       -0.0552182337     -0.8726621947     -1.2412657899
H       -0.0153111433     0.8737893039     -1.2426420517
H       -1.3184787684     -0.8857682639     0.9123116352
H       -2.0998435147     -0.0002220972     -0.3898317691
H       -1.3453283211     0.8818815755     0.9361793081
11
# Point 0 Energy = 0
C       1.2672042126     0.0000000000     0.2594997522
C       0.0000000000     0.0000000000     -0.5872081259
H       1.3052750505     -0.8806643351     0.9038259677
H       1.3052750505     0.8806643351     0.9038259677
H       2.1646165232     0.0000000000     -0.3599948239
C       -1.2672042126     -0.0000000181     0.2594997522
H       0.0000000000     -0.8738729764     -1.2430302913
H       -0.0000000606     0.8738729764     -1.2430302913
H       -1.3052750505     -0.8806643351     0.9038259677
H       -2.1646165232     0.0000006841     -0.3599948239
H       -1.3052750505     0.8806643351     0.9038259677
11
# Point 1 Energy = 0.0021289299999978084
C       1.2461385423     0.0082502548     0.2897252802
C       -0.0138407045     -0.0000427607     -0.5874133996
H       1.3184788852     -0.8857683558     0.9123117101
H       1.3453282886     0.8818814719     0.9361792430
H       2.0998432703     -0.0002225544     -0.3898319005
C       -1.2877071886     -0.0079619347     0.2286164073
H       0.0552183108     -0.8726622131     -1.2412658034
H       0.0153109468     0.8737893259     -1.2426418730
H       -1.2898504844     -0.8738866718     0.8937510683
H       -2.2249563861     -0.0001765901     -0.3273222630
H       -1.2639635411     0.8768006939     0.8689365497
11
# Point 2 Energy = 0.008481820000014295
C       1.2247002782     0.0167003677     0.3190941929
C       -0.0276433870     -0.0001781013     -0.5880210852
H       1.3294866784     -0.8895165361     0.9189676389
H       1.3836413261     0.8803962717     0.9660393810
H       2.0313453482     -0.0006712124     -0.4166119793
C       -1.3074782921     -0.0155549180     0.1972958510
H       0.1098914010     -0.8690583736     -1.2360086716
H       0.0304706661     0.8735256064     -1.2414897188
H       -1.2722727477     -0.8651158464     0.8823505745
H       -2.2802254813     -0.0009441701     -0.2921493222
H       -1.2219158505     0.8704175781     0.8315781577
11
# Point 3 Energy = 0.018991119999995476
C       1.2031476799     0.0252322251     0.3473956403
C       -0.0413453975     -0.0004251411     -0.5890103735
H       1.3384046826     -0.8922207164     0.9235763102
H       1.4196955457     0.8762711541     0.9934679986
H       1.9599670972     -0.0012273021     -0.4402128301
C       -1.3263239702     -0.0226910149     0.1658108761
H       0.1634676369     -0.8631458689     -1.2273842287
H       0.0453283557     0.8730475605     -1.2396176035
H       -1.2527715800     -0.8540448867     0.8699363886
H       -2.3298115732     -0.0024843572     -0.2549684962
H       -1.1797585379     0.8616890137     0.7920513372
11
# Point 4 Energy = 0.033597180000015214
C       1.1817248682     0.0337146279     0.3744640366
C       -0.0549000588     -0.0008115483     -0.5903494695
H       1.3454922420     -0.8941381985     0.9260154302
H       1.4530773451     0.8696674384     1.0186068027
H       1.8865207861     -0.0018368804     -0.4606191614
C       -1.3441049001     -0.0292921916     0.1344234618
H       0.2154293905     -0.8550576097     -1.2156032835
H       0.0597506583     0.8723059581     -1.2370934082
H       -1.2316431955     -0.8404346483     0.8567883276
H       -2.3733011469     -0.0049538968     -0.2163737492
H       -1.1380460495     0.8508376152     0.7507860319
11
# Point 5 Energy = 0.05223346000001072
C       1.1606465404     0.0420078481     0.4001855786
C       -0.0682809210     -0.0013675463     -0.5919968688
H       1.3511337724     -0.8954543857     0.9262651401
H       1.4834904570     0.8608344940     1.0416401720
H       1.8117453385     -0.0025162622     -0.4778898401
C       -1.3607419963     -0.0352919071     0.1033704988
H       0.2653123239     -0.8449617228     -1.2009478030
H       0.0736265895     0.8712465012     -1.2339966472
H       -1.2092155090     -0.8241351043     0.8431242734
H       -2.4105098378     -0.0084613159     -0.1770037591
H       -1.0972068181     0.8381000669     0.7082942742
