11
# Point 0 Energy = 0
C       1.2672042126     0.0000000000     0.2594997522
C       0.0000000000     0.0000000000     -0.5872081259
H       1.3052750505     -0.8806643351     0.9038259677
H       1.3052750505     0.8806643351     0.9038259677
H       2.1646165232     0.0000000000     -0.3599948239
C       -1.2672042126     -0.0000000181     0.2594997522
H       0.0000000000     -0.8738729764     -1.2430302913
H       -0.0000000606     0.8738729764     -1.2430302913
H       -1.3052750505     -0.8806643351     0.9038259677
H       -2.1646165232     0.0000006841     -0.3599948239
H       -1.3052750505     0.8806643351     0.9038259677
11
# Point 1 Energy = 0.0003693600000076458
C       1.2671511160     -0.0066932549     0.2596480631
C       -0.0001529807     -0.0235031686     -0.5867433965
H       1.3827699142     -0.9445184059     0.8067237857
H       1.2344348131     0.8005146740     0.9941686741
H       2.1579811669     0.1348543562     -0.3531395868
C       -1.2670623052     0.0247396945     0.2590308992
H       -0.0111442400     -0.9218573511     -1.2085115722
H       0.0105324447     0.8244640206     -1.2756513562
H       -1.3159026107     -0.8299827444     0.9367030138
H       -2.1645499756     0.0120725729     -0.3602249542
H       -1.2940574032     0.9299102727     0.8690414487
11
# Point 2 Energy = 0.0013154199999831917
C       1.2669921172     -0.0133809981     0.2600925499
C       -0.0006115551     -0.0469710174     -0.5853501988
H       1.4650410278     -0.9909280622     0.7043422054
H       1.1719596145     0.7055361954     1.0763684314
H       2.1382413374     0.2671260433     -0.3326699325
C       -1.2666365103     0.0494377088     0.2576251456
H       -0.0228844627     -0.9683417369     -1.1721525582
H       0.0204384877     0.7737084584     -1.3063212023
H       -1.3259247984     -0.7779498484     0.9676184106
H       -2.1643502187     0.0241251252     -0.3609148988
H       -1.2822650999     0.9776387978     0.8324070665
11
# Point 3 Energy = 0.0026256499999988137
C       1.2667280382     -0.0200576941     0.2608319867
C       -0.0013747692     -0.0703684943     -0.5830311213
H       1.5500935533     -1.0190795723     0.5982375610
H       1.1193499441     0.5974771042     1.1491527331
H       2.1058862693     0.3942855280     -0.2988680027
C       -1.2659264948     0.0740527072     0.2552845722
H       -0.0352042605     -1.0132533564     -1.1340131366
H       0.0297041515     0.7216856313     -1.3349897915
H       -1.3353262941     -0.7246512649     0.9965211940
H       -2.1640168172     0.0361391693     -0.3620636126
H       -1.2699133813     1.0237709078     0.7939826366
11
# Point 4 Energy = 0.003909399999997731
C       1.2663602518     -0.0267174923     0.2618642927
C       -0.0024409779     -0.0936603855     -0.5797906195
H       1.6358641678     -1.0285135486     0.4900279790
H       1.0778575280     0.4783374453     1.2113764460
H       2.0617191941     0.5139052943     -0.2522040190
C       -1.2649317949     0.0985433233     0.2520127917
H       -0.0480860500     -1.0565216699     -1.0941567711
H       0.0383162686     0.6684774862     -1.3616106594
H       -1.3440917057     -0.6701751276     1.0233636442
H       -2.1635490974     0.0480953762     -0.3636692871
H       -1.2570178450     1.0682299647     0.7538312215
11
# Point 5 Energy = 0.004843800000003284
C       1.2658906478     -0.0333541820     0.2631865708
C       -0.0038078840     -0.1168114850     -0.5756349065
H       1.7202751711     -1.0191318452     0.3813736925
H       1.0484538287     0.3503263492     1.2620365899
H       2.0068349733     0.6237090409     -0.1933313856
C       -1.2636518377     0.1228684114     0.2478148457
H       -0.0615111580     -1.0980786475     -1.0526499336
H       0.0462624120     0.6141680023     -1.3861410463
H       -1.3522056206     -0.6146114135     1.0481014259
H       -2.1629461729     0.0599743706     -0.3657294002
H       -1.2435944205     1.1109420648     0.7120185664
11
# Point 6 Energy = 0.005176950000006286
C       1.2653216005     -0.0399610949     0.2647951253
C       -0.0054725456     -0.1397865975     -0.5705719270
H       1.8012876862     -0.9911979104     0.2739576250
H       1.0318058626     0.2158171100     1.3002865781
H       1.9425914042     0.7216166389     -0.1230815477
C       -1.2620860129     0.1469871236     0.2426971877
H       -0.0754597552     -1.1378588286     -1.0095619549
H       0.0535308812     0.5588431054     -1.4085419543
H       -1.3596526702     -0.5580517847     1.0706936548
H       -2.1622069974     0.0717567338     -0.3682407258
H       -1.2296595141     1.1518361704     0.6686129578
11
# Point 7 Energy = 0.0048353699999950095
C       1.2646559289     -0.0465310261     0.2666854830
C       -0.0074313881     -0.1625505430     -0.5646113262
H       1.8769536940     -0.9453295195     0.1694650388
H       1.0282600724     0.0772991104     1.3254496082
H       1.8705737130     0.8057846238     -0.0424570795
C       -1.2602337593     0.1708589873     0.2366676651
H       -0.0899108021     -1.1757993766     -0.9649648757
H       0.0601107051     0.5025905836     -1.4287781879
H       -1.3664176318     -0.5005894312     1.0911029523
H       -2.1613304304     0.0834230207     -0.3711993455
H       -1.2152301623     1.1908442367     0.6236850865
11
# Point 8 Energy = 0.003908150000000887
C       1.2638968490     -0.0530561755     0.2688524193
C       -0.0096802203     -0.1850681649     -0.5577644143
H       1.9454655105     -0.8824841404     0.0695622499
H       1.0378346551     -0.0626722763     1.3370310173
H       1.7925532144     0.8746413500     0.0473771809
C       -1.2580946631     0.1944439872     0.2297355001
H       -0.1048420105     -1.2118401311     -0.9189333010
H       0.0659916599     0.4455000040     -1.4468183795
H       -1.3724855599     -0.4423189157     1.1092954873
H       -2.1603153116     0.0949537923     -0.3746006589
H       -1.2003241841     1.2279013364     0.5773079178
11
# Point 9 Energy = 0.002653439999974694
C       1.2630479198     -0.0595281107     0.2712899879
C       -0.0122142546     -0.2073043417     -0.5500441275
H       2.0052013955     -0.8039373677     -0.0241255383
H       1.0602205111     -0.2015266451     1.3347293527
H       1.7104412703     0.9269160875     0.1451051412
C       -1.2556685641     0.2177026476     0.2219112735
H       -0.1202298255     -1.2459236600     -0.8715442586
H       0.0711643010     0.3876626296     -1.4626350032
H       -1.3778419453     -0.3833360187     1.1252410134
H       -2.1591605422     0.1063296625     -0.3784393933
H       -1.1849603266     1.2629457827     0.5295565711
11
# Point 10 Energy = 0.0014030600000012328
C       1.2621129847     -0.0659377528     0.2739915541
C       -0.0150281341     -0.2292240056     -0.5414649866
H       2.0547660941     -0.7112550206     -0.1100371604
H       1.0947907474     -0.3367292218     1.3184458615
H       1.6262397993     0.9616615077     0.2492727810
C       -1.2529556659     0.2405961178     0.2132069105
H       -0.1360494293     -1.2779953159     -0.8228770609
H       0.0756200034     0.3291713319     -1.4762043801
H       -1.3824728925     -0.3237375848     1.1389129015
H       -2.1578651709     0.1175313576     -0.3827096112
H       -1.1691583968     1.2959192522     0.4805082094
11
# Point 11 Energy = 0.0004791699999913135
C       1.2610961083     -0.0722753829     0.2769498325
C       -0.0181159644     -0.2507921701     -0.5320430523
H       2.0930252625     -0.6062596454     -0.1866989802
H       1.1406184332     -0.4658301017     1.2882920614
H       1.5419896715     0.9782691827     0.3583039377
C       -1.2499566457     0.2630862591     0.2036356705
H       -0.1522747690     -1.3080033000     -0.7730131691
H       0.0793510108     0.2701204962     -1.4875066775
H       -1.3863653108     -0.2636213680     1.1502881742
H       -2.1564284806     0.1285397877     -0.3874047146
H       -1.1529393763     1.3267669084     0.4302419363
11
# Point 12 Energy = 0.00013917999999080166
C       1.2600015113     -0.0785306703     0.2801569275
C       -0.0214713510     -0.2719739675     -0.5217958779
H       2.1191328970     -0.4909922792     -0.2527486780
H       1.1965020902     -0.5865110084     1.2445950288
H       1.4597183721     0.9764779043     0.4705186440
C       -1.2466727615     0.2851357318     0.1932121408
H       -0.1688786076     -1.3358987352     -0.7220360562
H       0.0823504865     0.2106059147     -1.4965259045
H       -1.3895071101     -0.2030858742     1.1593475416
H       -2.1548500745     0.1393361249     -0.3925174462
H       -1.1363255129     1.3554375251     0.3788386989
11
# Point 13 Energy = 0.00045527999999706026
C       1.2588335047     -0.0846927172     0.2836043787
C       -0.0250874410     -0.2927346983     -0.5107424584
H       2.1325510853     -0.3676704185     -0.3069589915
H       1.2609981950     -0.6966286029     1.1879000306
H       1.3813883208     0.9563748129     0.5841540473
C       -1.2431059514     0.3067080820     0.1819522329
H       -0.1858325978     -1.3616357502     -0.6700310650
H       0.0846125660     0.1507246626     -1.5032499041
H       -1.3918873952     -0.1422301985     1.1660754427
H       -2.1531299574     0.1499018854     -0.3980398877
H       -1.1193403896     1.3818836088     0.3263811935
11
# Point 14 Energy = 0.0013861599999813734
C       1.2575964243     -0.0907501197     0.2872832096
C       -0.0289569696     -0.3130398934     -0.4989031738
H       2.1330616012     -0.2386431977     -0.3482609963
H       1.3324597929     -0.7942534965     1.1189701318
H       1.3088472122     0.9183894951     0.6973878651
C       -1.2392589236     0.3277678266     0.1698731815
H       -0.2031073737     -1.3851715742     -0.6170852573
H       0.0861324072     0.0905749546     -1.5076703425
H       -1.3934966528     -0.0811538582     1.1704600883
H       -2.1512686122     0.1602190120     -0.4039634556
H       -1.1020089666     1.4060615174     0.2729537680
11
# Point 15 Energy = 0.00265384000000779
C       1.2562945684     -0.0966910410     0.2911839812
C       -0.0330723076     -0.3328553887     -0.4862997281
H       2.1207690896     -0.1063448087     -0.3757664498
H       1.4090801637     -0.8777042478     1.0387824388
H       1.2437816737     0.8632813742     0.8083642467
C       -1.2351352353     0.3482805343     0.1569935436
H       -0.2206726598     -1.4064666417     -0.5632872519
H       0.0869062373     0.0302559786     -1.5097826930
H       -1.3943269250     -0.0199566176     1.1724935066
H       -2.1492670666     0.1702699523     -0.4102788952
H       -1.0843575991     1.4279315722     0.2186423200
11
# Point 16 Energy = 0.003944479999987038
C       1.2549321388     -0.1025032948     0.2952968505
C       -0.0374255103     -0.3521474114     -0.4729550808
H       2.0960958081     0.0267528054     -0.3887886733
H       1.4889403568     -0.9455757768     0.9485206750
H       1.1876754438     0.7921208590     0.9152218164
C       -1.2307393565     0.3682129012     0.1433331958
H       -0.2384973915     -1.4254847038     -0.5087270482
H       0.0869313957     -0.0301322947     -1.5095862135
H       -1.3943719661     0.0412616926     1.1721715868
H       -2.1471269506     0.1800377299     -0.4169762750
H       -1.0664140288     1.4474581593     0.1635341852
11
# Point 17 Energy = 0.004888469999997369
C       1.2535131877     -0.1081744345     0.2996116336
C       -0.0420083655     -0.3708826766     -0.4588933714
H       2.0597681170     0.1581869796     -0.3868614035
H       1.5700593173     -0.9967617787     0.8495638516
H       1.1417731458     0.7062648378     1.0161235803
C       -1.2260767196     0.3875328200     0.1289133289
H       -0.2565498432     -1.4421929418     -0.4534958353
H       0.0862063723     -0.0904893240     -1.5070839145
H       -1.3936273788     0.1024013612     1.1694941167
H       -2.1448505414     0.1895060065     -0.4240449832
H       -1.0482073521     1.4646098166     0.1077180157
11
# Point 18 Energy = 0.0052289699999903405
C       1.2520415707     -0.1136918476     0.3041178751
C       -0.0468124377     -0.3890284922     -0.4441398377
H       2.0127951235     0.2855501277     -0.3697550286
H       1.6504452622     -1.0304708777     0.7434708706
H       1.1070505790     0.6073272066     1.1092882766
C       -1.2211537526     0.4062094389     0.1137564372
H       -0.2747977610     -1.4565620804     -0.3976857889
H       0.0847308435     -0.1507142289     -1.5022825160
H       -1.3920907278     0.1633629850     1.1644648117
H       -2.1424407956     0.1986591320     -0.4314737273
H       -1.0297679646     1.4793593026     0.0512836462
11
# Point 19 Energy = 0.004891559999990136
C       1.2505209078     -0.1190428518     0.3088049215
C       -0.0518291091     -0.4065528684     -0.4287207263
H       1.9564400931     0.4065334373     -0.3374896172
H       1.7281469429     -1.0462364107     0.6319609915
H       1.0841922719     0.4971451950     1.1930226550
C       -1.2159778953     0.4242132125     0.0978863015
H       -0.2932084953     -1.4685664956     -0.3413898567
H       0.0825057047     -0.2107060366     -1.4951923913
H       -1.3897616303     0.2240476572     1.1570913295
H       -2.1399013666     0.2074821825     -0.4392505397
H       -1.0111274844     1.4916836447     -0.0056780489
11
# Point 20 Energy = 0.003935199999986594
C       1.2489545529     -0.1242147916     0.3136620012
C       -0.0570496129     -0.4234246301     -0.4126632004
H       1.8921854266     0.5189676698     -0.2903441675
H       1.8013034364     -1.0439198758     0.5168902033
H       1.0735768474     0.3777423023     1.2657540836
C       -1.2105575991     0.4415159400     0.0813279640
H       -0.3117491314     -1.4781843123     -0.2847015396
H       0.0795331031     -0.2703639382     -1.4858274969
H       -1.3866418224     0.2843571515     1.1473852697
H       -2.1372366070     0.2159609867     -0.4473627908
H       -0.9923186541     1.5015641639     -0.0630753079
11
# Point 21 Energy = 0.0026567399999919417
C       1.2473455713     -0.1291951336     0.3186783069
C       -0.0624650618     -0.4396135291     -0.3959952424
H       1.8216921698     0.6208603819     -0.2288615466
H       1.8681911538     -1.0237082126     0.4002236614
H       1.0752705416     0.2512886879     1.3260627979
C       -1.2049023090     0.4580907936     0.0641076972
H       -0.3303866161     -1.4853974906     -0.2277146724
H       0.0758164695     -0.3295875469     -1.4742052905
H       -1.3827352010     0.3441940981     1.1353621547
H       -2.1344515550     0.2240821397     -0.4557972098
H       -0.9733752236     1.5089864773     -0.1208156375
11
# Point 22 Energy = 0.0013807299999797351
C       1.2456967267     -0.1339715597     0.3238430820
C       -0.0680664670     -0.4550903523     -0.3787455589
H       1.7467551639     0.7104289930     -0.1538486529
H       1.9272668327     -0.9861051966     0.2840044787
H       1.0890289997     0.1200598615     1.3727130467
C       -1.1990224285     0.4739123356     0.0462529639
H       -0.3490878779     -1.4901918977     -0.1705232107
H       0.0713605517     -0.3882771536     -1.4603466381
H       -1.3780478431     0.4034621492     1.1210413940
H       -2.1315519056     0.2318330081     -0.4645399152
H       -0.9543318132     1.5139404784     -0.1788059705
11
# Point 23 Energy = 0.0004549099999877626
C       1.2440104777     -0.1385320578     0.3291457080
C       -0.0738447516     -0.4698270261     -0.3609434855
H       1.6692550557     0.7861292397     -0.0663714259
H       1.9772053909     -0.9319173371     0.1703192921
H       1.1143072537     -0.0136054901     1.4046823454
C       -1.1929292686     0.4889565248     0.0277923716
H       -0.3678199427     -1.4925573653     -0.1132210300
H       0.0661714478     -0.4463339733     -1.4442757140
H       -1.3725879994     0.4620661291     1.1044462317
H       -2.1285439654     0.2392017251     -0.4735764543
H       -0.9352237588     1.5164202968     -0.2369528202
11
# Point 24 Energy = 0.00013005999998938478
C       1.2422889818     -0.1428650081     0.3345757898
C       -0.0797907554     -0.4837967133     -0.3426188995
H       1.5911084706     0.8466786745     0.0322555640
H       2.0169316573     -0.8622347480     0.0612611547
H       1.1502775681     -0.1473477388     1.4211880245
C       -1.1866349798     0.5032007154     0.0087556222
H       -0.3865500421     -1.4924877322     -0.0559017416
H       0.0602566394     -0.5036603780     -1.4260198984
H       -1.3663660665     0.5199121703     1.0856036807
H       -2.1254345937     0.2461771811     -0.4828918497
H       -0.9160869403     1.5164242429     -0.2951624276
11
# Point 25 Energy = 0.0004610700000000634
C       1.2405341088     -0.1469592667     0.3401232379
C       -0.0858952354     -0.4969739024     -0.3238021388
H       1.5142176948     0.8910749806     0.1404850784
H       2.0456451617     -0.7784075340     -0.0411095714
H       1.1958546307     -0.2788278519     1.4217102686
C       -1.1801524691     0.5166236478     -0.0108265430
H       -0.4052457171     -1.4899808755     0.0013414711
H       0.0536250212     -0.5601601130     -1.4056096765
H       -1.3593945330     0.5769078327     1.0645444475
H       -2.1222311296     0.2527490086     -0.4924706540
H       -0.8969575936     1.5139547397     -0.3533409009
11
# Point 26 Energy = 0.0013688599999994722
C       1.2387474619     -0.1508042431     0.3457783431
C       -0.0921488602     -0.5093344899     -0.3045239314
H       1.4404212294     0.9186089843     0.2565587165
H       2.0628373548     -0.6820182835     -0.1348055383
H       1.2497273682     -0.4057675310     1.4060108758
C       -1.1734953035     0.5292054354     -0.0309223984
H       -0.4238749165     -1.4850387307     0.0584159944
H       0.0462869268     -0.6157384962     -1.3830785445
H       -1.3516879038     0.6329622079     1.0413028517
H       -2.1189413077     0.2589075655     -0.5022970062
H       -0.8778721101     1.5090182474     -0.4113943436
11
# Point 27 Energy = 0.0026329200000105857
C       1.2369304056     -0.1543899744     0.3515318409
C       -0.0985422018     -0.5208558543     -0.2848153363
H       1.3714465516     0.9288723506     0.3785337925
H       2.0683008313     -0.5748512978     -0.2179530738
H       1.3103964872     -0.5259873170     1.3741470297
C       -1.1666776011     0.5409275478     -0.0514992916
H       -0.4424060898     -1.4776673031     0.1152299053
H       0.0382541447     -0.6703025998     -1.3584629267
H       -1.3432625986     0.6879860122     1.0159167447
H       -2.1155731647     0.2646439175     -0.5123546917
H       -0.8588668250     1.5016251843     -0.4692289741
11
# Point 28 Energy = 0.003901560000002746
C       1.2350841005     -0.1577071927     0.3573749627
C       -0.1050657259     -0.5315169232     -0.2647076960
H       1.3088663606     0.9217600455     0.5043152530
H       2.0621303504     -0.4588592027     -0.2888322361
H       1.3762166858     -0.6374421009     1.3264794679
C       -1.1597139118     0.5517727934     -0.0725236974
H       -0.4608082752     -1.4678766744     0.1716920725
H       0.0295399225     -0.7237614167     -1.3318021051
H       -1.3341368276     0.7418916692     0.9884274312
H       -2.1121349396     0.2699498203     -0.5226271979
H       -0.8399778003     1.4917898482     -0.5267512356
11
# Point 29 Energy = 0.0048478999999872485
C       1.2332095443     -0.1607473873     0.3632994699
C       -0.1117097813     -0.5412982340     -0.2442326011
H       1.2540594923     0.8974677304     0.6316921401
H       2.0447156722     -0.3361275990     -0.3459152736
H       1.4454423500     -0.7382535616     1.2636745500
C       -1.1526190919     0.5617253036     -0.0939612725
H       -0.4790511806     -1.4556810030     0.2277122439
H       0.0201589559     -0.7760260148     -1.3031381654
H       -1.3243304436     0.7945933875     0.9588795962
H       -2.1086349712     0.2748177043     -0.5330977663
H       -0.8212406066     1.4795303399     -0.5838679023
11
# Point 30 Energy = 0.005211400000007416
C       1.2313076168     -0.1635028604     0.3692976698
C       -0.1184645905     -0.5501819894     -0.2234218646
H       1.2081775561     0.8564843361     0.7583779506
H       2.0167264558     -0.2088383933     -0.3879024881
H       1.5162754508     -0.8267391309     1.1866998687
C       -1.1454081732     0.5707705181     -0.1157769055
H       -0.4971052576     -1.4410985219     0.2832011232
H       0.0101273586     -0.8270096808     -1.2725159567
H       -1.3138647731     0.8460072376     0.9273212393
H       -2.1050815949     0.2792406598     -0.5437494358
H       -0.8026901094     1.4648684911     -0.6404861820
11
# Point 31 Energy = 0.00486990999999648
C       1.2293791303     -0.1659667746     0.3753624102
C       -0.1253202424     -0.5581521067     -0.2023075062
H       1.1721181899     0.7995801210     0.8820540982
H       1.9790896908     -0.0792324361     -0.4137545184
H       1.5869142950     -0.9014371732     1.0968132079
C       -1.1380962331     0.5788951747     -0.1379347669
H       -0.5149417640     -1.4241515305     0.3380704427
H       -0.0005373861     -0.8766280593     -1.2399830652
H       -1.3027624288     0.8960512299     0.8938036147
H       -2.1014830442     0.2832124247     -0.5545650752
H       -0.7843602680     1.4478297962     -0.6965138229
11
# Point 32 Energy = 0.0039318099999974265
C       1.2274248821     -0.1681331937     0.3814870528
C       -0.1322666867     -0.5651942624     -0.1809217431
H       1.1465056415     0.7277905721     1.0004155646
H       1.9329603454     0.0504279426     -0.4227201129
H       1.6556017541     -0.9611281456     0.9955448260
C       -1.1306982672     0.5860873017     -0.1603983558
H       -0.5325328150     -1.4048663826     0.3922330372
H       -0.0118164963     -0.9247992866     -1.2055897979
H       -1.2910471072     0.9446453983     0.8583811778
H       -2.0978473594     0.2867273743     -0.5655274049
H       -0.7662839520     1.4284433478     -0.7518592250
11
# Point 33 Energy = 0.0026337699999885444
C       1.2254457094     -0.1699971148     0.3876654250
C       -0.1392937308     -0.5712959318     -0.1592969857
H       1.1316791736     0.6423965452     1.1112177207
H       1.8796861117     0.1778959479     -0.4143585375
H       1.7206716102     -1.0048515830     0.8846732283
C       -1.1232290694     0.5923362151     -0.1831305475
H       -0.5498514188     -1.3832734661     0.4456029225
H       -0.0236899790     -0.9714441228     -1.1693891733
H       -1.2787433771     0.9917118909     0.8211115331
H       -2.0941823064     0.2897805119     -0.5766190051
H       -0.7484927839     1.4067417735     -0.8064315615
11
# Point 34 Energy = 0.00134918000000539
C       1.2234425450     -0.1715544917     0.3938917510
C       -0.1463910390     -0.5764464227     -0.1374658368
H       1.1276895609     0.5449010617     1.2123232280
H       1.8207673013     0.3009763789     -0.3885558816
H       1.7805917124     -1.0319188234     0.7661947735
C       -1.1157031244     0.5976325187     -0.2060936414
H       -0.5668714941     -1.3594071743     0.4980953828
H       -0.0361367365     -1.0164860826     -1.1314369133
H       -1.2658764649     1.0371750668     0.7820553821
H       -2.0904953091     0.2923674616     -0.5878223130
H       -0.7310170123     1.3827611729     -0.8601409123
11
# Point 35 Energy = 0.000414880000008111
C       1.2214164720     -0.1728022497     0.4001605649
C       -0.1535481328     -0.5806369025     -0.1154610910
H       1.1343037090     0.4370031964     1.3017478892
H       1.7578130883     0.4175602770     -0.3455346585
H       1.8340027310     -1.0419214482     0.6422876474
C       -1.1081345134     0.6019681066     -0.2292494110
H       -0.5835678693     -1.3333058657     0.5496270677
H       -0.0491346831     -1.0598515630     -1.0917914346
H       -1.2524720444     1.0809616011     0.7412764647
H       -2.0867933968     0.2944844615     -0.5991196102
H       -0.7138854210     1.3565410524     -0.9128984097
11
# Point 36 Energy = 8.478999997407755e-05
C       1.2193687760     -0.1737382913     0.4064666094
C       -0.1607543925     -0.5838604187     -0.0933157352
H       1.1510171804     0.3205694899     1.3777043034
H       1.6924954003     0.5256577557     -0.2858562616
H       1.8797514301     -1.0347354673     0.5152709034
C       -1.1005368395     0.6053361687     -0.2525591582
H       -0.5999162616     -1.3050118116     0.6001160979
H       -0.0626608702     -1.1014699675     -1.0505138338
H       -1.2385560383     1.1230005932     0.6988414933
H       -2.0830831683     0.2961283582     -0.6104930028
H       -0.6971252770     1.3281242568     -0.9646163970
