11
# Point 0 Energy = 0
C       1.2672042126     0.0000000000     0.2594997522
C       0.0000000000     0.0000000000     -0.5872081259
H       1.3052750505     -0.8806643351     0.9038259677
H       1.3052750505     0.8806643351     0.9038259677
H       2.1646165232     0.0000000000     -0.3599948239
C       -1.2672042126     -0.0000000181     0.2594997522
H       0.0000000000     -0.8738729764     -1.2430302913
H       -0.0000000606     0.8738729764     -1.2430302913
H       -1.3052750505     -0.8806643351     0.9038259677
H       -2.1646165232     0.0000006841     -0.3599948239
H       -1.3052750505     0.8806643351     0.9038259677
11
# Point 1 Energy = 0.0003693600000076458
C       1.2670623120     -0.0247397123     0.2590308934
C       0.0001529808     0.0235031690     -0.5867433913
H       1.2940574150     -0.9299102724     0.8690414436
H       1.3159026235     0.8299827448     0.9367030082
H       2.1645499860     -0.0120718893     -0.3602249404
C       -1.2671511093     0.0066932377     0.2596480780
H       -0.0105325111     -0.8244640196     -1.2756513507
H       0.0111441745     0.9218573522     -1.2085115672
H       -1.2344348027     -0.8005146728     0.9941686879
H       -2.1579812233     -0.1348536788     -0.3531396413
H       -1.3827699060     0.9445184074     0.8067237987
11
# Point 2 Energy = 0.0013154199999831917
C       1.2666365237     -0.0494377253     0.2576251344
C       0.0006115550     0.0469710190     -0.5853501889
H       1.2822651225     -0.9776387962     0.8324070582
H       1.3259248248     0.7779498515     0.9676183991
H       2.1643502394     -0.0241244436     -0.3609148710
C       -1.2669921039     0.0133809840     0.2600925794
H       -0.0204385611     -0.7737084569     -1.3063211913
H       0.0228843931     0.9683417398     -1.1721525503
H       -1.1719595912     -0.7055361986     1.0763684603
H       -2.1382414544     -0.2671253816     -0.3326700467
H       -1.4650410086     0.9909280740     0.7043422356
11
# Point 3 Energy = 0.0026256499999988137
C       1.2659265145     -0.0740527223     0.2552845556
C       0.0013747689     0.0703684983     -0.5830311070
H       1.2699134125     -1.0237709048     0.7939826252
H       1.3353263348     0.7246512707     0.9965211766
H       2.1640168479     -0.0361384913     -0.3620635708
C       -1.2667280186     0.0200576856     0.2608320305
H       -0.0297042330     -0.7216856281     -1.3349897751
H       0.0352041884     1.0132533624     -1.1340131263
H       -1.1193499063     -0.5974771085     1.1491527775
H       -2.1058864442     -0.3942848935     -0.2988681750
H       -1.5500935254     1.0190795977     0.5982376077
11
# Point 4 Energy = 0.003909399999997731
C       1.2649318201     -0.0985433368     0.2520127698
C       0.0024409774     0.0936603932     -0.5797906013
H       1.2570178827     -1.0682299603     0.7538312074
H       1.3440917610     0.6701751362     1.0233636208
H       2.1635491376     -0.0480947037     -0.3636692314
C       -1.2663602263     0.0267174919     0.2618643501
H       -0.0383163592     -0.6684774800     -1.3616106380
H       0.0480859769     1.0565216803     -1.0941567589
H       -1.0778574747     -0.4783374468     1.2113765058
H       -2.0617194223     -0.5139046982     -0.2522042465
H       -1.6358641338     1.0285135902     0.4900280412
11
# Point 5 Energy = 0.004843800000003284
C       1.2636518675     -0.1228684233     0.2478148183
C       0.0038078831     0.1168114976     -0.5756348847
H       1.2435944620     -1.1109420588     0.7120185497
H       1.3522056901     0.6146114249     1.0481013963
H       2.1629462219     -0.0599737052     -0.3657293304
C       -1.2658906168     0.0333541918     0.2631866410
H       -0.0462625123     -0.6141679919     -1.3861410202
H       0.0615110855     1.0980786633     -1.0526499202
H       -1.0484537593     -0.3503263440     1.2620366647
H       -2.0068352486     -0.6237084933     -0.1933316646
H       -1.7202751337     1.0191319049     0.3813737689
11
# Point 6 Energy = 0.005176950000006286
C       1.2620860463     -0.1469871336     0.2426971548
C       0.0054725444     0.1397866160     -0.5705719022
H       1.2296595567     -1.1518361627     0.6686129386
H       1.3596527534     0.5580517989     1.0706936191
H       2.1622070545     -0.0717560772     -0.3682406420
C       -1.2653215646     0.0399611170     0.2647952074
H       -0.0535309917     -0.5588430896     -1.4085419239
H       0.0754596849     1.1378588508     -1.0095619408
H       -1.0318057772     -0.2158170941     1.3002866671
H       -1.9425917191     -0.7216161487     -0.1230818732
H       -1.8012876482     0.9911979892     0.2739577140
11
# Point 7 Energy = 0.004835380000002942
C       1.2602337950     -0.1708589954     0.2366676267
C       0.0074313866     0.1625505684     -0.5646112991
H       1.2152302033     -1.1908442270     0.6236850649
H       1.3664177274     0.5005894481     1.0911029103
H       2.1613304948     -0.0834223745     -0.3711992476
C       -1.2646558889     0.0465310623     0.2666855759
H       -0.0601108257     -0.5025905613     -1.4287781538
H       0.0899107356     1.1757994061     -0.9649648618
H       -1.0282599720     -0.0772990800     1.3254497102
H       -1.8705740588     -0.8057841985     -0.0424574457
H       -1.8769536578     0.9453296178     0.1694651389
11
# Point 8 Energy = 0.003908150000000887
C       1.2580946997     -0.1944439932     0.2297354562
C       0.0096802184     0.1850681979     -0.5577643856
H       1.2003242207     -1.2279013245     0.5773078939
H       1.3724856664     0.4423189353     1.1092954390
H       2.1603153824     -0.0949531580     -0.3746005468
C       -1.2638968055     0.0530562273     0.2688525216
H       -0.0659917906     -0.4454999744     -1.4468183424
H       0.1048419492     1.2118401684     -0.9189332881
H       -1.0378345411     0.0626723244     1.3370311308
H       -1.7925535816     -0.8746409953     0.0473767806
H       -1.9454654785     0.8824842581     0.0695623596
11
# Point 9 Energy = 0.002653439999974694
C       1.2556686002     -0.2177026513     0.2219112242
C       0.0122142523     0.2073043829     -0.5500440980
H       1.1849603560     -1.2629457682     0.5295565451
H       1.3778420607     0.3833360409     1.1252409588
H       2.1591606185     -0.1063290414     -0.3784392668
C       -1.2630478737     0.0595281793     0.2712900982
H       -0.0711644412     -0.3876625919     -1.4626349638
H       0.1202297706     1.2459237054     -0.8715442475
H       -1.0602203855     0.2015267137     1.3347294756
H       -1.7104416491     -0.9269158075     0.1451047137
H       -2.0052013694     0.8039375040     -0.0241254205
11
# Point 10 Energy = 0.0014030600000012328
C       1.2529557000     -0.2405961190     0.2132068557
C       0.0150281315     0.2292240556     -0.5414649571
H       1.1691584166     -1.2959192347     0.4805081814
H       1.3824730146     0.3237376097     1.1389128408
H       2.1578652517     -0.1175307508     -0.3827094700
C       -1.2621129369     0.0659378390     0.2739916707
H       -0.0756201525     -0.3291712855     -1.4762043393
H       0.1360493819     1.2779953698     -0.8228770525
H       -1.0947906125     0.3367293126     1.3184459917
H       -1.6262401796     -0.9616613048     0.2492723336
H       -2.0547660753     0.7112551743     -0.1100370361
11
# Point 11 Energy = 0.0004791699999913135
C       1.2499566764     -0.2630862576     0.2036356105
C       0.0181159614     0.2507922291     -0.5320430237
H       1.1529393841     -1.3267668876     0.4302419063
H       1.3863654372     0.2636213956     1.1502881074
H       2.1564285651     -0.1285391962     -0.3874045584
C       -1.2610960596     0.0722754873     0.2769499535
H       -0.0793511676     -0.2701204407     -1.4875066362
H       0.1522747298     1.3080033625     -0.7730131642
H       -1.1406182917     0.4658302159     1.2882921965
H       -1.5419900437     -0.9782690575     0.3583034780
H       -2.0930252519     0.6062598151     -0.1866988508
11
# Point 12 Energy = 0.00013917999999080166
C       1.2466727874     -0.2851357274     0.1932120756
C       0.0214713476     0.2719740357     -0.5217958512
H       1.1363255068     -1.3554375007     0.3788386672
H       1.3895072380     0.2030859045     1.1593474692
H       2.1548501617     -0.1393355493     -0.3925172745
C       -1.2600014628     0.0785307930     0.2801570510
H       -0.0823506497     -0.2106058497     -1.4965258637
H       0.1688785774     1.3358988064     -0.7220360556
H       -1.1965019450     0.5865111460     1.2445951665
H       -1.4597187268     -0.9764778561     0.4705181796
H       -2.1191328952     0.4909924635     -0.2527485451
11
# Point 13 Energy = 0.00045527999999706026
C       1.2431059711     -0.3067080744     0.1819521628
C       0.0250874373     0.2927347757     -0.5107424344
H       1.1193403681     -1.3818835804     0.3263811599
H       1.3918875219     0.1422302318     1.1660753651
H       2.1531300466     -0.1499013264     -0.3980397001
C       -1.2588334572     0.0846928579     0.2836045026
H       -0.0846127342     -0.1507245879     -1.5032498649
H       0.1858325766     1.3616358298     -0.6700310694
H       -1.2609980490     0.6966287633     1.1879001683
H       -1.3813886494     -0.9563748393     0.5841535856
H       -2.1325510924     0.3676706160     -0.3069588566
11
# Point 14 Energy = 0.0013861599999813734
C       1.2392589360     -0.3277678154     0.1698731067
C       0.0289569655     0.3130399799     -0.4989031535
H       1.1020089287     -1.4060614846     0.2729537326
H       1.3934967754     0.0811538944     1.1704600058
H       2.1512687028     -0.1602184699     -0.4039632516
C       -1.2575963789     0.0907502777     0.2872833319
H       -0.0861325787     -0.0905748704     -1.5076703059
H       0.2031073616     1.3851716620     -0.6170852674
H       -1.3324596489     0.7942536782     1.1189702675
H       -1.3088475071     -0.9183895926     0.6973874135
H       -2.1330616171     0.2386434067     -0.3482608609
11
# Point 15 Energy = 0.00265384000000779
C       1.2351352395     -0.3482805193     0.1569934644
C       0.0330723030     0.3328554840     -0.4862997123
H       1.0843575441     -1.4279315347     0.2186422826
H       1.3943270409     0.0199566569     1.1724934198
H       2.1492671581     -0.1702694271     -0.4102786740
C       -1.2562945258     0.0966912154     0.2911840997
H       -0.0869064103     -0.0302558848     -1.5097826602
H       0.2206726563     1.4064667375     -0.5632872680
H       -1.4090800243     0.8777044487     1.0387825703
H       -1.2437819283     -0.8632815384     0.8083638123
H       -2.1207691137     0.1063450278     -0.3757663158
11
# Point 16 Energy = 0.0039444699999791055
C       1.2307393518     -0.3682128822     0.1433331123
C       0.0374255053     0.3521475151     -0.4729550703
H       1.0664139568     -1.4474581168     0.1635341457
H       1.3943720727     -0.0412616502     1.1721714962
H       2.1471270425     -0.1800372217     -0.4169760362
C       -1.2549321000     0.1025034842     0.2952969631
H       -0.0869315684     0.0301323980     -1.5095861854
H       0.2384973959     1.4254848071     -0.5087270706
H       -1.4889402245     0.9455759943     0.9485208005
H       -1.1876756529     -0.7921210843     0.9152214061
H       -2.0960958399     -0.0267525776     -0.3887885425
11
# Point 17 Energy = 0.004888469999997369
C       1.2260767054     -0.3875327965     0.1289132415
C       0.0420083599     0.3708827882     -0.4588933670
H       1.0482072636     -1.4646097687     0.1077179736
H       1.3936274738     -0.1024013156     1.1694940229
H       2.1448506336     -0.1895055149     -0.4240447262
C       -1.2535131533     0.1081746372     0.2996117383
H       -0.0862065432     0.0904894365     -1.5070838921
H       0.2565498545     1.4421930521     -0.4534958642
H       -1.5700591941     0.9967620098     0.8495639695
H       -1.1417733054     -0.7062651179     1.0161232006
H       -2.0597681555     -0.1581867443     -0.3868612779
11
# Point 18 Energy = 0.0052289699999903405
C       1.2211537287     -0.4062094107     0.1137563460
C       0.0468124314     0.3890286112     -0.4441398399
H       1.0297678606     -1.4793592492     0.0512836011
H       1.3920908093     -0.1633629362     1.1644647151
H       2.1424408881     -0.1986586566     -0.4314734517
C       -1.2520415414     0.1136920618     0.3041179699
H       -0.0847310109     0.1507143501     -1.5022825003
H       0.2747977778     1.4565621972     -0.3976858241
H       -1.6504451498     1.0304711192     0.7434709794
H       -1.1070506866     -0.6073275346     1.1092879336
H       -2.0127951678     -0.2855498862     -0.3697549102
11
# Point 19 Energy = 0.004891569999998069
C       1.2159778619     -0.4242131792     0.0978862066
C       0.0518291018     0.4065529939     -0.4287207358
H       1.0111273663     -1.4916835854     -0.0056780975
H       1.3897616968     -0.2240476051     1.1570912305
H       2.1399014595     -0.2074817230     -0.4392502452
C       -1.2505208844     0.1190430753     0.3088050047
H       -0.0825058672     0.2107061662     -1.4951923828
H       0.2932085159     1.4685666182     -0.3413898982
H       -1.7281468427     1.0462366591     0.6319610902
H       -1.0841923263     -0.4971455635     1.1930223546
H       -1.9564401422     -0.4065331907     -0.3374895081
11
# Point 20 Energy = 0.003935209999994527
C       1.2105575564     -0.4415159013     0.0813278657
C       0.0570496046     0.4234247614     -0.4126632175
H       0.9923185240     -1.5015640985     -0.0630753604
H       1.3866418727     -0.2843570959     1.1473851685
H       2.1372367005     -0.2159605424     -0.4473624771
C       -1.2489545357     0.1242150222     0.3136620711
H       -0.0795332595     0.2703640755     -1.4858274962
H       0.3117491541     1.4781844400     -0.2847015871
H       -1.8013033493     1.0439201279     0.5168902909
H       -1.0735768490     -0.3777427034     1.2657538310
H       -1.8921854795     -0.5189674194     -0.2903440698
11
# Point 21 Energy = 0.0026567399999919417
C       1.2049022575     -0.4580907493     0.0641075954
C       0.0624650521     0.4396136652     -0.3959952675
H       0.9733750837     -1.5089864057     -0.1208156945
H       1.3827352348     -0.3441940391     1.1353620515
H       2.1344516496     -0.2240817102     -0.4557968770
C       -1.2473455606     0.1291953687     0.3186783622
H       -0.0758166190     0.3295876911     -1.4742052981
H       0.3303866389     1.4853976225     -0.2277147256
H       -1.8681910801     1.0237084651     0.4002237372
H       -1.0752704919     -0.2512891133     1.3260625977
H       -1.8216922256     -0.6208601290     -0.2288614623
11
# Point 22 Energy = 0.0013807299999797351
C       1.1990223692     -0.4739122854     0.0462528587
C       0.0680664557     0.4550904923     -0.3787455921
H       0.9543316660     -1.5139404005     -0.1788060326
H       1.3780478602     -0.4034620864     1.1210412889
H       2.1315520016     -0.2318325927     -0.4645395635
C       -1.2456967228     0.1339717970     0.3238431217
H       -0.0713606938     0.3882773038     -1.4603466542
H       0.3490878989     1.4901920331     -0.1705232693
H       -1.9272667724     0.9861054466     0.2840045422
H       -1.0890289015     -0.1200603030     1.3727129030
H       -1.7467552218     -0.7104287388     -0.1538485838
11
# Point 23 Energy = 0.0004549099999877626
C       1.1929292025     -0.4889564686     0.0277922630
C       0.0738447383     0.4698271690     -0.3609435271
H       0.9352236071     -1.5164202126     -0.2369528877
H       1.3725880005     -0.4620660625     1.1044461248
H       2.1285440635     -0.2392013235     -0.4735760839
C       -1.2440104805     0.1385322947     0.3291457313
H       -0.0661715823     0.4463341286     -1.4442757388
H       0.3678199599     1.4925575032     -0.1132210937
H       -1.9772053437     0.9319175822     0.1703193430
H       -1.1143071109     0.0136050411     1.4046822615
H       -1.6692551149     -0.7861289856     -0.0663713735
11
# Point 24 Energy = 0.00013005999998938478
C       1.1866349081     -0.5032006531     0.0087555101
C       0.0797907399     0.4837968579     -0.3426189495
H       0.9160867869     -1.5164241525     -0.2951625010
H       1.3663660525     -0.5199120997     1.0856035718
H       2.1254346945     -0.2461767928     -0.4828914614
C       -1.2422889913     0.1428652424     0.3345757963
H       -0.0602567663     0.5036605371     -1.4260199318
H       0.3865500535     1.4924878719     -0.0559018101
H       -2.0169316225     0.8622349860     0.0612611930
H       -1.1502773854     0.1473472908     1.4211880030
H       -1.5911085305     -0.8466784220     0.0322555984
11
# Point 25 Energy = 0.0004610700000000634
C       1.1801523931     -0.5166235794     -0.0108266585
C       0.0858952174     0.4969740478     -0.3238021970
H       0.8969574414     -1.5139546433     -0.3533409803
H       1.3593945055     -0.5769077578     1.0645443365
H       2.1222312338     -0.2527486333     -0.4924702484
C       -1.2405341248     0.1469594960     0.3401232274
H       -0.0536251410     0.5601602748     -1.4056097182
H       0.4052457211     1.4899810162     0.0013413981
H       -2.0456451384     0.7784077632     -0.0411095457
H       -1.1958544137     0.2788274134     1.4217103110
H       -1.5142177549     -0.8910747315     0.1404850939
11
# Point 26 Energy = 0.0013688500000057502
C       1.1734952247     -0.5292053609     -0.0309225175
C       0.0921488394     0.5093346351     -0.3045239977
H       0.8778719617     -1.5090181454     -0.4113944292
H       1.3516878647     -0.6329621287     1.0413027384
H       2.1189414159     -0.2589072032     -0.5022965843
C       -1.2387474840     0.1508044653     0.3457783159
H       -0.0462870402     0.6157386595     -1.3830785944
H       0.4238749116     1.4850388715     0.0584159173
H       -2.0628373420     0.6820185027     -0.1348055252
H       -1.2497271230     0.4057671105     1.4060109830
H       -1.4404212893     -0.9186087404     0.2565587125
11
# Point 27 Energy = 0.002632910000002653
C       1.1666775209     -0.5409274673     -0.0514994141
C       0.0985421781     0.5208559983     -0.2848154103
H       0.8588666829     -1.5016250772     -0.4692290658
H       1.3432625501     -0.6879859285     1.0159166290
H       2.1155732776     -0.2646435680     -0.5123542546
C       -1.2369304333     0.1543901874     0.3515317975
H       -0.0382542527     0.6703027633     -1.3584629843
H       0.4424060747     1.4776674436     0.1152298242
H       -2.0683008279     0.5748515059     -0.2179530730
H       -1.3103962203     0.5259869227     1.3741472015
H       -1.3714466107     -0.9288721141     0.3785337689
11
# Point 28 Energy = 0.003901560000002746
C       1.1597138318     -0.5517727073     -0.0725238234
C       0.1050656992     0.5315170650     -0.2647077775
H       0.8399776670     -1.4917897366     -0.5267513334
H       1.3341367723     -0.7418915809     0.9884273130
H       2.1121350579     -0.2699494839     -0.5226267469
C       -1.2350841333     0.1577073948     0.3573749040
H       -0.0295400263     0.7237615792     -1.3318021700
H       0.4608082489     1.4678768139     0.1716919877
H       -2.0621303555     0.4588593992     -0.2888322475
H       -1.3762164042     0.6374417411     1.3264797029
H       -1.3088664183     -0.9217598185     0.5043152100
11
# Point 29 Energy = 0.0048478999999872485
C       1.1526190135     -0.5617252120     -0.0939614019
C       0.1117097514     0.5412983729     -0.2442326895
H       0.8212404839     -1.4795302246     -0.5838680058
H       1.3243303841     -0.7945932948     0.9588794755
H       2.1086350953     -0.2748173811     -0.5330973028
C       -1.2332095813     0.1607475770     0.3632993970
H       -0.0201590568     0.7760261752     -1.3031382369
H       0.4790511426     1.4556811413     0.2277121556
H       -2.0447156846     0.3361277834     -0.3459152971
H       -1.4454420609     0.7382532439     1.2636748461
H       -1.2540595478     -0.8974675153     0.6316920788
11
# Point 30 Energy = 0.005211400000007416
C       1.1454080978     -0.5707704214     -0.1157770383
C       0.1184645575     0.5501821247     -0.2234219593
H       0.8026899989     -1.4648683727     -0.6404862911
H       1.3138647123     -0.8460071404     0.9273211160
H       2.1050817253     -0.2792403502     -0.5437489612
C       -1.2313076573     0.1635030364     0.3692975840
H       -0.0101274581     0.8270098382     -1.2725160342
H       0.4971052076     1.4410986585     0.2832010319
H       -2.0167264745     0.2088385652     -0.3879025235
H       -1.5162751615     0.8267388629     1.1867002224
H       -1.2081776086     -0.8564841352     0.7583778723
11
# Point 31 Energy = 0.00486990999999648
C       1.1380961619     -0.5788950732     -0.1379349029
C       0.1253202063     0.5581522378     -0.2023076065
H       0.7843601708     -1.4478296756     -0.6965139373
H       1.3027623695     -0.8960511284     0.8938034888
H       2.1014831812     -0.2832121291     -0.5545645911
C       -1.2293791734     0.1659669358     0.3753623133
H       0.0005372867     0.8766282130     -1.2399831479
H       0.5149417022     1.4241516653     0.3380703488
H       -1.9790897147     0.0792325951     -0.4137545658
H       -1.5869140129     0.9014369616     1.0968136144
H       -1.1721182382     -0.7995799364     0.8820540051
11
# Point 32 Energy = 0.003931819999976938
C       1.1306982013     -0.5860871958     -0.1603984949
C       0.1322666476     0.5651943889     -0.1809218482
H       0.7662838689     -1.4284432257     -0.7518593441
H       1.2910470520     -0.9446452930     0.8583810492
H       2.0978475032     -0.2867270931     -0.5655269129
C       -1.2274249269     0.1681333393     0.3814869467
H       0.0118163954     0.9247994360     -1.2055898849
H       0.5325327419     1.4048665156     0.3922329413
H       -1.9329603731     -0.0504277970     -0.4227201723
H       -1.6556014864     0.9611279965     0.9955452795
H       -1.1465056845     -0.7277904058     1.0004154595
11
# Point 33 Energy = 0.0026337699999885444
C       1.1232290098     -0.5923361052     -0.1831306895
C       0.1392936890     0.5712960534     -0.1592970947
H       0.7484927153     -1.4067416506     -0.8064316851
H       1.2787433286     -0.9917117820     0.8211114021
H       2.0941824572     -0.2897802456     -0.5766185068
C       -1.2254457550     0.1699972444     0.3876653117
H       0.0236898752     0.9714442677     -1.1693892635
H       0.5498513352     1.3832735973     0.4456028251
H       -1.8796861417     -0.1778958163     -0.4143586086
H       -1.7206713640     1.0048515017     0.8846737216
H       -1.1316792101     -0.6423963987     1.1112176068
11
# Point 34 Energy = 0.00134918000000539
C       1.1157030717     -0.5976324051     -0.2060937862
C       0.1463909948     0.5764465393     -0.1374659486
H       0.7310169579     -1.3827610497     -0.8601410399
H       1.2658764254     -1.0371749549     0.7820552485
H       2.0904954667     -0.2923672107     -0.5878218102
C       -1.2234425906     0.1715546049     0.3938916326
H       0.0361366285     1.0164862228     -1.1314370057
H       0.5668714011     1.3594073036     0.4980952849
H       -1.8207673318     -0.3009762622     -0.3885559640
H       -1.7805914943     1.0319188140     0.7661952982
H       -1.1276895900     -0.5449009360     1.2123231093
11
# Point 35 Energy = 0.000414880000008111
C       1.1081344681     -0.6019679896     -0.2292495583
C       0.1535480866     0.5806370141     -0.1154612044
H       0.7138853803     -1.3565409293     -0.9128985408
H       1.2524720160     -1.0809614864     0.7412763285
H       2.0867935610     -0.2944842264     -0.5991191045
C       -1.2214165166     0.1728023464     0.4001604438
H       0.0491345698     1.0598516988     -1.0917915278
H       0.5835677682     1.3333059932     0.5496269700
H       -1.7578131173     -0.4175601763     -0.3455347515
H       -1.8340025468     1.0419215135     0.6422881941
H       -1.1343037300     -0.4370030920     1.3017477698
11
# Point 36 Energy = 8.478999997407755e-05
C       1.1005368019     -0.6053360484     -0.2525593078
C       0.1607543446     0.5838605255     -0.0933158491
H       0.6971252490     -1.3281241340     -0.9646165312
H       1.2385560226     -1.1230004763     0.6988413546
H       2.0830833388     -0.2961281393     -0.6104924957
C       -1.2193688188     0.1737383717     0.4064664879
H       0.0626607504     1.1014700991     -1.0505139265
H       0.5999161540     1.3050119375     0.6001160013
H       -1.6924954253     -0.5256576719     -0.2858563640
H       -1.8797512849     1.0347356086     0.5152714617
H       -1.1510171931     -0.3205694065     1.3777041878
