11
# Point -4 Energy = 0.053870000000003415
C       1.2210511675     0.0145403097     0.3065628297
C       -0.0307585971     -0.0048179519     -0.5829721140
H       1.4180760846     -0.9853601809     0.6987848469
H       1.2240267110     1.0002480908     0.7572809135
H       2.1915767990     -0.1066184433     -0.1910848220
C       -1.3116802793     -0.0294796400     0.2205671463
H       0.0572635021     -0.8742138370     -1.2388379362
H       -0.0207580008     0.8712857353     -1.2357348344
H       -1.2276212146     -0.7077529472     1.0719007425
H       -2.1137072515     0.1118224389     -0.4941868538
H       -1.4074689814     0.7103470915     1.0287651004
11
# Point -3 Energy = 0.030175739999990014
C       1.2325725687     0.0124791100     0.2942471939
C       -0.0230395032     -0.0027030714     -0.5848820645
H       1.3872127615     -0.9661911608     0.7532446428
H       1.2425450464     0.9752904095     0.7962517079
H       2.1867257646     -0.0801756266     -0.2362882945
C       -1.3008741632     -0.0208972812     0.2292093146
H       0.0432578989     -0.8740389005     -1.2407292238
H       -0.0154759490     0.8724368401     -1.2389690172
H       -1.2437588292     -0.7566849458     1.0337685248
H       -2.1292202592     0.0830449490     -0.4642426818
H       -1.3799453969     0.7574403437     0.9994349167
11
# Point -2 Energy = 0.013379459999995902
C       1.2441417759     0.0093394812     0.2822821274
C       -0.0153449074     -0.0011989578     -0.5861909628
H       1.3578778630     -0.9422648379     0.8055705107
H       1.2621670431     0.9470175053     0.8335484649
H       2.1806669708     -0.0536321677     -0.2795280578
C       -1.2898333660     -0.0130849306     0.2386639946
H       0.0289880242     -0.8739384281     -1.2420242366
H       -0.0102719323     0.8732407479     -1.2412377094
H       -1.2619419045     -0.8019478807     0.9929517738
H       -2.1427143429     0.0548897203     -0.4318331153
H       -1.3537352845     0.8015804140     0.9688422294
11
# Point -1 Energy = 0.0033424800000005916
C       1.2557032603     0.0051636104     0.2706839037
C       -0.0076680310     -0.0002992799     -0.5869561840
H       1.3304770484     -0.9137019102     0.8557838767
H       1.2830538498     0.9154614576     0.8693684873
H       2.1733240226     -0.0269308722     -0.3207871339
C       -1.2785960266     -0.0061003242     0.2487973912
H       0.0145386148     -0.8738880192     -1.2427811382
H       -0.0051223272     0.8737157884     -1.2425840612
H       -1.2824167742     -0.8433439642     0.9495917328
H       -2.1544533545     0.0272429075     -0.3970485203
H       -1.3288403429     0.8426812720     0.9369766649
11
# Point 0 Energy = 0
C       1.2672042126     0.0000000000     0.2594997522
C       0.0000000000     0.0000000000     -0.5872081259
H       1.3052750505     -0.8806643351     0.9038259677
H       1.3052750505     0.8806643351     0.9038259677
H       2.1646165232     0.0000000000     -0.3599948239
C       -1.2672042126     -0.0000000181     0.2594997522
H       0.0000000000     -0.8738729764     -1.2430302913
H       -0.0000000606     0.8738729764     -1.2430302913
H       -1.3052750505     -0.8806643351     0.9038259677
H       -2.1646165232     0.0000006841     -0.3599948239
H       -1.3052750505     0.8806643351     0.9038259677
11
# Point 1 Energy = 0.003342459999998937
C       1.2785958905     -0.0061003297     0.2487974689
C       0.0076680317     -0.0002992827     -0.5869561466
H       1.2824174762     -0.8433447375     0.9495908491
H       1.3288409772     0.8426818452     0.9369758414
H       2.1544540263     0.0272422718     -0.3970474478
C       -1.2557031097     0.0051636869     0.2706839974
H       -0.0145385304     -0.8738883094     -1.2427805778
H       0.0051221242     0.8737160996     -1.2425835406
H       -1.3304777288     -0.9137023417     0.8557829646
H       -2.1733246375     -0.0269303509     -0.3207859513
H       -1.2830545803     0.9154621144     0.8693675614
11
# Point 2 Energy = 0.013379439999980036
C       1.2898331076     -0.0130848589     0.2386641330
C       0.0153449092     -0.0011989625     -0.5861908886
H       1.2619432261     -0.8019494915     0.9929501166
H       1.3537365422     0.8015817437     0.9688406059
H       2.1427157396     0.0548890487     -0.4318310781
C       -1.2441414608     0.0093395468     0.2822823303
H       -0.0289879100     -0.8739390072     -1.2420231195
H       0.0102717050     0.8732413732     -1.2412366647
H       -1.3578792731     -0.9422656301     0.8055685817
H       -2.1806681414     -0.0536317192     -0.2795255786
H       -1.2621685050     0.9470186231     0.8335465809
11
# Point 3 Energy = 0.030175709999980427
C       1.3008737930     -0.0208971070     0.2292094956
C       0.0230395030     -0.0027030778     -0.5848819538
H       1.2437607067     -0.7566875416     1.0337661896
H       1.3799472334     0.7574425167     0.9994325402
H       2.1292224306     0.0830442564     -0.4642397847
C       -1.2325720785     0.0124791319     0.2942475226
H       -0.0432577405     -0.8740397692     -1.2407275542
H       0.0154756767     0.8724377813     -1.2389674435
H       -1.3872148956     -0.9661921497     0.7532416125
H       -2.1867274318     -0.0801752570     -0.2362843971
H       -1.2425472577     0.9752918820     0.7962487918
11
# Point 4 Energy = 0.05386997000000804
C       1.3116798018     -0.0294793401     0.2205673514
C       0.0307585842     -0.0048179593     -0.5829719654
H       1.2276235789     -0.7077566681     1.0718978389
H       1.4074713461     0.7103501881     1.0287620191
H       2.1137102447     0.1118217396     -0.4941831967
C       -1.2210504977     0.0145402548     0.3065633040
H       -0.0572632938     -0.8742149964     -1.2388357180
H       0.0207576549     0.8712869956     -1.2357327228
H       -1.4180789040     -0.9853612049     0.6987806126
H       -2.1915789077     -0.1066181531     -0.1910793698
H       -1.2240296680     1.0002498100     0.7572768655
