11
# Point -3 Energy = 0.06922597000000508
C       1.2275833061     -0.0009156374     0.2978793243
C       -0.0118052608     -0.0000023805     -0.5875014350
H       1.2611942642     -0.8157495308     0.8842123013
H       1.2619517925     0.8192555777     0.8877901221
H       2.2969949451     -0.0011734473     -0.4214190845
C       -1.3056282150     0.0009081498     0.2196417788
H       -0.0002899069     -0.8738340090     -1.2432538521
H       0.0002046033     0.8738614146     -1.2432485761
H       -1.3487080752     -0.9444871711     0.9232495254
H       -2.0336292929     0.0011064457     -0.2960112365
H       -1.3478682211     0.9410312543     0.9197061513
11
# Point -2 Energy = 0.029428699999996866
C       1.2409194303     -0.0006112432     0.2852549963
C       -0.0078704464     -0.0000027406     -0.5873385801
H       1.2759604651     -0.8375037448     0.8907761832
H       1.2764748500     0.8398387092     0.8931623567
H       2.2527152657     -0.0007767198     -0.4012255558
C       -1.2929569670     0.0006043080     0.2330870831
H       -0.0001923391     -0.8738547080     -1.2431279674
H       0.0001371640     0.8738686887     -1.2431290644
H       -1.3343012679     -0.9233367889     0.9167869216
H       -2.0771352823     0.0007443812     -0.3176261511
H       -1.3337509331     0.9210305242     0.9144247970
11
# Point -1 Energy = 0.00716460999998958
C       1.2541272244     -0.0003060649     0.2724608338
C       -0.0039352923     -0.0000019236     -0.5872408576
H       1.2906539218     -0.8591428046     0.8973126230
H       1.2909158386     0.8603090708     0.8985061248
H       2.2085889832     -0.0003855081     -0.3807512677
C       -1.2801482396     0.0003016345     0.2463740242
H       -0.0000958548     -0.8738676823     -1.2430534931
H       0.0000687759     0.8738725581     -1.2430563709
H       -1.3198238316     -0.9020616700     0.9103138038
H       -2.1207981046     0.0003756451     -0.3389532769
H       -1.3195534818     0.9009074108     0.9091328756
11
# Point 0 Energy = 0
C       1.2672042126     0.0000000000     0.2594997522
C       0.0000000000     0.0000000000     -0.5872081259
H       1.3052750505     -0.8806643351     0.9038259677
H       1.3052750505     0.8806643351     0.9038259677
H       2.1646165232     0.0000000000     -0.3599948239
C       -1.2672042126     -0.0000000181     0.2594997522
H       0.0000000000     -0.8738729764     -1.2430302913
H       -0.0000000606     0.8738729764     -1.2430302913
H       -1.3052750505     -0.8806643351     0.9038259677
H       -2.1646165232     0.0000006841     -0.3599948239
H       -1.3052750505     0.8806643351     0.9038259677
11
# Point 1 Energy = 0.007164549999998826
C       1.2801481448     0.0003069739     0.2463744278
C       0.0039352918     0.0000032262     -0.5872405618
H       1.3198241971     -0.9020660496     0.9103202460
H       1.3195530612     0.9009019647     0.9091262705
H       2.1207992853     0.0003793833     -0.3389538254
C       -1.2541271310     -0.0003005832     0.2724612319
H       0.0000958899     -0.8738704682     -1.2430584407
H       -0.0000689319     0.8738700665     -1.2430511022
H       -1.2906542492     -0.8591469747     0.8973190967
H       -2.2085901670     -0.0003806929     -0.3807518199
H       -1.2909154515     0.8603038201     0.8984994959
11
# Point 2 Energy = 0.029428269999996814
C       1.2929567762     0.0006150107     0.2330878961
C       0.0078704443     0.0000075588     -0.5873379883
H       1.3343019469     -0.9233454848     0.9167998516
H       1.3337501480     0.9210197096     0.9144115337
H       2.0771376405     0.0007525373     -0.3176272449
C       -1.2409192450     -0.0006003062     0.2852557870
H       0.0001922575     -0.8738602790     -1.2431378626
H       -0.0001372026     0.8738637061     -1.2431185267
H       -1.2759611691     -0.8375121510     0.8907890861
H       -2.2527176362     -0.0007677639     -0.4012266640
H       -1.2764740212     0.8398281284     0.8931491508
11
# Point 3 Energy = 0.06922446000000093
C       1.3056279272     0.0009241824     0.2196430071
C       0.0118052562     0.0000130686     -0.5875005469
H       1.3487090440     -0.9445002134     0.9232689634
H       1.3478670989     0.9410150564     0.9196862019
H       2.0336328251     0.0011191185     -0.2960128725
C       -1.2275830307     -0.0008992167     0.2978805026
H       0.0002896309     -0.8738423635     -1.2432686955
H       -0.0002044459     0.8738539428     -1.2432327686
H       -1.2611953634     -0.8157621488     0.8842316147
H       -2.2969985053     -0.0011604382     -0.4214207528
H       -1.2619504976     0.8192396779     0.8877703655
