11
# Point -5 Energy = 0.05193381999998792
C       1.2917770707     0.1318997145     0.2265290123
C       0.0172061595     0.0014089904     -0.5733846539
H       1.0645324488     -0.8526488694     0.6533628666
H       1.4605662319     0.8144139304     1.0573981339
H       2.2214198582     -0.0236751225     -0.3185831325
C       -1.2268884867     -0.1370774702     0.3196109084
H       0.3014069900     -0.8192697505     -1.2363117984
H       -0.4007104482     0.7924092128     -1.2006166830
H       -1.5498849350     -0.8260305059     1.0956619628
H       -2.0393433947     0.0348161789     -0.3896371690
H       -1.1400815552     0.8837543575     0.7070155716
11
# Point -4 Energy = 0.03333727000000408
C       1.2883059935     0.1071243569     0.2307732757
C       0.0139707156     0.0009220071     -0.5782024478
H       1.1108222019     -0.8652066333     0.7040949799
H       1.4318836677     0.8300488122     1.0325998987
H       2.2157202408     -0.0181062098     -0.3264640096
C       -1.2356938842     -0.1105017616     0.3060772006
H       0.2436907204     -0.8384879870     -1.2387899475
H       -0.3253733774     0.8210823030     -1.2153353881
H       -1.5026851664     -0.8418440362     1.0658636982
H       -2.0687595973     0.0255135251     -0.3863504419
H       -1.1718815752     0.8894562896     0.7467782006
11
# Point -3 Energy = 0.018810109999989777
C       1.2841481752     0.0813690902     0.2361091898
C       0.0105920833     0.0005275841     -0.5820691294
H       1.1582109548     -0.8744454012     0.7550700121
H       1.4018222308     0.8450623541     1.0046064018
H       2.2073407321     -0.0132514978     -0.3346470306
C       -1.2442558155     -0.0832997965     0.2931498228
H       0.1842721850     -0.8537733904     -1.2406748424
H       -0.2469134779     0.8438890601     -1.2271956746
H       -1.4542442336     -0.8557160267     1.0313129177
H       -2.0962926735     0.0175468566     -0.3814682301
H       -1.2046802214     0.8920918333     0.7868515817
11
# Point -2 Energy = 0.008395840000005705
C       1.2792552918     0.0547951016     0.2426567440
C       0.0071199125     0.0002371583     -0.5849006420
H       1.2065554731     -0.8801665729     0.8057959267
H       1.3705443620     0.8588919104     0.9735879883
H       2.1960813542     -0.0088283576     -0.3430815499
C       -1.2524371450     -0.0556641054     0.2809720477
H       0.1235673644     -0.8648783717     -1.2419940030
H       -0.1659967132     0.8604553664     -1.2359088322
H       -1.4049245541     -0.8671048566     0.9923831360
H       -2.1216408727     0.0107799158     -0.3752355058
H       -1.2381245336     0.8914834776     0.8267697092
11
# Point -1 Energy = 0.0021101100000180395
C       1.2736045020     0.0275978306     0.2504634183
C       0.0035846359     0.0000596145     -0.5866281048
H       1.2556625096     -0.8822462717     0.8556334348
H       1.3382674982     0.8709456424     0.9398496325
H       2.1818359873     -0.0045202063     -0.3516151555
C       -1.2601183225     -0.0278169234     0.2697029971
H       0.0620013418     -0.8716158580     -1.2427729764
H       -0.0834034331     0.8705055316     -1.2412379220
H       -1.3551322593     -0.8755390970     0.9496466589
H       -2.1445029657     0.0050146514     -0.3679617003
H       -1.2717995548     0.8876157519     0.8659647364
11
# Point 0 Energy = 0
C       1.2672042126     0.0000000000     0.2594997522
C       0.0000000000     0.0000000000     -0.5872081259
H       1.3052750505     -0.8806643351     0.9038259677
H       1.3052750505     0.8806643351     0.9038259677
H       2.1646165232     0.0000000000     -0.3599948239
C       -1.2672042126     -0.0000000181     0.2594997522
H       0.0000000000     -0.8738729764     -1.2430302913
H       -0.0000000606     0.8738729764     -1.2430302913
H       -1.3052750505     -0.8806643351     0.9038259677
H       -2.1646165232     0.0000006841     -0.3599948239
H       -1.3052750505     0.8806643351     0.9038259677
11
# Point 1 Energy = 0.0021101100000180395
C       1.2601183764     -0.0278170917     0.2697029466
C       -0.0035846325     0.0000596228     -0.5866281056
H       1.3551323093     -0.8755391618     0.9496467486
H       1.2717993630     0.8876155798     0.8659646930
H       2.1445030651     0.0050142087     -0.3679616973
C       -1.2736045556     0.0275977772     0.2504633640
H       -0.0620012631     -0.8716158488     -1.2427730069
H       0.0834032431     0.8705055506     -1.2412379002
H       -1.2556624928     -0.8822461540     0.8556335947
H       -2.1818360993     -0.0045194853     -0.3516151586
H       -1.3382673742     0.8709456685     0.9398495407
11
# Point 2 Energy = 0.008395830000011983
C       1.2524372522     -0.0556643868     0.2809719502
C       -0.0071198990     0.0002371742     -0.5849006444
H       1.4049246286     -0.8671048972     0.9923833181
H       1.2381241753     0.8914832086     0.8267695991
H       2.1216410576     0.0107796244     -0.3752354928
C       -1.2792553984     0.0547949444     0.2426566313
H       -0.1235672719     -0.8648783559     -1.2419940624
H       0.1659965380     0.8604554015     -1.2359087909
H       -1.2065554601     -0.8801664300     0.8057962374
H       -2.1960815891     -0.0088275031     -0.3430815623
H       -1.3705440937     0.8588918859     0.9735878358
11
# Point 3 Energy = 0.018810100000010266
C       1.2442559749     -0.0833001883     0.2931496813
C       -0.0105920537     0.0005276066     -0.5820691347
H       1.4542443334     -0.8557160477     1.0313131675
H       1.2046796974     0.8920914544     0.7868514116
H       2.0962929283     0.0175467275     -0.3814681995
C       -1.2841483335     0.0813688365     0.2361090144
H       -0.1842720704     -0.8537733744     -1.2406749265
H       0.2469133260     0.8438891046     -1.2271956197
H       -1.1582109335     -0.8744452340     0.7550704870
H       -2.2073410995     -0.0132505107     -0.3346470590
H       -1.4018218299     0.8450622914     1.0046061965
11
# Point 4 Energy = 0.03333724999998822
C       1.2356940943     -0.1105022575     0.3060770180
C       -0.0139706648     0.0009220343     -0.5782024581
H       1.5026852891     -0.8418440464     1.0658639891
H       1.1718808924     0.8894557920     0.7467779817
H       2.0687599045     0.0255135705     -0.3863503852
C       -1.2883062018     0.1071240156     0.2307730335
H       -0.2436905765     -0.8384879801     -1.2387900505
H       0.3253732555     0.8210823478     -1.2153353276
H       -1.1108221580     -0.8652064420     0.7040956296
H       -2.2157207486     -0.0181050890     -0.3264640619
H       -1.4318831468     0.8300487208     1.0325996503
11
# Point 5 Energy = 0.05193379000000675
C       1.2268887455     -0.1370780606     0.3196106873
C       -0.0172060833     0.0014090205     -0.5733846716
H       1.5498850761     -0.8260305185     1.0956622684
H       1.1400807268     0.8837537387     0.7070153187
H       2.0393437351     0.0348164110     -0.3896370775
C       -1.2917773270     0.1318992954     0.2265286997
H       -0.3014068113     -0.8192697642     -1.2363119131
H       0.4007103606     0.7924092472     -1.2006166261
H       -1.0645323665     -0.8526486532     0.6533636994
H       -2.2214205124     -0.0236738665     -0.3185832187
H       -1.4605656041     0.8144138162     1.0573978524
