11
# Point -4 Energy = 0.056964339999993285
C       1.2567108014     0.0272364908     0.2747123394
C       -0.0000003728     0.0294716802     -0.5511383558
H       1.3350239309     -0.8019599344     0.9867359267
H       1.1927992129     0.8215980367     1.0207003904
H       2.1244064866     -0.0799972924     -0.3690561957
C       -1.2567116724     0.0272396643     0.2747117078
H       -0.0000011997     -0.5957409252     -1.4587842244
H       0.0000015611     0.6325239162     -1.4752194845
H       -1.3350359956     -0.8019565214     0.9867351369
H       -2.1244048559     -0.0800093146     -0.3690573313
H       -1.1927879572     0.8215948657     1.0207051095
11
# Point -3 Energy = 0.03167712000001188
C       1.2619769628     0.0199517084     0.2719303071
C       -0.0000002727     0.0217426132     -0.5551316403
H       1.3320070987     -0.8227346743     0.9672894702
H       1.2253493389     0.8381013428     0.9937532453
H       2.1358995549     -0.0600939553     -0.3693598064
C       -1.2619775907     0.0199540276     0.2719298486
H       -0.0000009454     -0.6717665533     -1.4086543268
H       0.0000011781     0.6995819664     -1.4223970468
H       -1.3320160384     -0.8227322500     0.9672889056
H       -2.1358985012     -0.0601028848     -0.3693608985
H       -1.2253408456     0.8380993253     0.9937569610
11
# Point -2 Energy = 0.01393736999999362
C       1.2655022862     0.0129665167     0.2684582779
C       -0.0000001782     0.0142487722     -0.5624678561
H       1.3260170081     -0.8428009336     0.9470026887
H       1.2548589408     0.8534277684     0.9651619288
H       2.1464535792     -0.0401239577     -0.3679992596
C       -1.2655026890     0.0129680294     0.2684579845
H       -0.0000006504     -0.7438768095     -1.3558511732
H       0.0000007669     0.7626937516     -1.3658842714
H       -1.3260228926     -0.8427993914     0.9470023478
H       -2.1464529870     -0.0401297556     -0.3680001497
H       -1.2548532446     0.8534266755     0.9651645010
11
# Point -1 Energy = 0.0034503099999909637
C       1.2672482139     0.0063069671     0.2643091707
C       -0.0000000876     0.0069994346     -0.5731775944
H       1.3170760913     -0.8621232403     0.9258558921
H       1.2814418064     0.8676064012     0.9351234497
H       2.1560439476     -0.0200912053     -0.3648895109
C       -1.2672484078     0.0063077242     0.2643090311
H       -0.0000003204     -0.8114471962     -1.3005863986
H       0.0000003384     0.8210520787     -1.3059895036
H       -1.3170789867     -0.8621224755     0.9258557542
H       -2.1560437062     -0.0200938320     -0.3648900370
H       -1.2814389495     0.8676060095     0.9351247657
11
# Point 0 Energy = 0
C       1.2672042126     0.0000000000     0.2594997522
C       0.0000000000     0.0000000000     -0.5872081259
H       1.3052750505     -0.8806643351     0.9038259677
H       1.3052750505     0.8806643351     0.9038259677
H       2.1646165232     0.0000000000     -0.3599948239
C       -1.2672042126     -0.0000000181     0.2594997522
H       0.0000000000     -0.8738729764     -1.2430302913
H       -0.0000000606     0.8738729764     -1.2430302913
H       -1.3052750505     -0.8806643351     0.9038259677
H       -2.1646165232     0.0000006841     -0.3599948239
H       -1.3052750505     0.8806643351     0.9038259677
11
# Point 1 Energy = 0.003403229999989321
C       1.2653511662     -0.0059281539     0.2540579394
C       0.0000000852     -0.0067526277     -0.6044733415
H       1.2907078516     -0.8983877728     0.8808972287
H       1.3265230171     0.8926252818     0.8714560848
H       2.1720809538     0.0201486683     -0.3532829289
C       -1.2653509873     -0.0059287431     0.2540580624
H       0.0000004143     -0.9305683360     -1.1833616156
H       -0.0000005333     0.9204024580     -1.1773761853
H       -1.2907049593     -0.8983882529     0.8808973606
H       -2.1720810840     0.0201525030     -0.3532822442
H       -1.3265259850     0.8926256410     0.8714546586
11
# Point 2 Energy = 0.013453720000001113
C       1.2617130493     -0.0114525159     0.2480134933
C       0.0000001681     -0.0132684503     -0.6247910569
H       1.2735543377     -0.9152596183     0.8570522874
H       1.3454224724     0.9035089656     0.8381867582
H       2.1783312824     0.0403553150     -0.3447857488
C       -1.2617127074     -0.0114536920     0.2480137209
H       0.0000008030     -0.9809566401     -1.1217076724
H       -0.0000009614     0.9599160566     -1.1093888854
H       -1.2735486449     -0.9152605695     0.8570524517
H       -2.1783314274     0.0403624349     -0.3447842272
H       -1.3454284324     0.9035093800     0.8381838981
11
# Point 3 Energy = 0.029946289999998044
C       1.2565083724     -0.0165521802     0.2413763361
C       0.0000002488     -0.0195586322     -0.6477021596
H       1.2543183903     -0.9312562743     0.8322488882
H       1.3625165024     0.9133246703     0.8041401392
H       2.1833115831     0.0606221538     -0.3347736691
C       -1.2565078849     -0.0165538832     0.2413766480
H       0.0000011934     -1.0244603145     -1.0579824810
H       -0.0000013756     0.9917352030     -1.0392523474
H       -1.2543099609     -0.9312575985     0.8322489966
H       -2.1833116226     0.0606325929     -0.3347711673
H       -1.3625255072     0.9133249290     0.8041358351
11
# Point 4 Energy = 0.05268095999998934
C       1.2501739923     -0.0212135662     0.2341456660
C       0.0000003272     -0.0256339748     -0.6724698405
H       1.2338363530     -0.9463732338     0.8064360693
H       1.3786406752     0.9220649385     0.7693832476
H       2.1870623711     0.0809608486     -0.3237585909
C       -1.2501733791     -0.0212157360     0.2341460403
H       0.0000015758     -1.0604907526     -0.9919238500
H       -0.0000017709     1.0152375103     -0.9669722761
H       -1.2338252533     -0.9463748371     0.8064360232
H       -2.1870621800     0.0809746379     -0.3237549766
H       -1.3786527719     0.9220648310     0.7693775066
