11
# Point -3 Energy = 0.09886469999999292
C       1.2651251185     -0.0000291576     0.2459575977
C       -0.0000002207     0.0001018917     -0.6240827915
H       1.3041295022     -0.8738885652     0.8837317117
H       1.3040794926     0.8743007305     0.8842390324
H       2.1882465757     -0.0000345313     -0.3942742921
C       -1.2651256750     -0.0000291748     0.2459578835
H       -0.0000001913     -0.6986209132     -1.1375432495
H       -0.0000003883     0.6978216051     -1.1366361549
H       -1.3041296222     -0.8738857620     0.8837300334
H       -2.1882448091     -0.0000341352     -0.3942724426
H       -1.3040798428     0.8742986781     0.8842376909
11
# Point -2 Energy = 0.037366559999995275
C       1.2658740331     -0.0000201185     0.2503940222
C       -0.0000001463     0.0000636536     -0.6118408782
H       1.3045821169     -0.8761535942     0.8903439469
H       1.3045437729     0.8764288717     0.8906798284
H       2.1804247506     -0.0000200603     -0.3829279391
C       -1.2658744034     -0.0000200937     0.2503942124
H       -0.0000001059     -0.7573539874     -1.1723535593
H       -0.0000003046     0.7568197372     -1.1717396675
H       -1.3045821793     -0.8761516734     0.8903428418
H       -2.1804235717     -0.0000196251     -0.3829267071
H       -1.3045440228     0.8764275561     0.8906789184
11
# Point -1 Energy = 0.008020299999998315
C       1.2665669286     -0.0000092520     0.2549079782
C       -0.0000000728     0.0000344308     -0.5995493161
H       1.3049594098     -0.8784116323     0.8970414026
H       1.3049465663     0.8785506736     0.8972092076
H       2.1725480529     -0.0000162258     -0.3715013819
C       -1.2665671133     -0.0000092386     0.2549080731
H       -0.0000000454     -0.8157696368     -1.2075133009
H       -0.0000001922     0.8155078558     -1.2072064789
H       -1.3049594369     -0.8784106597     0.8970408530
H       -2.1725474629     -0.0000156772     -0.3715007665
H       -1.3049466947     0.8785500282     0.8972087488
11
# Point 0 Energy = 0
C       1.2672042126     0.0000000000     0.2594997522
C       0.0000000000     0.0000000000     -0.5872081259
H       1.3052750505     -0.8806643351     0.9038259677
H       1.3052750505     0.8806643351     0.9038259677
H       2.1646165232     0.0000000000     -0.3599948239
C       -1.2672042126     -0.0000000181     0.2594997522
H       0.0000000000     -0.8738729764     -1.2430302913
H       -0.0000000606     0.8738729764     -1.2430302913
H       -1.3052750505     -0.8806643351     0.9038259677
H       -2.1646165232     0.0000006841     -0.3599948239
H       -1.3052750505     0.8806643351     0.9038259677
11
# Point 1 Energy = 0.006036149999985696
C       1.2677863559     0.0000093130     0.2641693512
C       0.0000000719     -0.0000325302     -0.5748174954
H       1.3055228064     -0.8829107444     0.9106970410
H       1.3055365000     0.8827706782     0.9105308210
H       2.1566302259     0.0000163450     -0.3484088049
C       -1.2677861719     0.0000094109     0.2641692568
H       0.0000001209     -0.9316561455     -1.2789012401
H       -0.0000000004     0.9319174018     -1.2792133638
H       -1.3055227204     -0.8829115344     0.9106976427
H       -2.1566308171     0.0000169662     -0.3484094192
H       -1.3055364317     0.8827715055     0.9105312296
11
# Point 2 Energy = 0.021218060000009586
C       1.2683138239     0.0000203766     0.2689167978
C       0.0000001430     -0.0000560791     -0.5623775999
H       1.3056966934     -0.8851501999     0.9176535583
H       1.3057379125     0.8848702281     0.9173249697
H       2.1485892299     0.0000227831     -0.3367438398
C       -1.2683134567     0.0000205635     0.2689166094
H       0.0000002342     -0.9891124787     -1.3151215110
H       0.0000000714     0.9896420555     -1.3157594490
H       -1.3056965326     -0.8851518127     0.9176547537
H       -2.1485904136     0.0000233805     -0.3367450673
H       -1.3057377660     0.8848718492     0.9173257970
11
# Point 3 Energy = 0.04223186000000112
C       1.2687870822     0.0000298414     0.2737419923
C       0.0000002133     -0.0000850921     -0.5498887218
H       1.3058104775     -0.8873839233     0.9246975134
H       1.3058666205     0.8869616181     0.9242063225
H       2.1404935952     0.0000406550     -0.3250005797
C       -1.2687865326     0.0000300692     0.2737417103
H       0.0000003235     -1.0462477926     -1.3516984291
H       0.0000001714     1.0470364448     -1.3526592428
H       -1.3058102609     -0.8873864177     0.9246992874
H       -2.1404953728     0.0000412897     -0.3250024191
H       -1.3058663779     0.8869639735     0.9242075856
11
# Point 4 Energy = 0.06684455999999273
C       1.2692065504     0.0000393723     0.2786451016
C       0.0000002827     -0.0001124053     -0.5373509530
H       1.3058579736     -0.8896111741     0.9318281516
H       1.3059297258     0.8890454446     0.9311760695
H       2.1323433724     0.0000590176     -0.3131793572
C       -1.2692058191     0.0000396407     0.2786447264
H       0.0000004142     -1.1030542334     -1.3886284808
H       0.0000002744     1.1041013305     -1.3899167064
H       -1.3058577017     -0.8896145501     0.9318305054
H       -2.1323457452     0.0000596894     -0.3131818073
H       -1.3059293879     0.8890485338     0.9311777693
