11
# Point -3 Energy = 0.08054124000000229
C       1.2754587776     -0.0000033305     0.2806352019
C       0.0000010860     0.0000195095     -0.5742468129
H       1.3033421625     -0.7720259871     0.8409723924
H       1.3033443289     0.7720925887     0.8410501541
H       2.0736755944     -0.0000176230     -0.2794936194
C       -1.2754561934     -0.0000030095     0.2806333524
H       0.0000013392     -0.8694997511     -1.2255893814
H       0.0000013931     0.8693894079     -1.2254520176
H       -1.3033411035     -0.7720397420     0.8409812958
H       -2.0736843932     -0.0000166344     -0.2795033897
H       -1.3033430522     0.7721052374     0.8410578433
11
# Point -2 Energy = 0.032764929999999026
C       1.2727096926     -0.0000020155     0.2736489449
C       0.0000007343     0.0000130977     -0.5785053668
H       1.3038200026     -0.8083136709     0.8618973783
H       1.3038216247     0.8083581696     0.8619496128
H       2.1038886888     -0.0000121024     -0.3064280921
C       -1.2727079492     -0.0000018087     0.2736477111
H       0.0000009046     -0.8709583658     -1.2313400087
H       0.0000009198     0.8708848185     -1.2312486635
H       -1.3038193310     -0.8083228231     0.8619033334
H       -2.1038945464     -0.0000112159     -0.3064345888
H       -1.3038208014     0.8083665826     0.8619547582
11
# Point -1 Energy = 0.007519559999991543
C       1.2699581699     -0.0000008898     0.2666036778
C       0.0000003723     0.0000066708     -0.5828259214
H       1.3044644358     -0.8445265166     0.8828487144
H       1.3044654695     0.8445488316     0.8828750397
H       2.1342026885     -0.0000063455     -0.3332618344
C       -1.2699572879     -0.0000007958     0.2666030606
H       0.0000004582     -0.8724160611     -1.2371537228
H       0.0000004350     0.8723793883     -1.2371082445
H       -1.3044641170     -0.8445310837     0.8828517017
H       -2.1342056130     -0.0000055607     -0.3332650744
H       -1.3044650718     0.8445530286     0.8828776220
11
# Point 0 Energy = 0
C       1.2672042126     0.0000000000     0.2594997522
C       0.0000000000     0.0000000000     -0.5872081259
H       1.3052750505     -0.8806643351     0.9038259677
H       1.3052750505     0.8806643351     0.9038259677
H       2.1646165232     0.0000000000     -0.3599948239
C       -1.2672042126     -0.0000000181     0.2594997522
H       0.0000000000     -0.8738729764     -1.2430302913
H       -0.0000000606     0.8738729764     -1.2430302913
H       -1.3052750505     -0.8806643351     0.9038259677
H       -2.1646165232     0.0000006841     -0.3599948239
H       -1.3052750505     0.8806643351     0.9038259677
11
# Point 1 Energy = 0.006392039999994381
C       1.2644478238     0.0000007126     0.2523374351
C       -0.0000003824     -0.0000066808     -0.5916517141
H       1.3062513086     -0.9167267562     0.9248287062
H       1.3062502709     0.9167043553     0.9248020407
H       2.1951292393     0.0000065778     -0.3866269387
C       -1.2644487264     0.0000005837     0.2523380525
H       -0.0000004696     -0.8753289761     -1.2489693154
H       -0.0000005672     0.8753657168     -1.2490146701
H       -1.3062515932     -0.9167222069     0.9248256995
H       -2.1951263235     0.0000071617     -0.3866237160
H       -1.3062506409     0.9167001781     0.9247994391
11
# Point 2 Energy = 0.02363419999998939
C       1.2616890066     0.0000012970     0.2451170688
C       -0.0000007748     -0.0000131861     -0.5961563443
H       1.3073924500     -0.9527135450     0.9458564566
H       1.3073907282     0.9526686931     0.9458028497
H       2.2257397947     0.0000130983     -0.4131581508
C       -1.2616908325     0.0000010591     0.2451183035
H       -0.0000009502     -0.8767839479     -1.2549703549
H       -0.0000010848     0.8768577201     -1.2550611382
H       -1.3073929851     -0.9527044635     0.9458504240
H       -2.2257339720     0.0000135818     -0.4131517226
H       -1.3073914407     0.9526603591     0.9457976270
11
# Point 3 Energy = 0.049293849999997974
C       1.2589277641     0.0000016945     0.2378389242
C       -0.0000011772     -0.0000197632     -0.6007217466
H       1.3086983829     -0.9886243978     0.9669088530
H       1.3086958642     0.9885569901     0.9668279756
H       2.2564472433     0.0000199568     -0.4395883510
C       -1.2589305339     0.0000013488     0.2378407758
H       -0.0000014418     -0.8782380487     -1.2610332588
H       -0.0000016129     0.8783488278     -1.2611693060
H       -1.3086991349     -0.9886108023     0.9668997751
H       -2.2564385227     0.0000203407     -0.4395787351
H       -1.3086968917     0.9885445192     0.9668201127
11
# Point 4 Energy = 0.08142599000001383
C       1.2561640994     0.0000019150     0.2305033079
C       -0.0000015894     -0.0000263869     -0.6053476147
H       1.3101686305     -1.0244590461     0.9879854712
H       1.3101652594     1.0243689809     0.9878770149
H       2.2872505999     0.0000271157     -0.4659174771
C       -1.2561678337     0.0000014629     0.2305057756
H       -0.0000019444     -0.8796912659     -1.2671577032
H       -0.0000021515     0.8798390512     -1.2673388856
H       -1.3101695659     -1.0244409545     0.9879733287
H       -2.2872389906     0.0000274005     -0.4659046914
H       -1.3101665742     1.0243523932     0.9878664926
