11
# Point -5 Energy = 0.07244981000000905
C       1.3630705312     -0.0044270680     0.3697216423
C       0.2423137854     0.0006502094     -0.5545463536
H       1.3102787395     -0.9453829643     0.9069245593
H       1.3300248103     0.9401150701     0.9030803803
H       2.1137480520     0.0126610498     -0.4156781223
C       -1.1939531008     0.0055558135     0.1399582719
H       -0.1464122741     -0.7963485028     -1.1928595699
H       -0.1675225190     0.7888701616     -1.1905513265
H       -1.3540178169     -0.8044953784     0.8651310068
H       -2.1646834141     -0.0071914697     -0.3651475466
H       -1.3328468541     0.8099937448     0.8750120773
11
# Point -4 Energy = 0.047484169999989945
C       1.3441495870     -0.0036227274     0.3495338611
C       0.1973431691     0.0004498578     -0.5652683066
H       1.3071365682     -0.9335573312     0.9096198399
H       1.3230846021     0.9295352716     0.9057525080
H       2.1322227947     0.0095571635     -0.3995444313
C       -1.2062552376     0.0043958386     0.1626082522
H       -0.1251270205     -0.8222317128     -1.2078926607
H       -0.1425712164     0.8173587057     -1.2062645482
H       -1.3408435607     -0.8205227858     0.8739207776
H       -2.1651354506     -0.0060603388     -0.3630827842
H       -1.3240042959     0.8246987248     0.8816625111
11
# Point -3 Energy = 0.02732170999999539
C       1.3247637885     -0.0027845544     0.3284270900
C       0.1503712180     0.0002690846     -0.5742887481
H       1.3045299765     -0.9211108526     0.9108261745
H       1.3166053689     0.9182218649     0.9073694176
H       2.1461169233     0.0067552692     -0.3852468820
C       -1.2195440639     0.0032434309     0.1861874081
H       -0.0993465337     -0.8437731927     -1.2215838397
H       -0.1127596713     0.8409895391     -1.2205923790
H       -1.3288567224     -0.8361733153     0.8825319561
H       -2.1655888142     -0.0047913911     -0.3607563229
H       -1.3162915303     0.8391547834     0.8881711444
11
# Point -2 Energy = 0.012381090000005202
C       1.3051312397     -0.0019052710     0.3063655249
C       0.1015122522     0.0001249729     -0.5812524688
H       1.3028475410     -0.9081139912     0.9103377608
H       1.3109724752     0.9062526657     0.9076965255
H       2.1556876083     0.0042428436     -0.3735248553
C       -1.2340234928     0.0021173756     0.2104802930
H       -0.0691840534     -0.8601150513     -1.2328708850
H       -0.0782889092     0.8588627417     -1.2324034190
H       -1.3185361412     -0.8514261948     0.8906903619
H       -2.1659202991     -0.0033710996     -0.3587761577
H       -1.3101982816     0.8533316743     0.8943023385
11
# Point -1 Energy = 0.003136939999990318
C       1.2857396259     -0.0009786375     0.2833436694
C       0.0511472761     0.0000320253     -0.5856911774
H       1.3028347944     -0.8946200330     0.9080030827
H       1.3069321001     0.8937071379     0.9065338788
H       2.1615444644     0.0019995874     -0.3650275678
C       -1.2499022993     0.0010329214     0.2350867600
H       -0.0354968984     -0.8703740978     -1.2403993477
H       -0.0401019771     0.8700586312     -1.2402781946
H       -1.3105187574     -0.8662624093     0.8979536824
H       -2.1658091428     -0.0017814367     -0.3581454353
H       -1.3063692466     0.8671869769     0.8996656682
11
# Point 0 Energy = 0
C       1.2672042126     0.0000000000     0.2594997522
C       0.0000000000     0.0000000000     -0.5872081259
H       1.3052750505     -0.8806643351     0.9038259677
H       1.3052750505     0.8806643351     0.9038259677
H       2.1646165232     0.0000000000     -0.3599948239
C       -1.2672042126     -0.0000000181     0.2594997522
H       0.0000000000     -0.8738729764     -1.2430302913
H       -0.0000000606     0.8738729764     -1.2430302913
H       -1.3052750505     -0.8806643351     0.9038259677
H       -2.1646165232     0.0000006841     -0.3599948239
H       -1.3052750505     0.8806643351     0.9038259677
11
# Point 1 Energy = 0.003136939999990318
C       1.2499023655     0.0010328883     0.2350869123
C       -0.0511472838     0.0000320881     -0.5856910776
H       1.3105186243     -0.8662626489     0.8979535926
H       1.3063688355     0.8671870337     0.8996656792
H       2.1658090007     -0.0017821190     -0.3581455948
C       -1.2857396987     -0.0009785581     0.2833438338
H       0.0354969617     -0.8703740106     -1.2403992379
H       0.0401017709     0.8700586257     -1.2402782143
H       -1.3028345970     -0.8946200768     0.9080030376
H       -2.1615442916     0.0020000699     -0.3650277272
H       -1.3069317482     0.8937073736     0.9065338152
11
# Point 2 Energy = 0.012381090000005202
C       1.2340236176     0.0021173643     0.2104805853
C       -0.1015122828     0.0001250977     -0.5812522696
H       1.3185358455     -0.8514265945     0.8906902145
H       1.3101974856     0.8533318813     0.8943023588
H       2.1659200384     -0.0033718747     -0.3587764753
C       -1.3051313915     -0.0019051664     0.3063658646
H       0.0691840855     -0.8601148778     -1.2328706670
H       0.0782886697     0.8588627295     -1.2324034606
H       -1.3028471675     -0.9081141541     0.9103376397
H       -2.1556872242     0.0042432191     -0.3735251719
H       -1.3109717368     0.9062530416     0.9076964005
11
# Point 3 Energy = 0.027321719999989114
C       1.2195442385     0.0032434407     0.1861878276
C       -0.1503712867     0.0002692710     -0.5742884504
H       1.3288562611     -0.8361738856     0.8825317579
H       1.3162903425     0.8391551411     0.8881711982
H       2.1655884526     -0.0047922540     -0.3607567965
C       -1.3247640256     -0.0027844231     0.3284276137
H       0.0993465156     -0.8437729330     -1.2215835173
H       0.1127593775     0.8409895192     -1.2205924449
H       -1.3045294161     -0.9211111171     0.9108259707
H       -2.1461162833     0.0067555336     -0.3852473495
H       -1.3166042367     0.9182223731     0.9073692096
11
# Point 4 Energy = 0.04748420999997904
C       1.2062554529     0.0043958689     0.1626087860
C       -0.1973432901     0.0004501053     -0.5652679117
H       1.3408429292     -0.8205235357     0.8739205356
H       1.3240027079     0.8246992330     0.8816626213
H       2.1651350019     -0.0060612846     -0.3630834121
C       -1.3441499168     -0.0036225679     0.3495345742
H       0.1251269353     -0.8222313671     -1.2078922383
H       0.1425708493     0.8173586768     -1.2062646408
H       -1.3071358108     -0.9335576775     0.9096195455
H       -2.1322218509     0.0095573137     -0.3995450374
H       -1.3230830687     0.9295359011     0.9057521964
11
# Point 5 Energy = 0.07244988999998725
C       1.1939533486     0.0055558640     0.1399589072
C       -0.2423139705     0.0006505175     -0.5545458641
H       1.3540170101     -0.8044963157     0.8651307276
H       1.3328448571     0.8099944025     0.8750122650
H       2.1646828903     -0.0071924933     -0.3651483279
C       -1.3630709612     -0.0044268786     0.3697225452
H       0.1464121087     -0.7963480715     -1.1928590521
H       0.1675220631     0.7888701220     -1.1905514482
H       -1.3102777784     -0.9453833697     0.9069241663
H       -2.1137467575     0.0126610830     -0.4156788461
H       -1.3300228710     0.9401158059     0.9030799461
