11
# Point -3 Energy = 0.06871731999999042
C       1.2669185190     -0.0067464157     0.2592549620
C       -0.0000000496     0.0421894980     -0.5863310561
H       1.3033348334     -0.8330404634     0.8468040659
H       1.3065159583     0.9260078744     0.9617939960
H       2.1652109667     0.0115496999     -0.3606559581
C       -1.2669187157     -0.0067458948     0.2592549393
H       -0.0000001007     -0.9929463570     -1.3718549646
H       -0.0000000560     0.7552160613     -1.1151630835
H       -1.3033352136     -0.8330410051     0.8468047031
H       -2.1652102865     0.0115507756     -0.3606554387
H       -1.3065159158     0.9260068926     0.9617928537
11
# Point -2 Energy = 0.029071770000001607
C       1.2670686962     -0.0045013057     0.2594393409
C       -0.0000000346     0.0281288325     -0.5867527932
H       1.3040230076     -0.8490618237     0.8657530940
H       1.3061386752     0.9110388281     0.9424154604
H       2.1650722785     0.0076937804     -0.3603862666
C       -1.2670688267     -0.0045009402     0.2594393253
H       -0.0000000526     -0.9533671624     -1.3288975337
H       -0.0000000678     0.7948997152     -1.1577479110
H       -1.3040232521     -0.8490621542     0.8657535282
H       -2.1650718258     0.0076946952     -0.3603859191
H       -1.3061386587     0.9110382008     0.9424146938
11
# Point -1 Energy = 0.007059810000001221
C       1.2671639580     -0.0022518519     0.2595209605
C       -0.0000000181     0.0140656883     -0.5870451289
H       1.3046687382     -0.8649362265     0.8847606304
H       1.3057261777     0.8959245188     0.9230925938
H       2.1648741334     0.0038443732     -0.3601659039
C       -1.2671640229     -0.0022516415     0.2595209526
H       -0.0000000067     -0.9136776066     -1.2859536525
H       -0.0000000818     0.8344503845     -1.2003727643
H       -1.3046688460     -0.8649363460     0.8847608609
H       -2.1648739074     0.0038451245     -0.3601657292
H       -1.3057261852     0.8959242492     0.9230921997
11
# Point 0 Energy = 0
C       1.2672042126     0.0000000000     0.2594997522
C       0.0000000000     0.0000000000     -0.5872081259
H       1.3052750505     -0.8806643351     0.9038259677
H       1.3052750505     0.8806643351     0.9038259677
H       2.1646165232     0.0000000000     -0.3599948239
C       -1.2672042126     -0.0000000181     0.2594997522
H       0.0000000000     -0.8738729764     -1.2430302913
H       -0.0000000606     0.8738729764     -1.2430302913
H       -1.3052750505     -0.8806643351     0.9038259677
H       -2.1646165232     0.0000006841     -0.3599948239
H       -1.3052750505     0.8806643351     0.9038259677
11
# Point 1 Energy = 0.007079419999996617
C       1.2671894749     0.0022522730     0.2593757504
C       0.0000000195     -0.0140682016     -0.5872416808
H       1.3058449769     -0.8962468503     0.9229484876
H       1.3047822900     0.8652574345     0.8846164999
H       2.1642994861     -0.0038409446     -0.3598729993
C       -1.2671894107     0.0022521746     0.2593757589
H       0.0000000785     -0.8339479659     -1.2001349817
H       -0.0000001155     0.9131719334     -1.2857137881
H       -1.3058448087     -0.8962465483     0.9229483075
H       -2.1642997115     -0.0038405288     -0.3598731750
H       -1.3047823401     0.8652578900     0.8846168396
11
# Point 2 Energy = 0.02923418999999683
C       1.2671197341     0.0045031161     0.2591488750
C       0.0000000404     -0.0281392589     -0.5871456247
H       1.3063819306     -0.9116841686     0.9421276655
H       1.3042447402     0.8497031150     0.8654649827
H       2.1639230162     -0.0076797564     -0.3598005169
C       -1.2671196062     0.0045028640     0.2591488931
H       0.0000001175     -0.7938977029     -1.1572752371
H       -0.0000001356     0.9523516879     -1.3284161142
H       -1.3063816228     -0.9116836558     0.9421272794
H       -2.1639234664     -0.0076795124     -0.3598008684
H       -1.3042448085     0.8497039380     0.8654656845
11
# Point 3 Energy = 0.06930029000000104
C       1.2669950908     0.0067505241     0.2588191475
C       0.0000000627     -0.0422130809     -0.5869196194
H       1.3068893890     -0.9269767829     0.9613631371
H       1.3036596201     0.8340003870     0.8463724788
H       2.1634871610     -0.0115180108     -0.3597774809
C       -1.2669948998     0.0067501189     0.2588191758
H       0.0000001545     -0.7537165045     -1.1144589843
H       -0.0000001579     0.9914164344     -1.3711309103
H       -1.3068889406     -0.9269760592     0.9613625443
H       -2.1634878355     -0.0115179410     -0.3597780090
H       -1.3036597047     0.8340015809     0.8463735394
