11
# Point -5 Energy = 0.06778381000000877
C       1.2537894469     -0.1034464865     0.2242637740
C       0.0000001979     0.1439324067     -0.5604870497
H       1.3702927831     -0.9372892215     0.9118655612
H       1.0739377504     0.8270498385     0.7764260961
H       2.2012404789     0.1086818486     -0.2707644246
C       -1.2537891146     -0.1034465645     0.2242636999
H       0.0000010482     -0.8380902526     -1.0400956892
H       -0.0000013791     0.9041640364     -1.3419544037
H       -1.3702923147     -0.9372891797     0.9118656274
H       -2.2012399853     0.1086838566     -0.2707639577
H       -1.0739389722     0.8270503840     0.7764257854
11
# Point -4 Energy = 0.043445540000007554
C       1.2593609052     -0.0847097932     0.2321237512
C       0.0000001579     0.1152414479     -0.5664332206
H       1.3633440219     -0.9265592476     0.9134743930
H       1.1201460642     0.8385372689     0.8058028880
H       2.1989849094     0.0897116774     -0.2919755891
C       -1.2593606309     -0.0847098429     0.2321237144
H       0.0000008638     -0.8467607723     -1.0849093111
H       -0.0000011178     0.8975579800     -1.3264634785
H       -1.3633436407     -0.9265591640     0.9134745099
H       -2.1989845415     0.0897133957     -0.2919752387
H       -1.1201470521     0.8385377159     0.8058026004
11
# Point -3 Energy = 0.024498179999980607
C       1.2636318483     -0.0649651450     0.2396335817
C       0.0000001182     0.0864820898     -0.5719419875
H       1.3533190018     -0.9156637265     0.9135255742
H       1.1669516333     0.8498512769     0.8333169215
H       2.1943296806     0.0691914938     -0.3118020330
C       -1.2636316366     -0.0649651676     0.2396335695
H       0.0000006680     -0.8545355707     -1.1274816038
H       -0.0000008582     0.8912244846     -1.3088796019
H       -1.3533187093     -0.9156636206     0.9135257082
H       -2.1943294257     0.0691929268     -0.3118017877
H       -1.1669523812     0.8498516244     0.8333166776
11
# Point -2 Energy = 0.010921050000007426
C       1.2664458819     -0.0442287420     0.2467470636
C       0.0000000788     0.0576862727     -0.5771614756
H       1.3401858498     -0.9044699862     0.9119629298
H       1.2138113425     0.8607792031     0.8588832421
H       2.1871109751     0.0472596192     -0.3299373007
C       -1.2664457369     -0.0442287377     0.2467470648
H       0.0000004635     -0.8615515533     -1.1679347737
H       -0.0000006013     0.8851842396     -1.2891706924
H       -1.3401856458     -0.9044698740     0.9119630512
H       -2.1871108198     0.0472607696     -0.3299371493
H       -1.2138118483     0.8607794551     0.8588830593
11
# Point -1 Energy = 0.002736600000005751
C       1.2676693513     -0.0225466937     0.2533974300
C       0.0000000394     0.0288612562     -0.5822201741
H       1.3240695506     -0.8928417617     0.9087405183
H       1.2601244383     0.8711112364     0.8824169105
H       2.1772208908     0.0241128871     -0.3460853541
C       -1.2676692770     -0.0225466631     0.2533974348
H       0.0000002524     -0.8679510953     -1.2064089555
H       -0.0000003475     0.8794179980     -1.2672649098
H       -1.3240694344     -0.8928416556     0.9087406017
H       -2.1772208206     0.0241137560     -0.3460852852
H       -1.2601247039     0.8711114017     0.8824168022
11
# Point 0 Energy = 0
C       1.2672042126     0.0000000000     0.2594997522
C       0.0000000000     0.0000000000     -0.5872081259
H       1.3052750505     -0.8806643351     0.9038259677
H       1.3052750505     0.8806643351     0.9038259677
H       2.1646165232     0.0000000000     -0.3599948239
C       -1.2672042126     -0.0000000181     0.2594997522
H       0.0000000000     -0.8738729764     -1.2430302913
H       -0.0000000606     0.8738729764     -1.2430302913
H       -1.3052750505     -0.8806643351     0.9038259677
H       -2.1646165232     0.0000006841     -0.3599948239
H       -1.3052750505     0.8806643351     0.9038259677
11
# Point 1 Energy = 0.002750409999976
C       1.2649743628     0.0233289834     0.2649838071
C       -0.0000000394     -0.0289237206     -0.5921704395
H       1.2841446214     -0.8678787742     0.8971742124
H       1.3486919079     0.8893268560     0.9230452097
H       2.1492564526     -0.0248082959     -0.3715160879
C       -1.2649744402     0.0233290633     0.2649837945
H       -0.0000001813     -0.8794643367     -1.2778890590
H       0.0000001488     0.8684507019     -1.2162697106
H       -1.2841446774     -0.8678787024     0.8971741648
H       -2.1492565065     -0.0248079991     -0.3715161426
H       -1.3486917094     0.8893268903     0.9230452700
11
# Point 2 Energy = 0.010986349999996037
C       1.2609287653     0.0473300184     0.2697836586
C       -0.0000000783     -0.0579201024     -0.5971163007
H       1.2611270669     -0.8544796635     0.8887607495
H       1.3898543440     0.8970456615     0.9400071958
H       2.1311245925     -0.0500270093     -0.3805750526
C       -1.2609289228     0.0473301209     0.2697836257
H       -0.0000004011     -0.8848447142     -1.3110475392
H       0.0000003918     0.8630273135     -1.1867441286
H       -1.2611272094     -0.8544796118     0.8887606190
H       -2.1311246829     -0.0500270069     -0.3805751467
H       -1.3898539265     0.8970456597     0.9400073382
11
# Point 3 Energy = 0.024660070000010137
C       1.2550976562     0.0718313495     0.2738206684
C       -0.0000001166     -0.0869344298     -0.6019851833
H       1.2369253079     -0.8405255127     0.8786180636
H       1.4283715778     0.9038148680     0.9545937569
H       2.1102981478     -0.0753649367     -0.3871880655
C       -1.2550978959     0.0718314715     0.2738206084
H       -0.0000006208     -0.8900633684     -1.3424977027
H       0.0000006300     0.8574870876     -1.1541607656
H       -1.2369255390     -0.8405254785     0.8786178478
H       -2.1102982564     -0.0753652386     -0.3871881810
H       -1.4283709517     0.9038148541     0.9545939718
11
# Point 4 Energy = 0.043684930000011946
C       1.2475897254     0.0966418439     0.2770401415
C       -0.0000001536     -0.1158506767     -0.6066481695
H       1.2123206109     -0.8261502735     0.8668109769
H       1.4640578715     0.9096959522     0.9666729266
H       2.0868835722     -0.1005617155     -0.3914995999
C       -1.2475900490     0.0966419813     0.2770400474
H       -0.0000008393     -0.8951088124     -1.3721574081
H       0.0000008619     0.8517089978     -1.1181980578
H       -1.2123209337     -0.8261502511     0.8668106805
H       -2.0868836791     -0.1005623342     -0.3914997167
H       -1.4640570477     0.9096959542     0.9666731982
11
# Point 5 Energy = 0.06793773000001124
C       1.2385961539     0.1215633850     0.2794213573
C       -0.0000001887     -0.1444877474     -0.6109200149
H       1.1881085739     -0.8115459110     0.8534356823
H       1.4969615538     0.9148003327     0.9761061564
H       2.0610066125     -0.1254052739     -0.3937636059
C       -1.2385965628     0.1215635330     0.2794212220
H       -0.0000010550     -0.8999018387     -1.3998876571
H       0.0000010850     0.8455659206     -1.0785461981
H       -1.1881089928     -0.8115458919     0.8534353164
H       -2.0610066965     -0.1254062242     -0.3937637029
H       -1.4969605439     0.9148003819     0.9761064635
