11
# Point -5 Energy = 0.07078696000000662
C       1.2752622431     0.0338050625     0.1424506730
C       -0.0000001284     -0.0369344289     -0.5195974735
H       1.0331654368     -0.8018786931     0.8108225709
H       1.1136100693     0.8362110542     0.8660241843
H       2.2988779078     -0.0398609368     -0.2056446785
C       -1.2752621641     0.0338051431     0.1424505102
H       0.0000006007     -0.8740927656     -1.2172198669
H       -0.0000003822     0.8544739285     -1.1494430205
H       -1.0331656934     -0.8018786790     0.8108224668
H       -2.2988781217     -0.0398602360     -0.2056443127
H       -1.1136098286     0.8362112171     0.8660239656
11
# Point -4 Energy = 0.04519603999999333
C       1.2758891048     0.0287600309     0.1651519940
C       -0.0000000991     -0.0297749626     -0.5332328855
H       1.0873200033     -0.8216093336     0.8305117275
H       1.1545527697     0.8500420383     0.8751130568
H       2.2810695615     -0.0350581275     -0.2384137343
C       -1.2758890340     0.0287601096     0.1651518645
H       0.0000004861     -0.8736986600     -1.2235601134
H       -0.0000003273     0.8592041111     -1.1668879643
H       -1.0873201912     -0.8216092799     0.8305116508
H       -2.2810697511     -0.0350574643     -0.2384134469
H       -1.1545525833     0.8500422041     0.8751128697
11
# Point -3 Energy = 0.02529119000001856
C       1.2754203866     0.0228166031     0.1883557228
C       -0.0000000718     -0.0225224337     -0.5467273354
H       1.1424314026     -0.8395076923     0.8500155105
H       1.1946367203     0.8613279351     0.8836039582
H       2.2585986603     -0.0283368723     -0.2710059321
C       -1.2754203279     0.0228166783     0.1883556263
H       0.0000003720     -0.8735342019     -1.2292127375
H       -0.0000002717     0.8634564054     -1.1849533388
H       -1.1424315266     -0.8395076110     0.8500154614
H       -2.2585988168     -0.0283362392     -0.2710057218
H       -1.1946365877     0.8613280945     0.8836038054
11
# Point -2 Energy = 0.011144750000028125
C       1.2738312841     0.0160126942     0.2119204100
C       -0.0000000463     -0.0151681158     -0.5601576487
H       1.1977665630     -0.8553812386     0.8689325839
H       1.2334316343     0.8701154416     0.8913317589
H       2.2315171687     -0.0200119011     -0.3026246594
C       -1.2738312413     0.0160127644     0.2119203462
H       0.0000002589     -0.8735651158     -1.2342578425
H       -0.0000002150     0.8672629832     -1.2036596116
H       -1.1977666289     -0.8553811417     0.8689325617
H       -2.2315172829     -0.0200112907     -0.3026245237
H       -1.2334315551     0.8701155861     0.8913316441
11
# Point -1 Energy = 0.0027478100000024597
C       1.2710992926     0.0083912206     0.2356904341
C       -0.0000000225     -0.0076793860     -0.5736167843
H       1.2523960524     -0.8691080979     0.8869361166
H       1.2704671941     0.8765088856     0.8981259319
H       2.2000591293     -0.0104435679     -0.3325055158
C       -1.2710992695     0.0083912847     0.2356904024
H       0.0000001470     -0.8737154592     -1.2388143407
H       -0.0000001570     0.8706977488     -1.2230177536
H       -1.2523960670     -0.8691079975     0.8869361195
H       -2.2000591915     -0.0104429728     -0.3325054505
H       -1.2704671685     0.8765090075     0.8981258593
11
# Point 0 Energy = 0
C       1.2672042126     0.0000000000     0.2594997522
C       0.0000000000     0.0000000000     -0.5872081259
H       1.3052750505     -0.8806643351     0.9038259677
H       1.3052750505     0.8806643351     0.9038259677
H       2.1646165232     0.0000000000     -0.3599948239
C       -1.2672042126     -0.0000000181     0.2594997522
H       0.0000000000     -0.8738729764     -1.2430302913
H       -0.0000000606     0.8738729764     -1.2430302913
H       -1.3052750505     -0.8806643351     0.9038259677
H       -2.1646165232     0.0000006841     -0.3599948239
H       -1.3052750505     0.8806643351     0.9038259677
11
# Point 1 Energy = 0.0026739499999877125
C       1.2621205665     -0.0091172647     0.2831928793
C       0.0000000214     0.0079490219     -0.6010333302
H       1.3555380859     -0.8901088330     0.9195922272
H       1.3375872074     0.8827498749     0.9083160797
H       2.1256097262     0.0109823467     -0.3846867706
C       -1.2621205924     -0.0091172182     0.2831929105
H       -0.0000000711     -0.8738964918     -1.2470644903
H       -0.0000000363     0.8769351347     -1.2636860364
H       -1.3555380205     -0.8901087617     0.9195922719
H       -2.1256096543     0.0109829281     -0.3846868288
H       -1.3375872934     0.8827499291     0.9083161066
11
# Point 2 Energy = 0.01044489000000226
C       1.2558240882     -0.0189073834     0.3066189350
C       0.0000000420     0.0162610526     -0.6151854535
H       1.4023827823     -0.8975820808     0.9343390925
H       1.3672188011     0.8829467771     0.9114971240
H       2.0835119829     0.0222073731     -0.4063222250
C       -1.2558241425     -0.0189073461     0.3066189972
H       -0.0000001779     -0.8736356304     -1.2510654905
H       0.0000000272     0.8800451935     -1.2849699887
H       -1.4023826912     -0.8975820382     0.9343391520
H       -2.0835118291     0.0222079588     -0.4063223332
H       -1.3672189434     0.8829467898     0.9114972092
11
# Point 3 Energy = 0.022928589999992255
C       1.2483001793     -0.0292860073     0.3296227758
C       0.0000000619     0.0250338873     -0.6297483410
H       1.4449477218     -0.9033203022     0.9482353401
H       1.3940082586     0.8814595721     0.9132879815
H       2.0388856200     0.0334295298     -0.4247312338
C       -1.2483002643     -0.0292859806     0.3296228687
H       -0.0000002828     -0.8729527592     -1.2551537525
H       0.0000000927     0.8833533597     -1.3068827770
H       -1.4449476148     -0.9033202971     0.9482354094
H       -2.0388853750     0.0334301249     -0.4247313832
H       -1.3940084580     0.8814595385     0.9132881307
11
# Point 4 Energy = 0.039733269999999266
C       1.2395372413     -0.0401416549     0.3520683452
C       0.0000000813     0.0343608146     -0.6447868597
H       1.4825631500     -0.9076103680     0.9615212350
H       1.4179890472     0.8784737484     0.9136555449
H       1.9922588710     0.0444738040     -0.4399091905
C       -1.2395373588     -0.0401416401     0.3520684691
H       -0.0000003857     -0.8717360503     -1.2594034004
H       0.0000001598     0.8869843432     -1.3294368254
H       -1.4825630372     -0.9076104077     0.9615213085
H       -1.9922585256     0.0444744126     -0.4399093715
H       -1.4179893039     0.8784736643     0.9136557637
11
# Point 5 Energy = 0.06047369999997443
C       1.2295270917     -0.0513346275     0.3738459675
C       0.0000001002     0.0443188781     -0.6603433366
H       1.5147713758     -0.9107576691     0.9744581564
H       1.4393700609     0.8741394489     0.9126123121
H       1.9440959098     0.0552400682     -0.4519775412
C       -1.2295272434     -0.0513346266     0.3738461224
H       -0.0000004868     -0.8699129974     -1.2638322152
H       0.0000002285     0.8910199469     -1.3526575363
H       -1.5147712674     -0.9107577599     0.9744582285
H       -1.9440954557     0.0552406932     -0.4519777439
H       -1.4393703742     0.8741393112     0.9126126053
