11
# Point -5 Energy = 0.07351439000001392
C       1.2608077352     0.1347113216     0.2597072645
C       0.0055023014     -0.0022521259     -0.5887238929
H       1.2707383832     -0.8208001496     0.7893587950
H       1.3376079156     0.9470974634     0.9831769316
H       2.1583849452     0.0408786907     -0.3530133340
C       -1.2611998298     -0.1372048438     0.2528952344
H       -0.4155549464     -0.7941122900     -1.2127632542
H       0.4005967584     0.7999300996     -1.2165458963
H       -1.3390230267     -0.9324605543     0.9960187648
H       -2.1503005440     -0.0439189742     -0.3709368519
H       -1.2675597528     0.8081320285     0.8018712579
11
# Point -4 Energy = 0.04752366999998969
C       1.2626820715     0.1079624881     0.2604428011
C       0.0045665100     -0.0014462602     -0.5888079468
H       1.2776598989     -0.8345830906     0.8124606147
H       1.3303228550     0.9328828610     0.9709272556
H       2.1611895964     0.0347106387     -0.3535960019
C       -1.2627810145     -0.1096102809     0.2547139436
H       -0.3381330468     -0.8218536214     -1.2238238729
H       0.3253253791     0.8257316341     -1.2264965530
H       -1.3309406773     -0.9213257219     0.9809947366
H       -2.1545798747     -0.0367443270     -0.3681061687
H       -1.2753117582     0.8242763462     0.8223362106
11
# Point -3 Energy = 0.026937210000014034
C       1.2644859073     0.0811270630     0.2607067575
C       0.0035214527     -0.0008148016     -0.5883941661
H       1.2848101034     -0.8473283958     0.8356904435
H       1.3238879193     0.9193888579     0.9565694912
H       2.1632807752     0.0272987588     -0.3547969902
C       -1.2644325428     -0.0820769285     0.2562461192
H       -0.2569967358     -0.8441800647     -1.2323053506
H       0.2468917477     0.8464294123     -1.2339206472
H       -1.3239839530     -0.9108345619     0.9640008507
H       -2.1582371695     -0.0284815636     -0.3657756674
H       -1.2832275651     0.8394728901     0.8430241783
11
# Point -2 Energy = 0.012044989999992595
C       1.2659586490     0.0541900271     0.2605897447
C       0.0023937736     -0.0003624605     -0.5878281752
H       1.2919093412     -0.8591527832     0.8588280502
H       1.3178126546     0.9063578787     0.9403963117
H       2.1645820343     0.0188604264     -0.3563800170
C       -1.2658614138     -0.0546195434     0.2575376159
H       -0.1729695949     -0.8605392625     -1.2382895733
H       0.1659910005     0.8615605860     -1.2390432682
H       -1.3176461566     -0.9007305856     0.9452931756
H       -2.1611766924     -0.0193981920     -0.3637441225
H       -1.2909936562     0.8538345752     0.8636852768
11
# Point -1 Energy = 0.003026039999994623
C       1.2669032635     0.0271463119     0.2601683731
C       0.0012108494     -0.0000906718     -0.5873772155
H       1.2987598488     -0.8702049417     0.8816281917
H       1.3117000542     0.8935322032     0.9227121275
H       2.1650372794     0.0096603854     -0.3581540839
C       -1.2668357743     -0.0272548041     0.2586187255
H       -0.0869740851     -0.8705200026     -1.2418488802
H       0.0834098445     0.8707786034     -1.2420426961
H       -1.3115093172     -0.8907565621     0.9251419770
H       -2.1633206574     -0.0097962138     -0.3618502390
H       -1.2983813665     0.8675063583     0.8840487389
11
# Point 0 Energy = 0
C       1.2672042126     0.0000000000     0.2594997522
C       0.0000000000     0.0000000000     -0.5872081259
H       1.3052750505     -0.8806643351     0.9038259677
H       1.3052750505     0.8806643351     0.9038259677
H       2.1646165232     0.0000000000     -0.3599948239
C       -1.2672042126     -0.0000000181     0.2594997522
H       0.0000000000     -0.8738729764     -1.2430302913
H       -0.0000000606     0.8738729764     -1.2430302913
H       -1.3052750505     -0.8806643351     0.9038259677
H       -2.1646165232     0.0000006841     -0.3599948239
H       -1.3052750505     0.8806643351     0.9038259677
11
# Point 1 Energy = 0.003026039999994623
C       1.2668357861     -0.0272547972     0.2586188181
C       -0.0012108524     -0.0000907357     -0.5873772109
H       1.3115092345     -0.8907566452     0.9251419711
H       1.2983813421     0.8675063138     0.8840488605
H       2.1633204709     -0.0097968811     -0.3618504229
C       -1.2669032752     0.0271464346     0.2601684661
H       0.0869741578     -0.8705199765     -1.2418489753
H       -0.0834100372     0.8707785598     -1.2420426519
H       -1.2987596989     -0.8702048355     0.8816282303
H       -2.1650370912     0.0096608832     -0.3581542630
H       -1.3117000972     0.8935323458     0.9227121967
11
# Point 2 Energy = 0.012045000000014738
C       1.2658614381     -0.0546194788     0.2575378003
C       -0.0023937852     -0.0003625881     -0.5878281654
H       1.3176459704     -0.9007306666     0.9452931962
H       1.2909936299     0.8538345721     0.8636854952
H       2.1611763220     -0.0193989383     -0.3637444949
C       -1.2659586730     0.0541902204     0.2605899304
H       0.1729696635     -0.8605392089     -1.2382897614
H       -0.1659911851     0.8615605011     -1.2390431808
H       -1.2919090651     -0.8591526549     0.8588280957
H       -2.1645816568     0.0188608313     -0.3563803697
H       -1.3178127192     0.9063580768     0.9403964734
11
# Point 3 Energy = 0.026937219999993545
C       1.2644325805     -0.0820768118     0.2562463938
C       -0.0035214787     -0.0008149925     -0.5883941499
H       1.3239836738     -0.9108346462     0.9640009046
H       1.2832275309     0.8394729227     0.8430244934
H       2.1582366191     -0.0284823865     -0.3657762322
C       -1.2644859447     0.0811273299     0.2607070346
H       0.2569967974     -0.8441799814     -1.2323056279
H       -0.2468919191     0.8464292908     -1.2339205192
H       -1.2848096969     -0.8473282380     0.8356904899
H       -2.1632802089     0.0272990641     -0.3547975101
H       -1.3238880142     0.9193891150     0.9565697419
11
# Point 4 Energy = 0.047523680000011836
C       1.2627810672     -0.1096101184     0.2547143065
C       -0.0045665557     -0.0014465136     -0.5888079227
H       1.3309403166     -0.9213258138     0.9809948310
H       1.2753117111     0.8242764079     0.8223366212
H       2.1545791489     -0.0367452256     -0.3681069290
C       -1.2626821242     0.1079628307     0.2604431674
H       0.3381330989     -0.8218535045     -1.2238242336
H       -0.3253255322     0.8257314830     -1.2264963882
H       -1.2776593595     -0.8345828958     0.8124606568
H       -2.1611888425     0.0347108363     -0.3535966812
H       -1.3303229892     0.9328831799     0.9709275906
11
# Point 5 Energy = 0.07351441000000136
C       1.2611998993     -0.1372046424     0.2528956832
C       -0.0055023721     -0.0022524410     -0.5887238591
H       1.3390225969     -0.9324606571     0.9960189071
H       1.2675596890     0.8081321125     0.8018717624
H       2.1502996481     -0.0439199490     -0.3709378104
C       -1.2608078059     0.1347117413     0.2597077166
H       0.4155549867     -0.7941121343     -1.2127636912
H       -0.4005968890     0.7999299283     -1.2165456996
H       -1.2707377102     -0.8207999105     0.7893588283
H       -2.1583840054     0.0408787717     -0.3530141634
H       -1.3376080979     0.9470978465     0.9831773449
