11
# Point -4 Energy = 0.0526411999999965
C       1.1528380614     0.0059847657     0.2506079900
C       -0.0125010913     0.0058427675     -0.5781369857
H       1.3916164169     -0.7829104445     0.9741210648
H       1.4576493644     0.8421841237     0.8920628254
H       2.1537405076     -0.0367404279     -0.1948753560
C       -1.3765107830     -0.0081380940     0.2922593513
H       -0.1825020490     -0.8624033451     -1.2192337462
H       -0.2005756361     0.8802459959     -1.2056747721
H       -1.1522445359     -0.9461001756     0.7937450362
H       -2.1040477188     0.0102211825     -0.5118436198
H       -1.1274625968     0.8918143178     0.8480132309
11
# Point -3 Energy = 0.029481469999993237
C       1.1825241766     0.0042204207     0.2511409485
C       -0.0084711419     0.0032507859     -0.5820309134
H       1.3755374881     -0.8092815383     0.9590471904
H       1.4214665864     0.8542959819     0.9000010947
H       2.1619453218     -0.0252838154     -0.2374311011
C       -1.3490667369     -0.0054853497     0.2813802440
H       -0.1360464572     -0.8674054891     -1.2296719275
H       -0.1490769823     0.8775706387     -1.2219930222
H       -1.1969920665     -0.9349419253     0.8265318021
H       -2.1274288659     0.0103327993     -0.4758170040
H       -1.1743913828     0.8927281574     0.8698877074
11
# Point -2 Energy = 0.013021859999994945
C       1.2114781691     0.0027407922     0.2526781837
C       -0.0050669058     0.0014296845     -0.5849262628
H       1.3559552399     -0.8344347040     0.9424362970
H       1.3841094739     0.8646500569     0.9047468188
H       2.1667149784     -0.0152907904     -0.2791048426
C       -1.3216899641     -0.0033139109     0.2722686369
H       -0.0901137888     -0.8710019281     -1.2371430993
H       -0.0985538146     0.8755421652     -1.2337284449
H       -1.2377545017     -0.9196029546     0.8555601526
H       -2.1451012909     0.0086593015     -0.4380250756
H       -1.2199776560     0.8906229538     0.8862826551
11
# Point -1 Energy = 0.0032405799999963847
C       1.2396368382     0.0013795481     0.2554244356
C       -0.0023405409     0.0003545630     -0.5866449531
H       1.3325844468     -0.8582953340     0.9241226976
H       1.3454000853     0.8734013994     0.9061312167
H       2.1676683297     -0.0068426570     -0.3199422175
C       -1.2944639924     -0.0015237891     0.2650425974
H       -0.0448558011     -0.8731568356     -1.2415701254
H       -0.0490018217     0.8742925784     -1.2407181656
H       -1.2737888389     -0.9012509583     0.8811429199
H       -2.1572747531     0.0051908101     -0.3993404742
H       -1.2635640126     0.8864513410     0.8973970874
11
# Point 0 Energy = 0
C       1.2672042126     0.0000000000     0.2594997522
C       0.0000000000     0.0000000000     -0.5872081259
H       1.3052750505     -0.8806643351     0.9038259677
H       1.3052750505     0.8806643351     0.9038259677
H       2.1646165232     0.0000000000     -0.3599948239
C       -1.2672042126     -0.0000000181     0.2594997522
H       0.0000000000     -0.8738729764     -1.2430302913
H       -0.0000000606     0.8738729764     -1.2430302913
H       -1.3052750505     -0.8806643351     0.9038259677
H       -2.1646165232     0.0000006841     -0.3599948239
H       -1.3052750505     0.8806643351     0.9038259677
11
# Point 1 Energy = 0.0032405799999963847
C       1.2944638988     -0.0015237052     0.2650423882
C       0.0023405222     0.0003545572     -0.5866451088
H       1.2737893448     -0.9012506776     0.8811430651
H       1.2635642651     0.8864510452     0.8973973813
H       2.1572748410     0.0051901234     -0.3993404277
C       -1.2396367709     0.0013795955     0.2554242425
H       0.0448557776     -0.8731568905     -1.2415702149
H       0.0490016776     0.8742925254     -1.2407183848
H       -1.3325849157     -0.8582949988     0.9241227956
H       -2.1676683957     -0.0068420015     -0.3199421721
H       -1.3454003056     0.8734010930     0.9061314545
11
# Point 2 Energy = 0.013021850000001223
C       1.3216897498     -0.0033137595     0.2722681907
C       0.0050668293     0.0014296711     -0.5849265838
H       1.2377555654     -0.9196024591     0.8555605029
H       1.2199781984     0.8906223812     0.8862833176
H       2.1451015100     0.0086586428     -0.4380249810
C       -1.2114780622     0.0027409059     0.2526778039
H       0.0901136929     -0.8710020416     -1.2371432871
H       0.0985535998     0.8755420561     -1.2337288978
H       -1.3559561526     -0.8344339845     0.9424364536
H       -2.1667151045     -0.0152901854     -0.2791047507
H       -1.3841098868     0.8646494391     0.9047472506
11
# Point 3 Energy = 0.029481409999988273
C       1.3490663752     -0.0054851266     0.2813795235
C       0.0084709678     0.0032507617     -0.5820314170
H       1.1969937444     -0.9349413029     0.8265324321
H       1.1743922451     0.8927273439     0.8698888355
H       2.1274292802     0.0103322028     -0.4758168707
C       -1.1825240579     0.0042206017     0.2511403811
H       0.1360462393     -0.8674056677     -1.2296722291
H       0.1490766471     0.8775704677     -1.2219937360
H       -1.3755388258     -0.8092803882     0.9590473724
H       -2.1619455109     -0.0252832789     -0.2374309588
H       -1.4214671653     0.8542950525     0.9000016859
11
# Point 4 Energy = 0.052641089999994506
C       1.3765102624     -0.0081377905     0.2922583286
C       0.0125007974     0.0058427289     -0.5781376841
H       1.1522468361     -0.9460995476     0.7937460175
H       1.1274637520     0.8918133304     0.8480149226
H       2.1040483794     0.0102206805     -0.5118435004
C       -1.1528379444     0.0059850142     0.2506072335
H       0.1825016819     -0.8624035966     -1.2192341718
H       0.2005751505     0.8802457566     -1.2056757725
H       -1.3916181534     -0.7829088200     0.9741212472
H       -2.1537407506     -0.0367399752     -0.1948751561
H       -1.4576500718     0.8421828854     0.8920635543

    This sampling was finished on:   2020-07-01 18:15:36
=------------------------------------------------------------------------------=
Sampling finished.
=------------------------------------------------------------------------------=