11
# Point -3 Energy = 0.08471835000000283
C       1.2787458640     -0.0025403735     0.2102556358
C       0.0000001939     -0.0019990697     -0.6245757564
H       1.3089907988     -0.9400723571     0.9089687525
H       1.3093603447     0.9449986831     0.9156552981
H       2.0183532192     -0.0018297210     -0.2937833580
C       -1.2787445402     -0.0025402609     0.2102570243
H       0.0000000111     -0.8479792777     -1.2566750453
H       -0.0000000904     0.8488658190     -1.2598947741
H       -1.3089892848     -0.9400702116     0.9089681956
H       -2.0183576776     -0.0018291218     -0.2937854341
H       -1.3093588994     0.9449965572     0.9156544803
11
# Point -2 Energy = 0.03389253000000281
C       1.2749081811     -0.0017013996     0.2266814403
C       0.0000001297     -0.0013387709     -0.6121293965
H       1.3079122239     -0.9203902271     0.9071392864
H       1.3081843952     0.9236640656     0.9115865759
H       2.0672693659     -0.0011925767     -0.3156277370
C       -1.2749072978     -0.0017013064     0.2266823585
H       0.0000000194     -0.8566307087     -1.2521183081
H       -0.0000000930     0.8572096610     -1.2542650301
H       -1.3079112034     -0.9203887584     0.9071389266
H       -2.0672723416     -0.0011919818     -0.3156291234
H       -1.3081834401     0.9236626690     0.9115860262
11
# Point -1 Energy = 0.00771198999999001
C       1.2710609185     -0.0008545893     0.2430961607
C       0.0000000651     -0.0006724495     -0.5996735205
H       1.3066738818     -0.9005868174     0.9054251682
H       1.3068228611     0.9022186553     0.9076434479
H       2.1160239412     -0.0005827001     -0.3376984075
C       -1.2710604765     -0.0008545152     0.2430966161
H       0.0000000280     -0.8652620922     -1.2475699203
H       -0.0000000955     0.8655453207     -1.2486435886
H       -1.3066733559     -0.9005860335     0.9054250026
H       -2.1160254307     -0.0005821105     -0.3376991020
H       -1.3068223976     0.9022179978     0.9076431624
11
# Point 0 Energy = 0
C       1.2672042126     0.0000000000     0.2594997522
C       0.0000000000     0.0000000000     -0.5872081259
H       1.3052750505     -0.8806643351     0.9038259677
H       1.3052750505     0.8806643351     0.9038259677
H       2.1646165232     0.0000000000     -0.3599948239
C       -1.2672042126     -0.0000000181     0.2594997522
H       0.0000000000     -0.8738729764     -1.2430302913
H       -0.0000000606     0.8738729764     -1.2430302913
H       -1.3052750505     -0.8806643351     0.9038259677
H       -2.1646165232     0.0000006841     -0.3599948239
H       -1.3052750505     0.8806643351     0.9038259677
11
# Point 1 Energy = 0.006621159999980364
C       1.2633381960     0.0008622325     0.2758922916
C       -0.0000000653     0.0006789589     -0.5747330970
H       1.3037149382     -0.8606250145     0.9023413980
H       1.3035405423     0.8590027306     0.9001344906
H       2.2130460502     0.0005553381     -0.3825171722
C       -1.2633386383     0.0008622702     0.2758918434
H       0.0000000467     -0.8824627154     -1.2384996053
H       -0.0000000994     0.8821929919     -1.2374249877
H       -1.3037154061     -0.8606256237     0.9023416115
H       -2.2130445574     0.0005559177     -0.3825164748
H       -1.3035410675     0.8590035798     0.9001347209
11
# Point 2 Energy = 0.02489883999999165
C       1.2594630012     0.0017320561     0.2922737337
C       -0.0000001307     0.0013643851     -0.5622484412
H       1.3019931522     -0.8404709531     0.9009711215
H       1.3016188290     0.8372357572     0.8965690117
H       2.2613120762     0.0010835627     -0.4052649227
C       -1.2594638861     0.0017320753     0.2922728442
H       0.0000000574     -0.8910309251     -1.2339783830
H       -0.0000001008     0.8905054703     -1.2318274341
H       -1.3019941193     -0.8404722712     0.9009715198
H       -2.2613090872     0.0010841360     -0.4052635248
H       -1.3016198526     0.8372373726     0.8965694938
11
# Point 3 Energy = 0.053246669999978735
C       1.2555787661     0.0026093326     0.3086441152
C       -0.0000001962     0.0020565077     -0.5497540778
H       1.3001089468     -0.8202043162     0.8997148746
H       1.2995093750     0.8153651004     0.8931297526
H       2.3094137110     0.0015846673     -0.4282380591
C       -1.2555800935     0.0026093337     0.3086427912
H       0.0000000690     -0.8995770333     -1.2294669428
H       -0.0000001016     0.8988106999     -1.2262374143
H       -1.3001104150     -0.8202063504     0.8997154544
H       -2.3094092228     0.0015852334     -0.4282359573
H       -1.2995108996     0.8153674908     0.8931304822
