11
# Point -5 Energy = 0.05101544999997998
C       1.2322053313     0.1170132947     0.2658632684
C       -0.0000000519     0.2085381091     -0.6205366377
H       1.0327198418     -0.8847772923     0.6608306919
H       1.4743856484     0.7931500164     1.0827579599
H       2.1179758322     -0.0444732615     -0.3505505516
C       -1.2322056562     0.1170135140     0.2658628660
H       -0.0000001340     -0.8789625435     -0.7702663288
H       0.0000002611     0.7085988331     -1.5859543803
H       -1.0327193811     -0.8847768281     0.6608306747
H       -2.1179763832     -0.0444729993     -0.3505506099
H       -1.4743853689     0.7931498235     1.0827580665
11
# Point -4 Energy = 0.03099804000000006
C       1.2432541063     0.0954070003     0.2646139126
C       -0.0000000396     0.1700449652     -0.6090107951
H       1.0917126540     -0.8917791585     0.7123129168
H       1.4515345701     0.8170300702     1.0525318894
H       2.1327977738     -0.0336663516     -0.3537575152
C       -1.2432543615     0.0954071901     0.2646135829
H       -0.0000000885     -0.8947178006     -0.8718616846
H       0.0000001908     0.7506896248     -1.5294846117
H       -1.0917122845     -0.8917787844     0.7123128882
H       -2.1327982323     -0.0336660034     -0.3537575614
H       -1.4515343493     0.8170299138     1.0525319971
11
# Point -3 Energy = 0.01668810000001031
C       1.2526101339     0.0726245895     0.2633086396
C       -0.0000000284     0.1294406548     -0.5994036803
H       1.1496804092     -0.8950968341     0.7627234553
H       1.4234818091     0.8381201245     1.0193261762
H       2.1450180322     -0.0240840189     -0.3565981925
C       -1.2526103221     0.0726247478     0.2633083868
H       -0.0000000476     -0.9014723328     -0.9705696667
H       0.0000001189     0.7889038560     -1.4665015710
H       -1.1496801288     -0.8950965428     0.7627234268
H       -2.1450183882     -0.0240835959     -0.3565982268
H       -1.4234816488     0.8381200179     1.0193262715
11
# Point -2 Energy = 0.007184770000009166
C       1.2598881200     0.0489286967     0.2619887901
C       -0.0000000182     0.0872064734     -0.5923011844
H       1.2053553802     -0.8944360150     0.8116645311
H       1.3897816257     0.8559897943     0.9833294434
H       2.1544659448     -0.0154883169     -0.3587427603
C       -1.2598882436     0.0489288220     0.2619886183
H       -0.0000000125     -0.8998050103     -1.0656838628
H       0.0000000462     0.8226101030     -1.3974497983
H       -1.2053551864     -0.8944357987     0.8116645128
H       -2.1544661895     -0.0154878298     -0.3587427831
H       -1.3897815273     0.8559897474     0.9833295122
11
# Point -1 Energy = 0.001765449999993507
C       1.2648044882     0.0246149628     0.2607046796
C       -0.0000000087     0.0438764939     -0.5881509640
H       1.2575497068     -0.8896327463     0.8587962357
H       1.3503060346     0.8702665044     0.9447558310
H       2.1610227052     -0.0075775722     -0.3599248754
C       -1.2648045492     0.0246150537     0.2607045923
H       0.0000000159     -0.8903719017     -1.1566590076
H       -0.0000000264     0.8511529753     -1.3228086808
H       -1.2575495967     -0.8896325968     0.8587962357
H       -2.1610228307     -0.0075770315     -0.3599248869
H       -1.3503059995     0.8702665243     0.9447558593
11
# Point 0 Energy = 0
C       1.2672042126     0.0000000000     0.2594997522
C       0.0000000000     0.0000000000     -0.5872081259
H       1.3052750505     -0.8806643351     0.9038259677
H       1.3052750505     0.8806643351     0.9038259677
H       2.1646165232     0.0000000000     -0.3599948239
C       -1.2672042126     -0.0000000181     0.2594997522
H       0.0000000000     -0.8738729764     -1.2430302913
H       -0.0000000606     0.8738729764     -1.2430302913
H       -1.3052750505     -0.8806643351     0.9038259677
H       -2.1646165232     0.0000006841     -0.3599948239
H       -1.3052750505     0.8806643351     0.9038259677
11
# Point 1 Energy = 0.001752579999987347
C       1.2670582155     -0.0246012325     0.2583989787
C       0.0000000080     -0.0439298014     -0.5895249754
H       1.3478796609     -0.8676366183     0.9465095414
H       1.2551530646     0.8870024935     0.8607496249
H       2.1652143861     0.0076734061     -0.3589292405
C       -1.2670581557     -0.0246012121     0.2583990682
H       0.0000000510     -0.8510404213     -1.3244176328
H       -0.0000001664     0.8900939438     -1.1584702479
H       -1.3478797076     -0.8676365770     0.9465095978
H       -2.1652142555     0.0076740266     -0.3589292288
H       -1.2551531614     0.8870026587     0.8607495332
11
# Point 2 Energy = 0.007083159999979216
C       1.2643980138     -0.0488721292     0.2574195501
C       0.0000000153     -0.0874241166     -0.5950250310
H       1.3848944761     -0.8507597991     0.9866357477
H       1.2005761198     0.8892023621     0.8157622084
H       2.1627821867     0.0158693600     -0.3567730983
C       -1.2643978952     -0.0488721442     0.2574197303
H       0.0000000580     -0.8225844483     -1.4004920491
H       -0.0000002313     0.8991287706     -1.0695268430
H       -1.3848945953     -0.8507597998     0.9866358392
H       -2.1627819217     0.0158700083     -0.3567730745
H       -1.2005762867     0.8892026022     0.8157620392
11
# Point 3 Energy = 0.01634285999999463
C       1.2593696673     -0.0724908117     0.2565625616
C       0.0000000217     -0.1299451919     -0.6034394258
H       1.4160802353     -0.8303526161     1.0239935988
H       1.1424868664     0.8873109845     0.7691423753
H       2.1573152228     0.0249311300     -0.3536987288
C       -1.2593694905     -0.0724908620     0.2565628331
H       0.0000000583     -0.7891862867     -1.4708401534
H       -0.0000002909     0.9003338719     -0.9766751976
H       -1.4160804229     -0.8303526513     1.0239937283
H       -2.1573148209     0.0249317998     -0.3536986919
H       -1.1424871072     0.8873112993     0.7691421194
11
# Point 4 Energy = 0.03017347000000825
C       1.2522403559     -0.0951531170     0.2558140873
C       0.0000000274     -0.1709751404     -0.6143171395
H       1.4415424629     -0.8068177919     1.0583885950
H       1.0820183161     0.8815083851     0.7212097169
H       2.1488666899     0.0351463008     -0.3499889248
C       -1.2522401212     -0.0951532020     0.2558144499
H       0.0000000524     -0.7515100118     -1.5350282966
H       -0.0000003438     0.8931173379     -0.8804567269
H       -1.4415427151     -0.8068178550     1.0583887635
H       -2.1488661496     0.0351469869     -0.3499888730
H       -1.0820186356     0.8815087734     0.7212093671
11
# Point 5 Energy = 0.04938500999999462
C       1.2433705240     -0.1165858945     0.2551574768
C       0.0000000321     -0.2100482541     -0.6270814284
H       1.4616948004     -0.7806126534     1.0896611093
H       1.0203825376     0.8720964952     0.6723367907
H       2.1375570883     0.0467332832     -0.3459824139
C       -1.2433702315     -0.1165860137     0.2551579296
H       0.0000000409     -0.7101828193     -1.5926610420
H       -0.0000003884     0.8769683243     -0.7815587168
H       -1.4616951137     -0.7806127391     1.0896613166
H       -2.1375564091     0.0467339820     -0.3459823450
H       -1.0203829413     0.8720969553     0.6723363420
11
# Point 6 Energy = 0.07494805999999699
C       1.2331593625     -0.1365597100     0.2545878477
C       0.0000000360     -0.2467948822     -0.6411162147
H       1.4771578351     -0.7522172074     1.1177161580
H       0.9587249480     0.8594698692     0.6229440366
H       2.1235655431     0.0598447501     -0.3419957522
C       -1.2331590126     -0.1365598631     0.2545883894
H       0.0000000241     -0.6657728106     -1.6434568148
H       -0.0000004235     0.8514919735     -0.6808868563
H       -1.4771582069     -0.7522173118     1.1177164023
H       -2.1235647246     0.0598454592     -0.3419956634
H       -0.9587254416     0.8594703991     0.6229434863
