11
# Point -5 Energy = 0.07078696000000662
C       1.2753364770     0.0486957688     0.1506715392
C       -0.0000001148     -0.0443675369     -0.5084655169
H       1.0543365482     -0.8175624788     0.7866396828
H       1.1295338821     0.8593444869     0.8684017128
H       2.2930378857     -0.0502633623     -0.2083226006
C       -1.2753363775     0.0486958113     0.1506713658
H       0.0000004915     -0.8820448036     -1.2054647468
H       -0.0000003354     0.8459832188     -1.1398052161
H       -1.0543367660     -0.8175624268     0.7866396539
H       -2.2930380926     -0.0502626885     -0.2083222749
H       -1.1295336589     0.8593446771     0.8684014195
11
# Point -4 Energy = 0.04519603999999333
C       1.2759612959     0.0407220150     0.1711628881
C       -0.0000000905     -0.0379353424     -0.5251104313
H       1.1108259572     -0.8343355745     0.8102207934
H       1.1605098386     0.8618625250     0.8822685775
H       2.2764988935     -0.0279666728     -0.2430015645
C       -1.2759612132     0.0407220459     0.1711627518
H       0.0000003991     -0.8877580771     -1.2081625898
H       -0.0000002829     0.8451285844     -1.1669832119
H       -1.1108261259     -0.8343355187     0.8102207681
H       -2.2764990753     -0.0279660019     -0.2430013034
H       -1.1605096572     0.8618626833     0.8822683408
11
# Point -3 Energy = 0.02529119000001856
C       1.2754730826     0.0315869879     0.1921812385
C       -0.0000000671     -0.0307625811     -0.5415631289
H       1.1645163605     -0.8489545505     0.8336004193
H       1.1925365823     0.8653610575     0.8928524750
H       2.2553378940     -0.0111162376     -0.2750562059
C       -1.2754730184     0.0315870074     0.1921811380
H       0.0000003040     -0.8900561515     -1.2135913639
H       -0.0000002293     0.8470640177     -1.1909562374
H       -1.1645164820     -0.8489544978     0.8336003991
H       -2.2553380425     -0.0111155673     -0.2750560100
H       -1.1925364447     0.8653611813     0.8928522951
11
# Point -2 Energy = 0.011144750000028125
C       1.2738590867     0.0215674526     0.2138272637
C       -0.0000000444     -0.0223769537     -0.5575836528
H       1.2150508946     -0.8614731915     0.8569130155
H       1.2266108248     0.8697750195     0.9001472814
H       2.2296587896     -0.0004281261     -0.3049982090
C       -1.2738590425     0.0215674606     0.2138271979
H       0.0000002058     -0.8887168035     -1.2214449077
H       -0.0000001744     0.8522113051     -1.2117050527
H       -1.2150509718     -0.8614731489     0.8569130018
H       -2.2296588966     -0.0004274541     -0.3049980788
H       -1.2266107325     0.8697751061     0.9001471594
11
# Point -1 Energy = 0.0027478100000024597
C       1.2711068341     0.0109376982     0.2362207654
C       -0.0000000221     -0.0122938835     -0.5729007095
H       1.2620880409     -0.8720001134     0.8802823097
H       1.2638022264     0.8749633367     0.9039451170
H       2.1994643227     0.0034688200     -0.3332213462
C       -1.2711068114     0.0109376940     0.2362207332
H       0.0000001045     -0.8834449495     -1.2313854009
H       -0.0000001182     0.8609992732     -1.2291225259
H       -1.2620880774     -0.8720000882     0.8802823030
H       -2.1994643800     0.0034694963     -0.3332212815
H       -1.2638021802     0.8749633823     0.9039450547
11
# Point 0 Energy = 0
C       1.2672042126     0.0000000000     0.2594997522
C       0.0000000000     0.0000000000     -0.5872081259
H       1.3052750505     -0.8806643351     0.9038259677
H       1.3052750505     0.8806643351     0.9038259677
H       2.1646165232     0.0000000000     -0.3599948239
C       -1.2672042126     -0.0000000181     0.2594997522
H       0.0000000000     -0.8738729764     -1.2430302913
H       -0.0000000606     0.8738729764     -1.2430302913
H       -1.3052750505     -0.8806643351     0.9038259677
H       -2.1646165232     0.0000006841     -0.3599948239
H       -1.3052750505     0.8806643351     0.9038259677
11
# Point 1 Energy = 0.0026739499999877125
C       1.2621385021     -0.0108927666     0.2838379725
C       0.0000000220     0.0150716204     -0.6001460920
H       1.3442539692     -0.8875982855     0.9276714708
H       1.3523519410     0.8864449980     0.8991002709
H       2.1247584991     -0.0113802635     -0.3854655605
C       -1.2621385260     -0.0108928015     0.2838380028
H       -0.0000001076     -0.8595415482     -1.2559353684
H       -0.0000000016     0.8913226525     -1.2531618666
H       -1.3442539376     -0.8875983191     0.9276714762
H       -2.1247584348     -0.0113795671     -0.3854656234
H       -1.3523519865     0.8864449464     0.8991003366
11
# Point 2 Energy = 0.01044489000000226
C       1.2558975535     -0.0212802926     0.3094395674
C       0.0000000442     0.0335622053     -0.6113035932
H       1.3786084954     -0.8928852937     0.9519563477
H       1.4064979293     0.8915792512     0.8887789568
H       2.0792483261     -0.0311861304     -0.4096140483
C       -1.2558976027     -0.0212803490     0.3094396258
H       -0.0000002179     -0.8399012890     -1.2695748345
H       0.0000000585     0.9138842088     -1.2591982798
H       -1.3786084372     -0.8928853702     0.9519563563
H       -2.0792481915     -0.0311854154     -0.4096141717
H       -1.4064980185     0.8915791410     0.8887790924
11
# Point 3 Energy = 0.022928589999992255
C       1.2484708862     -0.0305392871     0.3365070646
C       0.0000000668     0.0561619282     -0.6202585114
H       1.4077950764     -0.8965072141     0.9768215274
H       1.4690789091     0.8948634248     0.8715911929
H       2.0271196908     -0.0597358687     -0.4321684217
C       -1.2484709616     -0.0305393714     0.3365071483
H       -0.0000003304     -0.8143907162     -1.2833195830
H       0.0000001195     0.9420669933     -1.2608797351
H       -1.4077949967     -0.8965073439     0.9768215359
H       -2.0271194816     -0.0597351270     -0.4321686024
H       -1.4690790392     0.8948632481     0.8715914035
11
# Point 4 Energy = 0.039733269999999266
C       1.2398487177     -0.0378573736     0.3652097673
C       0.0000000901     0.0835536905     -0.6266360647
H       1.4311341870     -0.8983134576     1.0024074344
H       1.5410240944     0.8944438220     0.8460288221
H       1.9670390894     -0.0969077318     -0.4525218391
C       -1.2398488195     -0.0378574946     0.3652098733
H       -0.0000004449     -0.7825464363     -1.2964386518
H       0.0000001809     0.9762626813     -1.2581288010
H       -1.4311340899     -0.8983136520     1.0024074393
H       -1.9670388037     -0.0969069528     -0.4525220734
H       -1.5410242620     0.8944435709     0.8460291126
11
# Point 5 Energy = 0.06047369999997443
C       1.2300220350     -0.0422540711     0.3955708952
C       0.0000001141     0.1162320786     -0.6302761359
H       1.4477959789     -0.8979943064     1.0288081789
H       1.6220518390     0.8876987422     0.8106678796
H       1.8974718393     -0.1416734752     -0.4696327426
C       -1.2300221623     -0.0422542393     0.3955710210
H       -0.0000005610     -0.7442827361     -1.3081646870
H       0.0000002420     1.0164974875     -1.2513427940
H       -1.4477958669     -0.8979945772     1.0288081770
H       -1.8974714774     -0.1416726475     -0.4696330267
H       -1.6220520414     0.8876984104     0.8106682533

    This sampling was finished on:   2020-07-01 18:15:36
=------------------------------------------------------------------------------=
Sampling finished.
=------------------------------------------------------------------------------=