11
# Point -3 Energy = 0.06488944999998125
C       1.2446350948     -0.0000125366     0.2444305947
C       -0.0188164401     -0.0000001787     -0.5873554709
H       1.2979531047     -0.9888272200     0.9729895969
H       1.2979688294     0.9888540715     0.9730159519
H       2.2373934333     0.0000008309     -0.4399246360
C       -1.2896292015     0.0000122971     0.2743641981
H       -0.0241033450     -0.8738744740     -1.2431579962
H       -0.0240856327     0.8738744653     -1.2431581085
H       -1.3147933951     -0.7718539766     0.8350235217
H       -2.0917408518     0.0000019555     -0.2801773378
H       -1.3147816566     0.7718254317     0.8349947049
11
# Point -2 Energy = 0.028184799999991128
C       1.2521746422     -0.0000083067     0.2494739113
C       -0.0125456749     -0.0000000545     -0.5872733086
H       1.3001514985     -0.9528439037     0.9498942711
H       1.3001615416     0.9528618547     0.9499119726
H       2.2131436526     0.0000003435     -0.4132718076
C       -1.2821699131     0.0000082786     0.2694353314
H       -0.0160717151     -0.8738739801     -1.2430870158
H       -0.0160599497     0.8738740575     -1.2430871200
H       -1.3113748549     -0.8081942283     0.8579167644
H       -2.1160426872     0.0000012942     -0.3067656596
H       -1.3113666005     0.8081753109     0.8578976796
11
# Point -1 Energy = 0.006951490000005833
C       1.2596976155     -0.0000041453     0.2544975061
C       -0.0062732525     0.0000000021     -0.5872242152
H       1.3025918146     -0.9167895334     0.9268397086
H       1.3025965967     0.9167984894     0.9268486380
H       2.1888848333     0.0000000968     -0.3866276787
C       -1.2746950107     0.0000041897     0.2644799235
H       -0.0080366838     -0.8738734838     -1.2430444744
H       -0.0080308781     0.8738735583     -1.2430445406
H       -1.3082024246     -0.8444643924     0.8808509314
H       -2.1403345776     0.0000008511     -0.3333722175
H       -1.3081980933     0.8444550335     0.8808414377
11
# Point 0 Energy = 0
C       1.2672042126     0.0000000000     0.2594997522
C       0.0000000000     0.0000000000     -0.5872081259
H       1.3052750505     -0.8806643351     0.9038259677
H       1.3052750505     0.8806643351     0.9038259677
H       2.1646165232     0.0000000000     -0.3599948239
C       -1.2672042126     -0.0000000181     0.2594997522
H       0.0000000000     -0.8738729764     -1.2430302913
H       -0.0000000606     0.8738729764     -1.2430302913
H       -1.3052750505     -0.8806643351     0.9038259677
H       -2.1646165232     0.0000006841     -0.3599948239
H       -1.3052750505     0.8806643351     0.9038259677
11
# Point 1 Energy = 0.006951289999989285
C       1.2746946746     0.0000040811     0.2644789500
C       0.0062732641     -0.0000000499     -0.5872250355
H       1.3082025188     -0.8444685668     0.8808530847
H       1.3081982048     0.8444595338     0.8808440311
H       2.1403384408     0.0000000997     -0.3333757036
C       -1.2596972566     -0.0000042898     0.2544965325
H       0.0080366935     -0.8738724543     -1.2430444487
H       0.0080307661     0.8738723155     -1.2430443726
H       -1.3025919382     -0.9167936915     0.9268418776
H       -2.1888886866     0.0000007162     -0.3866311459
H       -1.3025967417     0.9168029720     0.9268512494
11
# Point 2 Energy = 0.02818311000000051
C       1.2821692635     0.0000080431     0.2694333846
C       0.0125457211     -0.0000001588     -0.5872749490
H       1.3113750141     -0.8082025933     0.8579210553
H       1.3113667899     0.8081843291     0.8579028479
H       2.1160504233     0.0000004736     -0.3067726507
C       -1.2521739018     -0.0000085775     0.2494719645
H       0.0160717537     -0.8738719213     -1.2430869644
H       0.0160598653     0.8738715717     -1.2430867837
H       -1.3001517755     -0.9528522036     0.9498986244
H       -2.2131513493     0.0000009012     -0.4132787232
H       -1.3001618648     0.9528708019     0.9499172131
11
# Point 3 Energy = 0.06488364999999874
C       1.2896282611     0.0000119344     0.2743612786
C       0.0188165439     -0.0000003353     -0.5873579309
H       1.3147935898     -0.7718665482     0.8350299342
H       1.3147818906     0.7718389854     0.8350024296
H       2.0917524700     0.0000010629     -0.2801878528
C       -1.2446339503     -0.0000129333     0.2444276750
H       0.0241034318     -0.8738713861     -1.2431579185
H       0.0240855944     0.8738707363     -1.2431576036
H       -1.2979535644     -0.9888396451     0.9729961496
H       -2.2374049632     0.0000013293     -0.4399349812
H       -1.2979693643     0.9888674655     0.9730238389
