11
# Point -4 Energy = 0.0526411999999965
C       1.1591782772     -0.0012981735     0.2462881657
C       -0.0131892661     0.0004513565     -0.5724821744
H       1.4163175124     -0.8104737742     0.9405204264
H       1.4310230573     0.8073158047     0.9361068695
H       2.1612595946     0.0073497597     -0.1985105642
C       -1.3823694589     0.0030788430     0.2898671102
H       -0.1869468091     -0.8618094717     -1.2206112899
H       -0.1924537675     0.8614190300     -1.2208306001
H       -1.1475354406     -0.9130141551     0.8257595857
H       -2.1109030037     -0.0067353091     -0.5134827190
H       -1.1343807563     0.9137167557     0.8284202089
11
# Point -3 Energy = 0.029481469999993237
C       1.1860739681     -0.0011592252     0.2488069298
C       -0.0087635570     0.0002438082     -0.5788448461
H       1.3924056594     -0.8305420445     0.9341709937
H       1.4033760959     0.8284581699     0.9309051682
H       2.1661959520     0.0054416769     -0.2392064737
C       -1.3524463074     0.0021561185     0.2797963226
H       -0.1397240466     -0.8670394823     -1.2303245230
H       -0.1438522737     0.8667904665     -1.2304618043
H       -1.1907803169     -0.9103340764     0.8502615424
H       -2.1316640273     -0.0050642827     -0.4766509684
H       -1.1808212071     0.9110495370     0.8525926777
11
# Point -2 Energy = 0.013021859999994945
C       1.2130422764     -0.0008921406     0.2516959717
C       -0.0051504713     0.0001056302     -0.5835107605
H       1.3661339689     -0.8490341752     0.9260265128
H       1.3733789061     0.8478269340     0.9238951896
H       2.1686048821     0.0035807534     -0.2797889774
C       -1.3232241915     0.0013351421     0.2714641009
H       -0.0927427567     -0.8708201965     -1.2374010395
H       -0.0954930481     0.8707008685     -1.2374670723
H       -1.2321100240     -0.9034505592     0.8713973550
H       -2.1470813518     -0.0034047661     -0.4383973070
H       -1.2253582507     0.9040531754     0.8731310456
11
# Point -1 Energy = 0.0032405799999963847
C       1.2400230298     -0.0005037339     0.2551972928
C       -0.0023479225     0.0000261026     -0.5862917762
H       1.3371452721     -0.8658079898     0.9159947671
H       1.3407197126     0.8652895153     0.9149620142
H       2.1681360564     0.0017673121     -0.3200921051
C       -1.2948538354     0.0006145279     0.2648171156
H       -0.0462211734     -0.8731074609     -1.2416310838
H       -0.0475963481     0.8730765516     -1.2416483138
H       -1.2703340364     -0.8933417723     0.8891222384
H       -2.1577821376     -0.0017218692     -0.3994430988
H       -1.2668886783     0.8937094826     0.8900579684
11
# Point 0 Energy = 0
C       1.2672042126     0.0000000000     0.2594997522
C       0.0000000000     0.0000000000     -0.5872081259
H       1.3052750505     -0.8806643351     0.9038259677
H       1.3052750505     0.8806643351     0.9038259677
H       2.1646165232     0.0000000000     -0.3599948239
C       -1.2672042126     -0.0000000181     0.2594997522
H       0.0000000000     -0.8738729764     -1.2430302913
H       -0.0000000606     0.8738729764     -1.2430302913
H       -1.3052750505     -0.8806643351     0.9038259677
H       -2.1646165232     0.0000006841     -0.3599948239
H       -1.3052750505     0.8806643351     0.9038259677
11
# Point 1 Energy = 0.0032405799999963847
C       1.2948537411     0.0006145256     0.2648169063
C       0.0023479038     0.0000261299     -0.5862919328
H       1.2703345118     -0.8933415616     0.8891224028
H       1.2668889642     0.8937091223     0.8900582402
H       2.1577822207     -0.0017225702     -0.3994430474
C       -1.2400229632     -0.0005036284     0.2551970979
H       0.0462212257     -0.8731074445     -1.2416312202
H       0.0475961289     0.8730765699     -1.2416484879
H       -1.3371456561     -0.8658075552     0.9159949326
H       -2.1681361203     0.0017677752     -0.3200920558
H       -1.3407200173     0.8652893029     0.9149621831
11
# Point 2 Energy = 0.013021850000001223
C       1.3232239746     0.0013351963     0.2714636572
C       0.0051503949     0.0001056845     -0.5835110822
H       1.2321109901     -0.9034500988     0.8713977735
H       1.2253589055     0.9040525908     0.8731316302
H       2.1470815576     -0.0034055770     -0.4383972024
C       -1.2130421719     -0.0008919899     0.2516955881
H       0.0927427419     -0.8708201631     -1.2374013232
H       0.0954927548     0.8707009056     -1.2374674301
H       -1.3661347463     -0.8490333617     0.9260267777
H       -2.1686050050     0.0035810901     -0.2797888806
H       -1.3733794567     0.8478263892     0.9238955107
11
# Point 3 Energy = 0.029481409999988273
C       1.3524459409     0.0021562315     0.2797956097
C       0.0087633836     0.0002438884     -0.5788453476
H       1.1907818185     -0.9103334385     0.8502622950
H       1.1808222803     0.9110487942     0.8525936546
H       2.1316644187     -0.0050651973     -0.4766508177
C       -1.1860738534     -0.0011590342     0.2488063589
H       0.1397239175     -0.8670394320     -1.2303249730
H       0.1438518549     0.8667905225     -1.2304623634
H       -1.3924068154     -0.8305408199     0.9341713251
H       -2.1661961364     0.0054418833     -0.2392063292
H       -1.4033768698     0.8284572680     0.9309056065
11
# Point 4 Energy = 0.052641089999994506
C       1.3823689323     0.0030790163     0.2898661020
C       0.0131889742     0.0004514612     -0.5724828634
H       1.1475374688     -0.9130134433     0.8257607443
H       1.1343822372     0.9137159516     0.8284216467
H       2.1109036408     -0.0067363224     -0.5134825656
C       -1.1591781645     -0.0012979472     0.2462874127
H       0.1869465379     -0.8618094040     -1.2206119203
H       0.1924531916     0.8614191055     -1.2208313726
H       -1.4163190239     -0.8104721086     0.9405208019
H       -2.1612598302     0.0073498335     -0.1985103681
H       -1.4310240249     0.8073145234     0.9361074012
