11
# Point -3 Energy = 0.06789363000000037
C       1.2667733304     -0.0642961808     0.2615907189
C       0.0000014527     -0.0606021162     -0.5855255545
H       1.3006174540     -0.8213801416     0.8246638611
H       1.3092757429     0.9364067085     0.9810581404
H       2.1701163310     -0.0504097084     -0.3623165518
C       -1.2667635818     -0.0642978686     0.2616006412
H       0.0000004265     -0.8453480958     -1.1825143450
H       -0.0000006489     0.9053060201     -1.3008923517
H       -1.3006057511     -0.8213608916     0.8246561385
H       -2.1701489746     -0.0504105256     -0.3623318134
H       -1.3092658419     0.9363934660     0.9810561352
11
# Point -2 Energy = 0.029246330000006537
C       1.2669170489     -0.0428600236     0.2608409356
C       0.0000009642     -0.0404001294     -0.5861409052
H       1.3022038214     -0.8409865205     0.8512125913
H       1.3079553359     0.9176848961     0.9554761053
H       2.1683005404     -0.0336253567     -0.3616047981
C       -1.2669105631     -0.0428611000     0.2608475471
H       0.0000002635     -0.8547674557     -1.2028648610
H       -0.0000004212     0.8947396736     -1.2817888451
H       -1.3021960245     -0.8409736303     0.8512074374
H       -2.1683223117     -0.0336257967     -0.3616149830
H       -1.3079487144     0.9176761093     0.9554747947
11
# Point -1 Energy = 0.007165929999999321
C       1.2670606765     -0.0214280240     0.2601438712
C       0.0000004802     -0.0201988188     -0.5867018324
H       1.3037563803     -0.8607486447     0.8775995696
H       1.3066218062     0.8991032109     0.9297325031
H       2.1664672316     -0.0168217249     -0.3608309224
C       -1.2670574396     -0.0214285192     0.2601471753
H       0.0000001338     -0.8642748935     -1.2230375088
H       -0.0000002375     0.8842630498     -1.2625006676
H       -1.3037524753     -0.8607421405     0.8775969984
H       -2.1664781209     -0.0168216975     -0.3608360197
H       -1.3066184958     0.8990988685     0.9297318524
11
# Point 0 Energy = 0
C       1.2672042126     0.0000000000     0.2594997522
C       0.0000000000     0.0000000000     -0.5872081259
H       1.3052750505     -0.8806643351     0.9038259677
H       1.3052750505     0.8806643351     0.9038259677
H       2.1646165232     0.0000000000     -0.3599948239
C       -1.2672042126     -0.0000000181     0.2594997522
H       0.0000000000     -0.8738729764     -1.2430302913
H       -0.0000000606     0.8738729764     -1.2430302913
H       -1.3052750505     -0.8806643351     0.9038259677
H       -2.1646165232     0.0000006841     -0.3599948239
H       -1.3052750505     0.8806643351     0.9038259677
11
# Point 1 Energy = 0.007104719999986742
C       1.2673476562     0.0214241587     0.2589086648
C       -0.0000004771     0.0201947611     -0.5876597012
H       1.3067594949     -0.9007314956     0.9298928114
H       1.3039151719     0.8623707427     0.8777551857
H       2.1627485199     0.0168384308     -0.3590965041
C       -1.2673508827     0.0214247350     0.2589053634
H       -0.0000000269     -0.8835644906     -1.2628406460
H       -0.0000000015     0.8635667479     -1.2233799547
H       -1.3067633213     -0.9007378446     0.9298954472
H       -2.1627376252     0.0168396633     -0.3590913981
H       -1.3039185688     0.8623752573     0.8777557504
11
# Point 2 Energy = 0.028747789999997053
C       1.2674910066     0.0428446821     0.2583704349
C       -0.0000009519     0.0403835141     -0.5880567262
H       1.3082097188     -0.9209473616     0.9558016747
H       1.3025420340     0.8442246980     0.8515191247
H       2.1608633406     0.0336924887     -0.3581361758
C       -1.2674974511     0.0428457485     0.2583638347
H       -0.0000000583     -0.8933524590     -1.2824664555
H       0.0000000509     0.8533414485     -1.2035519150
H       -1.3082173796     -0.9209601787     0.9558069342
H       -2.1608415478     0.0336944591     -0.3581259563
H       -1.3025488228     0.8442336264     0.8515202446
11
# Point 3 Energy = 0.06616444999997384
C       1.2676342627     0.0642616931     0.2578847510
C       -0.0000014250     0.0605645666     -0.5883994919
H       1.3096255261     -0.9413092829     0.9815540144
H       1.3011556541     0.8262282291     0.8251167754
H       2.1589610854     0.0505609189     -0.3571141591
C       -1.2676439185     0.0642632192     0.2578748540
H       -0.0000000572     -0.9032400563     -1.3019051049
H       0.0000000597     0.8431946947     -1.1835481263
H       -1.3096369969     -0.9413285963     0.9815619109
H       -2.1589283933     0.0505637175     -0.3570988196
H       -1.3011658576     0.8262415624     0.8251184149
