11
# Point 0 Energy = 0
C       1.2672042126     0.0000000000     0.2594997522
C       0.0000000000     0.0000000000     -0.5872081259
H       1.3052750505     -0.8806643351     0.9038259677
H       1.3052750505     0.8806643351     0.9038259677
H       2.1646165232     0.0000000000     -0.3599948239
C       -1.2672042126     -0.0000000181     0.2594997522
H       0.0000000000     -0.8738729764     -1.2430302913
H       -0.0000000606     0.8738729764     -1.2430302913
H       -1.3052750505     -0.8806643351     0.9038259677
H       -2.1646165232     0.0000006841     -0.3599948239
H       -1.3052750505     0.8806643351     0.9038259677
11
# Point 1 Energy = 0.0003693600000076458
C       1.2671511156     -0.0066932420     0.2596480641
C       -0.0001529818     -0.0235031330     -0.5867433935
H       1.3827698049     -0.9445182208     0.8067238903
H       1.2344349740     0.8005147235     0.9941685106
H       2.1579811158     0.1348541459     -0.3531395278
C       -1.2670623043     0.0247396542     0.2590308963
H       -0.0111442238     -0.9218572728     -1.2085116169
H       0.0105324244     0.8244640898     -1.2756512993
H       -1.3159025904     -0.8299828183     0.9367029566
H       -2.1645499752     0.0120725498     -0.3602249555
H       -1.2940574198     0.9299101896     0.8690414940
11
# Point 2 Energy = 0.0013154199999831917
C       1.2669921047     -0.0133810093     0.2600925818
C       -0.0006115924     -0.0469710448     -0.5853500975
H       1.4650417162     -0.9909262062     0.7043414661
H       1.1719603937     0.7055343906     1.0763676294
H       2.1382398728     0.2671259664     -0.3326683718
C       -1.2666364753     0.0494377416     0.2576250438
H       -0.0228845527     -0.9683416369     -1.1721523119
H       0.0204384280     0.7737082444     -1.3063210349
H       -1.3259247411     -0.7779496276     0.9676182428
H       -2.1643502024     0.0241251457     -0.3609149483
H       -1.2822650121     0.9776387021     0.8324068193
11
# Point 3 Energy = 0.0026256499999988137
C       1.2667280135     -0.0200577006     0.2608320502
C       -0.0013748411     -0.0703685170     -0.5830309239
H       1.5500947251     -1.0190757507     0.5982362205
H       1.1193516633     0.5974736618     1.1491510017
H       2.1058833832     0.3942851366     -0.2988648891
C       -1.2659264271     0.0740527319     0.2552843728
H       -0.0352044158     -1.0132530979     -1.1340127008
H       0.0297040180     0.7216852781     -1.3349894212
H       -1.3353261648     -0.7246509072     0.9965208216
H       -2.1640167851     0.0361391818     -0.3620637109
H       -1.2699132300     1.0237706490     0.7939821981
11
# Point 4 Energy = 0.003909399999997731
C       1.2663602161     -0.0267174658     0.2618643856
C       -0.0024410802     -0.0936603365     -0.5797903356
H       1.6358654724     -1.0285075298     0.4900263131
H       1.0778604696     0.4783326545     1.2113734974
H       2.0617149547     0.5139041299     -0.2521993410
C       -1.2649316984     0.0985432598     0.2520125039
H       -0.0480862247     -1.0565211294     -1.0941562616
H       0.0383160332     0.6684771482     -1.3616100102
H       -1.3440914757     -0.6701748011     1.0233629900
H       -2.1635490513     0.0480953303     -0.3636694308
H       -1.2570176763     1.0682294059     0.7538307080
11
# Point 5 Energy = 0.004843800000003284
C       1.2658906031     -0.0333540948     0.2631866888
C       -0.0038080095     -0.1168112985     -0.5756345530
H       1.7202762345     -1.0191234692     0.3813720107
H       1.0484582231     0.3503205685     1.2620321446
H       2.0068295244     0.6237066455     -0.1933251768
C       -1.2636517195     0.1228681813     0.2478144865
H       -0.0615113014     -1.0980777156     -1.0526494797
H       0.0462620530     0.6141678431     -1.3861400588
H       -1.3522052677     -0.6146112950     1.0481004298
H       -2.1629461157     0.0599742169     -0.3657295814
H       -1.2435942850     1.1109410838     0.7120181082
11
# Point 6 Energy = 0.005176950000006286
C       1.2653215498     -0.0399609205     0.2647952612
C       -0.0054726845     -0.1397862094     -0.5705715283
H       1.8012881257     -0.9911870961     0.2739562697
H       1.0318118781     0.2158107617     1.3002803705
H       1.9425849610     0.7216125671     -0.1230738918
C       -1.2620858825     0.1469866506     0.2426967822
H       -0.0754598126     -1.1378574111     -1.0095616986
H       0.0535303837     0.5588432966     -1.4085405867
H       -1.3596521792     -0.5580520584     1.0706922752
H       -2.1622069336     0.0717564247     -0.3682409327
H       -1.2296594666     1.1518346609     0.6686126981
11
# Point 7 Energy = 0.0048353699999950095
C       1.2646558761     -0.0465307391     0.2666856273
C       -0.0074315281     -0.1625498917     -0.5646109138
H       1.8769531331     -0.9453162700     0.1694643835
H       1.0282678066     0.0772926731     1.3254413947
H       1.8705665558     0.8057784548     -0.0424481162
C       -1.2602336288     0.1708581985     0.2366672458
H       -0.0899107150     -1.1757973958     -0.9649649704
H       0.0601100610     0.5025913031     -1.4287764167
H       -1.3664169941     -0.5005902873     1.0911011659
H       -2.1613303659     0.0834225109     -0.3711995620
H       -1.2152302613     1.1908421095     0.6236851806
11
# Point 8 Energy = 0.003908150000000887
C       1.2638967990     -0.0530557518     0.2688525600
C       -0.0096803464     -0.1850671916     -0.5577640269
H       1.9454635945     -0.8824685471     0.0695626955
H       1.0378441286     -0.0626782760     1.3370205847
H       1.7925456793     0.8746326998     0.0473872511
C       -1.2580945473     0.1944428131     0.2297351074
H       -0.1048417175     -1.2118375263     -0.9189339105
H       0.0659908683     0.4455014348     -1.4468161998
H       -1.3724847741     -0.4423205484     1.1092932904
H       -2.1603152535     0.0949530391     -0.3746008648
H       -1.2003244914     1.2278985205     0.5773085317
11
# Point 9 Energy = 0.002653439999974694
C       1.2630478783     -0.0595275281     0.2712901104
C       -0.0122143496     -0.2073029912     -0.5500438106
H       2.0051978056     -0.8039196123     -0.0241235693
H       1.0602316644     -0.2015316432     1.3347165284
H       1.7104337383     0.9269046209     0.1451160525
C       -1.2556684803     0.2177010233     0.2219109549
H       -0.1202292623     -1.2459203885     -0.8715455557
H       0.0711633676     0.3876649581     -1.4626324294
H       -1.3778410170     -0.3833386250     1.1252384217
H       -2.1591604991     0.1063286259     -0.3784395645
H       -1.1849609065     1.2629422260     0.5295578806
11
# Point 10 Energy = 0.0014030600000012328
C       1.2621129583     -0.0659369905     0.2739916414
C       -0.0150281786     -0.2292222267     -0.5414647923
H       2.0547605617     -0.7112353753     -0.1100332315
H       1.0948034402     -0.3367326278     1.3184305242
H       1.6262326829     0.9616469493     0.2492841990
C       -1.2529556335     0.2405939835     0.2132067207
H       -0.1360485297     -1.2779913541     -0.8228792263
H       0.0756189411     0.3291747465     -1.4762014459
H       -1.3824718344     -0.3237413627     1.1389099510
H       -2.1578651525     0.1175300011     -0.3827097195
H       -1.1691593160     1.2959149227     0.4805103982
11
# Point 11 Energy = 0.0004791699999913135
C       1.2610961042     -0.0722744225     0.2769498652
C       -0.0181159370     -0.2507899163     -0.5320430393
H       2.0930175809     -0.6062384719     -0.1866926505
H       1.1406324467     -0.4658313117     1.2882741525
H       1.5419834009     0.9782513277     0.3583154581
C       -1.2499566866     0.2630835605     0.2036356711
H       -0.1522734650     -1.3079986438     -0.7730163898
H       0.0793498392     0.2701251855     -1.4875034365
H       -1.3863641428     -0.2636265148     1.1502849210
H       -2.1564284980     0.1285380784     -0.3874047280
H       -1.1529407030     1.3267617948     0.4302451951
11
# Point 12 Energy = 0.00013917999999080166
C       1.2600015376     -0.0785294953     0.2801568840
C       -0.0214712281     -0.2719711973     -0.5217961108
H       2.1191229320     -0.4909700249     -0.2527395140
H       1.1965171321     -0.5865094176     1.2445745635
H       1.4597133794     0.9764566282     0.4705297933
C       -1.2466728994     0.2851324209     0.1932123999
H       -0.1688768306     -1.3358934007     -0.7220405243
H       0.0823492320     0.2106120660     -1.4965224301
H       -1.3895058589     -0.2030925847     1.1593440625
H       -2.1548501398     0.1393340337     -0.3925173291
H       -1.1363273167     1.3554316376     0.3788432240
11
# Point 13 Energy = 0.00045527999999706026
C       1.2588335700     -0.0846913132     0.2836042351
C       -0.0250871977     -0.2927313762     -0.5107430075
H       2.1325387827     -0.3676476115     -0.3069465810
H       1.2610139078     -0.6966236202     1.1878771085
H       1.3813850248     0.9563500798     0.5841642857
C       -1.2431062121     0.3067041178     0.1819528250
H       -0.1858302785     -1.3616297741     -0.6700369757
H       0.0846112618     0.1507324602     -1.5032462898
H       -1.3918860946     -0.1422386635     1.1660718349
H       -2.1531300841     0.1498993876     -0.3980396010
H       -1.1193427407     1.3818769795     0.3263871847
11
# Point 14 Energy = 0.0013861599999813734
C       1.2575965378     -0.0907484749     0.2872829399
C       -0.0289565792     -0.3130359899     -0.4989041148
H       2.1330469922     -0.2386204399     -0.3482449632
H       1.3324757638     -0.7942445587     1.1189449466
H       1.3088460029     0.9183613652     0.6973965925
C       -1.2392593349     0.3277631753     0.1698741868
H       -0.2031044428     -1.3851650147     -0.6170928080
H       0.0861310928     0.0905845780     -1.5076667016
H       -1.3934953432     -0.0811642625     1.1704564694
H       -2.1512688147     0.1602160872     -0.4039629565
H       -1.1020119353     1.4060542008     0.2729614278
11
# Point 15 Energy = 0.00265384000000779
C       1.2562947399     -0.0966891461     0.2911835575
C       -0.0330717421     -0.3328508810     -0.4863011415
H       2.1207522933     -0.1063227674     -0.3757464715
H       1.4090959375     -0.8776908344     1.0387552856
H       1.2437828974     0.8632500101     0.8083708111
C       -1.2351358264     0.3482751700     0.1569950477
H       -0.2206690490     -1.4064595784     -0.5632966399
H       0.0869049584     0.0302676009     -1.5097791584
H       -1.3943256536     -0.0199691384     1.1724900148
H       -2.1492673605     0.1702665849     -0.4102781378
H       -1.0843612555     1.4279236457     0.2186518513
11
# Point 16 Energy = 0.003944479999987038
C       1.2549323786     -0.1025011429     0.2952962429
C       -0.0374247407     -0.3521422839     -0.4729570514
H       2.0960770308     0.0267734080     -0.3887644974
H       1.4889554499     -0.9455574245     0.9484919562
H       1.1876793895     0.7920865296     0.9152255265
C       -1.2307401583     0.3682068066     0.1433352893
H       -0.2384930333     -1.4254772379     -0.5087384694
H       0.0869302041     -0.0301185088     -1.5095829374
H       -1.3943707866     0.0412468875     1.1721683800
H       -2.1471273525     0.1800339093     -0.4169752104
H       -1.0664184422     1.4474497232     0.1635457900
11
# Point 17 Energy = 0.004888469999997369
C       1.2535135062     -0.1081720217     0.2996108106
C       -0.0420073617     -0.3708769214     -0.4588959880
H       2.0597476487     0.1582053779     -0.3868328655
H       1.5700732333     -0.9967380965     0.8495340794
H       1.1417800333     0.7062279213     1.0161237198
C       -1.2260777643     0.3875259862     0.1289161067
H       -0.2565446719     -1.4421851962     -0.4535094824
H       0.0862053257     -0.0904732194     -1.5070810681
H       -1.3936263509     0.1023841148     1.1694913727
H       -2.1448510687     0.1895017268     -0.4240435598
H       -1.0482125904     1.4646009942     0.1077318934
11
# Point 18 Energy = 0.0052289699999903405
C       1.2520419790     -0.1136891725     0.3041168036
C       -0.0468111691     -0.3890221093     -0.4441431920
H       2.0127733316     0.2855655264     -0.3697220692
H       1.6504575084     -1.0304415607     0.7434406663
H       1.1070605490     0.6072881915     1.1092841220
C       -1.2211550734     0.4062018665     0.1137599984
H       -0.2747917130     -1.4565542000     -0.3977018495
H       0.0847300049     -0.1506956620     -1.5022802888
H       -1.3920899172     0.1633431531     1.1644627272
H       -2.1424414667     0.1986543928     -0.4314718907
H       -1.0297740941     1.4793502402     0.0512999918
11
# Point 19 Energy = 0.004891559999990136
C       1.2505214171     -0.1190399160     0.3088035673
C       -0.0518275441     -0.4065458660     -0.4287249131
H       1.9564174132     0.4065450257     -0.3374522980
H       1.7281570467     -1.0462012542     0.6319310811
H       1.0842053787     0.4971046792     1.1930134961
C       -1.2159795268     0.4242049113     0.0978907480
H       -0.2932015096     -1.4685586467     -0.3414085120
H       0.0825051425     -0.2106848773     -1.4951909903
H       -1.3897611085     0.2240251100     1.1570901197
H       -2.1399022005     0.2074769886     -0.4392482335
H       -1.0111345692     1.4916745114     -0.0056590465
11
# Point 20 Energy = 0.003935199999986594
C       1.2489551745     -0.1242115996     0.3136603288
C       -0.0570477199     -0.4234170253     -0.4126683160
H       1.8921623513     0.5189746384     -0.2903026857
H       1.8013109610     -1.0438787881     0.5168614095
H       1.0735930539     0.3777009898     1.2657392458
C       -1.2105595764     0.4415069297     0.0813334010
H       -0.3117411502     -1.4781766825     -0.2847229623
H       0.0795328904     -0.2703400708     -1.4858271460
H       -1.3866416662     0.2843317750     1.1473851673
H       -2.1372376235     0.2159553483     -0.4473599563
H       -0.9923267555     1.5015551512     -0.0630534674
11
# Point 21 Energy = 0.0026567399999919417
C       1.2473463168     -0.1291916927     0.3186762800
C       -0.0624628088     -0.4396053477     -0.3960013848
H       1.8216692352     0.6208619393     -0.2288162462
H       1.8681957141     -1.0236612269     0.4001968911
H       1.0752897178     0.2512473835     1.3260416660
C       -1.2049046678     0.4580811040     0.0641142317
H       -0.3303775850     -1.4853902885     -0.2277390249
H       0.0758166841     -0.3295608722     -1.4742062294
H       -1.3827354924     0.3441657958     1.1353634092
H       -2.1344527746     0.2240760727     -0.4557937867
H       -0.9733843999     1.5089777988     -0.1207907872
11
# Point 22 Energy = 0.0013807299999797351
C       1.2456976078     -0.1339678804     0.3238406637
C       -0.0680638222     -0.4550816295     -0.3787528266
H       1.7467329346     0.7104243847     -0.1538000335
H       1.9272681087     -0.9860524818     0.2839807069
H       1.0890509235     0.1200194633     1.3726850900
C       -1.1990252053     0.4739020064     0.0462607044
H       -0.3490777467     -1.4901853522     -0.1705506438
H       0.0713612757     -0.3882475902     -1.4603491213
H       -1.3780486686     0.4034308432     1.1210442708
H       -2.1315533490     0.2318265335     -0.4645358419
H       -0.9543421190     1.5139323690     -0.1787779499
11
# Point 23 Energy = 0.0004549099999877626
C       1.2440115059     -0.1385281535     0.3291428609
C       -0.0738416831     -0.4698178064     -0.3609519771
H       1.6692341086     0.7861177675     -0.0663201470
H       1.9772031398     -0.9318592065     0.1702995415
H       1.1143316149     -0.0136440015     1.4046471424
C       -1.1929324998     0.4889456064     0.0278014274
H       -0.3678086654     -1.4925517249     -0.1132516807
H       0.0661727672     -0.4463014591     -1.4442800099
H       -1.3725894501     0.4620317619     1.1044510107
H       -2.1285456538     0.2391948698     -0.4735716678
H       -0.9352352448     1.5164130122     -0.2369214815
11
# Point 24 Energy = 0.00013005999998938478
C       1.2422901688     -0.1428608954     0.3345724764
C       -0.0797872319     -0.4837870507     -0.3426287128
H       1.5910893781     0.8466597168     0.0323086820
H       2.0169257229     -0.8621716664     0.0612464718
H       1.1503039758     -0.1473833127     1.4211452872
C       -1.1866387018     0.5031892684     0.0087661026
H       -0.3865375775     -1.4924832645     -0.0559357320
H       0.0602586436     -0.5036248713     -1.4260262876
H       -1.3663682372     0.5198747059     1.0856106551
H       -2.1254365487     0.2461699774     -0.4828862866
H       -0.9160996527     1.5164180586     -0.2951276374
11
# Point 25 Energy = 0.0004610700000000634
C       1.2405354661     -0.1469549651     0.3401194209
C       -0.0858912259     -0.4969638606     -0.3238133700
H       1.5142010082     0.8910480128     0.1405390591
H       2.0456354816     -0.7783401224     -0.0411181429
H       1.1958826227     -0.2788593837     1.4216598653
C       -1.1801567183     0.5166117434     -0.0108145291
H       -0.4052320291     -1.4899778663     0.0013040357
H       0.0536278031     -0.5601215940     -1.4056184508
H       -1.3593975224     0.5768672576     1.0645539227
H       -2.1222333727     0.2527414943     -0.4924642503
H       -0.8969715739     1.5139499503     -0.3533025417
11
# Point 26 Energy = 0.0013688599999994722
C       1.2387490010     -0.1507997753     0.3457739856
C       -0.0921443346     -0.5093241423     -0.3045366747
H       1.4404074626     0.9185735995     0.2566124364
H       2.0628239641     -0.6819473213     -0.1348069873
H       1.2497564227     -0.4057938805     1.4059528516
C       -1.1735001158     0.5291931551     -0.0309087438
H       -0.4238599746     -1.4850374827     0.0583750269
H       0.0462905820     -0.6156969682     -1.3830900054
H       -1.3516918135     0.6329185326     1.0413151436
H       -2.1189438604     0.2588997839     -0.5022896983
H       -0.8778873942     1.5090151651     -0.4113523156
11
# Point 27 Energy = 0.0026329200000105857
C       1.2369321378     -0.1543853662     0.3515269066
C       -0.0985371307     -0.5208452839     -0.2848296829
H       1.3714361656     0.9288282803     0.3785859955
H       2.0682838639     -0.5747777212     -0.2179464527
H       1.3104260373     -0.5260073291     1.3740816232
C       -1.1666830116     0.5409149836     -0.0514838910
H       -0.4423898693     -1.4776681351     0.1151853382
H       0.0382587713     -0.6702580899     -1.3584773840
H       -1.3432675330     0.6879392719     1.0159321785
H       -2.1155760485     0.2646359172     -0.5123464162
H       -0.8588834434     1.5016241383     -0.4691831963
11
# Point 28 Energy = 0.003901560000002746
C       1.2350860368     -0.1577024729     0.3573694164
C       -0.1050600809     -0.5315062226     -0.2647237336
H       1.3088597501     0.9217071786     0.5043645701
H       2.0621100368     -0.4587841012     -0.2888166932
H       1.3762461348     -0.6374546298     1.3264071245
C       -1.1597199550     0.5517600477     -0.0725064486
H       -0.4607907575     -1.4678799200     0.1716438592
H       0.0295456209     -0.7237139772     -1.3318198753
H       -1.3341428935     0.7418419249     0.9884463394
H       -2.1121381757     0.2699416556     -0.5226178924
H       -0.8399957774     1.4917911829     -0.5267016476
11
# Point 29 Energy = 0.0048478999999872485
C       1.2332116953     -0.1607425880     0.3632932776
C       -0.1117035351     -0.5412875057     -0.2442504130
H       1.2540569739     0.8974061317     0.6317371135
H       2.0446923343     -0.3360522064     -0.3458900851
H       1.4454710875     -0.7382574963     1.2635959301
C       -1.1526258010     0.5617124888     -0.0939420768
H       -0.4790323539     -1.4556870095     0.2276603602
H       0.0201658281     -0.7759757237     -1.3031595700
H       -1.3243377495     0.7945407267     0.9589023174
H       -2.1086385801     0.2748094344     -0.5330873699
H       -0.8212599601     1.4795344140     -0.5838144650
11
# Point 30 Energy = 0.005211400000007416
C       1.2313099929     -0.1634980167     0.3692907990
C       -0.1184577173     -0.5501713450     -0.2234415292
H       1.2081793591     0.8564142622     0.7584170624
H       2.0167004990     -0.2087640764     -0.3878670898
H       1.5163028702     -0.8267334230     1.1866158510
C       -1.1454155801     0.5707577566     -0.1157556687
H       -0.4970851166     -1.4411076486     0.2831455679
H       0.0101355081     -0.8269566430     -1.2725413208
H       -1.3138734291     0.8459517749     0.9273481158
H       -2.1050855967     0.2792323491     -0.5437378893
H       -0.8027108502     1.4648756759     -0.6404288795
11
# Point 31 Energy = 0.00486990999999648
C       1.2293817414     -0.1659619247     0.3753548303
C       -0.1253127178     -0.5581416672     -0.2023290962
H       1.1721244496     0.7995020337     0.8820858036
H       1.9790615935     -0.0791606784     -0.4137085353
H       1.5869398099     -0.9014208664     1.0967248864
C       -1.1381043681     0.5788825985     -0.1379114000
H       -0.5149203108     -1.4241641477     0.3380112394
H       -0.0005278550     -0.8765724067     -1.2400127155
H       -1.3027725457     0.8959931076     0.8938349915
H       -2.1014874581     0.2832041430     -0.5545523219
H       -0.7843823996     1.4478404743     -0.6964526633
11
# Point 32 Energy = 0.0039318099999974265
C       1.2274277377     -0.1681283791     0.3814787353
C       -0.1322584879     -0.5651841578     -0.1809453251
H       1.1465163958     0.7277051489     1.0004383274
H       1.9329306462     0.0504955613     -0.4226633856
H       1.6556248142     -0.9611004056     0.9954535018
C       -1.1307071587     0.5860750525     -0.1603727757
H       -0.5325100592     -1.4048828696     0.3921702344
H       -0.0118054786     -0.9247411789     -1.2056240615
H       -1.2910587962     0.9445847873     0.8584174001
H       -2.0978522037     0.2867191959     -0.5655133908
H       -0.7663074704     1.4284579112     -0.7517942414
11
# Point 33 Energy = 0.0026337699999885444
C       1.2254488185     -0.1699923800     0.3876563435
C       -0.1392848369     -0.5712863011     -0.1593226194
H       1.1316943620     0.6423046853     1.1112300519
H       1.8796553951     0.1779577759     -0.4142911460
H       1.7206917162     -1.0048117286     0.8845803947
C       -1.1232387438     0.5923244436     -0.1831026779
H       -0.5498273776     -1.3832942101     0.4455365952
H       -0.0236773698     -0.9713837480     -1.1694283753
H       -1.2787567491     0.9916489905     0.8211529450
H       -2.0941875984     0.2897725163     -0.5766036794
H       -0.7485176769     1.4067606222     -0.8063628134
11
# Point 34 Energy = 0.00134918000000539
C       1.2234459160     -0.1715498843     0.3938818817
C       -0.1463814311     -0.5764374132     -0.1374935743
H       1.1277090274     0.5448038881     1.2123237262
H       1.8207361824     0.3010307215     -0.3884781636
H       1.7806084288     -1.0318663562     0.7661020955
C       -1.1157136058     0.5976213842     -0.2060634134
H       -0.5668461928     -1.3594325684     0.4980256329
H       -0.0361224311     -1.0164236571     -1.1314813758
H       -1.2658916304     1.0371101053     0.7821023242
H       -2.0905010648     0.2923597329     -0.5878056287
H       -0.7310432593     1.3827847132     -0.8600684860
11
# Point 35 Energy = 0.000414880000008111
C       1.2214201125     -0.1727978203     0.4001498869
C       -0.1535377944     -0.5806286696     -0.1154909764
H       1.1343272071     0.4369020526     1.3017352808
H       1.7577821962     0.4176054287     -0.3454472231
H       1.8340156967     -1.0418560817     0.6421969355
C       -1.1081458232     0.6019577770     -0.2292167638
H       -0.5835413416     -1.3333363072     0.5495540245
H       -0.0491185781     -1.0597873322     -1.0918414743
H       -1.2524891124     1.0808948356     0.7413292725
H       -2.0867996307     0.2944770881     -0.5991015245
H       -0.7139129927     1.3565696950     -0.9128224193
11
# Point 36 Energy = 8.478999997407755e-05
C       1.2193726931     -0.1737340937     0.4064551045
C       -0.1607433090     -0.5838531259     -0.0933478040
H       1.1510443811     0.3204659313     1.3776774832
H       1.6924653619     0.5256920361     -0.2857599974
H       1.8797603665     -1.0346571539     0.5151840816
C       -1.1005489965     0.6053268197     -0.2525240400
H       -0.5998885496     -1.3050477007     0.6000399191
H       -0.0626428633     -1.1014042052     -1.0505697607
H       -1.2385751160     1.1229323102     0.6989004953
H       -2.0830898935     0.2961214330     -0.6104734773
H       -0.6971541352     1.3281584151     -0.9645369853

    This sampling was finished on:   2020-07-01 18:15:36
=------------------------------------------------------------------------------=
Sampling finished.
=------------------------------------------------------------------------------=