11
# Point -3 Energy = 0.08054124000000229
C       1.2754588238     -0.0001167089     0.2806321725
C       0.0000010860     0.0002932383     -0.5742496753
H       1.3028641522     -0.7718931613     0.8413319549
H       1.3038089821     0.7722174221     0.8406954331
H       2.0736791743     -0.0008727564     -0.2794910738
C       -1.2754562393     -0.0001164442     0.2806303237
H       0.0000013425     -0.8689254564     -1.2259932956
H       0.0000013895     0.8699633060     -1.2250539566
H       -1.3028631723     -0.7719070808     0.8413407068
H       -2.0736879728     -0.0008716000     -0.2795008445
H       -1.3038076266     0.7722299078     0.8407032737
11
# Point -2 Energy = 0.032764929999999026
C       1.2727097130     -0.0000786870     0.2736475351
C       0.0000007343     0.0002007723     -0.5785067003
H       1.3034866477     -0.8082229002     0.8621434929
H       1.3041487660     0.8084452169     0.8617057665
H       2.1038903351     -0.0006008858     -0.3064269232
C       -1.2727079694     -0.0000785192     0.2736463017
H       0.0000009072     -0.8705643994     -1.2316164733
H       0.0000009170     0.8712786033     -1.2309749203
H       -1.3034860326     -0.8082321686     0.8621493399
H       -2.1038961925     -0.0005998809     -0.3064334202
H       -1.3041478864     0.8084535146     0.8617110201
11
# Point -1 Energy = 0.007519559999991543
C       1.2699581750     -0.0000397158     0.2666033212
C       0.0000003723     0.0001030305     -0.5828262584
H       1.3042904723     -0.8444801669     0.8829747837
H       1.3046377273     0.8445942468     0.8827495511
H       2.1342030990     -0.0003098722     -0.3332615465
C       -1.2699572929     -0.0000396423     0.2666027041
H       0.0000004596     -0.8722135895     -1.2372955162
H       0.0000004336     0.8725818131     -1.2369671381
H       -1.3042901837     -0.8444847954     0.8829777134
H       -2.1342060236     -0.0003090248     -0.3332647865
H       -1.3046372995     0.8445983825     0.8827521911
11
# Point 0 Energy = 0
C       1.2672042126     0.0000000000     0.2594997522
C       0.0000000000     0.0000000000     -0.5872081259
H       1.3052750505     -0.8806643351     0.9038259677
H       1.3052750505     0.8806643351     0.9038259677
H       2.1646165232     0.0000000000     -0.3599948239
C       -1.2672042126     -0.0000000181     0.2594997522
H       0.0000000000     -0.8738729764     -1.2430302913
H       -0.0000000606     0.8738729764     -1.2430302913
H       -1.3052750505     -0.8806643351     0.9038259677
H       -2.1646165232     0.0000006841     -0.3599948239
H       -1.3052750505     0.8806643351     0.9038259677
11
# Point 1 Energy = 0.006392039999994381
C       1.2644478288     0.0000402567     0.2523370457
C       -0.0000003824     -0.0001083282     -0.5916520830
H       1.3064398170     -0.9167747957     0.9246971604
H       1.3060599338     0.9166552898     0.9249342306
H       2.1951296758     0.0003284674     -0.3866266343
C       -1.2644487314     0.0000401497     0.2523376632
H       -0.0000004715     -0.8755425007     -1.2488206756
H       -0.0000005653     0.8751521426     -1.2491640592
H       -1.3064400680     -0.9167701787     0.9246942183
H       -2.1951267598     0.0003289826     -0.3866234114
H       -1.3060603375     0.9166511805     0.9249315642
11
# Point 2 Energy = 0.02363419999998939
C       1.2616890265     0.0000808517     0.2451154172
C       -0.0000007749     -0.0002219601     -0.5961579117
H       1.3077842123     -0.9528109575     0.9455884529
H       1.3069915854     0.9525669076     0.9460735852
H       2.2257416324     0.0006752866     -0.4131568586
C       -1.2616908522     0.0000806586     0.2451166523
H       -0.0000009547     -0.8772220964     -1.2546665524
H       -0.0000010804     0.8764193678     -1.2553681180
H       -1.3077846771     -0.9528017352     0.9455825563
H       -2.2257358090     0.0006756275     -0.4131504303
H       -1.3069923688     0.9525587155     0.9460682261
11
# Point 3 Energy = 0.049293849999997974
C       1.2589278085     0.0001215844     0.2378350829
C       -0.0000011773     -0.0003408992     -0.6007253938
H       1.3093076770     -0.9887722483     0.9664999131
H       1.3080692203     0.9883989776     0.9672433050
H       2.2564514708     0.0010402318     -0.4395853842
C       -1.2589305779     0.0001213080     0.2378369355
H       -0.0000014495     -0.8789116920     -1.2605678082
H       -0.0000016057     0.8776747133     -1.2616421398
H       -1.3093083187     -0.9887584325     0.9664910496
H       -2.2564427489     0.0010403932     -0.4395757681
H       -1.3080703591     0.9883867296     0.9672352268
11
# Point 4 Energy = 0.08142599000001383
C       1.2561641778     0.0001622567     0.2304962574
C       -0.0000015896     -0.0004651477     -0.6053543123
H       1.3110096570     -1.0246581115     0.9874315866
H       1.3092920632     1.0241512805     0.9884426918
H       2.2872582756     0.0014230959     -0.4659121006
C       -1.2561679113     0.0001618997     0.2304987270
H       -0.0000019557     -0.8806112132     -1.2665243322
H       -0.0000021410     0.8789182434     -1.2679857965
H       -1.3110104391     -1.0246397139     0.9874197439
H       -2.2872466642     0.0014230728     -0.4658993144
H       -1.3092935332     1.0241350034     0.9884318682

    This sampling was finished on:   2020-07-01 18:15:36
=------------------------------------------------------------------------------=
Sampling finished.
=------------------------------------------------------------------------------=