11
# Point -4 Energy = 0.05330500999997412
C       1.2796796480     -0.0563669936     0.2032482983
C       0.0000000076     -0.0334302971     -0.6405577819
H       1.1607436335     -0.7493535028     1.0394825433
H       1.3663565941     0.7107515244     0.9850879987
H       2.0925663236     0.1462832488     -0.4854992752
C       -1.2796793847     -0.0563659254     0.2032490328
H       -0.0000006858     -0.9401448736     -1.2503518238
H       0.0000004079     0.8709499760     -1.2526833464
H       -1.1607472198     -0.7493563425     1.0394807342
H       -2.0925670430     0.1462797466     -0.4854989146
H       -1.3663523418     0.7107541052     0.9850875533
11
# Point -3 Energy = 0.029926740000007612
C       1.2765898212     -0.0409464394     0.2167696005
C       -0.0000000040     -0.0240553823     -0.6277920169
H       1.1949487161     -0.7878145702     1.0097479075
H       1.3497285216     0.7568587449     0.9661929732
H       2.1141054311     0.1090884297     -0.4581379428
C       -1.2765896277     -0.0409456685     0.2167701666
H       -0.0000005035     -0.9229716779     -1.2489793722
H       0.0000002483     0.8726571259     -1.2513277771
H       -1.1949514193     -0.7878164203     1.0097464147
H       -2.1141058279     0.1090859365     -0.4581375147
H       -1.3497254165     0.7568605876     0.9661925801
11
# Point -2 Energy = 0.0133074099999817
C       1.2734817495     -0.0263763177     0.2307053765
C       -0.0000000055     -0.0153534028     -0.6145877131
H       1.2303115015     -0.8225663502     0.9771218799
H       1.3341162585     0.8005865489     0.9463591227
H       2.1330451495     0.0722995362     -0.4281414389
C       -1.2734816190     -0.0263758165     0.2307057600
H       -0.0000003171     -0.9062218475     -1.2472185614
H       0.0000001149     0.8736899121     -1.2492379856
H       -1.2303133186     -0.8225673838     0.9771208106
H       -2.1330453304     0.0722980548     -0.4281410452
H       -1.3341142438     0.8005877324     0.9463588134
11
# Point -1 Energy = 0.0033344099999794707
C       1.2703537588     -0.0127078106     0.2449686121
C       -0.0000000031     -0.0073297693     -0.6010376545
H       1.2670690197     -0.8535439143     0.9417695695
H       1.3193481171     0.8418782466     0.9255706748
H       2.1497909598     0.0359273120     -0.3954349131
C       -1.2703536920     -0.0127075486     0.2449688052
H       -0.0000001353     -0.8898631882     -1.2452016690
H       0.0000000007     0.8740859379     -1.2464632419
H       -1.2670699279     -0.8535443011     0.9417690114
H       -2.1497910121     0.0359268549     -0.3954346621
H       -1.3193471463     0.8418788468     0.9255704865
11
# Point 0 Energy = 0
C       1.2672042126     0.0000000000     0.2594997522
C       0.0000000000     0.0000000000     -0.5872081259
H       1.3052750505     -0.8806643351     0.9038259677
H       1.3052750505     0.8806643351     0.9038259677
H       2.1646165232     0.0000000000     -0.3599948239
C       -1.2672042126     -0.0000000181     0.2594997522
H       0.0000000000     -0.8738729764     -1.2430302913
H       -0.0000000606     0.8738729764     -1.2430302913
H       -1.3052750505     -0.8806643351     0.9038259677
H       -2.1646165232     0.0000006841     -0.3599948239
H       -1.3052750505     0.8806643351     0.9038259677
11
# Point 1 Energy = 0.0033426399999854084
C       1.2640317143     0.0116837898     0.2742616591
C       0.0000000028     0.0066139774     -0.5731434726
H       1.3448530451     -0.9038379830     0.8634060088
H       1.2917643658     0.9168709677     0.8811280040
H       2.1777066723     -0.0354429340     -0.3218377631
C       -1.2640317832     0.0116836743     0.2742614672
H       0.0000001974     -0.8582346398     -1.2407793988
H       -0.0000001820     0.8730720605     -1.2389482332
H       -1.3448520511     -0.9038375825     0.8634066785
H       -2.1777066896     -0.0354412883     -0.3218381185
H       -1.2917653525     0.9168706239     0.8811281874
11
# Point 2 Energy = 0.013412930000015422
C       1.2608348921     0.0222756323     0.2892342816
C       0.0000000056     0.0124850787     -0.5588715387
H       1.3856361478     -0.9229747094     0.8206070682
H       1.2786752958     0.9504249054     0.8574688531
H       2.1891973011     -0.0703521558     -0.2809939871
C       -1.2608350291     0.0222753821     0.2892339020
H       0.0000003449     -0.8429345503     -1.2385054694
H       -0.0000002527     0.8717004821     -1.2342110236
H       -1.3856341715     -0.9229741680     0.8206084325
H       -2.1891974004     -0.0703494318     -0.2809947962
H       -1.2786771941     0.9504242007     0.8574692964
11
# Point 3 Energy = 0.030336120000001188
C       1.2576122140     0.0317056136     0.3044139050
C       0.0000000092     0.0175845506     -0.5444045352
H       1.4273702142     -0.9379939049     0.7755008491
H       1.2658327665     0.9812585006     0.8328149834
H       2.1992013738     -0.1046715846     -0.2374827433
C       -1.2576124138     0.0317052666     0.3044133444
H       0.0000004796     -0.8279588590     -1.2362466585
H       -0.0000003094     0.8697747304     -1.2287987222
H       -1.4273672496     -0.9379933888     0.7755029505
H       -2.1992016147     -0.1046677682     -0.2374840984
H       -1.2658355304     0.9812575097     0.8328157440
11
# Point 4 Energy = 0.054294900000002144
C       1.2543621951     0.0399059759     0.3198184402
C       0.0000000159     0.0218839642     -0.5297332251
H       1.4697107484     -0.9488297822     0.7281217410
H       1.2530170200     1.0093110575     0.8070964875
H       2.2078145350     -0.1383399312     -0.1913040155
C       -1.2543624466     0.0399055709     0.3198177074
H       0.0000006032     -0.8132926571     -1.2340153775
H       -0.0000003507     0.8673110788     -1.2226729858
H       -1.4697068058     -0.9488294533     0.7281246180
H       -2.2078149707     -0.1383350137     -0.1913060033
H       -1.2530206044     1.0093098561     0.8070976319
