11
# Point -5 Energy = 0.07085802999999657
C       1.1315454067     -0.0102407353     0.2658422103
C       0.0000000598     0.0137082069     -0.4240001438
H       1.2728561106     -0.8828107361     0.9038784962
H       1.3259185176     0.8968584246     0.8397019815
H       1.8586188320     -0.0514070761     -0.5438627114
C       -1.1315449508     -0.0102401339     0.2658429262
H       -0.0000012624     -0.8298524410     -1.1188377033
H       -0.0000000195     0.9113433615     -1.0472373918
H       -1.2728557030     -0.8828100468     0.9038792723
H       -1.8586171017     -0.0514077348     -0.5438631282
H       -1.3259199499     0.8968595769     0.8397012111
11
# Point -4 Energy = 0.04222688999999491
C       1.1595555074     -0.0085522272     0.2640923565
C       0.0000000509     0.0109588049     -0.4561614682
H       1.2805792351     -0.8825334387     0.9049469693
H       1.3224071597     0.8941782436     0.8547968479
H       1.9246900027     -0.0406395793     -0.5105854730
C       -1.1595551287     -0.0085517586     0.2640929284
H       -0.0000009969     -0.8393367256     -1.1426480857
H       -0.0000000320     0.9034710226     -1.0866470780
H       -1.2805789007     -0.8825329012     0.9049475825
H       -1.9246886583     -0.0406399594     -0.5105858635
H       -1.3224082998     0.8941791849     0.8547963027
11
# Point -3 Energy = 0.02216099999999699
C       1.1871337834     -0.0066790168     0.2625697956
C       0.0000000405     0.0082086307     -0.4885800126
H       1.2876638137     -0.8821890473     0.9054599745
H       1.3185681260     0.8911785493     0.8687063972
H       1.9883715654     -0.0300753957     -0.4754617543
C       -1.1871334888     -0.0066786766     0.2625702236
H       -0.0000007383     -0.8484657530     -1.1669957679
H       -0.0000000418     0.8957862638     -1.1259282188
H       -1.2876635568     -0.8821886546     0.9054604287
H       -1.9883705884     -0.0300755018     -0.4754620876
H       -1.3185689755     0.8911792680     0.8687060405
11
# Point -2 Energy = 0.009205870000002392
C       1.2142728732     -0.0046260619     0.2612878544
C       0.0000000287     0.0054626014     -0.5212387254
H       1.2941292623     -0.8817686749     0.9054332243
H       1.3144220115     0.8879008977     0.8814818984
H       2.0496145994     -0.0197559006     -0.4385901416
C       -1.2142726699     -0.0046258456     0.2612881387
H       -0.0000004861     -0.8572548646     -1.1918579083
H       -0.0000000494     0.8882912880     -1.1650841505
H       -1.2941290871     -0.8817684200     0.9054335233
H       -2.0496139698     -0.0197557377     -0.4385903891
H       -1.3144225733     0.8879013842     0.8814816946
11
# Point -1 Energy = 0.0021537599999987833
C       1.2409654477     -0.0023981552     0.2602599809
C       0.0000000152     0.0027251072     -0.5541204994
H       1.2999938770     -0.8812633977     0.9048829797
H       1.3099861002     0.8843840804     0.8931726741
H       2.1083756711     -0.0097191409     -0.4000687069
C       -1.2409653427     -0.0023980584     0.2602601224
H       -0.0000002401     -0.8657190683     -1.2172108505
H       -0.0000000555     0.8809869603     -1.2041175551
H       -1.2999937875     -0.8812632737     0.9048831273
H       -2.1083753675     -0.0097187146     -0.4000688426
H       -1.3099863786     0.8843843268     0.8931725889
11
# Point 0 Energy = 0
C       1.2672042126     0.0000000000     0.2594997522
C       0.0000000000     0.0000000000     -0.5872081259
H       1.3052750505     -0.8806643351     0.9038259677
H       1.3052750505     0.8806643351     0.9038259677
H       2.1646165232     0.0000000000     -0.3599948239
C       -1.2672042126     -0.0000000181     0.2594997522
H       0.0000000000     -0.8738729764     -1.2430302913
H       -0.0000000606     0.8738729764     -1.2430302913
H       -1.3052750505     -0.8806643351     0.9038259677
H       -2.1646165232     0.0000006841     -0.3599948239
H       -1.3052750505     0.8806643351     0.9038259677
11
# Point 1 Energy = 0.0018996599999923092
C       1.2929818814     0.0025640578     0.2590200913
C       -0.0000000171     -0.0027098830     -0.6204850822
H       1.3099887680     -0.8799620170     0.9022790677
H       1.3002991417     0.8767743801     0.9134881635
H       2.2183048110     0.0093710952     -0.3184641174
C       -1.2929819933     0.0025639292     0.2590199513
H       0.0000002345     -0.8817318860     -1.2692913772
H       -0.0000000652     0.8669469642     -1.2818248581
H       -1.3099888611     -0.8799621344     0.9022789238
H       -2.2183050912     0.0093720311     -0.3184639604
H       -1.3002988694     0.8767741288     0.9134882167
11
# Point 2 Energy = 0.007143400000018119
C       1.3182912013     0.0052896985     0.2588341261
C       -0.0000000361     -0.0054021371     -0.6539345955
H       1.3141505600     -0.8791471545     0.9002594505
H       1.2950676458     0.8727447428     0.9222032094
H       2.2694123706     0.0183662665     -0.2755711983
C       -1.3182914316     0.0052894636     0.2588338481
H       0.0000004636     -0.8893103934     -1.2959689325
H       -0.0000000697     0.8602058776     -1.3205024751
H       -1.3141507494     -0.8791473826     0.9002591664
H       -2.2694129069     0.0183674483     -0.2755708652
H       -1.2950671081     0.8727442364     0.9222032851
11
# Point 3 Energy = 0.015139039999993997
C       1.3431249856     0.0081721843     0.2589558194
C       -0.0000000573     -0.0080744572     -0.6875389626
H       1.3177762178     -0.8782114011     0.8977848054
H       1.2895909761     0.8686051196     0.9300116499
H       2.3179143582     0.0269589956     -0.2314104574
C       -1.3431253409     0.0081718476     0.2589554058
H       0.0000006875     -0.8966215662     -1.3230376193
H       -0.0000000746     0.8536469045     -1.3590617941
H       -1.3177765065     -0.8782117336     0.8977843848
H       -2.3179151260     0.0269604171     -0.2314099313
H       -1.2895901806     0.8686043554     0.9300117183
11
# Point 4 Energy = 0.025392960000004905
C       1.3674760911     0.0112066038     0.2593990910
C       -0.0000000806     -0.0107251512     -0.7212804536
H       1.3208811921     -0.8771467226     0.8948730614
H       1.2838784312     0.8643833556     0.9369521341
H       2.3637902978     0.0351256620     -0.1860750659
C       -1.3674765774     0.0112061694     0.2593985447
H       0.0000009065     -0.9036781767     -1.3504720151
H       -0.0000000803     0.8472664298     -1.3975006200
H       -1.3208815828     -0.8771471531     0.8948725081
H       -2.3637912720     0.0351273168     -0.1860743323
H       -1.2838773861     0.8643823323     0.9369521665
11
# Point 5 Energy = 0.03749046000001499
C       1.3913374194     0.0143878198     0.2601777662
C       -0.0000001061     -0.0133531360     -0.7551413484
H       1.3234806948     -0.8759454619     0.8915423374
H       1.2779384427     0.8601055507     0.9430614694
H       2.4070238676     0.0428455135     -0.1396568317
C       -1.3913380428     0.0143872920     0.2601770905
H       0.0000011208     -0.9104927148     -1.3782467395
H       -0.0000000871     0.8410601237     -1.4358159398
H       -1.3234811899     -0.8759459843     0.8915416550
H       -2.4070250229     0.0428473953     -0.1396558783
H       -1.2779371570     0.8601042680     0.9430614383
11
# Point 6 Energy = 0.05108168999998952
C       1.4147019197     0.0177104222     0.2613055213
C       -0.0000001341     -0.0159579241     -0.7891039795
H       1.3255897828     -0.8746004036     0.8878108973
H       1.2717787705     0.8557961463     0.9483746836
H       2.4476026858     0.0501006480     -0.0922460590
C       -1.4147026858     0.0177098051     0.2613047201
H       0.0000013305     -0.9170773985     -1.4063365757
H       -0.0000000955     0.8350230276     -1.4740039660
H       -1.3255903843     -0.8746010119     0.8878100898
H       -2.4476039965     0.0501027503     -0.0922448754
H       -1.2717772536     0.8557946046     0.9483745624

    This sampling was finished on:   2020-07-01 18:15:36
=------------------------------------------------------------------------------=
Sampling finished.
=------------------------------------------------------------------------------=