11
# Point -3 Energy = 0.0682193199999972
C       1.2670085839     -0.0479378619     0.2592329040
C       0.0002363067     0.0000018766     -0.5867857781
H       1.2848011177     -0.7933500299     0.8144950179
H       1.3312054849     0.9718064334     0.9919471198
H       2.1611794832     -0.0531519983     -0.3580552277
C       -1.2655842397     0.0479149863     0.2606136391
H       -0.0185609437     -0.8736829991     -1.2425845788
H       0.0185965783     0.8737039824     -1.2425824323
H       -1.3293401966     -0.9691440194     0.9915172947
H       -2.1664354367     0.0531658196     -0.3607593649
H       -1.2831067987     0.7906744762     0.8140064252
11
# Point -2 Energy = 0.02917549000000008
C       1.2672753245     -0.0319674661     0.2592276039
C       0.0001573947     0.0000006332     -0.5870204077
H       1.2912298105     -0.8223258930     0.8444505415
H       1.3221415750     0.9412979664     0.9627653232
H       2.1625049133     -0.0354519505     -0.3588324185
C       -1.2663257313     0.0319569041     0.2601483873
H       -0.0123792900     -0.8737881892     -1.2428318181
H       0.0124025046     0.8737980094     -1.2428315490
H       -1.3209166838     -0.9395206661     0.9624723109
H       -2.1660087469     0.0354580364     -0.3606351391
H       -1.2900811311     0.8205432814     0.8441321845
11
# Point -1 Energy = 0.0071281899999888765
C       1.2673406680     -0.0159859345     0.2593165960
C       0.0000786559     0.0000000286     -0.5871611763
H       1.2980539595     -0.8514305303     0.8742281665
H       1.3134987369     0.9109172226     0.9333910082
H       2.1636507250     -0.0177315200     -0.3594789329
C       -1.2668658596     0.0159830035     0.2597770763
H       -0.0061912264     -0.8738515468     -1.2429803652
H       0.0062026454     0.8738543963     -1.2429808318
H       -1.3128956221     -0.9100275106     0.9332411772
H       -2.1654025998     0.0177331480     -0.3603802797
H       -1.2974701433     0.8505399091     0.8740725805
11
# Point 0 Energy = 0
C       1.2672042126     0.0000000000     0.2594997522
C       0.0000000000     0.0000000000     -0.5872081259
H       1.3052750505     -0.8806643351     0.9038259677
H       1.3052750505     0.8806643351     0.9038259677
H       2.1646165232     0.0000000000     -0.3599948239
C       -1.2672042126     -0.0000000181     0.2594997522
H       0.0000000000     -0.8738729764     -1.2430302913
H       -0.0000000606     0.8738729764     -1.2430302913
H       -1.3052750505     -0.8806643351     0.9038259677
H       -2.1646165232     0.0000006841     -0.3599948239
H       -1.3052750505     0.8806643351     0.9038259677
11
# Point 1 Energy = 0.007128199999996809
C       1.2668658855     0.0159835441     0.2597770894
C       -0.0000786600     0.0000007427     -0.5871611534
H       1.3128956946     -0.9100278411     0.9332415952
H       1.2974700950     0.8505392517     0.8740719192
H       2.1654022556     0.0177330818     -0.3603800064
C       -1.2673407022     -0.0159852835     0.2593166046
H       0.0061913085     -0.8738523239     -1.2429813979
H       -0.0062028345     0.8738538439     -1.2429799209
H       -1.2980539737     -0.8514306689     0.8742286466
H       -2.1636503873     -0.0177304161     -0.3594786666
H       -1.3134987421     0.9109167352     0.9333903092
11
# Point 2 Energy = 0.029175580000000423
C       1.2663257748     0.0319580418     0.2601484180
C       -0.0001574113     0.0000020610     -0.5870203620
H       1.3209167978     -0.9395212447     0.9624731617
H       1.2900810700     0.8205420707     0.8441308227
H       2.1660080522     0.0354584884     -0.3606345856
C       -1.2672754012     -0.0319662208     0.2592276164
H       0.0123793963     -0.8737897437     -1.2428338832
H       -0.0124026754     0.8737969042     -1.2428297274
H       -1.2912298699     -0.8223262516     0.8444514872
H       -2.1625042441     -0.0354503274     -0.3588318928
H       -1.3221415499     0.9412968882     0.9627639639
11
# Point 3 Energy = 0.06821960999999988
C       1.2655842923     0.0479167221     0.2606136920
C       -0.0002363439     0.0000040175     -0.5867857095
H       1.3293403510     -0.9691448549     0.9915185678
H       1.2831067304     0.7906727254     0.8140043494
H       2.1664343850     0.0531667888     -0.3607585244
C       -1.2670087114     -0.0479360233     0.2592329160
H       0.0185610904     -0.8736853315     -1.2425876755
H       -0.0185967185     0.8737023238     -1.2425797008
H       -1.2848012233     -0.7933505986     0.8144964406
H       -2.1611784887     -0.0531498562     -0.3580544497
H       -1.3312054238     0.9718047530     0.9919451129
