11
# Point -4 Energy = 0.056377539999999726
C       1.2550103106     -0.0489622509     0.3063873139
C       -0.0000000398     -0.0485751727     -0.5233644476
H       1.1762706612     -0.9606487413     0.8899515310
H       1.4708706798     0.9024065732     0.8013637698
H       2.1869693249     0.1681016354     -0.2223806283
C       -1.2550102381     -0.0489626733     0.3063872353
H       0.0000007254     -0.7658763355     -1.3553270979
H       -0.0000001803     0.6926547869     -1.3309083152
H       -1.1762684851     -0.9606482023     0.8899523963
H       -2.1869689222     0.1681052970     -0.2223799300
H       -1.4708738970     0.9024057495     0.8013631915
11
# Point -3 Energy = 0.03152582999999254
C       1.2589466590     -0.0378872047     0.2954694885
C       -0.0000000245     -0.0371455087     -0.5371862768
H       1.2099562149     -0.9434995524     0.8945868160
H       1.4304827125     0.9008784678     0.8291945860
H       2.1846073724     0.1272122457     -0.2609641945
C       -1.2589465777     -0.0378875330     0.2954694538
H       0.0000005613     -0.7961412158     -1.3292533283
H       -0.0000001772     0.7398770347     -1.3090894438
H       -1.2099545412     -0.9434991788     0.8945875050
H       -2.1846071388     0.1272151388     -0.2609637528
H       -1.4304851212     0.9008779725     0.8291941659
11
# Point -2 Energy = 0.013938169999974548
C       1.2622901477     -0.0259856333     0.2840067715
C       -0.0000000136     -0.0252189423     -0.5524485033
H       1.2426437942     -0.9244027276     0.8984149607
H       1.3894001952     0.8967788900     0.8556581653
H       2.1800961749     0.0854851037     -0.2968508113
C       -1.2622900773     -0.0259858495     0.2840067647
H       0.0000003916     -0.8243920998     -1.3018037018
H       -0.0000001626     0.7858585243     -1.2871613946
H       -1.2426426458     -0.9244024836     0.8984154488
H       -2.1800960656     0.0854872251     -0.2968505754
H       -1.3894017994     0.8967786592     0.8556578944
11
# Point -1 Energy = 0.003468159999997056
C       1.2650406975     -0.0133318941     0.2720104314
C       -0.0000000059     -0.0128260323     -0.5691349185
H       1.2743929797     -0.9034350073     0.9014803036
H       1.3476535099     0.8900586930     0.8805876878
H       2.1734381199     0.0430389921     -0.3298962941
C       -1.2650406551     -0.0133319818     0.2720104361
H       0.0000002168     -0.8503808858     -1.2730407595
H       -0.0000001361     0.8305446381     -1.2651437808
H       -1.2743923791     -0.9034348574     0.9014805696
H       -2.1734380889     0.0430403427     -0.3298962070
H       -1.3476543192     0.8900586588     0.8805875504
11
# Point 0 Energy = 0
C       1.2672042126     0.0000000000     0.2594997522
C       0.0000000000     0.0000000000     -0.5872081259
H       1.3052750505     -0.8806643351     0.9038259677
H       1.3052750505     0.8806643351     0.9038259677
H       2.1646165232     0.0000000000     -0.3599948239
C       -1.2672042126     -0.0000000181     0.2594997522
H       0.0000000000     -0.8738729764     -1.2430302913
H       -0.0000000606     0.8738729764     -1.2430302913
H       -1.3052750505     -0.8806643351     0.9038259677
H       -2.1646165232     0.0000006841     -0.3599948239
H       -1.3052750505     0.8806643351     0.9038259677
11
# Point 1 Energy = 0.0034504899999774352
C       1.2687827683     0.0139375489     0.2465037653
C       0.0000000051     0.0132262647     -0.6066230034
H       1.3353578730     -0.8561467990     0.9054982061
H       1.2622807882     0.8685365840     0.9252259259
H       2.1535879940     -0.0435041221     -0.3870660724
C       -1.2687828230     0.0139377606     0.2465037448
H       -0.0000001475     -0.8946474093     -1.2118515781
H       -0.0000000479     0.9157751375     -1.2208038362
H       -1.3353584364     -0.8561467309     0.9054979755
H       -2.1535879759     -0.0435042946     -0.3870660937
H       -1.2622800585     0.8685367261     0.9252259851
11
# Point 2 Energy = 0.013715210000015077
C       1.2697836089     0.0284122172     0.2330610850
C       0.0000000101     0.0268210962     -0.6273138553
H       1.3647221367     -0.8299231256     0.9065464354
H       1.2186747092     0.8536094941     0.9446462071
H       2.1402750876     -0.0873492999     -0.4110687922
C       -1.2697837288     0.0284125950     0.2330610293
H       -0.0000003368     -0.9124954983     -1.1795856095
H       0.0000000118     0.9561768419     -1.1984249700
H       -1.3647233153     -0.8299230451     0.9065459359
H       -2.1402749997     -0.0873502186     -0.4110687658
H       -1.2186732443     0.8536096091     0.9446463191
11
# Point 3 Energy = 0.03069013999999015
C       1.2702381713     0.0433623964     0.2192196736
C       0.0000000152     0.0407561018     -0.6491675615
H       1.3934904699     -0.8020157599     0.9070191361
H       1.1744657813     0.8358105087     0.9619448337
H       2.1245533167     -0.1314231640     -0.4320290507
C       -1.2702383662     0.0433629485     0.2192195687
H       -0.0000005314     -0.9272208473     -1.1462875250
H       0.0000000795     0.9949984118     -1.1758084672
H       -1.3934922866     -0.8020156300     0.9070183573
H       -2.1245531033     -0.1314248157     -0.4320289071
H       -1.1744636071     0.8358105156     0.9619449610
11
# Point 4 Energy = 0.05433031999999116
C       1.2701960749     0.0587361201     0.2050423322
C       0.0000000194     0.0550100702     -0.6720290355
H       1.4218209099     -0.7724230896     0.9069690597
H       1.1296316694     0.8150569082     0.9769743046
H       2.1062224302     -0.1756344202     -0.4500381147
C       -1.2701963555     0.0587368526     0.2050421660
H       -0.0000007327     -0.9386372567     -1.1119890974
H       0.0000001521     1.0321584221     -1.1528312081
H       -1.4218233892     -0.7724228717     0.9069679944
H       -2.1062220291     -0.1756367912     -0.4500377855
H       -1.1296288100     0.8150567222     0.9769744032
