11
# Point -4 Energy = 0.06113246000001027
C       1.3127017948     -0.0003868916     0.3687022122
C       0.0000009976     -0.0012986955     -0.5159151285
H       1.0778559571     -0.9400204432     0.8610351013
H       1.0819319132     0.9403445606     0.8610636185
H       1.9868627815     0.0013302927     -0.4813887408
C       -1.3126997873     -0.0003868264     0.3687017194
H       0.0000000335     -0.8709332412     -1.1818658992
H       0.0000009551     0.8696983184     -1.1799991751
H       -1.0778582413     -0.9400214008     0.8610347876
H       -1.9868644352     0.0013297263     -0.4813866307
H       -1.0819320295     0.9403452668     0.8610631541
11
# Point -3 Energy = 0.033394210000011526
C       1.3013525308     -0.0002530055     0.3384148853
C       0.0000007176     -0.0009376622     -0.5366917796
H       1.1408819625     -0.9315017227     0.8773065009
H       1.1439195426     0.9316513319     0.8772047205
H       2.0437740938     0.0010070359     -0.4546460999
C       -1.3013510841     -0.0002529607     0.3384145184
H       0.0000000099     -0.8716480709     -1.2001050385
H       0.0000006550     0.8707794266     -1.1987187407
H       -1.1408836700     -0.9315022481     0.8773061383
H       -2.0437751417     0.0010067530     -0.4546443729
H       -1.1439196770     0.9316517888     0.8772042871
11
# Point -2 Energy = 0.014220729999976811
C       1.2899864848     -0.0001492293     0.3098917391
C       0.0000004392     -0.0006051162     -0.5557264249
H       1.2006058391     -0.9178916166     0.8896051147
H       1.2026194682     0.9179337111     0.8894569620
H       2.0924290140     0.0006838334     -0.4244200082
C       -1.2899855893     -0.0001491909     0.3098915083
H       -0.0000000200     -0.8723797957     -1.2166066796
H       0.0000003582     0.8718320822     -1.2156897425
H       -1.2006069255     -0.9178918565     0.8896047709
H       -2.0924295850     0.0006838346     -0.4244188101
H       -1.2026195445     0.9179340098     0.8894565890
11
# Point -1 Energy = 0.00341337999998359
C       1.2786037067     -0.0000665569     0.2836690543
C       0.0000002014     -0.0002941440     -0.5724828345
H       1.2552312840     -0.9006345990     0.8982185171
H       1.2562363833     0.9006295644     0.8981079165
H       2.1322713574     0.0003494161     -0.3926262960
C       -1.2786032914     -0.0000665141     0.2836689445
H       -0.0000000094     -0.8731230053     -1.2308327082
H       0.0000001093     0.8728616931     -1.2303778871
H       -1.2552317907     -0.9006346452     0.8982183094
H       -2.1322715908     0.0003497062     -0.3926256812
H       -1.2562364204     0.9006297508     0.8981076840
11
# Point 0 Energy = 0
C       1.2672042126     0.0000000000     0.2594997522
C       0.0000000000     0.0000000000     -0.5872081259
H       1.3052750505     -0.8806643351     0.9038259677
H       1.3052750505     0.8806643351     0.9038259677
H       2.1646165232     0.0000000000     -0.3599948239
C       -1.2672042126     -0.0000000181     0.2594997522
H       0.0000000000     -0.8738729764     -1.2430302913
H       -0.0000000606     0.8738729764     -1.2430302913
H       -1.3052750505     -0.8806643351     0.9038259677
H       -2.1646165232     0.0000006841     -0.3599948239
H       -1.3052750505     0.8806643351     0.9038259677
11
# Point 1 Energy = 0.003141159999998422
C       1.2557880150     0.0000521358     0.2370224762
C       -0.0000001748     0.0002796849     -0.6002636921
H       1.3516627303     -0.8584837964     0.9069763113
H       1.3506536820     0.8585351440     0.9071512343
H       2.1908434674     -0.0003643704     -0.3267110693
C       -1.2557883796     0.0000522138     0.2370225823
H       0.0000001073     -0.8746270183     -1.2535613315
H       -0.0000002738     0.8748686169     -1.2540078866
H       -1.3516621945     -0.8584836073     0.9069766435
H       -2.1908433118     -0.0003634838     -0.3267117132
H       -1.3506537281     0.8585351467     0.9071514641
11
# Point 2 Energy = 0.012266979999978389
C       1.2443551286     0.0000900042     0.2159724155
C       -0.0000003293     0.0005453771     -0.6119143812
H       1.3950963420     -0.8344038547     0.9080379883
H       1.3930713201     0.8345496975     0.9084463749
H       2.2119483956     -0.0007417541     -0.2928440122
C       -1.2443558163     0.0000901142     0.2159726295
H       0.0000001934     -0.8753840582     -1.2626915798
H       -0.0000004267     0.8758496831     -1.2635746676
H       -1.3950953229     -0.8344035988     0.9080386852
H       -2.2119481472     -0.0007405586     -0.2928453284
H       -1.3930713979     0.8345496143     0.9084468948
11
# Point 3 Energy = 0.027093639999989705
C       1.2329055694     0.0001127377     0.1961730896
C       -0.0000004673     0.0007969990     -0.6223367125
H       1.4360569401     -0.8086456024     0.9072595985
H       1.4330091030     0.8089269667     0.9079564077
H       2.2286274862     -0.0011297491     -0.2584459783
C       -1.2329065438     0.0001128892     0.1961734170
H       0.0000002904     -0.8761435468     -1.2705985034
H       -0.0000005611     0.8768167217     -1.2719062565
H       -1.4360554552     -0.8086453081     0.9072607074
H       -2.2286271991     -0.0011282398     -0.2584479940
H       -1.4330092232     0.8089267978     0.9079572435
11
# Point 4 Energy = 0.047525159999992184
C       1.2214393543     0.0001192822     0.1774917444
C       -0.0000005912     0.0010340905     -0.6316634791
H       1.4749074814     -0.7813592398     0.9048156247
H       1.4708332341     0.7818158635     0.9058539292
H       2.2414067396     -0.0015259074     -0.2235320728
C       -1.2214405819     0.0001194853     0.1774921934
H       0.0000003950     -0.8769053594     -1.2774158034
H       -0.0000006799     0.8777698564     -1.2791345894
H       -1.4749055455     -0.7813589335     0.9048171855
H       -2.2414064637     -0.0015240808     -0.2235348134
H       -1.4708334026     0.7818156090     0.9058550998
11
# Point 5 Energy = 0.07359286999999881
C       1.2099565004     0.0001086319     0.1598316653
C       -0.0000007023     0.0012561260     -0.6399914348
H       1.5119088057     -0.7526560747     0.9008300338
H       1.5068100560     0.7533267939     0.9022621111
H       2.2506813009     -0.0019280447     -0.1881075586
C       -1.2099579496     0.0001088968     0.1598322457
H       0.0000005051     -0.8776695099     -1.2832410595
H       -0.0000007847     0.8787090738     -1.2853556471
H       -1.5119064327     -0.7526557821     0.9008320806
H       -2.2506810845     -0.0019258991     -0.1881110469
H       -1.5068102748     0.7533264542     0.9022636292
