11
# Point -4 Energy = 0.056377539999999726
C       1.2569441035     -0.0493473295     0.3067181670
C       -0.0000000342     -0.0491938131     -0.5201013489
H       1.1786072638     -0.9600409514     0.8918847819
H       1.4743731538     0.9024438667     0.8001936308
H       2.1879687166     0.1662180131     -0.2243038677
C       -1.2569440901     -0.0493482412     0.3067179814
H       0.0000008041     -0.7592613187     -1.3582458937
H       -0.0000002393     0.6899074121     -1.3295940722
H       -1.1786058693     -0.9600418602     0.8918841424
H       -2.1879681608     0.1662229523     -0.2243029454
H       -1.4743757089     0.9024419359     0.8001944432
11
# Point -3 Energy = 0.03152582999999254
C       1.2600883240     -0.0380405419     0.2956437638
C       -0.0000000214     -0.0373405453     -0.5352833000
H       1.2111308085     -0.9430467792     0.8956790058
H       1.4327201642     0.9009540820     0.8286121527
H       2.1852087132     0.1257711217     -0.2620675020
C       -1.2600882767     -0.0380412364     0.2956436680
H       0.0000006098     -0.7924544988     -1.3310515896
H       -0.0000002152     0.7385188589     -1.3083556116
H       -1.2111297117     -0.9430474981     0.8956785807
H       -2.1852083899     0.1257750176     -0.2620669330
H       -1.4327220653     0.9009526854     0.8286127840
11
# Point -2 Energy = 0.013938169999974548
C       1.2628198011     -0.0260339925     0.2840755610
C       -0.0000000123     -0.0252053565     -0.5515798053
H       1.2430383771     -0.9241355102     0.8989406331
H       1.3905688867     0.8968484973     0.8553938865
H       2.1803781323     0.0845705780     -0.2973385599
C       -1.2628197468     -0.0260344658     0.2840755257
H       0.0000004109     -0.8227043067     -1.3027163713
H       -0.0000001772     0.7854102197     -1.2868022952
H       -1.2430376124     -0.9241360147     0.8989403860
H       -2.1803779800     0.0845734136     -0.2973382646
H       -1.3905701399     0.8968476036     0.8553943227
11
# Point -1 Energy = 0.003468159999997056
C       1.2651780186     -0.0133499887     0.2720245279
C       -0.0000000056     -0.0127656551     -0.5689142109
H       1.2743999850     -0.9033362156     0.9016615713
H       1.3480455247     0.8900990087     0.8804804076
H       2.1735115936     0.0426412789     -0.3300139381
C       -1.2651779810     -0.0133502366     0.2720245244
H       0.0000002076     -0.8498811602     -1.2733424614
H       -0.0000001255     0.8305384909     -1.2650036677
H       -1.2743995861     -0.9033364806     0.9016614660
H       -2.1735115497     0.0426430423     -0.3300138335
H       -1.3480461423     0.8900985820     0.8804806334
11
# Point 0 Energy = 0
C       1.2672042126     0.0000000000     0.2594997522
C       0.0000000000     0.0000000000     -0.5872081259
H       1.3052750505     -0.8806643351     0.9038259677
H       1.3052750505     0.8806643351     0.9038259677
H       2.1646165232     0.0000000000     -0.3599948239
C       -1.2672042126     -0.0000000181     0.2594997522
H       0.0000000000     -0.8738729764     -1.2430302913
H       -0.0000000606     0.8738729764     -1.2430302913
H       -1.3052750505     -0.8806643351     0.9038259677
H       -2.1646165232     0.0000006841     -0.3599948239
H       -1.3052750505     0.8806643351     0.9038259677
11
# Point 1 Energy = 0.0034504899999774352
C       1.2689317478     0.0140198861     0.2465079799
C       0.0000000056     0.0131168352     -0.6063970019
H       1.3356944998     -0.8561189417     0.9054114956
H       1.2623550021     0.8684851365     0.9253978159
H       2.1536625934     -0.0433530457     -0.3871719195
C       -1.2689318046     0.0140201022     0.2465079549
H       -0.0000002120     -0.8945848328     -1.2118834890
H       0.0000000168     0.9154021017     -1.2209650214
H       -1.3356949313     -0.8561186503     0.9054115629
H       -2.1536625705     -0.0433534433     -0.3871719344
H       -1.2623544077     0.8684855181     0.9253975759
11
# Point 2 Energy = 0.013715210000015077
C       1.2703946327     0.0287375132     0.2330510219
C       0.0000000118     0.0266204662     -0.6264203216
H       1.3656682841     -0.8296771703     0.9063879104
H       1.2193538987     0.8534751975     0.9451738018
H       2.1405699220     -0.0874499919     -0.4114294717
C       -1.2703947648     0.0287379686     0.2330509426
H       -0.0000004287     -0.9119253159     -1.1800012837
H       0.0000001061     0.9551341196     -1.1988994863
H       -1.3656691797     -0.8296765604     0.9063880042
H       -2.1405698058     -0.0874514700     -0.4114294080
H       -1.2193527370     0.8534759095     0.9451733095
11
# Point 3 Energy = 0.03069013999999015
C       1.2716374901     0.0442201114     0.2191214987
C       0.0000000187     0.0405682763     -0.6472115655
H       1.3951918969     -0.8012832515     0.9067128373
H       1.1763002520     0.8355052399     0.9631417814
H       2.1251823435     -0.1323809961     -0.4326476601
C       -1.2716377170     0.0442208132     0.2191213346
H       -0.0000006516     -0.9257931316     -1.1474654094
H       0.0000002066     0.9931032276     -1.1769343188
H       -1.3951932905     -0.8012822947     0.9067129129
H       -2.1251820581     -0.1323835508     -0.4326474201
H       -1.1762985511     0.8355062224     0.9631410278
11
# Point 4 Energy = 0.05433031999999116
C       1.2727057803     0.0605995946     0.2047006658
C       0.0000000252     0.0550596529     -0.6687153192
H       1.4242204924     -0.7708278173     0.9063335197
H       1.1331033218     0.8143695604     0.9792981864
H       2.1072017615     -0.1783367841     -0.4506822625
C       -1.2727061256     0.0606005542     0.2047003838
H       -0.0000008842     -0.9360602353     -1.1143409565
H       0.0000003175     1.0293922966     -1.1551981477
H       -1.4242224223     -0.7708264819     0.9063335260
H       -2.1072012217     -0.1783404127     -0.4506817439
H       -1.1331011055     0.8143707386     0.9792971670

    This sampling was finished on:   2020-07-01 18:15:36
=------------------------------------------------------------------------------=
Sampling finished.
=------------------------------------------------------------------------------=