11
# Point -5 Energy = 0.07244981000000905
C       1.3257844516     0.0181743850     0.3593304322
C       0.2595571447     0.0028093648     -0.6272366831
H       1.1939202722     -0.8784077896     0.9555885897
H       1.2871004692     0.9921467454     0.8364093172
H       2.1257478358     -0.0433882523     -0.3734263531
C       -1.1496873359     -0.0009626469     0.1205868262
H       -0.1647563193     -0.8586361133     -1.1484147455
H       -0.2060615037     0.8347405993     -1.1609467010
H       -1.3065265820     -0.8614285002     0.7859283230
H       -2.1404900267     0.0605700011     -0.3399941993
H       -1.2245884665     0.7343828727     0.9332202128
11
# Point -4 Energy = 0.047484169999989945
C       1.3185179393     0.0138371594     0.3429778639
C       0.2074699260     0.0019860862     -0.6148713446
H       1.2240079888     -0.8799809859     0.9528969439
H       1.2980819562     0.9731456082     0.8527974237
H       2.1381427458     -0.0370776703     -0.3697465029
C       -1.1760172301     -0.0026145395     0.1505381028
H       -0.1342112883     -0.8668330921     -1.1824662367
H       -0.1686415645     0.8512616690     -1.1902215160
H       -1.3118034357     -0.8675248227     0.8124012521
H       -2.1501277842     0.0480106872     -0.3438874958
H       -1.2454193137     0.7657905666     0.9306265286
11
# Point -3 Energy = 0.02732170999999539
C       1.3096693446     0.0097122126     0.3247041677
C       0.1549442294     0.0011996227     -0.6030024269
H       1.2517836324     -0.8810831510     0.9460365318
H       1.3066935095     0.9524300694     0.8676290853
H       2.1480498406     -0.0294433589     -0.3678481009
C       -1.2022560579     -0.0033150833     0.1799335729
H       -0.1009051164     -0.8710063625     -1.2092652315
H       -0.1275208967     0.8621665194     -1.2134990645
H       -1.3163504827     -0.8724420844     0.8380113975
H       -2.1581323729     0.0355408407     -0.3482734800
H       -1.2659756905     0.7962414414     0.9266185675
11
# Point -2 Energy = 0.012381090000005202
C       1.2981472957     0.0059428409     0.3046251827
C       0.1028602101     0.0005592624     -0.5941671993
H       1.2746935253     -0.8816347908     0.9352262191
H       1.3107936515     0.9300591228     0.8810216943
H       2.1557876109     -0.0206008832     -0.3658104078
C       -1.2264230182     -0.0030741317     0.2080135671
H       -0.0670696741     -0.8728984099     -1.2281642530
H       -0.0851926667     0.8689504834     -1.2300048302
H       -1.3171853034     -0.8762173493     0.8620380514
H       -2.1632471592     0.0232916153     -0.3525037226
H       -1.2831645326     0.8256229061     0.9207707171
11
# Point -1 Energy = 0.003136939999990318
C       1.2839288912     0.0026644507     0.2828631604
C       0.0512792476     0.0001436711     -0.5889219829
H       1.2924253893     -0.8815314390     0.9209948085
H       1.3102081398     0.9061085474     0.8930893103
H       2.1613569931     -0.0107235505     -0.3631778261
C       -1.2480642054     -0.0019437294     0.2345521456
H       -0.0334138615     -0.8736660583     -1.2393375020
H       -0.0425904649     0.8726768108     -1.2397914689
H       -1.3135221951     -0.8789268846     0.8840780436
H       -2.1653395879     0.0113936575     -0.3564179920
H       -1.2962684067     0.8538051902     0.9131143225
11
# Point 0 Energy = 0
C       1.2672042126     0.0000000000     0.2594997522
C       0.0000000000     0.0000000000     -0.5872081259
H       1.3052750505     -0.8806643351     0.9038259677
H       1.3052750505     0.8806643351     0.9038259677
H       2.1646165232     0.0000000000     -0.3599948239
C       -1.2672042126     -0.0000000181     0.2594997522
H       0.0000000000     -0.8738729764     -1.2430302913
H       -0.0000000606     0.8738729764     -1.2430302913
H       -1.3052750505     -0.8806643351     0.9038259677
H       -2.1646165232     0.0000006841     -0.3599948239
H       -1.3052750505     0.8806643351     0.9038259677
11
# Point 1 Energy = 0.003136939999990318
C       1.2480642689     -0.0019436972     0.2345523051
C       -0.0512792547     0.0001437577     -0.5889218808
H       1.3135219898     -0.8789270143     0.8840780215
H       1.2962680735     0.8538053655     0.9131142663
H       2.1653394491     0.0113927934     -0.3564181601
C       -1.2839289670     0.0026644448     0.2828633224
H       0.0334138546     -0.8736659253     -1.2393374286
H       0.0425903310     0.8726768513     -1.2397914482
H       -1.2924251840     -0.8815315706     0.9209947601
H       -2.1613568295     -0.0107230275     -0.3631779942
H       -1.3102077922     0.9061086881     0.8930892553
11
# Point 2 Energy = 0.012381090000005202
C       1.2264231332     -0.0030740851     0.2080138855
C       -0.1028602387     0.0005594320     -0.5941669926
H       1.3171848936     -0.8762176060     0.8620380329
H       1.2831638745     0.8256232921     0.9207706038
H       2.1632469054     0.0232905548     -0.3525040589
C       -1.2981474600     0.0059428438     0.3046255111
H       0.0670696458     -0.8728981449     -1.2281641091
H       0.0851924947     0.8689505646     -1.2300047889
H       -1.2746931156     -0.8816350549     0.9352260952
H       -2.1557872582     -0.0206005005     -0.3658107441
H       -1.3107929353     0.9300593700     0.8810215840
11
# Point 3 Energy = 0.027321719999989114
C       1.2022562127     -0.0033150236     0.1799340502
C       -0.1549442941     0.0011998679     -0.6030021113
H       1.3163498699     -0.8724424649     0.8380114074
H       1.2659747101     0.7962420736     0.9266183978
H       2.1581320267     0.0355395711     -0.3482739845
C       -1.3096696096     0.0097122192     0.3247046698
H       0.1009050516     -0.8710059681     -1.2092650233
H       0.1275206624     0.8621666425     -1.2134990033
H       -1.2517830201     -0.8810835468     0.9460363040
H       -2.1480492733     -0.0294430941     -0.3678486038
H       -1.3066923968     0.9524303892     0.8676289160
11
# Point 4 Energy = 0.04748420999997904
C       1.1760174114     -0.0026144693     0.1505387390
C       -0.2074700427     0.0019863971     -0.6148709159
H       1.3118026198     -0.8675253234     0.8124013134
H       1.2454180055     0.7657914798     0.9306263067
H       2.1501273659     0.0480092005     -0.3438881682
C       -1.3185183152     0.0138371638     0.3429785500
H       0.1342111727     -0.8668325734     -1.1824659724
H       0.1686412477     0.8512618352     -1.1902214370
H       -1.2240071751     -0.8799815104     0.9528965826
H       -2.1381419392     -0.0370774998     -0.3697471666
H       -1.2980804114     0.9731459660     0.8527971874
11
# Point 5 Energy = 0.07244988999998725
C       1.1496875254     -0.0009625690     0.1205876183
C       -0.2595573321     0.0028097306     -0.6272361444
H       1.3065255548     -0.8614291179     0.7859284546
H       1.2245868095     0.7343840998     0.9332199477
H       2.1404895494     0.0605682959     -0.3399950370
C       -1.3257849438     0.0181743812     0.3593313135
H       0.1647561439     -0.8586354799     -1.1484144309
H       0.2060610940     0.8347408081     -1.1609466078
H       -1.1939192527     -0.8784084374     0.9555880626
H       -2.1257467645     -0.0433881504     -0.3734271609
H       -1.2870984443     0.9921471050     0.8364090033

    This sampling was finished on:   2020-07-01 18:15:36
=------------------------------------------------------------------------------=
Sampling finished.
=------------------------------------------------------------------------------=