                  Welcome to Q-Chem
     A Quantum Leap Into The Future Of Chemistry


 Q-Chem 5.3 (devel), Q-Chem, Inc., Pleasanton, CA (2020)

 Yihan Shao,  Zhengting Gan,  E. Epifanovsky,  A. T. B. Gilbert,  M. Wormit,
 J. Kussmann,  A. W. Lange,  A. Behn,  Jia Deng,  Xintian Feng,  D. Ghosh,
 M. Goldey,  P. R. Horn,  L. D. Jacobson,  I. Kaliman,  T. Kus,  A. Landau,
 Jie Liu,  E. I. Proynov,  R. M. Richard,  R. P. Steele,  E. J. Sundstrom,
 H. L. Woodcock III,  P. M. Zimmerman,  D. Zuev,  B. Alam,  B. Albrecht,
 E. Alguire,  S. A. Baeppler,  D. Barton,  Z. Benda,  Y. A. Bernard,
 E. J. Berquist,  K. B. Bravaya,  H. Burton,  K. Carter-Fenk,  D. Casanova,
 Chun-Min Chang,  Yunqing Chen,  A. Chien,  K. D. Closser,  M. P. Coons,
 S. Coriani,  S. Dasgupta,  A. L. Dempwolff,  M. Diedenhofen,  Hainam Do,
 R. G. Edgar,  Po-Tung Fang,  S. Faraji,  S. Fatehi,  Qingguo Feng,
 J. Fosso-Tande,  J. Gayvert,  Qinghui Ge,  A. Ghysels,  G. Gidofalvi,
 J. Gomes,  J. Gonthier,  A. Gunina,  D. Hait,  M. W. D. Hanson-Heine,
 P. H. P. Harbach,  A. W. Hauser,  M. F. Herbst,  J. E. Herr,
 E. G. Hohenstein,  Z. C. Holden,  Kerwin Hui,  B. C. Huynh,  T.-C. Jagau,
 Hyunjun Ji,  B. Kaduk,  K. Khistyaev,  Jaehoon Kim,  P. Klunzinger,  K. Koh,
 D. Kosenkov,  L. Koulias,  T. Kowalczyk,  C. M. Krauter,  A. Kunitsa,
 Ka Un Lao,  A. Laurent,  K. V. Lawler,  Joonho Lee,  D. Lefrancois,
 S. Lehtola,  D. S. Levine,  Yi-Pei Li,  You-Sheng Lin,  Fenglai Liu,
 Kuan-Yu Liu,  E. Livshits,  M. Loipersberger,  A. Luenser,  P. Manohar,
 E. Mansoor,  S. F. Manzer,  Shan-Ping Mao,  Yuezhi Mao,  N. Mardirossian,
 A. V. Marenich,  T. Markovich,  L. A. Martinez-Martinez,  S. A. Maurer,
 N. J. Mayhall,  S. C. McKenzie,  J.-M. Mewes,  P. Morgante,  A. F. Morrison,
 J. W. Mullinax,  K. Nanda,  T. S. Nguyen-Beck,  R. Olivares-Amaya,
 K. J. Oosterbaan,  J. A. Parkhill,  S. K. Paul,  F. Pavosevic,  Zheng Pei,
 T. M. Perrine,  F. Plasser,  P. Pokhilko,  S. Prager,  A. Prociuk,
 E. Ramos,  B. Rana,  D. R. Rehn,  F. Rob,  M. Scheurer,  M. Schneider,
 N. Sergueev,  S. M. Sharada,  S. Sharma,  D. W. Small,  T. Stauch,
 C. J. Stein,  T. Stein,  Yu-Chuan Su,  S. P. Veccham,  Zhen Tao,
 A. J. W. Thom,  A. Tkatchenko,  T. Tsuchimochi,  N. M. Tubman,  L. Vogt,
 M. L. Vidal,  O. Vydrov,  M. A. Watson,  J. Wenzel,  M. de Wergifosse,
 T. A. Wesolowski,  A. White,  J. Witte,  A. Yamada,  Jun Yang,  K. Yao,
 S. Yeganeh,  S. R. Yost,  Zhi-Qiang You,  A. Zech,  Igor Ying Zhang,
 Xing Zhang,  Yan Zhao,  Ying Zhu,  B. R. Brooks,  G. K. L. Chan,
 C. J. Cramer,  M. S. Gordon,  W. J. Hehre,  A. Klamt,  M. W. Schmidt,
 C. D. Sherrill,  D. G. Truhlar,  A. Aspuru-Guzik,  R. Baer,  A. T. Bell,
 N. A. Besley,  Jeng-Da Chai,  A. E. DePrince, III,  R. A. DiStasio Jr.,
 A. Dreuw,  B. D. Dunietz,  T. R. Furlani,  Chao-Ping Hsu,  Yousung Jung,
 Jing Kong,  D. S. Lambrecht,  WanZhen Liang,  C. Ochsenfeld,
 V. A. Rassolov,  L. V. Slipchenko,  J. E. Subotnik,  T. Van Voorhis,
 J. M. Herbert,  A. I. Krylov,  P. M. W. Gill,  M. Head-Gordon

 Contributors to earlier versions of Q-Chem not listed above:
 R. D. Adamson,  B. Austin,  J. Baker,  G. J. O. Beran,  K. Brandhorst,
 S. T. Brown,  E. F. C. Byrd,  A. K. Chakraborty,  C.-L. Cheng,
 Siu Hung Chien,  D. M. Chipman,  D. L. Crittenden,  H. Dachsel,
 R. J. Doerksen,  A. D. Dutoi,  L. Fusti-Molnar,  W. A. Goddard III,
 A. Golubeva-Zadorozhnaya,  S. R. Gwaltney,  G. Hawkins,  A. Heyden,
 S. Hirata,  G. Kedziora,  F. J. Keil,  C. Kelley,  Jihan Kim,  R. A. King,
 R. Z. Khaliullin,  P. P. Korambath,  W. Kurlancheek,  A. M. Lee,  M. S. Lee,
 S. V. Levchenko,  Ching Yeh Lin,  D. Liotard,  R. C. Lochan,  I. Lotan,
 P. E. Maslen,  N. Nair,  D. P. O'Neill,  D. Neuhauser,  E. Neuscamman,
 C. M. Oana,  R. Olson,  B. Peters,  R. Peverati,  P. A. Pieniazek,
 Y. M. Rhee,  J. Ritchie,  M. A. Rohrdanz,  E. Rosta,  N. J. Russ,
 H. F. Schaefer III,  N. E. Schultz,  N. Shenvi,  A. C. Simmonett,  A. Sodt,
 D. Stuck,  K. S. Thanthiriwatte,  V. Vanovschi,  Tao Wang,  A. Warshel,
 C. F. Williams,  Q. Wu,  X. Xu,  W. Zhang

 Please cite Q-Chem as follows:
 Y. Shao et al., Mol. Phys. 113, 184-215 (2015)
 DOI: 10.1080/00268976.2014.952696

 Q-Chem 5.3.0 for Intel X86 EM64T Linux

 Parts of Q-Chem use Armadillo 9.800.1 (Horizon Scraper).
 http://arma.sourceforge.net/

 Q-Chem begins on Thu Nov 11 23:15:25 2021

Host: centos77-c9
0

     Scratch files written to /tmp/986758.centos77-h1/qchem16532//
Processing $rem in /opt/qchem-5.3.0-intel2020u1//config/preferences:
Processing $rem in /home/victor/.qchemrc:

Checking the input file for inconsistencies...  ...done.

--------------------------------------------------------------
User input:
--------------------------------------------------------------
$molecule
0 1
C 1.2129785836 0.0886242511 0.351396097
C 2.5166033722 -0.4396613124 -0.2333193183
C 2.567467481 -0.2840735681 -1.7385840877
H 1.1921000123 -0.0311256175 1.4339874723
H 0.3516313313 -0.4426412817 -0.0576312067
H 1.0821361331 1.1500323565 0.1327555536
H 2.4619163389 0.7755366994 -2.0030845287
H 1.7273924795 -0.8236914396 -2.1935278236
O 3.8023028453 -0.7956677191 -2.204391348
H 3.3684004951 0.087625019 0.2004514514
H 2.6421454538 -1.4959852049 0.0120361448
H 3.8444032375 -0.7020278643 -3.1547716009
$end

$rem
   JOBTYPE         freq
   EXCHANGE omegaB97X-D
   BASIS 6-311+G(2df,2pd)
   max_scf_cycles = 250
   scf_algorithm = rca_diis
   sym_ignore = True
   symmetry = False
   print_input = True
   XC_GRID = 000075000302
   mem_total = 20000
   mem_static = 450
   pop_mulliken = False
$end

--------------------------------------------------------------
 ----------------------------------------------------------------
             Standard Nuclear Orientation (Angstroms)
    I     Atom           X                Y                Z
 ----------------------------------------------------------------
    1      C       1.2129785836     0.0886242511     0.3513960970
    2      C       2.5166033722    -0.4396613124    -0.2333193183
    3      C       2.5674674810    -0.2840735681    -1.7385840877
    4      H       1.1921000123    -0.0311256175     1.4339874723
    5      H       0.3516313313    -0.4426412817    -0.0576312067
    6      H       1.0821361331     1.1500323565     0.1327555536
    7      H       2.4619163389     0.7755366994    -2.0030845287
    8      H       1.7273924795    -0.8236914396    -2.1935278236
    9      O       3.8023028453    -0.7956677191    -2.2043913480
   10      H       3.3684004951     0.0876250190     0.2004514514
   11      H       2.6421454538    -1.4959852049     0.0120361448
   12      H       3.8444032375    -0.7020278643    -3.1547716009
 ----------------------------------------------------------------
 Nuclear Repulsion Energy =         130.83310320 hartrees
 There are       17 alpha and       17 beta electrons
 Requested basis set is 6-311+G(2df,2pd)
 There are 80 shells and 248 basis functions

 Total QAlloc Memory Limit  20000 MB
 Mega-Array Size       440 MB
 MEM_STATIC part       450 MB

                       Distance Matrix (Angstroms)
             C (  1)   C (  2)   C (  3)   H (  4)   H (  5)   H (  6)
   C (  2)  1.523291
   C (  3)  2.518246  1.514139
   H (  4)  1.089394  2.168207  3.467107
   H (  5)  1.091543  2.172091  2.785799  1.760869
   H (  6)  1.091563  2.172288  2.786536  1.760804  1.762525
   H (  7)  2.752321  2.147502  1.097213  3.751880  3.118020  2.570185
   H (  8)  2.752014  2.147731  1.097218  3.751475  2.569041  3.118258
   O (  9)  3.744145  2.380103  1.415459  4.542630  4.079257  4.080112
   H ( 10)  2.160701  1.091671  2.130613  2.504395  3.073871  2.521963
   H ( 11)  2.160711  1.091687  2.130488  2.504075  2.522071  3.074022
   H ( 12)  4.454519  3.219747  1.952137  5.342428  4.675363  4.676332
             H (  7)   H (  8)   O (  9)   H ( 10)   H ( 11)
   H (  8)  1.770120
   O (  9)  2.075053  2.075128
   H ( 10)  2.480022  3.042128  2.598412
   H ( 11)  3.041875  2.480577  2.597876  1.752361
   H ( 12)  2.328272  2.328202  0.955910  3.479605  3.479147

 A cutoff of  1.0D-12 yielded   3109 shell pairs
 There are     29851 function pairs (     36953 Cartesian)
 Smallest overlap matrix eigenvalue = 6.31E-05
 Guess from superposition of atomic densities
 Warning:  Energy on first SCF cycle will be non-variational
 SAD guess density has 34.000000 electrons
 Long-range K will be added via erf
 Coulomb attenuation parameter = 0.2 bohr**(-1)
 A restricted hybrid HF-DFT SCF calculation will be
 performed using Relaxed Constraint Minimization + Pulay DIIS
 Exchange:     0.2220 Hartree-Fock + 1.0000 wB97X-D + LR-HF
 Correlation:  1.0000 wB97X-D
 Using Euler-Maclaurin-Lebedev (75,302) quadrature formula
 Dispersion:   Grimme D
 SCF converges when DIIS error is below 1.0E-08
 using 16 threads for integral computing
 -------------------------------------------------------
 OpenMP Integral computing Module
 Release: version 1.0, May 2013, Q-Chem Inc. Pittsburgh
 -------------------------------------------------------
 using 16 threads for integral computing
 -------------------------------------------------------
 OpenMP Integral computing Module
 Release: version 1.0, May 2013, Q-Chem Inc. Pittsburgh
 -------------------------------------------------------
 ---------------------------------------
  Cycle       Energy         DIIS Error
 ---------------------------------------
    1    -195.1102088253      2.81E-02
    2    -194.2938003438      3.30E-03
    3    -194.3288609097      7.95E-04 Done RCA. Switching to DIIS
    4    -194.3638134246      6.06E-04
    5    -194.3655335387      1.48E-04
    6    -194.3656756686      2.01E-05
    7    -194.3656792494      4.02E-06
    8    -194.3656794116      1.72E-06
    9    -194.3656794371      3.32E-07
   10    -194.3656794385      6.77E-08
   11    -194.3656794386      1.97E-08
   12    -194.3656794386      8.08E-09 Convergence criterion met
 ---------------------------------------
 SCF time:  CPU 199.96 s  wall 12.78 s
 SCF   energy in the final basis set = -194.36567944
 Total energy in the final basis set = -194.36567944

 --------------------------------------------------------------

                    Orbital Energies (a.u.)
 --------------------------------------------------------------

 Alpha MOs
 -- Occupied --
-19.2463 -10.3247 -10.2741 -10.2714  -1.1256  -0.8825  -0.7729  -0.6822
 -0.6049  -0.5683  -0.5213  -0.4949  -0.4549  -0.4471  -0.4199  -0.4082
 -0.3609
 -- Virtual --
  0.0657   0.0725   0.0916   0.0951   0.1155   0.1288   0.1289   0.1404
  0.1442   0.1671   0.1777   0.1908   0.2332   0.2363   0.2423   0.2503
  0.2709   0.2737   0.2888   0.3008   0.3198   0.3204   0.3266   0.3339
  0.3503   0.4104   0.4270   0.4639   0.4810   0.4858   0.4929   0.5416
  0.5446   0.5587   0.5814   0.6017   0.6022   0.6237   0.6554   0.6563
  0.6624   0.6729   0.6859   0.7097   0.7237   0.7379   0.8041   0.8089
  0.8558   0.8670   0.8694   0.9090   0.9454   0.9493   0.9653   1.0457
  1.0791   1.1125   1.1291   1.1633   1.1688   1.1896   1.2145   1.2329
  1.2341   1.2490   1.2697   1.2751   1.2800   1.3206   1.3412   1.3429
  1.3777   1.4153   1.4366   1.4380   1.4415   1.4501   1.4746   1.5119
  1.5398   1.5697   1.5836   1.5997   1.6260   1.6594   1.6706   1.6831
  1.7376   1.8112   1.9480   2.0826   2.1296   2.2714   2.3739   2.4127
  2.5072   2.5150   2.5781   2.5852   2.6366   2.6675   2.7223   2.7926
  2.8171   2.8406   2.8520   2.9149   2.9337   2.9345   2.9921   2.9959
  3.0071   3.0286   3.0518   3.0805   3.0979   3.1250   3.1312   3.1380
  3.1883   3.2073   3.2428   3.2510   3.2857   3.3068   3.3315   3.3601
  3.3603   3.3697   3.3811   3.4104   3.4225   3.4458   3.4752   3.5339
  3.5509   3.5630   3.5710   3.6035   3.6076   3.6263   3.6436   3.6624
  3.6632   3.7085   3.7618   3.7834   3.7843   3.8641   3.8683   3.8702
  3.9436   3.9479   3.9643   3.9903   3.9919   4.0142   4.0260   4.0420
  4.0853   4.1088   4.1207   4.1373   4.1438   4.1836   4.1884   4.2104
  4.2459   4.2691   4.3222   4.3485   4.3567   4.3813   4.4085   4.4258
  4.4315   4.5055   4.6079   4.6356   4.6506   4.6958   4.7802   4.8162
  4.8231   4.8919   4.9065   4.9430   4.9492   5.0134   5.0287   5.0513
  5.0628   5.1129   5.1262   5.1911   5.2441   5.2761   5.3171   5.3186
  5.3568   5.3641   5.3944   5.4886   5.4987   5.5315   5.5631   5.5855
  5.6628   5.7207   5.8089   5.9199   5.9957   6.0567   6.3810   6.3903
  6.4065   6.4885   6.6599   6.7036   6.8071   7.1281   7.3508   7.4397
  7.6114   7.7219   8.1565  25.1738  25.2531  25.4469  50.4879
 --------------------------------------------------------------

 -----------------------------------------------------------------
                    Cartesian Multipole Moments
 -----------------------------------------------------------------
    Charge (ESU x 10^10)
                 0.0000
    Dipole Moment (Debye)
         X      -1.1511      Y       0.6247      Z      -0.8093
       Tot       1.5396
    Quadrupole Moments (Debye-Ang)
        XX     -35.1180     XY       3.2440     YY     -27.6575
        XZ      -1.3627     YZ      -0.6870     ZZ     -20.3153
    Octopole Moments (Debye-Ang^2)
       XXX    -239.7746    XXY      22.5305    XYY     -69.5007
       YYY      27.9008    XXZ      23.8830    XYZ      -3.4776
       YYZ      25.7530    XZZ     -42.8882    YZZ       6.4455
       ZZZ      42.5093
    Hexadecapole Moments (Debye-Ang^3)
      XXXX   -1350.8428   XXXY     144.9670   XXYY    -222.6481
      XYYY      94.0913   YYYY     -83.7150   XXXZ     261.3681
      XXYZ     -28.6410   XYYZ      89.6974   YYYZ     -48.5292
      XXZZ    -174.1569   XYZZ      22.3746   YYZZ     -77.7021
      XZZZ     131.3199   YZZZ     -27.1642   ZZZZ    -246.5350
 -----------------------------------------------------------------
 Calculating MO derivatives via CPSCF
    1     0    39    0.0295165
    2     0    39    0.0087914
    3     0    39    0.0013823
    4     0    39    0.0001683
    5     0    39    0.0000190
    6    36     3    0.0000018
    7    39     0    0.0000002  Converged
 Time for AOints: 92.6 s (CPU) 5.8 s (wall)
 ------------------------------------------------------------------------------
                     AOints        : Timing summary (seconds)
 ------------------------------------------------------------------------------
     job step          cpu (% of tot)      sys (% of tot)     wall (% of tot)
 ------------------------------------------------------------------------------
  AOints            0.9256E+02 ( 4.9)   0.1100E-04 ( 1.2)   0.5800E+01 ( 4.9)
 ------------------------------------------------------------------------------
   Grand Totals     0.1894E+04          0.9240E-03          0.1186E+03
 ------------------------------------------------------------------------------
 Polarizability Matrix (a.u.)
            1           2           3
    1 -44.4413630   2.0553537   3.7452428
    2   2.0553537 -39.8286930  -0.9025366
    3   3.7452428  -0.9025366 -45.8577275
 Calculating analytic Hessian of the SCF energy
atom: 0 element: 6
atom: 1 element: 6
atom: 2 element: 6
atom: 3 element: 1
atom: 4 element: 1
atom: 5 element: 1
atom: 6 element: 1
atom: 7 element: 1
atom: 8 element: 8
atom: 9 element: 1
atom: 10 element: 1
atom: 11 element: 1

 Direct stationary perturbation theory relativistic correction:

 rels  =       0.056768503394
 relv  =      -0.244072977223
 rel2e =       0.000000000000
 E_rel =      -0.187304473829

 Hessian of the SCF Energy
            1           2           3           4           5           6
    1   0.5011409   0.0287689   0.0283677  -0.1693369   0.0358239   0.0381467
    2   0.0287689   0.5596412  -0.0127871   0.0360118  -0.0961174  -0.0153160
    3   0.0283677  -0.0127871   0.5692594   0.0366827  -0.0146003  -0.0987269
    4  -0.1693369   0.0360118   0.0366827   0.5416820   0.0256468   0.0357098
    5   0.0358239  -0.0961174  -0.0146003   0.0256468   0.5964049  -0.0037673
    6   0.0381467  -0.0153160  -0.0987269   0.0357098  -0.0037673   0.4981795
    7  -0.0043819  -0.0023734   0.0314564  -0.0761040  -0.0022418  -0.0052786
    8   0.0006447  -0.0000584  -0.0132851  -0.0006757  -0.0841795   0.0167955
    9   0.0064224  -0.0017665  -0.0111745  -0.0188754   0.0230244  -0.2032070
   10  -0.0461207  -0.0004246   0.0007069  -0.0001079  -0.0043067   0.0313142
   11  -0.0006089  -0.0504723   0.0316340  -0.0004243   0.0004321  -0.0132446
   12   0.0021808   0.0309719  -0.3146946  -0.0011958   0.0016631  -0.0106697
   13  -0.2076030  -0.1021169  -0.0786466  -0.0232955  -0.0148219  -0.0110611
   14  -0.1028984  -0.1137914  -0.0501455   0.0105859   0.0066617   0.0055125
   15  -0.0789402  -0.0501747  -0.0862121   0.0105842   0.0075601   0.0048462
   16  -0.0504214   0.0258827  -0.0059993  -0.0033042   0.0301688  -0.0063750
   17   0.0267112  -0.2977023   0.0529888   0.0013461  -0.0107686   0.0019883
   18  -0.0060558   0.0532084  -0.0593888   0.0008098  -0.0132793   0.0021274
   19   0.0004180  -0.0007385   0.0001047   0.0008061  -0.0001338  -0.0009898
   20  -0.0001413   0.0004208  -0.0000759  -0.0002629  -0.0039605   0.0007693
   21  -0.0009808   0.0009413   0.0012538  -0.0008293   0.0342020  -0.0100086
   22   0.0009793   0.0002078   0.0001353   0.0007574  -0.0004410  -0.0003114
   23  -0.0000959   0.0000173  -0.0002720   0.0026832   0.0023196   0.0029249
   24  -0.0014763  -0.0000837   0.0011197  -0.0253223  -0.0191329  -0.0161684
   25   0.0013742  -0.0006680   0.0017867  -0.0094117   0.0045691   0.0077697
   26  -0.0003261   0.0004937   0.0003292   0.0001075   0.0026639  -0.0013234
   27  -0.0011093   0.0016566  -0.0092745   0.0452953  -0.0185531  -0.0163123
   28  -0.0224338  -0.0135753  -0.0104447  -0.2041660  -0.1006262  -0.0814825
   29   0.0109898   0.0061223   0.0052015  -0.1016417  -0.1157698  -0.0508747
   30   0.0122643   0.0076288   0.0056341  -0.0797799  -0.0500624  -0.0886518
   31  -0.0041487   0.0291701  -0.0061020  -0.0512104   0.0236974  -0.0077997
   32   0.0009834  -0.0092986   0.0017525   0.0243927  -0.2962732   0.0567438
   33   0.0016972  -0.0146716   0.0027931  -0.0070910   0.0548317  -0.0613706
   34   0.0005339  -0.0001445   0.0019522  -0.0063090   0.0026654   0.0003576
   35   0.0001487   0.0007452  -0.0007402   0.0022307  -0.0014132  -0.0002083
   36  -0.0005167   0.0003927  -0.0005886   0.0040120  -0.0018861  -0.0000378
            7           8           9          10          11          12
    1  -0.0043819   0.0006447   0.0064224  -0.0461207  -0.0006089   0.0021808
    2  -0.0023734  -0.0000584  -0.0017665  -0.0004246  -0.0504723   0.0309719
    3   0.0314564  -0.0132851  -0.0111745   0.0007069   0.0316340  -0.3146946
    4  -0.0761040  -0.0006757  -0.0188754  -0.0001079  -0.0004243  -0.0011958
    5  -0.0022418  -0.0841795   0.0230244  -0.0043067   0.0004321   0.0016631
    6  -0.0052786   0.0167955  -0.2032070   0.0313142  -0.0132446  -0.0106697
    7   0.5239824   0.0263054   0.0368772  -0.0048778   0.0019373   0.0021659
    8   0.0263054   0.5807151  -0.0089673   0.0023287  -0.0010140  -0.0012052
    9   0.0368772  -0.0089673   0.5217317  -0.0011296   0.0003053   0.0016747
   10  -0.0048778   0.0023287  -0.0011296   0.0503908  -0.0014673  -0.0039849
   11   0.0019373  -0.0010140   0.0003053  -0.0014673   0.0509151  -0.0332562
   12   0.0021659  -0.0012052   0.0016747  -0.0039849  -0.0332562   0.3401274
   13  -0.0001275  -0.0008125  -0.0016648   0.0004896   0.0008808   0.0003283
   14  -0.0000793   0.0002403   0.0002243   0.0043186   0.0015659   0.0017518
   15   0.0013267   0.0009337   0.0011450  -0.0255131  -0.0171599  -0.0111646
   16   0.0006303   0.0008641  -0.0011540  -0.0011120  -0.0000945  -0.0002320
   17  -0.0003444  -0.0002551   0.0007808  -0.0001150  -0.0026454   0.0003007
   18   0.0000505  -0.0018155   0.0008812  -0.0030706   0.0323706  -0.0053608
   19  -0.0507301   0.0050568  -0.0039366  -0.0000874  -0.0000042  -0.0000714
   20   0.0084728  -0.2779752   0.0590998  -0.0001527   0.0004440   0.0000204
   21  -0.0059746   0.0584412  -0.0677871  -0.0002068  -0.0003881   0.0002262
   22  -0.1769587  -0.0931606  -0.0760361   0.0002820   0.0001512  -0.0000268
   23  -0.0961811  -0.1233206  -0.0549821   0.0002851  -0.0000230   0.0000189
   24  -0.0775443  -0.0526992  -0.0962584   0.0002190   0.0003743   0.0003240
   25  -0.2047786   0.0625439   0.0169636  -0.0004372   0.0003742   0.0004305
   26   0.0579445  -0.0905657  -0.0027568   0.0001269   0.0004300   0.0000101
   27   0.0553719  -0.0203938  -0.1063306   0.0025160  -0.0009456  -0.0012549
   28  -0.0008951   0.0002556   0.0005943   0.0009103  -0.0003641   0.0003114
   29   0.0032802   0.0017891   0.0023266  -0.0008232   0.0002402   0.0003379
   30  -0.0289583  -0.0184534  -0.0176026  -0.0004252   0.0005856   0.0004955
   31  -0.0006644  -0.0000057   0.0001643   0.0011842  -0.0006211  -0.0001099
   32   0.0009542  -0.0048905   0.0006584  -0.0000062   0.0001611  -0.0005279
   33  -0.0035966   0.0367081  -0.0111621  -0.0006717  -0.0001710   0.0003026
   34  -0.0050947  -0.0033446   0.0417746  -0.0005140   0.0002409   0.0002041
   35   0.0023258  -0.0004856  -0.0179469   0.0002364  -0.0000339  -0.0000853
   36  -0.0058961   0.0039409  -0.0119102   0.0002458  -0.0001044  -0.0000059
           13          14          15          16          17          18
    1  -0.2076030  -0.1028984  -0.0789402  -0.0504214   0.0267112  -0.0060558
    2  -0.1021169  -0.1137914  -0.0501747   0.0258827  -0.2977023   0.0532084
    3  -0.0786466  -0.0501455  -0.0862121  -0.0059993   0.0529888  -0.0593888
    4  -0.0232955   0.0105859   0.0105842  -0.0033042   0.0013461   0.0008098
    5  -0.0148219   0.0066617   0.0075601   0.0301688  -0.0107686  -0.0132793
    6  -0.0110611   0.0055125   0.0048462  -0.0063750   0.0019883   0.0021274
    7  -0.0001275  -0.0000793   0.0013267   0.0006303  -0.0003444   0.0000505
    8  -0.0008125   0.0002403   0.0009337   0.0008641  -0.0002551  -0.0018155
    9  -0.0016648   0.0002243   0.0011450  -0.0011540   0.0007808   0.0008812
   10   0.0004896   0.0043186  -0.0255131  -0.0011120  -0.0001150  -0.0030706
   11   0.0008808   0.0015659  -0.0171599  -0.0000945  -0.0026454   0.0323706
   12   0.0003283   0.0017518  -0.0111646  -0.0002320   0.0003007  -0.0053608
   13   0.2291291   0.1110394   0.0847676   0.0032358   0.0019801   0.0021721
   14   0.1110394   0.1192132   0.0561937  -0.0248215  -0.0146897  -0.0131714
   15   0.0847676   0.0561937   0.0896580   0.0067119   0.0036795   0.0022309
   16   0.0032358  -0.0248215   0.0067119   0.0545239  -0.0321906   0.0043019
   17   0.0019801  -0.0146897   0.0036795  -0.0321906   0.3235305  -0.0577872
   18   0.0021721  -0.0131714   0.0022309   0.0043019  -0.0577872   0.0601345
   19   0.0000312  -0.0001105  -0.0000645   0.0001030   0.0002015   0.0002201
   20   0.0000684  -0.0000447  -0.0000105  -0.0005049   0.0003105   0.0003817
   21   0.0000889  -0.0001127  -0.0000817   0.0005911  -0.0008036  -0.0001460
   22   0.0003182  -0.0002575  -0.0002017  -0.0000038   0.0000504  -0.0000157
   23   0.0002784   0.0000977  -0.0003248  -0.0001562  -0.0000293   0.0000488
   24   0.0012167   0.0001100  -0.0000314   0.0001249   0.0000232  -0.0000596
   25   0.0007275   0.0000342  -0.0003463   0.0001196  -0.0001392  -0.0001920
   26   0.0003493  -0.0000432  -0.0000666  -0.0005209   0.0005569   0.0003872
   27   0.0001540   0.0002051  -0.0000676  -0.0001388  -0.0001409  -0.0000638
   28  -0.0039457   0.0026178   0.0025375   0.0009574   0.0002863  -0.0005808
   29   0.0028554   0.0001381  -0.0007904  -0.0003484   0.0007466   0.0005709
   30   0.0030146  -0.0012730  -0.0005859  -0.0008585   0.0000271   0.0002660
   31   0.0009898  -0.0003241  -0.0008174  -0.0047837   0.0021967   0.0023636
   32   0.0002996   0.0006768   0.0001796   0.0018327   0.0009713  -0.0009533
   33  -0.0004706   0.0006930   0.0003002   0.0029832  -0.0009751  -0.0005799
   34   0.0000505  -0.0001046  -0.0000447   0.0000550   0.0000170  -0.0000030
   35   0.0000001  -0.0000246  -0.0000196  -0.0001113  -0.0000254   0.0000391
   36   0.0001008   0.0000123  -0.0000368   0.0000447  -0.0000816  -0.0000411
           19          20          21          22          23          24
    1   0.0004180  -0.0001413  -0.0009808   0.0009793  -0.0000959  -0.0014763
    2  -0.0007385   0.0004208   0.0009413   0.0002078   0.0000173  -0.0000837
    3   0.0001047  -0.0000759   0.0012538   0.0001353  -0.0002720   0.0011197
    4   0.0008061  -0.0002629  -0.0008293   0.0007574   0.0026832  -0.0253223
    5  -0.0001338  -0.0039605   0.0342020  -0.0004410   0.0023196  -0.0191329
    6  -0.0009898   0.0007693  -0.0100086  -0.0003114   0.0029249  -0.0161684
    7  -0.0507301   0.0084728  -0.0059746  -0.1769587  -0.0961811  -0.0775443
    8   0.0050568  -0.2779752   0.0584412  -0.0931606  -0.1233206  -0.0526992
    9  -0.0039366   0.0590998  -0.0677871  -0.0760361  -0.0549821  -0.0962584
   10  -0.0000874  -0.0001527  -0.0002068   0.0002820   0.0002851   0.0002190
   11  -0.0000042   0.0004440  -0.0003881   0.0001512  -0.0000230   0.0003743
   12  -0.0000714   0.0000204   0.0002262  -0.0000268   0.0000189   0.0003240
   13   0.0000312   0.0000684   0.0000889   0.0003182   0.0002784   0.0012167
   14  -0.0001105  -0.0000447  -0.0001127  -0.0002575   0.0000977   0.0001100
   15  -0.0000645  -0.0000105  -0.0000817  -0.0002017  -0.0003248  -0.0000314
   16   0.0001030  -0.0005049   0.0005911  -0.0000038  -0.0001562   0.0001249
   17   0.0002015   0.0003105  -0.0008036   0.0000504  -0.0000293   0.0000232
   18   0.0002201   0.0003817  -0.0001460  -0.0000157   0.0000488  -0.0000596
   19   0.0613331  -0.0216376   0.0010157   0.0029890  -0.0229260   0.0055055
   20  -0.0216376   0.3045763  -0.0628576  -0.0010657  -0.0164789   0.0053261
   21   0.0010157  -0.0628576   0.0720349  -0.0007674  -0.0139649   0.0048423
   22   0.0029890  -0.0010657  -0.0007674   0.2108997   0.0993612   0.0808968
   23  -0.0229260  -0.0164789  -0.0139649   0.0993612   0.1238349   0.0591693
   24   0.0055055   0.0053261   0.0048423   0.0808968   0.0591693   0.1030215
   25  -0.0162944   0.0136849   0.0074573  -0.0398092   0.0165598   0.0156167
   26   0.0391533  -0.0094254  -0.0147538  -0.0056206   0.0109618   0.0046988
   27  -0.0011017  -0.0035109   0.0039799  -0.0031549   0.0060152   0.0071294
   28   0.0001284   0.0003699  -0.0004042   0.0005725   0.0005967   0.0004957
   29   0.0007455   0.0007611  -0.0003778   0.0002919   0.0012776   0.0010379
   30   0.0001278   0.0002565   0.0015747   0.0007993   0.0008832  -0.0066725
   31   0.0005290   0.0003158   0.0002565  -0.0000380   0.0006111  -0.0000008
   32   0.0005431   0.0014253   0.0006097   0.0001970   0.0009020   0.0004435
   33   0.0006253   0.0004544  -0.0067830  -0.0002175  -0.0003370   0.0015924
   34   0.0007740   0.0008534  -0.0002463   0.0000115  -0.0010163   0.0002683
   35  -0.0001497  -0.0000532  -0.0009356   0.0002860   0.0004408   0.0007326
   36  -0.0014350   0.0001466   0.0008946  -0.0011000   0.0008205   0.0011611
           25          26          27          28          29          30
    1   0.0013742  -0.0003261  -0.0011093  -0.0224338   0.0109898   0.0122643
    2  -0.0006680   0.0004937   0.0016566  -0.0135753   0.0061223   0.0076288
    3   0.0017867   0.0003292  -0.0092745  -0.0104447   0.0052015   0.0056341
    4  -0.0094117   0.0001075   0.0452953  -0.2041660  -0.1016417  -0.0797799
    5   0.0045691   0.0026639  -0.0185531  -0.1006262  -0.1157698  -0.0500624
    6   0.0077697  -0.0013234  -0.0163123  -0.0814825  -0.0508747  -0.0886518
    7  -0.2047786   0.0579445   0.0553719  -0.0008951   0.0032802  -0.0289583
    8   0.0625439  -0.0905657  -0.0203938   0.0002556   0.0017891  -0.0184534
    9   0.0169636  -0.0027568  -0.1063306   0.0005943   0.0023266  -0.0176026
   10  -0.0004372   0.0001269   0.0025160   0.0009103  -0.0008232  -0.0004252
   11   0.0003742   0.0004300  -0.0009456  -0.0003641   0.0002402   0.0005856
   12   0.0004305   0.0000101  -0.0012549   0.0003114   0.0003379   0.0004955
   13   0.0007275   0.0003493   0.0001540  -0.0039457   0.0028554   0.0030146
   14   0.0000342  -0.0000432   0.0002051   0.0026178   0.0001381  -0.0012730
   15  -0.0003463  -0.0000666  -0.0000676   0.0025375  -0.0007904  -0.0005859
   16   0.0001196  -0.0005209  -0.0001388   0.0009574  -0.0003484  -0.0008585
   17  -0.0001392   0.0005569  -0.0001409   0.0002863   0.0007466   0.0000271
   18  -0.0001920   0.0003872  -0.0000638  -0.0005808   0.0005709   0.0002660
   19  -0.0162944   0.0391533  -0.0011017   0.0001284   0.0007455   0.0001278
   20   0.0136849  -0.0094254  -0.0035109   0.0003699   0.0007611   0.0002565
   21   0.0074573  -0.0147538   0.0039799  -0.0004042  -0.0003778   0.0015747
   22  -0.0398092  -0.0056206  -0.0031549   0.0005725   0.0002919   0.0007993
   23   0.0165598   0.0109618   0.0060152   0.0005967   0.0012776   0.0008832
   24   0.0156167   0.0046988   0.0071294   0.0004957   0.0010379  -0.0066725
   25   0.3023033  -0.1077175  -0.0865341   0.0014431   0.0003282   0.0006226
   26  -0.1077175   0.0991071  -0.0327221  -0.0000086  -0.0001861   0.0007490
   27  -0.0865341  -0.0327221   0.6563644  -0.0000050  -0.0006346   0.0030435
   28   0.0014431  -0.0000086  -0.0000050   0.2243288   0.1087613   0.0872047
   29   0.0003282  -0.0001861  -0.0006346   0.1087613   0.1202217   0.0558938
   30   0.0006226   0.0007490   0.0030435   0.0872047   0.0558938   0.0992560
   31   0.0003527  -0.0005585   0.0001201   0.0029453  -0.0246795   0.0061581
   32  -0.0008876   0.0011057  -0.0000407   0.0016470  -0.0152959   0.0035683
   33  -0.0005772  -0.0013943   0.0028249   0.0017546  -0.0128291   0.0026967
   34  -0.0355893   0.0170708  -0.0114135   0.0001549   0.0002405  -0.0001694
   35   0.0113180  -0.0150988   0.0690648   0.0000396  -0.0000449   0.0001964
   36   0.0370024   0.0468428  -0.5400384   0.0000191   0.0001380   0.0005462
           31          32          33          34          35          36
    1  -0.0041487   0.0009834   0.0016972   0.0005339   0.0001487  -0.0005167
    2   0.0291701  -0.0092986  -0.0146716  -0.0001445   0.0007452   0.0003927
    3  -0.0061020   0.0017525   0.0027931   0.0019522  -0.0007402  -0.0005886
    4  -0.0512104   0.0243927  -0.0070910  -0.0063090   0.0022307   0.0040120
    5   0.0236974  -0.2962732   0.0548317   0.0026654  -0.0014132  -0.0018861
    6  -0.0077997   0.0567438  -0.0613706   0.0003576  -0.0002083  -0.0000378
    7  -0.0006644   0.0009542  -0.0035966  -0.0050947   0.0023258  -0.0058961
    8  -0.0000057  -0.0048905   0.0367081  -0.0033446  -0.0004856   0.0039409
    9   0.0001643   0.0006584  -0.0111621   0.0417746  -0.0179469  -0.0119102
   10   0.0011842  -0.0000062  -0.0006717  -0.0005140   0.0002364   0.0002458
   11  -0.0006211   0.0001611  -0.0001710   0.0002409  -0.0000339  -0.0001044
   12  -0.0001099  -0.0005279   0.0003026   0.0002041  -0.0000853  -0.0000059
   13   0.0009898   0.0002996  -0.0004706   0.0000505   0.0000001   0.0001008
   14  -0.0003241   0.0006768   0.0006930  -0.0001046  -0.0000246   0.0000123
   15  -0.0008174   0.0001796   0.0003002  -0.0000447  -0.0000196  -0.0000368
   16  -0.0047837   0.0018327   0.0029832   0.0000550  -0.0001113   0.0000447
   17   0.0021967   0.0009713  -0.0009751   0.0000170  -0.0000254  -0.0000816
   18   0.0023636  -0.0009533  -0.0005799  -0.0000030   0.0000391  -0.0000411
   19   0.0005290   0.0005431   0.0006253   0.0007740  -0.0001497  -0.0014350
   20   0.0003158   0.0014253   0.0004544   0.0008534  -0.0000532   0.0001466
   21   0.0002565   0.0006097  -0.0067830  -0.0002463  -0.0009356   0.0008946
   22  -0.0000380   0.0001970  -0.0002175   0.0000115   0.0002860  -0.0011000
   23   0.0006111   0.0009020  -0.0003370  -0.0010163   0.0004408   0.0008205
   24  -0.0000008   0.0004435   0.0015924   0.0002683   0.0007326   0.0011611
   25   0.0003527  -0.0008876  -0.0005772  -0.0355893   0.0113180   0.0370024
   26  -0.0005585   0.0011057  -0.0013943   0.0170708  -0.0150988   0.0468428
   27   0.0001201  -0.0000407   0.0028249  -0.0114135   0.0690648  -0.5400384
   28   0.0029453   0.0016470   0.0017546   0.0001549   0.0000396   0.0000191
   29  -0.0246795  -0.0152959  -0.0128291   0.0002405  -0.0000449   0.0001380
   30   0.0061581   0.0035683   0.0026967  -0.0001694   0.0001964   0.0005462
   31   0.0549058  -0.0298500   0.0059045  -0.0000617   0.0000478  -0.0001374
   32  -0.0298500   0.3202758  -0.0622585  -0.0001059   0.0002402  -0.0001752
   33   0.0059045  -0.0622585   0.0689113  -0.0003402  -0.0000506   0.0004744
   34  -0.0000617  -0.0001059  -0.0003402   0.0459887  -0.0163720  -0.0323397
   35   0.0000478   0.0002402  -0.0000506  -0.0163720   0.0157535  -0.0500464
   36  -0.0001374  -0.0001752   0.0004744  -0.0323397  -0.0500464   0.5495824
 **********************************************************************
 **                                                                  **
 **                       VIBRATIONAL ANALYSIS                       **
 **                       --------------------                       **
 **                                                                  **
 **        VIBRATIONAL FREQUENCIES (CM**-1) AND NORMAL MODES         **
 **     FORCE CONSTANTS (mDYN/ANGSTROM) AND REDUCED MASSES (AMU)     **
 **                  INFRARED INTENSITIES (KM/MOL)                   **
 **                                                                  **
 **********************************************************************


 Mode:                 1                      2                      3
 Frequency:       131.71                 226.77                 252.93
 Force Cnst:      0.0248                 0.0332                 0.0412
 Red. Mass:       2.4300                 1.0949                 1.0936
 IR Active:          YES                    YES                    YES
 IR Intens:        6.891                  7.038                109.297
 Raman Active:       YES                    YES                    YES
               X      Y      Z        X      Y      Z        X      Y      Z
 C          0.060  0.131  0.015    0.012  0.025  0.010    0.005  0.008  0.002
 C         -0.064 -0.141 -0.016   -0.038 -0.070 -0.016    0.013  0.029  0.002
 C         -0.081 -0.176 -0.020    0.001  0.007 -0.007   -0.020 -0.042 -0.007
 H          0.004  0.013  0.001    0.260  0.524  0.070   -0.047 -0.109 -0.012
 H         -0.078  0.413 -0.062   -0.009 -0.267  0.440    0.006  0.080 -0.094
 H          0.356  0.191  0.131   -0.163 -0.090 -0.447    0.049  0.036  0.111
 H         -0.367 -0.211 -0.048    0.043  0.029  0.067   -0.038 -0.054 -0.043
 H          0.077 -0.416 -0.025    0.003  0.064 -0.079   -0.020 -0.071  0.024
 O          0.076  0.166  0.019    0.009  0.012  0.007   -0.024 -0.052 -0.004
 H          0.044 -0.270 -0.073    0.005 -0.149 -0.003    0.002  0.080 -0.041
 H         -0.238 -0.152  0.024   -0.119 -0.086 -0.044    0.056  0.045  0.050
 H          0.002  0.008  0.000    0.131  0.253  0.036    0.403  0.864  0.104
 TransDip  -0.035 -0.076 -0.009    0.038  0.076  0.007    0.140  0.302  0.035

 Mode:                 4                      5                      6
 Frequency:       281.69                 465.03                 771.45
 Force Cnst:      0.1204                 0.5280                 0.3782
 Red. Mass:       2.5753                 4.1438                 1.0786
 IR Active:          YES                    YES                    YES
 IR Intens:        4.221                 10.799                  1.106
 Raman Active:       YES                    YES                    YES
               X      Y      Z        X      Y      Z        X      Y      Z
 C         -0.026  0.034 -0.168    0.195 -0.065 -0.204   -0.009 -0.018 -0.002
 C          0.093 -0.071  0.175    0.141 -0.056 -0.084   -0.030 -0.066 -0.007
 C          0.045 -0.041  0.177   -0.168  0.076  0.012   -0.010 -0.021 -0.002
 H         -0.326  0.229 -0.154   -0.013  0.037 -0.200    0.048  0.111  0.013
 H          0.074 -0.014 -0.316    0.258 -0.074 -0.327   -0.196  0.226  0.083
 H          0.055 -0.003 -0.399    0.250 -0.085 -0.338    0.308  0.012 -0.056
 H         -0.030 -0.022  0.280   -0.173  0.085  0.039    0.153  0.066  0.268
 H         -0.029 -0.008  0.271   -0.181  0.071  0.035   -0.026  0.208 -0.237
 O         -0.054  0.041 -0.141   -0.166  0.045  0.267    0.004  0.009  0.001
 H          0.038 -0.047  0.251    0.205 -0.060 -0.211   -0.236  0.440 -0.205
 H          0.017 -0.062  0.244    0.196 -0.077 -0.213    0.471  0.061  0.261
 H         -0.274  0.193 -0.136    0.102 -0.086  0.267   -0.010 -0.020 -0.003
 TransDip  -0.039  0.023  0.047    0.077 -0.029 -0.065    0.013  0.031  0.004

 Mode:                 7                      8                      9
 Frequency:       898.77                 910.28                1054.04
 Force Cnst:      0.8265                 0.5530                 2.0267
 Red. Mass:       1.7367                 1.1326                 3.0962
 IR Active:          YES                    YES                    YES
 IR Intens:        5.644                  1.728                  7.290
 Raman Active:       YES                    YES                    YES
               X      Y      Z        X      Y      Z        X      Y      Z
 C          0.054 -0.012 -0.130   -0.027 -0.055 -0.004   -0.230  0.101  0.039
 C         -0.081  0.049 -0.101    0.001 -0.003  0.002    0.238 -0.089 -0.167
 C          0.067 -0.045  0.140    0.033  0.076  0.006    0.115 -0.057  0.041
 H          0.668 -0.285 -0.145    0.069  0.186  0.025   -0.044  0.013  0.040
 H         -0.119 -0.014  0.252   -0.274  0.251  0.131   -0.331  0.117  0.226
 H         -0.060  0.049  0.254    0.383 -0.022 -0.113   -0.329  0.130  0.228
 H          0.020 -0.041  0.165   -0.215 -0.045 -0.357    0.046 -0.034  0.152
 H          0.034 -0.037  0.185    0.072 -0.256  0.317    0.044 -0.044  0.150
 O         -0.025  0.009  0.013   -0.009 -0.020 -0.003   -0.087  0.034  0.047
 H         -0.188  0.077  0.078   -0.190  0.043  0.321    0.319 -0.113 -0.286
 H         -0.171  0.075  0.060    0.194 -0.056 -0.323    0.318 -0.112 -0.282
 H         -0.265  0.121  0.014    0.014  0.011  0.001   -0.110  0.044  0.052
 TransDip  -0.028  0.006  0.071    0.019  0.037  0.002    0.070 -0.027 -0.044

 Mode:                10                     11                     12
 Frequency:      1086.01                1116.40                1192.28
 Force Cnst:      1.3580                 1.9699                 1.3475
 Red. Mass:       1.9543                 2.6826                 1.6089
 IR Active:          YES                    YES                    YES
 IR Intens:       80.437                 27.981                  0.873
 Raman Active:       YES                    YES                    YES
               X      Y      Z        X      Y      Z        X      Y      Z
 C          0.015 -0.015  0.065    0.069 -0.042  0.087   -0.039 -0.084 -0.010
 C         -0.063  0.043 -0.124   -0.105  0.053 -0.037    0.060  0.127  0.015
 C         -0.083  0.019  0.169    0.249 -0.107 -0.055   -0.064 -0.136 -0.016
 H         -0.307  0.135  0.066   -0.344  0.149  0.094    0.075  0.160  0.019
 H          0.116  0.015 -0.196    0.204 -0.009 -0.247   -0.237  0.190  0.068
 H          0.081 -0.059 -0.206    0.161 -0.099 -0.258    0.304 -0.043 -0.050
 H         -0.001 -0.003  0.083    0.277 -0.124 -0.205    0.510 -0.070  0.026
 H         -0.007 -0.016  0.088    0.294 -0.091 -0.199   -0.376  0.336 -0.003
 O          0.122 -0.054 -0.017   -0.162  0.068  0.057    0.020  0.043  0.006
 H          0.118 -0.007 -0.425   -0.067  0.008 -0.049    0.153 -0.189  0.202
 H          0.119 -0.003 -0.426   -0.046  0.054 -0.046   -0.225  0.033 -0.219
 H         -0.490  0.230 -0.026   -0.428  0.190  0.065   -0.007  0.003  0.000
 TransDip  -0.250  0.104  0.096    0.127 -0.046 -0.102   -0.014 -0.026 -0.002

 Mode:                13                     14                     15
 Frequency:      1267.69                1277.14                1329.27
 Force Cnst:      1.2144                 1.1629                 1.1241
 Red. Mass:       1.2826                 1.2101                 1.0798
 IR Active:          YES                    YES                    YES
 IR Intens:       47.191                  0.181                  0.104
 Raman Active:       YES                    YES                    YES
               X      Y      Z        X      Y      Z        X      Y      Z
 C          0.019 -0.019  0.050    0.040  0.084  0.012    0.013  0.028  0.004
 C         -0.045  0.035 -0.091   -0.034 -0.069 -0.011    0.022  0.045  0.002
 C          0.053 -0.030  0.053   -0.018 -0.044 -0.003   -0.022 -0.047 -0.006
 H         -0.142  0.069  0.050   -0.077 -0.156 -0.017   -0.010 -0.011 -0.000
 H          0.059  0.040 -0.121    0.204 -0.156 -0.038    0.071 -0.038 -0.025
 H          0.042 -0.050 -0.133   -0.256  0.043  0.016   -0.080  0.023  0.021
 H         -0.147  0.032  0.392    0.362 -0.084 -0.269   -0.222  0.053  0.444
 H         -0.138  0.010  0.368   -0.330  0.160  0.305    0.218 -0.039 -0.442
 O         -0.033  0.019 -0.038    0.012  0.030  0.002   -0.006 -0.015 -0.001
 H         -0.066  0.027 -0.042   -0.312  0.145  0.266   -0.192  0.006  0.464
 H         -0.088  0.048 -0.022    0.337 -0.086 -0.260    0.167 -0.046 -0.451
 H          0.679 -0.311 -0.027    0.030 -0.002  0.000   -0.008 -0.005 -0.001
 TransDip   0.197 -0.085 -0.049    0.003 -0.013 -0.002   -0.006 -0.009 -0.001

 Mode:                16                     17                     18
 Frequency:      1355.69                1421.46                1463.79
 Force Cnst:      1.5379                 1.5104                 1.8365
 Red. Mass:       1.4202                 1.2687                 1.4547
 IR Active:          YES                    YES                    YES
 IR Intens:        8.778                  1.940                  2.928
 Raman Active:       YES                    YES                    YES
               X      Y      Z        X      Y      Z        X      Y      Z
 C          0.025 -0.018  0.049   -0.121  0.047  0.068    0.013 -0.008  0.017
 C          0.088 -0.026 -0.140    0.030 -0.011 -0.033    0.050 -0.016 -0.059
 C         -0.026  0.018 -0.045   -0.009  0.004  0.007   -0.060  0.009  0.163
 H         -0.238  0.103  0.059    0.503 -0.229  0.033   -0.033  0.013  0.016
 H         -0.037  0.133 -0.041    0.318 -0.298 -0.369   -0.058  0.146 -0.042
 H         -0.118 -0.049 -0.063    0.459  0.023 -0.323   -0.142 -0.041 -0.064
 H         -0.112  0.049  0.106   -0.013 -0.006 -0.042    0.304 -0.128 -0.488
 H         -0.129  0.036  0.122   -0.002  0.022 -0.037    0.343 -0.057 -0.479
 O          0.033 -0.018  0.028    0.002 -0.001  0.003   -0.032  0.018 -0.035
 H         -0.309  0.102  0.473   -0.047  0.010  0.100   -0.118  0.107  0.102
 H         -0.323  0.078  0.492   -0.045  0.009  0.100   -0.167  0.000  0.092
 H         -0.301  0.137  0.020   -0.015  0.007  0.002    0.338 -0.153 -0.026
 TransDip  -0.086  0.040 -0.000    0.040 -0.016 -0.012   -0.028  0.007  0.046

 Mode:                19                     20                     21
 Frequency:      1500.36                1506.49                1513.49
 Force Cnst:      1.3855                 1.3897                 1.4914
 Red. Mass:       1.0446                 1.0393                 1.1050
 IR Active:          YES                    YES                    YES
 IR Intens:        1.535                  7.881                  5.248
 Raman Active:       YES                    YES                    YES
               X      Y      Z        X      Y      Z        X      Y      Z
 C          0.012 -0.017  0.027   -0.020 -0.042 -0.007    0.013 -0.004  0.030
 C         -0.043  0.017 -0.007    0.000 -0.024  0.005    0.034 -0.020  0.062
 C         -0.001  0.001 -0.002    0.000  0.002 -0.004   -0.010  0.010 -0.046
 H          0.292 -0.026  0.016    0.275  0.630  0.075    0.225 -0.184  0.004
 H         -0.098  0.399 -0.298    0.180  0.007 -0.445   -0.115  0.337 -0.169
 H         -0.373 -0.105 -0.227   -0.121  0.065  0.487   -0.284 -0.107 -0.321
 H         -0.055 -0.008 -0.029    0.037  0.000 -0.006    0.194  0.078  0.179
 H         -0.033  0.053 -0.014   -0.008 -0.025  0.038    0.061 -0.231  0.133
 O          0.004 -0.001  0.001    0.000  0.001  0.001   -0.001 -0.000  0.005
 H          0.171 -0.414  0.134   -0.076  0.116 -0.031   -0.098  0.386 -0.200
 H          0.418  0.104  0.197   -0.053 -0.047 -0.065   -0.341 -0.130 -0.265
 H         -0.012  0.006  0.000   -0.003  0.003  0.001   -0.052  0.023  0.004
 TransDip   0.024  0.007 -0.031    0.031  0.084  0.008   -0.039  0.015 -0.060

 Mode:                22                     23                     24
 Frequency:      1530.74                2995.59                3027.73
 Force Cnst:      1.5021                 5.5790                 5.9761
 Red. Mass:       1.0881                 1.0552                 1.1064
 IR Active:          YES                    YES                    YES
 IR Intens:        5.587                 58.570                 40.982
 Raman Active:       YES                    YES                    YES
               X      Y      Z        X      Y      Z        X      Y      Z
 C          0.005 -0.003  0.009   -0.002  0.001  0.000    0.000  0.000  0.000
 C          0.018 -0.011  0.026   -0.002  0.001 -0.003    0.006  0.013  0.001
 C          0.063 -0.033  0.030    0.047 -0.022  0.040   -0.037 -0.086 -0.008
 H          0.058 -0.034  0.004   -0.003  0.002 -0.010    0.001  0.002  0.001
 H         -0.040  0.112 -0.050    0.015  0.012  0.010    0.000 -0.002 -0.002
 H         -0.104 -0.032 -0.076    0.001 -0.019  0.005   -0.002  0.002  0.001
 H         -0.573 -0.142 -0.265   -0.041  0.660 -0.153   -0.063  0.694 -0.185
 H         -0.254  0.575 -0.176   -0.547 -0.382 -0.295    0.505  0.328  0.287
 O          0.008 -0.004  0.003    0.002 -0.001 -0.002    0.000  0.000 -0.000
 H         -0.049  0.199 -0.111    0.026  0.017  0.012   -0.091 -0.054 -0.044
 H         -0.170 -0.067 -0.144    0.002 -0.027  0.005    0.016 -0.111  0.024
 H         -0.017  0.008  0.003    0.008 -0.004  0.000    0.001  0.002  0.000
 TransDip   0.009  0.004 -0.075    0.202 -0.096  0.100   -0.077 -0.189 -0.018

 Mode:                25                     26                     27
 Frequency:      3051.78                3066.80                3102.52
 Force Cnst:      5.6882                 5.8732                 6.2580
 Red. Mass:       1.0366                 1.0599                 1.1035
 IR Active:          YES                    YES                    YES
 IR Intens:       27.591                 26.777                  1.439
 Raman Active:       YES                    YES                    YES
               X      Y      Z        X      Y      Z        X      Y      Z
 C          0.046 -0.020 -0.009   -0.001  0.001 -0.009    0.024  0.052  0.006
 C         -0.003  0.002 -0.001    0.051 -0.026  0.036   -0.029 -0.066 -0.007
 C          0.001 -0.000  0.002    0.003 -0.001  0.001   -0.005 -0.012 -0.001
 H          0.003 -0.057  0.463    0.003 -0.014  0.109    0.006  0.013  0.008
 H         -0.481 -0.312 -0.237    0.004  0.004  0.000   -0.344 -0.211 -0.171
 H         -0.061  0.610 -0.129   -0.001 -0.001 -0.002    0.052 -0.424  0.095
 H         -0.001  0.016 -0.005   -0.002  0.027 -0.006   -0.006  0.086 -0.024
 H         -0.015 -0.011 -0.010   -0.026 -0.017 -0.013    0.064  0.043  0.037
 O          0.000  0.000 -0.000   -0.000  0.000  0.000    0.000  0.000  0.000
 H          0.027  0.016  0.012   -0.546 -0.360 -0.278    0.416  0.255  0.217
 H          0.005 -0.032  0.006   -0.062  0.671 -0.149   -0.064  0.535 -0.131
 H          0.001 -0.000  0.000   -0.002  0.001  0.001    0.000  0.001  0.000
 TransDip   0.150 -0.063 -0.044    0.136 -0.067  0.067   -0.013 -0.036 -0.004

 Mode:                28                     29                     30
 Frequency:      3126.10                3134.05                3934.32
 Force Cnst:      6.3563                 6.3710                 9.7276
 Red. Mass:       1.1040                 1.1009                 1.0666
 IR Active:          YES                    YES                    YES
 IR Intens:       61.720                 30.124                 38.945
 Raman Active:       YES                    YES                    YES
               X      Y      Z        X      Y      Z        X      Y      Z
 C         -0.030 -0.066 -0.007   -0.023  0.020 -0.087   -0.000  0.000 -0.000
 C         -0.024 -0.053 -0.006   -0.006  0.003 -0.004    0.000 -0.000  0.000
 C         -0.004 -0.009 -0.001   -0.001  0.000  0.000   -0.002  0.001 -0.001
 H         -0.006 -0.014 -0.008   -0.014 -0.098  0.871    0.000 -0.000  0.000
 H          0.436  0.264  0.211    0.260  0.173  0.111    0.000  0.000  0.000
 H         -0.070  0.535 -0.116    0.030 -0.315  0.049    0.000 -0.000 -0.000
 H         -0.004  0.067 -0.021   -0.000 -0.006  0.003   -0.002 -0.000  0.002
 H          0.051  0.035  0.033    0.005  0.004  0.004   -0.002  0.001  0.002
 O          0.000  0.000  0.000    0.000 -0.000  0.000    0.005  0.005 -0.062
 H          0.333  0.204  0.170    0.057  0.036  0.028    0.000  0.001  0.001
 H         -0.052  0.422 -0.100    0.008 -0.070  0.015   -0.000 -0.001  0.001
 H          0.000  0.000  0.000    0.000  0.000 -0.001   -0.055 -0.092  0.992
 TransDip  -0.103 -0.228 -0.025   -0.047  0.039 -0.165   -0.060  0.005  0.191

 STANDARD THERMODYNAMIC QUANTITIES AT   298.15 K  AND     1.00 ATM

   This Molecule has  0 Imaginary Frequencies
   Zero point vibrational energy:       68.609 kcal/mol

   Atom    1 Element C  Has Mass   12.00000
   Atom    2 Element C  Has Mass   12.00000
   Atom    3 Element C  Has Mass   12.00000
   Atom    4 Element H  Has Mass    1.00783
   Atom    5 Element H  Has Mass    1.00783
   Atom    6 Element H  Has Mass    1.00783
   Atom    7 Element H  Has Mass    1.00783
   Atom    8 Element H  Has Mass    1.00783
   Atom    9 Element O  Has Mass   15.99491
   Atom   10 Element H  Has Mass    1.00783
   Atom   11 Element H  Has Mass    1.00783
   Atom   12 Element H  Has Mass    1.00783
   Molecular Mass:    60.057550 amu
   Principal axes and moments of inertia in amu*Bohr^2:
                             1           2           3
    Eigenvalues --       67.28781   471.37346   505.15221
          X              -0.63752     0.64935     0.41462
          Y               0.20422    -0.37649     0.90363
          Z               0.74287     0.66076     0.10741
   Rotational Symmetry Number is   1
   The Molecule is an Asymmetric Top
   Translational Enthalpy:        0.889 kcal/mol
   Rotational Enthalpy:           0.889 kcal/mol
   Vibrational Enthalpy:         70.327 kcal/mol
   gas constant (RT):             0.592 kcal/mol
   Translational Entropy:        38.198  cal/mol.K
   Rotational Entropy:           24.286  cal/mol.K
   Vibrational Entropy:           9.741  cal/mol.K

   Total Enthalpy:               72.697 kcal/mol
   Total Entropy:                72.225  cal/mol.K
Archival summary:
1\1\centos77-c9\FREQ\ProcedureUnspecified\BasisUnspecified\138\victor\ThuNov1123:22:022021ThuNov1123:22:022021\0\\#,FREQ,ProcedureUnspecified,BasisUnspecified,\\0,1\C\H,1,1.09721\H,1,1.09722,2,107.538\O,1,1.41546,2,110.71,3,121.07,0\H,4,0.95591,1,109.281,2,-59.5984,0\C,1,1.51414,2,109.612,3,-119.12,0\H,6,1.09167,1,108.613,2,-63.1831,0\H,6,1.09169,1,108.602,2,-178.928,0\C,6,1.52329,1,112.007,2,58.948,0\H,9,1.08939,6,111.084,1,179.967,0\H,9,1.09154,6,111.265,1,60.0075,0\H,9,1.09156,6,111.28,1,-60.0732,0\\\@

 Total job time:  397.18s(wall), 3068.12s(cpu)
 Thu Nov 11 23:22:02 2021

        *************************************************************
        *                                                           *
        *  Thank you very much for using Q-Chem.  Have a nice day.  *
        *                                                           *
        *************************************************************

