3
# Point -4 Energy = 0.07177115999996886
N       -0.4577981833     0.6485799627     0.0000000000
O       0.5408477148     0.2966791914     0.0000000000
O       -1.4677395317     0.3302708459     0.0000000000
3
# Point -3 Energy = 0.037282869999984314
N       -0.4574799653     0.6679402857     0.0000000000
O       0.5637104399     0.2866126654     0.0000000000
O       -1.4909204747     0.3209770489     0.0000000000
3
# Point -2 Energy = 0.015330249999976786
N       -0.4571509823     0.6879459960     0.0000000000
O       0.5858250268     0.2762358525     0.0000000000
O       -1.5133640446     0.3113481515     0.0000000000
3
# Point -1 Energy = 0.0035534999999526917
N       -0.4568114392     0.7085852493     0.0000000000
O       0.6071636119     0.2655551449     0.0000000000
O       -1.5350421728     0.3013896057     0.0000000000
3
# Point 0 Energy = 0
N       -0.4564615492     0.7298457322     0.0000000000
O       0.6276987432     0.2545771624     0.0000000000
O       -1.5559271941     0.2911071054     0.0000000000
3
# Point 1 Energy = 0.0030358699999339933
N       -0.4561015334     0.7517146679     0.0000000000
O       0.6474033962     0.2433087487     0.0000000000
O       -1.5759918630     0.2805065834     0.0000000000
3
# Point 2 Energy = 0.011278250000003709
N       -0.4557316207     0.7741788229     0.0000000000
O       0.6662509906     0.2317569682     0.0000000000
O       -1.5952093700     0.2695942088     0.0000000000
3
# Point 3 Energy = 0.02359659000001102
N       -0.4553520482     0.7972245133     0.0000000000
O       0.6842154062     0.2199291028     0.0000000000
O       -1.6135533581     0.2583763839     0.0000000000
3
# Point 4 Energy = 0.03906909000002656
N       -0.4549630603     0.8208376114     0.0000000000
O       0.7012709985     0.2078326476     0.0000000000
O       -1.6309979382     0.2468597410     0.0000000000
3
# Point 5 Energy = 0.05692569999996522
N       -0.4545649093     0.8450035533     0.0000000000
O       0.7173926146     0.1954753075     0.0000000000
O       -1.6475177054     0.2350511392     0.0000000000

    This sampling was finished on:   2020-07-13 14:55:19
=------------------------------------------------------------------------------=
Sampling finished.
=------------------------------------------------------------------------------=