3
# Point -7 Energy = 0.05448544000000766
N       -0.4606954987     0.4800024313     0.0000000000
O       0.7402833541     0.3776402547     0.0000000000
O       -1.6642778555     0.4178873140     0.0000000000
3
# Point -6 Energy = 0.04461929000001419
N       -0.4600643419     0.5172638048     0.0000000000
O       0.7317440817     0.3591486287     0.0000000000
O       -1.6563697399     0.3991175666     0.0000000000
3
# Point -5 Energy = 0.03354207999993264
N       -0.4594398588     0.5541323497     0.0000000000
O       0.7206181113     0.3408967491     0.0000000000
O       -1.6458682526     0.3805009012     0.0000000000
3
# Point -4 Energy = 0.022893250000009857
N       -0.4588233333     0.5905283145     0.0000000000
O       0.7069431959     0.3229238696     0.0000000000
O       -1.6328098627     0.3620778159     0.0000000000
3
# Point -3 Energy = 0.01363464999997177
N       -0.4582160246     0.6263734014     0.0000000000
O       0.6907625828     0.3052684276     0.0000000000
O       -1.6172365583     0.3438881710     0.0000000000
3
# Point -2 Energy = 0.006396639999962872
N       -0.4576191636     0.6615909352     0.0000000000
O       0.6721248883     0.2879679630     0.0000000000
O       -1.5991957248     0.3259711018     0.0000000000
3
# Point -1 Energy = 0.0016864299999781451
N       -0.4570339501     0.6961060267     0.0000000000
O       0.6510839628     0.2710590384     0.0000000000
O       -1.5787400129     0.3083649349     0.0000000000
3
# Point 0 Energy = 0
N       -0.4564615492     0.7298457322     0.0000000000
O       0.6276987432     0.2545771624     0.0000000000
O       -1.5559271941     0.2911071054     0.0000000000
3
# Point 1 Energy = 0.0018813399999828562
N       -0.4559030889     0.7627392070     0.0000000000
O       0.6020330953     0.2385567158     0.0000000000
O       -1.5308200065     0.2742340772     0.0000000000
3
# Point 2 Energy = 0.00799003999998149
N       -0.4553596567     0.7947178543     0.0000000000
O       0.5741556459     0.2230308806     0.0000000000
O       -1.5034859892     0.2577812651     0.0000000000
3
# Point 3 Energy = 0.01917007999998077
N       -0.4548322971     0.8257154672     0.0000000000
O       0.5441396044     0.2080315727     0.0000000000
O       -1.4739973074     0.2417829601     0.0000000000
3
# Point 4 Energy = 0.03652585999998337
N       -0.4543220085     0.8556683658     0.0000000000
O       0.5120625756     0.1935893772     0.0000000000
O       -1.4424305672     0.2262722570     0.0000000000
3
# Point 5 Energy = 0.07232779999998229
N       -0.4538297411     0.8845155272     0.0000000000
O       0.4780063635     0.1797334877     0.0000000000
O       -1.4088666225     0.2112809850     0.0000000000

    This sampling was finished on:   2020-07-13 14:55:19
=------------------------------------------------------------------------------=
Sampling finished.
=------------------------------------------------------------------------------=