3
# Point -4 Energy = 0.07228492999999503
N       -0.3420567294     0.7238725355     0.0000000000
O       0.5725802918     0.2816041069     0.0000000000
O       -1.6152135625     0.2700533576     0.0000000000
3
# Point -3 Energy = 0.038601389999939784
N       -0.3706090095     0.7261220989     0.0000000000
O       0.5860253073     0.2744433229     0.0000000000
O       -1.6001062979     0.2749645782     0.0000000000
3
# Point -2 Energy = 0.01652616000001217
N       -0.3992006841     0.7278696598     0.0000000000
O       0.5996963974     0.2675566851     0.0000000000
O       -1.5851857134     0.2801036551     0.0000000000
3
# Point -1 Energy = 0.004044479999976147
N       -0.4278216333     0.7291116222     0.0000000000
O       0.6135891491     0.2609372209     0.0000000000
O       -1.5704575159     0.2854811569     0.0000000000
3
# Point 0 Energy = 0
N       -0.4564615492     0.7298457322     0.0000000000
O       0.6276987432     0.2545771624     0.0000000000
O       -1.5559271941     0.2911071054     0.0000000000
3
# Point 1 Energy = 0.0040435399999694255
N       -0.4851100171     0.7300711036     0.0000000000
O       0.6420199924     0.2484679970     0.0000000000
O       -1.5415999754     0.2969908994     0.0000000000
3
# Point 2 Energy = 0.01652412999999342
N       -0.5137565978     0.7297882274     0.0000000000
O       0.6565473823     0.2426005281     0.0000000000
O       -1.5274807846     0.3031412445     0.0000000000
3
# Point 3 Energy = 0.03860594000002493
N       -0.5423909106     0.7289989652     0.0000000000
O       0.6712751153     0.2369649431     0.0000000000
O       -1.5135742048     0.3095660918     0.0000000000
3
# Point 4 Energy = 0.07230225999998652
N       -0.5710027154     0.7277065274     0.0000000000
O       0.6861971559     0.2315508879     0.0000000000
O       -1.4998844406     0.3162725847     0.0000000000

    This sampling was finished on:   2020-07-13 14:55:19
=------------------------------------------------------------------------------=
Sampling finished.
=------------------------------------------------------------------------------=