3
# Point -2 Energy = 0.038266320000005294
O       -4.3727477243     2.5035913091     0.0354184663
H       -3.5518335313     2.5696497650     -0.0097639120
H       -4.7596987444     3.3476989259     -0.5419745543
3
# Point -1 Energy = 0.00919367000000193
O       -4.4129484723     2.5238060067     0.0215909276
H       -3.5241583228     2.5734407401     -0.0123569253
H       -4.7471732050     3.3236932532     -0.5255540023
3
# Point 0 Energy = 0
O       -4.4518929808     2.5457599720     0.0065736898
H       -3.4957324312     2.5754742893     -0.0137478108
H       -4.7366545880     3.2997057387     -0.5091458790
3
# Point 1 Energy = 0.009345719999998892
O       -4.4894066394     2.5693835012     -0.0095855671
H       -3.4665826167     2.5758328755     -0.0139929753
H       -4.7282907439     3.2757236233     -0.4927414576
3
# Point 2 Energy = 0.039494309999994925
O       -4.5253402055     2.5945747095     -0.0268171508
H       -3.4367388215     2.5746251034     -0.0131667074
H       -4.7222009730     3.2517401871     -0.4763361419

    This sampling was finished on:   2020-07-28 16:52:28
=------------------------------------------------------------------------------=
Sampling finished.
=------------------------------------------------------------------------------=