3
# Point -2 Energy = 0.0264261399999981
O       -4.4843313253     2.5102780221     0.0308441309
H       -3.3920349002     2.5428047720     0.0085994034
H       -4.8079137745     3.3678572059     -0.5557635343
3
# Point -1 Energy = 0.007622459999993225
O       -4.4681190398     2.5280111312     0.0187142908
H       -3.4438910471     2.5591498134     -0.0025812374
H       -4.7722699131     3.3337790554     -0.5324530534
3
# Point 0 Energy = 0
O       -4.4518929808     2.5457599720     0.0065736898
H       -3.4957324312     2.5754742893     -0.0137478108
H       -4.7366545880     3.2997057387     -0.5091458790
3
# Point 1 Energy = 0.010426420000001713
O       -4.4356530797     2.5635246422     -0.0055777389
H       -3.5475590025     2.5917780775     -0.0249002333
H       -4.7010679178     3.2656372802     -0.4858420279

    This sampling was finished on:   2020-07-28 16:52:28
=------------------------------------------------------------------------------=
Sampling finished.
=------------------------------------------------------------------------------=