3
# Point -2 Energy = 0.016870810000000347
O       -4.5139824399     2.4733318426     0.0561161542
H       -3.5761953506     2.6767787057     -0.0830429786
H       -4.5941022095     3.2708294517     -0.4893931756
3
# Point -1 Energy = 0.004016260000000216
O       -4.4842825997     2.5079744453     0.0324198373
H       -3.5314793339     2.6246868158     -0.0474105971
H       -4.6685180664     3.2882787389     -0.5013292402
3
# Point 0 Energy = 0
O       -4.4518929808     2.5457599720     0.0065736898
H       -3.4957324312     2.5754742893     -0.0137478108
H       -4.7366545880     3.2997057387     -0.5091458790
3
# Point 1 Energy = 0.00339995000000215
O       -4.4172406981     2.5861888490     -0.0210805686
H       -3.4692709624     2.5296996519     0.0175633328
H       -4.7977683395     3.3050514991     -0.5128027643
3
# Point 2 Energy = 0.01225691000000495
O       -4.3807750309     2.6287357664     -0.0501836140
H       -3.4522936510     2.4878723401     0.0461743653
H       -4.8512113181     3.3043318935     -0.5123107513

    This sampling was finished on:   2020-07-28 16:52:28
=------------------------------------------------------------------------------=
Sampling finished.
=------------------------------------------------------------------------------=