                  Welcome to Q-Chem
     A Quantum Leap Into The Future Of Chemistry


 Q-Chem 5.2 (devel), Q-Chem, Inc., Pleasanton, CA (2019)

 Yihan Shao,  Zhengting Gan,  E. Epifanovsky,  A. T. B. Gilbert,  M. Wormit,  
 J. Kussmann,  A. W. Lange,  A. Behn,  Jia Deng,  Xintian Feng,  D. Ghosh,  
 M. Goldey,  P. R. Horn,  L. D. Jacobson,  I. Kaliman,  T. Kus,  A. Landau,  
 Jie Liu,  E. I. Proynov,  R. M. Richard,  R. P. Steele,  E. J. Sundstrom,  
 H. L. Woodcock III,  P. M. Zimmerman,  D. Zuev,  B. Alam,  B. Albrecht,  
 E. Alguire,  S. A. Baeppler,  D. Barton,  Z. Benda,  Y. A. Bernard,  
 E. J. Berquist,  K. B. Bravaya,  H. Burton,  K. Carter-Fenk,  D. Casanova,  
 Chun-Min Chang,  Yunqing Chen,  A. Chien,  K. D. Closser,  M. P. Coons,  
 S. Coriani,  S. Dasgupta,  A. L. Dempwolff,  M. Diedenhofen,  Hainam Do,  
 R. G. Edgar,  Po-Tung Fang,  S. Faraji,  S. Fatehi,  Qingguo Feng,  
 J. Fosso-Tande,  J. Gayvert,  Qinghui Ge,  A. Ghysels,  G. Gidofalvi,  
 J. Gomes,  J. Gonthier,  A. Gunina,  D. Hait,  M. W. D. Hanson-Heine,  
 P. H. P. Harbach,  A. W. Hauser,  M. F. Herbst,  J. E. Herr,  
 E. G. Hohenstein,  Z. C. Holden,  Kerwin Hui,  B. C. Huynh,  T.-C. Jagau,  
 Hyunjun Ji,  B. Kaduk,  K. Khistyaev,  Jaehoon Kim,  P. Klunzinger,  K. Koh,  
 D. Kosenkov,  L. Koulias,  T. Kowalczyk,  C. M. Krauter,  A. Kunitsa,  
 Ka Un Lao,  A. Laurent,  K. V. Lawler,  Joonho Lee,  D. Lefrancois,  
 S. Lehtola,  D. S. Levine,  Yi-Pei Li,  You-Sheng Lin,  Fenglai Liu,  
 Kuan-Yu Liu,  E. Livshits,  M. Loipersberger,  A. Luenser,  P. Manohar,  
 E. Mansoor,  S. F. Manzer,  Shan-Ping Mao,  Yuezhi Mao,  N. Mardirossian,  
 A. V. Marenich,  T. Markovich,  L. A. Martinez-Martinez,  S. A. Maurer,  
 N. J. Mayhall,  S. C. McKenzie,  J.-M. Mewes,  P. Morgante,  A. F. Morrison,  
 J. W. Mullinax,  K. Nanda,  T. S. Nguyen-Beck,  R. Olivares-Amaya,  
 J. A. Parkhill,  S. K. Paul,  Zheng Pei,  T. M. Perrine,  F. Plasser,  
 P. Pokhilko,  S. Prager,  A. Prociuk,  E. Ramos,  B. Rana,  D. R. Rehn,  
 F. Rob,  M. Scheurer,  M. Schneider,  N. Sergueev,  S. M. Sharada,  
 S. Sharma,  D. W. Small,  T. Stauch,  C. J. Stein,  T. Stein,  Yu-Chuan Su,  
 S. P. Veccham,  A. J. W. Thom,  A. Tkatchenko,  T. Tsuchimochi,  
 N. M. Tubman,  L. Vogt,  M. L. Vidal,  O. Vydrov,  M. A. Watson,  J. Wenzel,  
 M. de Wergifosse,  T. A. Wesolowski,  A. White,  J. Witte,  A. Yamada,  
 Jun Yang,  K. Yao,  S. Yeganeh,  S. R. Yost,  Zhi-Qiang You,  A. Zech,  
 Igor Ying Zhang,  Xing Zhang,  Yan Zhao,  Ying Zhu,  B. R. Brooks,  
 G. K. L. Chan,  C. J. Cramer,  M. S. Gordon,  W. J. Hehre,  A. Klamt,  
 M. W. Schmidt,  C. D. Sherrill,  D. G. Truhlar,  A. Aspuru-Guzik,  R. Baer,  
 A. T. Bell,  N. A. Besley,  Jeng-Da Chai,  A. E. DePrince, III,  
 R. A. DiStasio Jr.,  A. Dreuw,  B. D. Dunietz,  T. R. Furlani,  
 Chao-Ping Hsu,  Yousung Jung,  Jing Kong,  D. S. Lambrecht,  WanZhen Liang,  
 C. Ochsenfeld,  V. A. Rassolov,  L. V. Slipchenko,  J. E. Subotnik,  
 T. Van Voorhis,  J. M. Herbert,  A. I. Krylov,  P. M. W. Gill,  M. Head-Gordon

 Contributors to earlier versions of Q-Chem not listed above: 
 R. D. Adamson,  B. Austin,  J. Baker,  G. J. O. Beran,  K. Brandhorst,  
 S. T. Brown,  E. F. C. Byrd,  A. K. Chakraborty,  C.-L. Cheng,  
 Siu Hung Chien,  D. M. Chipman,  D. L. Crittenden,  H. Dachsel,  
 R. J. Doerksen,  A. D. Dutoi,  L. Fusti-Molnar,  W. A. Goddard III,  
 A. Golubeva-Zadorozhnaya,  S. R. Gwaltney,  G. Hawkins,  A. Heyden,  
 S. Hirata,  G. Kedziora,  F. J. Keil,  C. Kelley,  Jihan Kim,  R. A. King,  
 R. Z. Khaliullin,  P. P. Korambath,  W. Kurlancheek,  A. M. Lee,  M. S. Lee,  
 S. V. Levchenko,  Ching Yeh Lin,  D. Liotard,  R. C. Lochan,  I. Lotan,  
 P. E. Maslen,  N. Nair,  D. P. O'Neill,  D. Neuhauser,  E. Neuscamman,  
 C. M. Oana,  R. Olson,  B. Peters,  R. Peverati,  P. A. Pieniazek,  
 Y. M. Rhee,  J. Ritchie,  M. A. Rohrdanz,  E. Rosta,  N. J. Russ,  
 H. F. Schaefer III,  N. E. Schultz,  N. Shenvi,  A. C. Simmonett,  A. Sodt,  
 D. Stuck,  K. S. Thanthiriwatte,  V. Vanovschi,  Tao Wang,  A. Warshel,  
 C. F. Williams,  Q. Wu,  X. Xu,  W. Zhang

 Please cite Q-Chem as follows:
 Y. Shao et al., Mol. Phys. 113, 184-215 (2015)
 DOI: 10.1080/00268976.2014.952696

 Q-Chem 5.2.2 for Intel X86 EM64T Linux

 Parts of Q-Chem use Armadillo 9.800.1 (Horizon Scraper).
 http://arma.sourceforge.net/

 Q-Chem begins on Sun Apr 12 04:23:29 2020  

Host: cn0821
0

     Scratch files written to /tmp/ypli/6720986.srvc1/qchem158894//
Warning:  Did not find "$end" marker in "$molecule" section

Checking the input file for inconsistencies... 	...done.

--------------------------------------------------------------
User input:
--------------------------------------------------------------
$rem
   JOBTYPE  sp
   EXCHANGE   omegaB97X-D
   BASIS   6-311+G(2df,2pd)
   max_scf_cycles   250
   geom_opt_max_cycles   1500
   basis2 6-31G*
   scf_algorithm rca_diis
   SYM_IGNORE  TRUE
   print_input   true
   geom_opt_dmax   80
   pop_mulliken false
   XC_GRID 000075000302
$end

$molecule
0 1
C       1.2610961083     -0.0722753829     0.2769498325
C       -0.0181159644     -0.2507921701     -0.5320430523
H       2.0930252625     -0.6062596454     -0.1866989802
H       1.1406184332     -0.4658301017     1.2882920614
H       1.5419896715     0.9782691827     0.3583039377
C       -1.2499566457     0.2630862591     0.2036356705
H       -0.1522747690     -1.3080033000     -0.7730131691
H       0.0793510108     0.2701204962     -1.4875066775
H       -1.3863653108     -0.2636213680     1.1502881742
H       -2.1564284806     0.1285397877     -0.3874047146
H       -1.1529393763     1.3267669084     0.4302419363
--------------------------------------------------------------
 ----------------------------------------------------------------
             Standard Nuclear Orientation (Angstroms)
    I     Atom           X                Y                Z
 ----------------------------------------------------------------
    1      C       1.2610961083    -0.0722753829     0.2769498325
    2      C      -0.0181159644    -0.2507921701    -0.5320430523
    3      H       2.0930252625    -0.6062596454    -0.1866989802
    4      H       1.1406184332    -0.4658301017     1.2882920614
    5      H       1.5419896715     0.9782691827     0.3583039377
    6      C      -1.2499566457     0.2630862591     0.2036356705
    7      H      -0.1522747690    -1.3080033000    -0.7730131691
    8      H       0.0793510108     0.2701204962    -1.4875066775
    9      H      -1.3863653108    -0.2636213680     1.1502881742
   10      H      -2.1564284806     0.1285397877    -0.3874047146
   11      H      -1.1529393763     1.3267669084     0.4302419363
 ----------------------------------------------------------------
 Nuclear Repulsion Energy =          82.72482798 hartrees
 There are       13 alpha and       13 beta electrons
 Requested basis set is 6-311+G(2df,2pd)
 There are 72 shells and 214 basis functions

 Total QAlloc Memory Limit   2000 MB
 Mega-Array Size       188 MB
 MEM_STATIC part       192 MB

                       Distance Matrix (Angstroms)
             C (  1)   C (  2)   H (  3)   H (  4)   H (  5)   C (  6)
   C (  2)  1.524048
   H (  3)  1.091886  2.168533
   H (  4)  1.091885  2.168531  1.761362
   H (  5)  1.090488  2.176520  1.763916  1.763916
   C (  6)  2.534409  1.524049  3.476155  2.724454  2.886239
   H (  7)  2.151061  1.092593  2.424372  2.574841  3.062263  2.151063
   H (  8)  2.151061  1.092594  2.552455  3.061531  2.459228  2.151063
   H (  9)  2.794349  2.168527  3.743140  2.538815  3.277925  1.091870
   H ( 10)  3.487287  2.176509  4.317183  3.745898  3.867353  1.090469
   H ( 11)  2.794349  2.168527  3.827988  3.034808  2.718321  1.091870
             H (  7)   H (  8)   H (  9)   H ( 10)
   H (  8)  1.747749
   H (  9)  2.512529  3.064501
   H ( 10)  2.495793  2.495792  1.763884
   H ( 11)  3.064501  2.512529  1.761332  1.763883
 
 A cutoff of  1.0D-09 yielded   2532 shell pairs
 There are     22550 function pairs (     27725 Cartesian)
 Smallest overlap matrix eigenvalue = 8.63E-05

 Scale SEOQF with 1.000000e-01/1.000000e-01/1.000000e-01

 Standard Electronic Orientation quadrupole field applied
 Nucleus-field energy     =     0.0000000007 hartrees
 Requested basis set is 6-31G(d)
 There are 28 shells and 58 basis functions
 A cutoff of  1.0D-09 yielded    402 shell pairs
 There are      1773 function pairs (      1968 Cartesian)
 Smallest overlap matrix eigenvalue = 6.75E-03
 Guess from superposition of atomic densities
 Warning:  Energy on first SCF cycle will be non-variational
 SAD guess density has 26.000000 electrons
 Long-range K will be added via erf
 Coulomb attenuation parameter = 0.2 bohr**(-1)
 A restricted hybrid HF-DFT SCF calculation will be
 performed using Relaxed Constraint Minimization + Pulay DIIS
 Exchange:     0.2220 Hartree-Fock + 1.0000 wB97X-D + LR-HF
 Correlation:  1.0000 wB97X-D
 Using Euler-Maclaurin-Lebedev (75,302) quadrature formula
 Dispersion:   Grimme D
 SCF converges when DIIS error is below 1.0E-04
 using 3 threads for integral computing
 -------------------------------------------------------
 OpenMP Integral computing Module                
 Release: version 1.0, May 2013, Q-Chem Inc. Pittsburgh 
 -------------------------------------------------------
 using 3 threads for integral computing
 -------------------------------------------------------
 OpenMP Integral computing Module                
 Release: version 1.0, May 2013, Q-Chem Inc. Pittsburgh 
 -------------------------------------------------------
 ---------------------------------------
  Cycle       Energy         DIIS Error
 ---------------------------------------
    1    -119.6182939341      1.00E-01
    2    -119.0665103045      9.00E-03
    3    -119.0875895666      2.46E-03
    4    -119.1014682403      1.68E-03
    5    -119.1021639740      2.67E-04 Done RCA. Switching to DIIS
    6    -119.1026734894      1.97E-04
    7    -119.1026903370      4.48E-06 Convergence criterion met
 ---------------------------------------
 SCF time:  CPU 25.61 s  wall 8.76 s
 SCF   energy in the small basis set = -119.10269034
 Total energy in the small basis set = -119.10269034
 ----------------------------------------------------
  Cycle       Energy    
 ----------------------------------------------------
    1     -16.5395395873     -1.65E+01
 Long-range K will be added via erf
 Coulomb attenuation parameter = 0.2 bohr**(-1)
 A restricted hybrid HF-DFT SCF calculation will be
 performed using Relaxed Constraint Minimization + Pulay DIIS
 Exchange:     0.2220 Hartree-Fock + 1.0000 wB97X-D + LR-HF
 Correlation:  1.0000 wB97X-D
 Using Euler-Maclaurin-Lebedev (75,302) quadrature formula
 Dispersion:   Grimme D
 SCF converges when DIIS error is below 1.0E-05
 Basis2 calculation detected. Using small basis as guess for larger.
 SCFMinFind is unable to tell whether the solution found is close.
 Resetting ReadMinima to 0 and attempting to follow guess.
 SCFMinFind following SCF Guess.
 using 3 threads for integral computing
 -------------------------------------------------------
 OpenMP Integral computing Module                
 Release: version 1.0, May 2013, Q-Chem Inc. Pittsburgh 
 -------------------------------------------------------
 using 3 threads for integral computing
 -------------------------------------------------------
 OpenMP Integral computing Module                
 Release: version 1.0, May 2013, Q-Chem Inc. Pittsburgh 
 -------------------------------------------------------
 ---------------------------------------
  Cycle       Energy         DIIS Error
 ---------------------------------------
    1    -119.1217602374      4.21E-03
    2    -119.1437934136      5.97E-04 Done RCA. Switching to DIIS
    3    -119.1446249463      4.18E-04
    4    -119.1455812028      4.55E-05
    5    -119.1455959015      1.01E-05
    6    -119.1455965834      3.85E-06 Convergence criterion met
 ---------------------------------------
 SCF time:  CPU 81.06 s  wall 27.35 s
 SCF   energy in the final basis set = -119.14559658
 Total energy in the final basis set = -119.14559658
 
 --------------------------------------------------------------
 
                    Orbital Energies (a.u.)
 --------------------------------------------------------------
 
 Alpha MOs
 -- Occupied --
-10.2739 -10.2650 -10.2650  -0.8811  -0.7771  -0.6776  -0.5458  -0.5238
 -0.4827  -0.4643  -0.4182  -0.4174  -0.4074
 -- Virtual --
  0.0691   0.0861   0.0910   0.0990   0.1250   0.1302   0.1333   0.1417
  0.1440   0.1704   0.1724   0.1912   0.2314   0.2400   0.2455   0.2621
  0.2830   0.2877   0.3110   0.3139   0.3350   0.3493   0.4583   0.4668
  0.4714   0.5096   0.5119   0.5174   0.5436   0.5613   0.5844   0.5862
  0.6220   0.6259   0.6400   0.6440   0.6541   0.6590   0.7085   0.7238
  0.7275   0.7664   0.8172   0.8649   0.8709   0.8786   0.8849   0.9593
  1.0007   1.0417   1.0697   1.1367   1.1400   1.1791   1.1918   1.2039
  1.2384   1.2433   1.2584   1.2752   1.2876   1.2944   1.3314   1.3662
  1.3829   1.3908   1.4045   1.4521   1.4612   1.4707   1.4730   1.4894
  1.5234   1.5748   1.6085   1.6140   1.6389   1.6446   1.6800   1.6975
  1.7412   2.3724   2.4525   2.4802   2.5013   2.5487   2.5587   2.6016
  2.6345   2.7069   2.8178   2.8340   2.8401   2.9051   2.9288   2.9312
  2.9366   2.9426   3.0028   3.0184   3.0544   3.0701   3.0787   3.1011
  3.1343   3.1369   3.1735   3.1915   3.2025   3.2288   3.2816   3.3036
  3.3211   3.3377   3.3433   3.3500   3.3698   3.3819   3.3992   3.4432
  3.4614   3.4878   3.4938   3.5176   3.5661   3.5787   3.5998   3.6192
  3.6236   3.6784   3.6812   3.7046   3.7787   3.7994   3.8771   3.8860
  3.9272   3.9369   3.9550   3.9648   3.9728   3.9956   4.0541   4.0634
  4.0792   4.0991   4.1095   4.1404   4.1559   4.1594   4.1884   4.2037
  4.2173   4.2460   4.2715   4.3680   4.3914   4.4032   4.4122   4.4279
  4.4448   4.5679   4.5891   4.6021   4.6598   4.8094   4.8286   4.9023
  4.9396   4.9600   4.9619   4.9736   5.0336   5.0472   5.0548   5.1061
  5.1266   5.2387   5.2475   5.2745   5.3063   5.3504   5.3548   5.3672
  5.3749   5.3921   5.4455   5.4992   5.5439   5.5551   5.6310   5.7373
  5.9539   6.3835   6.3846   6.3928   6.4151   6.4682  25.1982  25.4391
 25.4539
 --------------------------------------------------------------
 
 -----------------------------------------------------------------
                    Cartesian Multipole Moments
 -----------------------------------------------------------------
    Charge (ESU x 10^10)
                -0.0000
    Dipole Moment (Debye)
         X       0.0006      Y      -0.0359      Z      -0.0803
       Tot       0.0880
    Quadrupole Moments (Debye-Ang)
        XX     -22.1808     XY       0.1079     YY     -21.4331
        XZ      -0.0293     YZ      -0.1749     ZZ     -21.7592
    Octopole Moments (Debye-Ang^2)
       XXX      -0.1513    XXY      -0.3537    XYY       0.4457
       YYY       1.1693    XXZ      -1.3572    XYZ       0.2253
       YYZ      -0.1702    XZZ      -0.2108    YZZ      -0.1524
       ZZZ      -0.1411
    Hexadecapole Moments (Debye-Ang^3)
      XXXX    -200.2855   XXXY       9.8533   XXYY     -41.9917
      XYYY      10.7933   YYYY     -49.7998   XXXZ      -1.9931
      XXYZ      -0.9894   XYYZ      -1.1622   YYYZ      -3.1904
      XXZZ     -44.6282   XYZZ       3.5896   YYZZ     -19.7531
      XZZZ      -2.7656   YZZZ      -6.5937   ZZZZ     -65.2738
 -----------------------------------------------------------------
Archival summary:
1\1\cn0821\SP\ProcedureUnspecified\BasisUnspecified\38\r0852400\SunApr1204:24:092020SunApr1204:24:092020\0\\#,ProcedureUnspecified,BasisUnspecified,\\0,1\C\H,1,1.09259\H,1,1.09259,2,106.225\C,1,1.52405,2,109.48,3,-118.121,0\H,4,1.09049,1,111.632,2,168.035,0\H,4,1.09189,1,110.906,2,-71.6661,0\H,4,1.09189,1,110.906,2,47.7368,0\C,1,1.52405,2,109.48,3,118.121,0\H,8,1.09047,1,111.632,2,-58.0358,0\H,8,1.09187,1,110.906,2,62.2627,0\H,8,1.09187,1,110.906,2,-178.334,0\\\@

 Total job time:  40.04s(wall), 111.39s(cpu) 
 Sun Apr 12 04:24:09 2020

        *************************************************************
        *                                                           *
        *  Thank you very much for using Q-Chem.  Have a nice day.  *
        *                                                           *
        *************************************************************


