                  Welcome to Q-Chem
     A Quantum Leap Into The Future Of Chemistry


 Q-Chem 5.3 (devel), Q-Chem, Inc., Pleasanton, CA (2020)

 Yihan Shao,  Zhengting Gan,  E. Epifanovsky,  A. T. B. Gilbert,  M. Wormit,  
 J. Kussmann,  A. W. Lange,  A. Behn,  Jia Deng,  Xintian Feng,  D. Ghosh,  
 M. Goldey,  P. R. Horn,  L. D. Jacobson,  I. Kaliman,  T. Kus,  A. Landau,  
 Jie Liu,  E. I. Proynov,  R. M. Richard,  R. P. Steele,  E. J. Sundstrom,  
 H. L. Woodcock III,  P. M. Zimmerman,  D. Zuev,  B. Alam,  B. Albrecht,  
 E. Alguire,  S. A. Baeppler,  D. Barton,  Z. Benda,  Y. A. Bernard,  
 E. J. Berquist,  K. B. Bravaya,  H. Burton,  K. Carter-Fenk,  D. Casanova,  
 Chun-Min Chang,  Yunqing Chen,  A. Chien,  K. D. Closser,  M. P. Coons,  
 S. Coriani,  S. Dasgupta,  A. L. Dempwolff,  M. Diedenhofen,  Hainam Do,  
 R. G. Edgar,  Po-Tung Fang,  S. Faraji,  S. Fatehi,  Qingguo Feng,  
 J. Fosso-Tande,  J. Gayvert,  Qinghui Ge,  A. Ghysels,  G. Gidofalvi,  
 J. Gomes,  J. Gonthier,  A. Gunina,  D. Hait,  M. W. D. Hanson-Heine,  
 P. H. P. Harbach,  A. W. Hauser,  M. F. Herbst,  J. E. Herr,  
 E. G. Hohenstein,  Z. C. Holden,  Kerwin Hui,  B. C. Huynh,  T.-C. Jagau,  
 Hyunjun Ji,  B. Kaduk,  K. Khistyaev,  Jaehoon Kim,  P. Klunzinger,  K. Koh,  
 D. Kosenkov,  L. Koulias,  T. Kowalczyk,  C. M. Krauter,  A. Kunitsa,  
 Ka Un Lao,  A. Laurent,  K. V. Lawler,  Joonho Lee,  D. Lefrancois,  
 S. Lehtola,  D. S. Levine,  Yi-Pei Li,  You-Sheng Lin,  Fenglai Liu,  
 Kuan-Yu Liu,  E. Livshits,  M. Loipersberger,  A. Luenser,  P. Manohar,  
 E. Mansoor,  S. F. Manzer,  Shan-Ping Mao,  Yuezhi Mao,  N. Mardirossian,  
 A. V. Marenich,  T. Markovich,  L. A. Martinez-Martinez,  S. A. Maurer,  
 N. J. Mayhall,  S. C. McKenzie,  J.-M. Mewes,  P. Morgante,  A. F. Morrison,  
 J. W. Mullinax,  K. Nanda,  T. S. Nguyen-Beck,  R. Olivares-Amaya,  
 K. J. Oosterbaan,  J. A. Parkhill,  S. K. Paul,  F. Pavosevic,  Zheng Pei,  
 T. M. Perrine,  F. Plasser,  P. Pokhilko,  S. Prager,  A. Prociuk,  
 E. Ramos,  B. Rana,  D. R. Rehn,  F. Rob,  M. Scheurer,  M. Schneider,  
 N. Sergueev,  S. M. Sharada,  S. Sharma,  D. W. Small,  T. Stauch,  
 C. J. Stein,  T. Stein,  Yu-Chuan Su,  S. P. Veccham,  Zhen Tao,  
 A. J. W. Thom,  A. Tkatchenko,  T. Tsuchimochi,  N. M. Tubman,  L. Vogt,  
 M. L. Vidal,  O. Vydrov,  M. A. Watson,  J. Wenzel,  M. de Wergifosse,  
 T. A. Wesolowski,  A. White,  J. Witte,  A. Yamada,  Jun Yang,  K. Yao,  
 S. Yeganeh,  S. R. Yost,  Zhi-Qiang You,  A. Zech,  Igor Ying Zhang,  
 Xing Zhang,  Yan Zhao,  Ying Zhu,  B. R. Brooks,  G. K. L. Chan,  
 C. J. Cramer,  M. S. Gordon,  W. J. Hehre,  A. Klamt,  M. W. Schmidt,  
 C. D. Sherrill,  D. G. Truhlar,  A. Aspuru-Guzik,  R. Baer,  A. T. Bell,  
 N. A. Besley,  Jeng-Da Chai,  A. E. DePrince, III,  R. A. DiStasio Jr.,  
 A. Dreuw,  B. D. Dunietz,  T. R. Furlani,  Chao-Ping Hsu,  Yousung Jung,  
 Jing Kong,  D. S. Lambrecht,  WanZhen Liang,  C. Ochsenfeld,  
 V. A. Rassolov,  L. V. Slipchenko,  J. E. Subotnik,  T. Van Voorhis,  
 J. M. Herbert,  A. I. Krylov,  P. M. W. Gill,  M. Head-Gordon

 Contributors to earlier versions of Q-Chem not listed above: 
 R. D. Adamson,  B. Austin,  J. Baker,  G. J. O. Beran,  K. Brandhorst,  
 S. T. Brown,  E. F. C. Byrd,  A. K. Chakraborty,  C.-L. Cheng,  
 Siu Hung Chien,  D. M. Chipman,  D. L. Crittenden,  H. Dachsel,  
 R. J. Doerksen,  A. D. Dutoi,  L. Fusti-Molnar,  W. A. Goddard III,  
 A. Golubeva-Zadorozhnaya,  S. R. Gwaltney,  G. Hawkins,  A. Heyden,  
 S. Hirata,  G. Kedziora,  F. J. Keil,  C. Kelley,  Jihan Kim,  R. A. King,  
 R. Z. Khaliullin,  P. P. Korambath,  W. Kurlancheek,  A. M. Lee,  M. S. Lee,  
 S. V. Levchenko,  Ching Yeh Lin,  D. Liotard,  R. C. Lochan,  I. Lotan,  
 P. E. Maslen,  N. Nair,  D. P. O'Neill,  D. Neuhauser,  E. Neuscamman,  
 C. M. Oana,  R. Olson,  B. Peters,  R. Peverati,  P. A. Pieniazek,  
 Y. M. Rhee,  J. Ritchie,  M. A. Rohrdanz,  E. Rosta,  N. J. Russ,  
 H. F. Schaefer III,  N. E. Schultz,  N. Shenvi,  A. C. Simmonett,  A. Sodt,  
 D. Stuck,  K. S. Thanthiriwatte,  V. Vanovschi,  Tao Wang,  A. Warshel,  
 C. F. Williams,  Q. Wu,  X. Xu,  W. Zhang

 Please cite Q-Chem as follows:
 Y. Shao et al., Mol. Phys. 113, 184-215 (2015)
 DOI: 10.1080/00268976.2014.952696

 Q-Chem 5.3.0 for Intel X86 EM64T Linux

 Parts of Q-Chem use Armadillo 9.800.1 (Horizon Scraper).
 http://arma.sourceforge.net/

 Q-Chem begins on Tue Jul  7 00:32:23 2020  

Host: centos77-c4
0

     Scratch files written to /tmp/26964.centos77-h1/qchem88167//
Processing $rem in /opt/qchem-5.3.0-intel2020u1//config/preferences:
Processing $rem in /home/shihchengli/.qchemrc:

Checking the input file for inconsistencies... 	...done.

--------------------------------------------------------------
User input:
--------------------------------------------------------------
$rem
   JOBTYPE  sp
   EXCHANGE   omegaB97X-D
   BASIS   6-311+G(2df,2pd)
   UNRESTRICTED   False
   max_scf_cycles   250
   geom_opt_max_cycles   1500
   basis2 6-31G*
   scf_algorithm rca_diis
   SYM_IGNORE  TRUE
   print_input   true
   geom_opt_dmax   80
   pop_mulliken false
   XC_GRID 000075000302
$end

$molecule
0 1
C       1.2535135062     -0.1081720217     0.2996108106
C       -0.0420073617     -0.3708769214     -0.4588959880
H       2.0597476487     0.1582053779     -0.3868328655
H       1.5700732333     -0.9967380965     0.8495340794
H       1.1417800333     0.7062279213     1.0161237198
C       -1.2260777643     0.3875259862     0.1289161067
H       -0.2565446719     -1.4421851962     -0.4535094824
H       0.0862053257     -0.0904732194     -1.5070810681
H       -1.3936263509     0.1023841148     1.1694913727
H       -2.1448510687     0.1895017268     -0.4240435598
H       -1.0482125904     1.4646009942     0.1077318934
$end
--------------------------------------------------------------
 ----------------------------------------------------------------
             Standard Nuclear Orientation (Angstroms)
    I     Atom           X                Y                Z
 ----------------------------------------------------------------
    1      C       1.2535135062    -0.1081720217     0.2996108106
    2      C      -0.0420073617    -0.3708769214    -0.4588959880
    3      H       2.0597476487     0.1582053779    -0.3868328655
    4      H       1.5700732333    -0.9967380965     0.8495340794
    5      H       1.1417800333     0.7062279213     1.0161237198
    6      C      -1.2260777643     0.3875259862     0.1289161067
    7      H      -0.2565446719    -1.4421851962    -0.4535094824
    8      H       0.0862053257    -0.0904732194    -1.5070810681
    9      H      -1.3936263509     0.1023841148     1.1694913727
   10      H      -2.1448510687     0.1895017268    -0.4240435598
   11      H      -1.0482125904     1.4646009942     0.1077318934
 ----------------------------------------------------------------
 Nuclear Repulsion Energy =          82.74324337 hartrees
 There are       13 alpha and       13 beta electrons
 Requested basis set is 6-311+G(2df,2pd)
 There are 72 shells and 214 basis functions

 Total QAlloc Memory Limit   2000 MB
 Mega-Array Size       188 MB
 MEM_STATIC part       192 MB

                       Distance Matrix (Angstroms)
             C (  1)   C (  2)   H (  3)   H (  4)   H (  5)   C (  6)
   C (  2)  1.524047
   H (  3)  1.091868  2.168524
   H (  4)  1.091868  2.168524  1.761329
   H (  5)  1.090469  2.176509  1.763882  1.763882
   C (  6)  2.534408  1.524047  3.333952  3.202177  2.548619
   H (  7)  2.151060  1.092592  2.816186  2.287549  2.954795  2.151060
   H (  8)  2.151060  1.092592  2.282907  2.928620  2.848777  2.151059
   H (  9)  2.794347  2.168524  3.788278  3.177099  2.610830  1.091868
   H ( 10)  3.487286  2.176509  4.204880  4.102417  3.625332  1.090469
   H ( 11)  2.794347  2.168524  3.407445  3.669316  2.489252  1.091868
             H (  7)   H (  8)   H (  9)   H ( 10)
   H (  8)  1.747746
   H (  9)  2.512525  3.064496
   H ( 10)  2.495791  2.495790  1.763883
   H ( 11)  3.064496  2.512525  1.761329  1.763882
 
 A cutoff of  1.0D-09 yielded   2532 shell pairs
 There are     22566 function pairs (     27757 Cartesian)
 Smallest overlap matrix eigenvalue = 8.05E-05

 Scale SEOQF with 1.000000e-01/1.000000e-01/1.000000e-01

 Standard Electronic Orientation quadrupole field applied
 Nucleus-field energy     =     0.0000000009 hartrees
 Requested basis set is 6-31G(d)
 There are 28 shells and 58 basis functions
 A cutoff of  1.0D-09 yielded    400 shell pairs
 There are      1771 function pairs (      1966 Cartesian)
 Smallest overlap matrix eigenvalue = 6.41E-03
 Guess from superposition of atomic densities
 Warning:  Energy on first SCF cycle will be non-variational
 SAD guess density has 26.000000 electrons
 Long-range K will be added via erf
 Coulomb attenuation parameter = 0.2 bohr**(-1)
 A restricted hybrid HF-DFT SCF calculation will be
 performed using Relaxed Constraint Minimization + Pulay DIIS
 Exchange:     0.2220 Hartree-Fock + 1.0000 wB97X-D + LR-HF
 Correlation:  1.0000 wB97X-D
 Using Euler-Maclaurin-Lebedev (75,302) quadrature formula
 Dispersion:   Grimme D
 SCF converges when DIIS error is below 1.0E-04
 using 3 threads for integral computing
 -------------------------------------------------------
 OpenMP Integral computing Module                
 Release: version 1.0, May 2013, Q-Chem Inc. Pittsburgh 
 -------------------------------------------------------
 using 3 threads for integral computing
 -------------------------------------------------------
 OpenMP Integral computing Module                
 Release: version 1.0, May 2013, Q-Chem Inc. Pittsburgh 
 -------------------------------------------------------
 ---------------------------------------
  Cycle       Energy         DIIS Error
 ---------------------------------------
    1    -119.6220786479      1.00E-01
    2    -119.0617472925      9.03E-03
    3    -119.0829182590      2.45E-03
    4    -119.0968797656      1.68E-03
    5    -119.0975746504      2.65E-04 Done RCA. Switching to DIIS
    6    -119.0980846021      1.96E-04
    7    -119.0981013190      4.40E-06 Convergence criterion met
 ---------------------------------------
 SCF time:  CPU 19.46 s  wall 7.16 s
 SCF   energy in the small basis set = -119.09810132
 Total energy in the small basis set = -119.09810132
 ----------------------------------------------------
  Cycle       Energy    
 ----------------------------------------------------
    1     -16.5427614637     -1.65E+01
 Long-range K will be added via erf
 Coulomb attenuation parameter = 0.2 bohr**(-1)
 A restricted hybrid HF-DFT SCF calculation will be
 performed using Relaxed Constraint Minimization + Pulay DIIS
 Exchange:     0.2220 Hartree-Fock + 1.0000 wB97X-D + LR-HF
 Correlation:  1.0000 wB97X-D
 Using Euler-Maclaurin-Lebedev (75,302) quadrature formula
 Dispersion:   Grimme D
 SCF converges when DIIS error is below 1.0E-05
 Basis2 calculation detected. Using small basis as guess for larger.
 SCFMinFind is unable to tell whether the solution found is close.
 Resetting ReadMinima to 0 and attempting to follow guess.
 SCFMinFind following SCF Guess.
 using 3 threads for integral computing
 -------------------------------------------------------
 OpenMP Integral computing Module                
 Release: version 1.0, May 2013, Q-Chem Inc. Pittsburgh 
 -------------------------------------------------------
 using 3 threads for integral computing
 -------------------------------------------------------
 OpenMP Integral computing Module                
 Release: version 1.0, May 2013, Q-Chem Inc. Pittsburgh 
 -------------------------------------------------------
 ---------------------------------------
  Cycle       Energy         DIIS Error
 ---------------------------------------
    1    -119.1173320813      4.21E-03
    2    -119.1393611339      6.00E-04 Done RCA. Switching to DIIS
    3    -119.1401957474      4.22E-04
    4    -119.1411720865      4.54E-05
    5    -119.1411868061      1.02E-05
    6    -119.1411875044      3.92E-06 Convergence criterion met
 ---------------------------------------
 SCF time:  CPU 52.70 s  wall 17.88 s
 SCF   energy in the final basis set = -119.14118750
 Total energy in the final basis set = -119.14118750
 
 --------------------------------------------------------------
 
                    Orbital Energies (a.u.)
 --------------------------------------------------------------
 
 Alpha MOs
 -- Occupied --
-10.2727 -10.2652 -10.2636  -0.8810  -0.7768  -0.6775  -0.5447  -0.5253
 -0.4806  -0.4676  -0.4194  -0.4157  -0.4022
 -- Virtual --
  0.0697   0.0868   0.0911   0.1011   0.1223   0.1310   0.1327   0.1381
  0.1453   0.1662   0.1747   0.1902   0.2146   0.2404   0.2521   0.2600
  0.2912   0.3043   0.3122   0.3274   0.3352   0.3491   0.4563   0.4758
  0.4856   0.4984   0.5120   0.5189   0.5251   0.5482   0.5750   0.5865
  0.6212   0.6257   0.6302   0.6386   0.6502   0.6542   0.7038   0.7105
  0.7356   0.7720   0.8081   0.8461   0.8992   0.9218   0.9600   0.9789
  0.9876   1.0324   1.0789   1.1106   1.1407   1.1748   1.1857   1.2190
  1.2227   1.2338   1.2587   1.2754   1.2837   1.3011   1.3287   1.3672
  1.3903   1.4121   1.4354   1.4475   1.4533   1.4662   1.4689   1.5148
  1.5283   1.5489   1.5699   1.6014   1.6307   1.6538   1.6625   1.6779
  1.7429   2.3565   2.3786   2.4666   2.4681   2.5067   2.6377   2.6608
  2.6791   2.6937   2.8001   2.8072   2.8501   2.8812   2.9323   2.9355
  2.9416   2.9644   3.0132   3.0422   3.0526   3.0653   3.0737   3.1136
  3.1226   3.1476   3.1882   3.1947   3.1960   3.2382   3.2676   3.2915
  3.3113   3.3151   3.3396   3.3533   3.3604   3.4018   3.4244   3.4382
  3.4491   3.4812   3.5263   3.5489   3.5605   3.5965   3.6105   3.6171
  3.6369   3.6753   3.7017   3.7140   3.7321   3.7467   3.7938   3.8505
  3.8708   3.9263   3.9509   3.9657   4.0030   4.0235   4.0459   4.0678
  4.0952   4.1044   4.1174   4.1305   4.1513   4.1737   4.1958   4.2071
  4.2547   4.2749   4.2907   4.3137   4.3534   4.4140   4.4229   4.4717
  4.4989   4.5492   4.6063   4.6148   4.6834   4.8125   4.8381   4.8741
  4.9086   4.9354   4.9568   4.9871   5.0021   5.0680   5.0773   5.1457
  5.1487   5.2003   5.2476   5.2779   5.2931   5.2991   5.3503   5.3578
  5.3733   5.3931   5.4305   5.4686   5.5224   5.5466   5.6456   5.7212
  5.9868   6.3370   6.3812   6.4066   6.4304   6.4951  25.1363  25.4180
 25.4834
 --------------------------------------------------------------
 
 -----------------------------------------------------------------
                    Cartesian Multipole Moments
 -----------------------------------------------------------------
    Charge (ESU x 10^10)
                -0.0000
    Dipole Moment (Debye)
         X      -0.0004      Y      -0.0532      Z      -0.0662
       Tot       0.0850
    Quadrupole Moments (Debye-Ang)
        XX     -22.2382     XY       0.1424     YY     -21.5043
        XZ      -0.1405     YZ      -0.2401     ZZ     -21.6561
    Octopole Moments (Debye-Ang^2)
       XXX      -0.3216    XXY      -0.1098    XYY       0.3480
       YYY       0.6359    XXZ      -1.4665    XYZ      -0.2013
       YYZ       0.3257    XZZ       0.1086    YZZ       0.5158
       ZZZ      -0.8340
    Hexadecapole Moments (Debye-Ang^3)
      XXXX    -197.2623   XXXY      15.8992   XXYY     -43.7257
      XYYY      14.0046   YYYY     -57.2481   XXXZ      -5.9453
      XXYZ      -2.4528   XYYZ      -1.0719   YYYZ      -5.3310
      XXZZ     -42.3275   XYZZ       5.3109   YYZZ     -20.6583
      XZZZ      -7.0758   YZZZ      -5.6636   ZZZZ     -60.7253
 -----------------------------------------------------------------
Archival summary:
1\1\centos77-c4\SP\ProcedureUnspecified\BasisUnspecified\38\shihchen\TueJul700:32:512020TueJul700:32:512020\0\\#,ProcedureUnspecified,BasisUnspecified,\\0,1\C\H,1,1.09259\H,1,1.09259,2,106.225\C,1,1.52405,2,109.48,3,118.121,0\H,4,1.09047,1,111.633,2,111.964,0\H,4,1.09187,1,110.906,2,-127.737,0\H,4,1.09187,1,110.906,2,-8.33432,0\C,1,1.52405,2,109.48,3,-118.121,0\H,8,1.09047,1,111.633,2,58.0357,0\H,8,1.09187,1,110.906,2,178.334,0\H,8,1.09187,1,110.906,2,-62.2628,0\\\@

 Total job time:  27.99s(wall), 75.78s(cpu) 
 Tue Jul  7 00:32:51 2020

        *************************************************************
        *                                                           *
        *  Thank you very much for using Q-Chem.  Have a nice day.  *
        *                                                           *
        *************************************************************


