                  Welcome to Q-Chem
     A Quantum Leap Into The Future Of Chemistry


 Q-Chem 5.2 (devel), Q-Chem, Inc., Pleasanton, CA (2019)

 Yihan Shao,  Zhengting Gan,  E. Epifanovsky,  A. T. B. Gilbert,  M. Wormit,  
 J. Kussmann,  A. W. Lange,  A. Behn,  Jia Deng,  Xintian Feng,  D. Ghosh,  
 M. Goldey,  P. R. Horn,  L. D. Jacobson,  I. Kaliman,  T. Kus,  A. Landau,  
 Jie Liu,  E. I. Proynov,  R. M. Richard,  R. P. Steele,  E. J. Sundstrom,  
 H. L. Woodcock III,  P. M. Zimmerman,  D. Zuev,  B. Alam,  B. Albrecht,  
 E. Alguire,  S. A. Baeppler,  D. Barton,  Z. Benda,  Y. A. Bernard,  
 E. J. Berquist,  K. B. Bravaya,  H. Burton,  K. Carter-Fenk,  D. Casanova,  
 Chun-Min Chang,  Yunqing Chen,  A. Chien,  K. D. Closser,  M. P. Coons,  
 S. Coriani,  S. Dasgupta,  A. L. Dempwolff,  M. Diedenhofen,  Hainam Do,  
 R. G. Edgar,  Po-Tung Fang,  S. Faraji,  S. Fatehi,  Qingguo Feng,  
 J. Fosso-Tande,  J. Gayvert,  Qinghui Ge,  A. Ghysels,  G. Gidofalvi,  
 J. Gomes,  J. Gonthier,  A. Gunina,  D. Hait,  M. W. D. Hanson-Heine,  
 P. H. P. Harbach,  A. W. Hauser,  M. F. Herbst,  J. E. Herr,  
 E. G. Hohenstein,  Z. C. Holden,  Kerwin Hui,  B. C. Huynh,  T.-C. Jagau,  
 Hyunjun Ji,  B. Kaduk,  K. Khistyaev,  Jaehoon Kim,  P. Klunzinger,  K. Koh,  
 D. Kosenkov,  L. Koulias,  T. Kowalczyk,  C. M. Krauter,  A. Kunitsa,  
 Ka Un Lao,  A. Laurent,  K. V. Lawler,  Joonho Lee,  D. Lefrancois,  
 S. Lehtola,  D. S. Levine,  Yi-Pei Li,  You-Sheng Lin,  Fenglai Liu,  
 Kuan-Yu Liu,  E. Livshits,  M. Loipersberger,  A. Luenser,  P. Manohar,  
 E. Mansoor,  S. F. Manzer,  Shan-Ping Mao,  Yuezhi Mao,  N. Mardirossian,  
 A. V. Marenich,  T. Markovich,  L. A. Martinez-Martinez,  S. A. Maurer,  
 N. J. Mayhall,  S. C. McKenzie,  J.-M. Mewes,  P. Morgante,  A. F. Morrison,  
 J. W. Mullinax,  K. Nanda,  T. S. Nguyen-Beck,  R. Olivares-Amaya,  
 J. A. Parkhill,  S. K. Paul,  Zheng Pei,  T. M. Perrine,  F. Plasser,  
 P. Pokhilko,  S. Prager,  A. Prociuk,  E. Ramos,  B. Rana,  D. R. Rehn,  
 F. Rob,  M. Scheurer,  M. Schneider,  N. Sergueev,  S. M. Sharada,  
 S. Sharma,  D. W. Small,  T. Stauch,  C. J. Stein,  T. Stein,  Yu-Chuan Su,  
 S. P. Veccham,  A. J. W. Thom,  A. Tkatchenko,  T. Tsuchimochi,  
 N. M. Tubman,  L. Vogt,  M. L. Vidal,  O. Vydrov,  M. A. Watson,  J. Wenzel,  
 M. de Wergifosse,  T. A. Wesolowski,  A. White,  J. Witte,  A. Yamada,  
 Jun Yang,  K. Yao,  S. Yeganeh,  S. R. Yost,  Zhi-Qiang You,  A. Zech,  
 Igor Ying Zhang,  Xing Zhang,  Yan Zhao,  Ying Zhu,  B. R. Brooks,  
 G. K. L. Chan,  C. J. Cramer,  M. S. Gordon,  W. J. Hehre,  A. Klamt,  
 M. W. Schmidt,  C. D. Sherrill,  D. G. Truhlar,  A. Aspuru-Guzik,  R. Baer,  
 A. T. Bell,  N. A. Besley,  Jeng-Da Chai,  A. E. DePrince, III,  
 R. A. DiStasio Jr.,  A. Dreuw,  B. D. Dunietz,  T. R. Furlani,  
 Chao-Ping Hsu,  Yousung Jung,  Jing Kong,  D. S. Lambrecht,  WanZhen Liang,  
 C. Ochsenfeld,  V. A. Rassolov,  L. V. Slipchenko,  J. E. Subotnik,  
 T. Van Voorhis,  J. M. Herbert,  A. I. Krylov,  P. M. W. Gill,  M. Head-Gordon

 Contributors to earlier versions of Q-Chem not listed above: 
 R. D. Adamson,  B. Austin,  J. Baker,  G. J. O. Beran,  K. Brandhorst,  
 S. T. Brown,  E. F. C. Byrd,  A. K. Chakraborty,  C.-L. Cheng,  
 Siu Hung Chien,  D. M. Chipman,  D. L. Crittenden,  H. Dachsel,  
 R. J. Doerksen,  A. D. Dutoi,  L. Fusti-Molnar,  W. A. Goddard III,  
 A. Golubeva-Zadorozhnaya,  S. R. Gwaltney,  G. Hawkins,  A. Heyden,  
 S. Hirata,  G. Kedziora,  F. J. Keil,  C. Kelley,  Jihan Kim,  R. A. King,  
 R. Z. Khaliullin,  P. P. Korambath,  W. Kurlancheek,  A. M. Lee,  M. S. Lee,  
 S. V. Levchenko,  Ching Yeh Lin,  D. Liotard,  R. C. Lochan,  I. Lotan,  
 P. E. Maslen,  N. Nair,  D. P. O'Neill,  D. Neuhauser,  E. Neuscamman,  
 C. M. Oana,  R. Olson,  B. Peters,  R. Peverati,  P. A. Pieniazek,  
 Y. M. Rhee,  J. Ritchie,  M. A. Rohrdanz,  E. Rosta,  N. J. Russ,  
 H. F. Schaefer III,  N. E. Schultz,  N. Shenvi,  A. C. Simmonett,  A. Sodt,  
 D. Stuck,  K. S. Thanthiriwatte,  V. Vanovschi,  Tao Wang,  A. Warshel,  
 C. F. Williams,  Q. Wu,  X. Xu,  W. Zhang

 Please cite Q-Chem as follows:
 Y. Shao et al., Mol. Phys. 113, 184-215 (2015)
 DOI: 10.1080/00268976.2014.952696

 Q-Chem 5.2.2 for Intel X86 EM64T Linux

 Parts of Q-Chem use Armadillo 9.800.1 (Horizon Scraper).
 http://arma.sourceforge.net/

 Q-Chem begins on Sun Apr 12 04:51:13 2020  

Host: cn0821
0

     Scratch files written to /tmp/ypli/6721342.srvc1/qchem163209//
Warning:  Did not find "$end" marker in "$molecule" section

Checking the input file for inconsistencies... 	...done.

--------------------------------------------------------------
User input:
--------------------------------------------------------------
$rem
   JOBTYPE  sp
   EXCHANGE   omegaB97X-D
   BASIS   6-311+G(2df,2pd)
   max_scf_cycles   250
   geom_opt_max_cycles   1500
   basis2 6-31G*
   scf_algorithm rca_diis
   SYM_IGNORE  TRUE
   print_input   true
   geom_opt_dmax   80
   pop_mulliken false
   XC_GRID 000075000302
$end

$molecule
0 1
C       1.2422889818     -0.1428650081     0.3345757898
C       -0.0797907554     -0.4837967133     -0.3426188995
H       1.5911084706     0.8466786745     0.0322555640
H       2.0169316573     -0.8622347480     0.0612611547
H       1.1502775681     -0.1473477388     1.4211880245
C       -1.1866349798     0.5032007154     0.0087556222
H       -0.3865500421     -1.4924877322     -0.0559017416
H       0.0602566394     -0.5036603780     -1.4260198984
H       -1.3663660665     0.5199121703     1.0856036807
H       -2.1254345937     0.2461771811     -0.4828918497
H       -0.9160869403     1.5164242429     -0.2951624276
--------------------------------------------------------------
 ----------------------------------------------------------------
             Standard Nuclear Orientation (Angstroms)
    I     Atom           X                Y                Z
 ----------------------------------------------------------------
    1      C       1.2422889818    -0.1428650081     0.3345757898
    2      C      -0.0797907554    -0.4837967133    -0.3426188995
    3      H       1.5911084706     0.8466786745     0.0322555640
    4      H       2.0169316573    -0.8622347480     0.0612611547
    5      H       1.1502775681    -0.1473477388     1.4211880245
    6      C      -1.1866349798     0.5032007154     0.0087556222
    7      H      -0.3865500421    -1.4924877322    -0.0559017416
    8      H       0.0602566394    -0.5036603780    -1.4260198984
    9      H      -1.3663660665     0.5199121703     1.0856036807
   10      H      -2.1254345937     0.2461771811    -0.4828918497
   11      H      -0.9160869403     1.5164242429    -0.2951624276
 ----------------------------------------------------------------
 Nuclear Repulsion Energy =          82.72194779 hartrees
 There are       13 alpha and       13 beta electrons
 Requested basis set is 6-311+G(2df,2pd)
 There are 72 shells and 214 basis functions

 Total QAlloc Memory Limit   2000 MB
 Mega-Array Size       188 MB
 MEM_STATIC part       192 MB

                       Distance Matrix (Angstroms)
             C (  1)   C (  2)   H (  3)   H (  4)   H (  5)   C (  6)
   C (  2)  1.524048
   H (  3)  1.091911  2.168548
   H (  4)  1.091909  2.168543  1.761406
   H (  5)  1.090510  2.176530  1.763960  1.763960
   C (  6)  2.534409  1.524051  2.798998  3.482816  2.807016
   H (  7)  2.151063  1.092596  3.064409  2.487503  2.520523  2.151067
   H (  8)  2.151063  1.092596  2.508683  2.483779  3.069478  2.151067
   H (  9)  2.794351  2.168531  3.156418  3.795565  2.625138  1.091872
   H ( 10)  3.487287  2.176510  3.799825  4.322485  3.809288  1.090469
   H ( 11)  2.794351  2.168531  2.615682  3.793106  3.159724  1.091872
             H (  7)   H (  8)   H (  9)   H ( 10)
   H (  8)  1.747753
   H (  9)  2.512534  3.064507
   H ( 10)  2.495796  2.495795  1.763886
   H ( 11)  3.064508  2.512534  1.761335  1.763885
 
 A cutoff of  1.0D-09 yielded   2532 shell pairs
 There are     22578 function pairs (     27759 Cartesian)
 Smallest overlap matrix eigenvalue = 8.66E-05

 Scale SEOQF with 1.000000e-01/1.000000e-01/1.000000e-01

 Standard Electronic Orientation quadrupole field applied
 Nucleus-field energy     =     0.0000000011 hartrees
 Requested basis set is 6-31G(d)
 There are 28 shells and 58 basis functions
 A cutoff of  1.0D-09 yielded    402 shell pairs
 There are      1773 function pairs (      1968 Cartesian)
 Smallest overlap matrix eigenvalue = 6.78E-03
 Guess from superposition of atomic densities
 Warning:  Energy on first SCF cycle will be non-variational
 SAD guess density has 26.000000 electrons
 Long-range K will be added via erf
 Coulomb attenuation parameter = 0.2 bohr**(-1)
 A restricted hybrid HF-DFT SCF calculation will be
 performed using Relaxed Constraint Minimization + Pulay DIIS
 Exchange:     0.2220 Hartree-Fock + 1.0000 wB97X-D + LR-HF
 Correlation:  1.0000 wB97X-D
 Using Euler-Maclaurin-Lebedev (75,302) quadrature formula
 Dispersion:   Grimme D
 SCF converges when DIIS error is below 1.0E-04
 using 3 threads for integral computing
 -------------------------------------------------------
 OpenMP Integral computing Module                
 Release: version 1.0, May 2013, Q-Chem Inc. Pittsburgh 
 -------------------------------------------------------
 using 3 threads for integral computing
 -------------------------------------------------------
 OpenMP Integral computing Module                
 Release: version 1.0, May 2013, Q-Chem Inc. Pittsburgh 
 -------------------------------------------------------
 ---------------------------------------
  Cycle       Energy         DIIS Error
 ---------------------------------------
    1    -119.6179136207      1.00E-01
    2    -119.0668856432      9.00E-03
    3    -119.0879585721      2.46E-03
    4    -119.1018325652      1.68E-03
    5    -119.1025283315      2.67E-04 Done RCA. Switching to DIIS
    6    -119.1030378216      1.97E-04
    7    -119.1030546741      4.49E-06 Convergence criterion met
 ---------------------------------------
 SCF time:  CPU 26.68 s  wall 9.16 s
 SCF   energy in the small basis set = -119.10305467
 Total energy in the small basis set = -119.10305467
 ----------------------------------------------------
  Cycle       Energy    
 ----------------------------------------------------
    1     -16.5392802853     -1.65E+01
 Long-range K will be added via erf
 Coulomb attenuation parameter = 0.2 bohr**(-1)
 A restricted hybrid HF-DFT SCF calculation will be
 performed using Relaxed Constraint Minimization + Pulay DIIS
 Exchange:     0.2220 Hartree-Fock + 1.0000 wB97X-D + LR-HF
 Correlation:  1.0000 wB97X-D
 Using Euler-Maclaurin-Lebedev (75,302) quadrature formula
 Dispersion:   Grimme D
 SCF converges when DIIS error is below 1.0E-05
 Basis2 calculation detected. Using small basis as guess for larger.
 SCFMinFind is unable to tell whether the solution found is close.
 Resetting ReadMinima to 0 and attempting to follow guess.
 SCFMinFind following SCF Guess.
 using 3 threads for integral computing
 -------------------------------------------------------
 OpenMP Integral computing Module                
 Release: version 1.0, May 2013, Q-Chem Inc. Pittsburgh 
 -------------------------------------------------------
 using 3 threads for integral computing
 -------------------------------------------------------
 OpenMP Integral computing Module                
 Release: version 1.0, May 2013, Q-Chem Inc. Pittsburgh 
 -------------------------------------------------------
 ---------------------------------------
  Cycle       Energy         DIIS Error
 ---------------------------------------
    1    -119.1221083421      4.21E-03
    2    -119.1441440176      5.96E-04 Done RCA. Switching to DIIS
    3    -119.1449754004      4.17E-04
    4    -119.1459303140      4.56E-05
    5    -119.1459450152      1.00E-05
    6    -119.1459456938      3.85E-06 Convergence criterion met
 ---------------------------------------
 SCF time:  CPU 81.80 s  wall 27.59 s
 SCF   energy in the final basis set = -119.14594569
 Total energy in the final basis set = -119.14594569
 
 --------------------------------------------------------------
 
                    Orbital Energies (a.u.)
 --------------------------------------------------------------
 
 Alpha MOs
 -- Occupied --
-10.2740 -10.2651 -10.2650  -0.8811  -0.7772  -0.6776  -0.5458  -0.5237
 -0.4829  -0.4640  -0.4181  -0.4175  -0.4077
 -- Virtual --
  0.0691   0.0860   0.0910   0.0990   0.1251   0.1300   0.1334   0.1427
  0.1431   0.1706   0.1721   0.1912   0.2334   0.2411   0.2443   0.2641
  0.2819   0.2841   0.3109   0.3125   0.3347   0.3500   0.4585   0.4662
  0.4710   0.5102   0.5134   0.5177   0.5445   0.5612   0.5843   0.5846
  0.6237   0.6257   0.6426   0.6445   0.6564   0.6569   0.7085   0.7259
  0.7270   0.7672   0.8216   0.8666   0.8671   0.8732   0.8788   0.9590
  1.0011   1.0526   1.0574   1.1402   1.1417   1.1803   1.1824   1.2127
  1.2326   1.2334   1.2684   1.2773   1.2847   1.2910   1.3273   1.3788
  1.3830   1.3941   1.3981   1.4478   1.4669   1.4708   1.4789   1.4802
  1.5215   1.5799   1.6118   1.6209   1.6425   1.6434   1.6852   1.6943
  1.7424   2.3738   2.4704   2.4790   2.4983   2.5447   2.5603   2.5982
  2.6295   2.7132   2.8232   2.8355   2.8396   2.9083   2.9282   2.9320
  2.9327   2.9417   3.0030   3.0143   3.0548   3.0747   3.0755   3.1000
  3.1345   3.1360   3.1803   3.1950   3.2055   3.2176   3.2817   3.3110
  3.3317   3.3340   3.3365   3.3603   3.3626   3.3665   3.4001   3.4480
  3.4720   3.4860   3.4898   3.5184   3.5628   3.5767   3.5987   3.6192
  3.6219   3.6790   3.6865   3.7029   3.7831   3.7977   3.8831   3.8942
  3.9361   3.9495   3.9525   3.9546   3.9616   3.9868   4.0530   4.0666
  4.0740   4.1045   4.1081   4.1451   4.1530   4.1585   4.1893   4.2005
  4.2140   4.2444   4.2621   4.3728   4.3968   4.4110   4.4150   4.4271
  4.4350   4.5848   4.5896   4.5903   4.6734   4.8056   4.8278   4.8918
  4.9450   4.9596   4.9624   4.9687   5.0388   5.0452   5.0548   5.1104
  5.1236   5.2481   5.2503   5.2757   5.3110   5.3502   5.3525   5.3725
  5.3793   5.3869   5.4551   5.4964   5.5521   5.5561   5.6279   5.7446
  5.9549   6.3840   6.3841   6.3924   6.4164   6.4631  25.2047  25.4454
 25.4532
 --------------------------------------------------------------
 
 -----------------------------------------------------------------
                    Cartesian Multipole Moments
 -----------------------------------------------------------------
    Charge (ESU x 10^10)
                -0.0000
    Dipole Moment (Debye)
         X      -0.0080      Y      -0.0691      Z      -0.0540
       Tot       0.0881
    Quadrupole Moments (Debye-Ang)
        XX     -22.1314     XY       0.1606     YY     -21.7113
        XZ      -0.1325     YZ      -0.1986     ZZ     -21.5278
    Octopole Moments (Debye-Ang^2)
       XXX      -0.2772    XXY      -0.4243    XYY       0.7623
       YYY       1.4706    XXZ      -1.2103    XYZ       0.0085
       YYZ      -0.6672    XZZ      -0.1936    YZZ       0.3950
       ZZZ      -0.4141
    Hexadecapole Moments (Debye-Ang^3)
      XXXX    -190.6440   XXXY      17.8761   XXYY     -43.3571
      XYYY      18.7910   YYYY     -69.0564   XXXZ     -10.0804
      XXYZ      -0.8168   XYYZ      -4.0573   YYYZ      -4.7274
      XXZZ     -41.5609   XYZZ       5.9420   YYZZ     -22.4037
      XZZZ     -11.0735   YZZZ      -3.1036   ZZZZ     -53.8490
 -----------------------------------------------------------------
Archival summary:
1\1\cn0821\SP\ProcedureUnspecified\BasisUnspecified\38\r0852400\SunApr1204:51:542020SunApr1204:51:542020\0\\#,ProcedureUnspecified,BasisUnspecified,\\0,1\C\H,1,1.0926\H,1,1.0926,2,106.225\C,1,1.52405,2,109.48,3,-118.121,0\H,4,1.09051,1,111.632,2,-61.9653,0\H,4,1.09191,1,110.905,2,58.3333,0\H,4,1.09191,1,110.905,2,177.736,0\C,1,1.52405,2,109.48,3,118.121,0\H,8,1.09047,1,111.632,2,-58.0359,0\H,8,1.09187,1,110.906,2,62.2627,0\H,8,1.09187,1,110.906,2,-178.334,0\\\@

 Total job time:  40.58s(wall), 113.05s(cpu) 
 Sun Apr 12 04:51:54 2020

        *************************************************************
        *                                                           *
        *  Thank you very much for using Q-Chem.  Have a nice day.  *
        *                                                           *
        *************************************************************


