                  Welcome to Q-Chem
     A Quantum Leap Into The Future Of Chemistry


 Q-Chem 5.3 (devel), Q-Chem, Inc., Pleasanton, CA (2020)

 Yihan Shao,  Zhengting Gan,  E. Epifanovsky,  A. T. B. Gilbert,  M. Wormit,  
 J. Kussmann,  A. W. Lange,  A. Behn,  Jia Deng,  Xintian Feng,  D. Ghosh,  
 M. Goldey,  P. R. Horn,  L. D. Jacobson,  I. Kaliman,  T. Kus,  A. Landau,  
 Jie Liu,  E. I. Proynov,  R. M. Richard,  R. P. Steele,  E. J. Sundstrom,  
 H. L. Woodcock III,  P. M. Zimmerman,  D. Zuev,  B. Alam,  B. Albrecht,  
 E. Alguire,  S. A. Baeppler,  D. Barton,  Z. Benda,  Y. A. Bernard,  
 E. J. Berquist,  K. B. Bravaya,  H. Burton,  K. Carter-Fenk,  D. Casanova,  
 Chun-Min Chang,  Yunqing Chen,  A. Chien,  K. D. Closser,  M. P. Coons,  
 S. Coriani,  S. Dasgupta,  A. L. Dempwolff,  M. Diedenhofen,  Hainam Do,  
 R. G. Edgar,  Po-Tung Fang,  S. Faraji,  S. Fatehi,  Qingguo Feng,  
 J. Fosso-Tande,  J. Gayvert,  Qinghui Ge,  A. Ghysels,  G. Gidofalvi,  
 J. Gomes,  J. Gonthier,  A. Gunina,  D. Hait,  M. W. D. Hanson-Heine,  
 P. H. P. Harbach,  A. W. Hauser,  M. F. Herbst,  J. E. Herr,  
 E. G. Hohenstein,  Z. C. Holden,  Kerwin Hui,  B. C. Huynh,  T.-C. Jagau,  
 Hyunjun Ji,  B. Kaduk,  K. Khistyaev,  Jaehoon Kim,  P. Klunzinger,  K. Koh,  
 D. Kosenkov,  L. Koulias,  T. Kowalczyk,  C. M. Krauter,  A. Kunitsa,  
 Ka Un Lao,  A. Laurent,  K. V. Lawler,  Joonho Lee,  D. Lefrancois,  
 S. Lehtola,  D. S. Levine,  Yi-Pei Li,  You-Sheng Lin,  Fenglai Liu,  
 Kuan-Yu Liu,  E. Livshits,  M. Loipersberger,  A. Luenser,  P. Manohar,  
 E. Mansoor,  S. F. Manzer,  Shan-Ping Mao,  Yuezhi Mao,  N. Mardirossian,  
 A. V. Marenich,  T. Markovich,  L. A. Martinez-Martinez,  S. A. Maurer,  
 N. J. Mayhall,  S. C. McKenzie,  J.-M. Mewes,  P. Morgante,  A. F. Morrison,  
 J. W. Mullinax,  K. Nanda,  T. S. Nguyen-Beck,  R. Olivares-Amaya,  
 K. J. Oosterbaan,  J. A. Parkhill,  S. K. Paul,  F. Pavosevic,  Zheng Pei,  
 T. M. Perrine,  F. Plasser,  P. Pokhilko,  S. Prager,  A. Prociuk,  
 E. Ramos,  B. Rana,  D. R. Rehn,  F. Rob,  M. Scheurer,  M. Schneider,  
 N. Sergueev,  S. M. Sharada,  S. Sharma,  D. W. Small,  T. Stauch,  
 C. J. Stein,  T. Stein,  Yu-Chuan Su,  S. P. Veccham,  Zhen Tao,  
 A. J. W. Thom,  A. Tkatchenko,  T. Tsuchimochi,  N. M. Tubman,  L. Vogt,  
 M. L. Vidal,  O. Vydrov,  M. A. Watson,  J. Wenzel,  M. de Wergifosse,  
 T. A. Wesolowski,  A. White,  J. Witte,  A. Yamada,  Jun Yang,  K. Yao,  
 S. Yeganeh,  S. R. Yost,  Zhi-Qiang You,  A. Zech,  Igor Ying Zhang,  
 Xing Zhang,  Yan Zhao,  Ying Zhu,  B. R. Brooks,  G. K. L. Chan,  
 C. J. Cramer,  M. S. Gordon,  W. J. Hehre,  A. Klamt,  M. W. Schmidt,  
 C. D. Sherrill,  D. G. Truhlar,  A. Aspuru-Guzik,  R. Baer,  A. T. Bell,  
 N. A. Besley,  Jeng-Da Chai,  A. E. DePrince, III,  R. A. DiStasio Jr.,  
 A. Dreuw,  B. D. Dunietz,  T. R. Furlani,  Chao-Ping Hsu,  Yousung Jung,  
 Jing Kong,  D. S. Lambrecht,  WanZhen Liang,  C. Ochsenfeld,  
 V. A. Rassolov,  L. V. Slipchenko,  J. E. Subotnik,  T. Van Voorhis,  
 J. M. Herbert,  A. I. Krylov,  P. M. W. Gill,  M. Head-Gordon

 Contributors to earlier versions of Q-Chem not listed above: 
 R. D. Adamson,  B. Austin,  J. Baker,  G. J. O. Beran,  K. Brandhorst,  
 S. T. Brown,  E. F. C. Byrd,  A. K. Chakraborty,  C.-L. Cheng,  
 Siu Hung Chien,  D. M. Chipman,  D. L. Crittenden,  H. Dachsel,  
 R. J. Doerksen,  A. D. Dutoi,  L. Fusti-Molnar,  W. A. Goddard III,  
 A. Golubeva-Zadorozhnaya,  S. R. Gwaltney,  G. Hawkins,  A. Heyden,  
 S. Hirata,  G. Kedziora,  F. J. Keil,  C. Kelley,  Jihan Kim,  R. A. King,  
 R. Z. Khaliullin,  P. P. Korambath,  W. Kurlancheek,  A. M. Lee,  M. S. Lee,  
 S. V. Levchenko,  Ching Yeh Lin,  D. Liotard,  R. C. Lochan,  I. Lotan,  
 P. E. Maslen,  N. Nair,  D. P. O'Neill,  D. Neuhauser,  E. Neuscamman,  
 C. M. Oana,  R. Olson,  B. Peters,  R. Peverati,  P. A. Pieniazek,  
 Y. M. Rhee,  J. Ritchie,  M. A. Rohrdanz,  E. Rosta,  N. J. Russ,  
 H. F. Schaefer III,  N. E. Schultz,  N. Shenvi,  A. C. Simmonett,  A. Sodt,  
 D. Stuck,  K. S. Thanthiriwatte,  V. Vanovschi,  Tao Wang,  A. Warshel,  
 C. F. Williams,  Q. Wu,  X. Xu,  W. Zhang

 Please cite Q-Chem as follows:
 Y. Shao et al., Mol. Phys. 113, 184-215 (2015)
 DOI: 10.1080/00268976.2014.952696

 Q-Chem 5.3.0 for Intel X86 EM64T Linux

 Parts of Q-Chem use Armadillo 9.800.1 (Horizon Scraper).
 http://arma.sourceforge.net/

 Q-Chem begins on Tue Jul  7 00:48:50 2020  

Host: centos77-c4
0

     Scratch files written to /tmp/26964.centos77-h1/qchem92894//
Processing $rem in /opt/qchem-5.3.0-intel2020u1//config/preferences:
Processing $rem in /home/shihchengli/.qchemrc:

Checking the input file for inconsistencies... 	...done.

--------------------------------------------------------------
User input:
--------------------------------------------------------------
$rem
   JOBTYPE  sp
   EXCHANGE   omegaB97X-D
   BASIS   6-311+G(2df,2pd)
   UNRESTRICTED   False
   max_scf_cycles   250
   geom_opt_max_cycles   1500
   basis2 6-31G*
   scf_algorithm rca_diis
   SYM_IGNORE  TRUE
   print_input   true
   geom_opt_dmax   80
   pop_mulliken false
   XC_GRID 000075000302
$end

$molecule
0 1
C       1.2351358331     -0.3482751407     0.1569949749
C       0.0330717352     0.3328509641     -0.4863011319
H       1.0843612122     -1.4279235909     0.2186518444
H       1.3943257680     0.0199692149     1.1724899236
H       2.1492674532     -0.1702660507     -0.4102779137
C       -1.2562946980     0.0966893154     0.2911836743
H       -0.0869051298     -0.0302675419     -1.5097791209
H       0.2206690340     1.4064596590     -0.5632966861
H       -1.4090958202     0.8776910248     1.0387553744
H       -1.2437831457     -0.8632501332     0.8083703922
H       -2.1207523025     0.1063229452     -0.3757463123
$end
--------------------------------------------------------------
 ----------------------------------------------------------------
             Standard Nuclear Orientation (Angstroms)
    I     Atom           X                Y                Z
 ----------------------------------------------------------------
    1      C       1.2351358331    -0.3482751407     0.1569949749
    2      C       0.0330717352     0.3328509641    -0.4863011319
    3      H       1.0843612122    -1.4279235909     0.2186518444
    4      H       1.3943257680     0.0199692149     1.1724899236
    5      H       2.1492674532    -0.1702660507    -0.4102779137
    6      C      -1.2562946980     0.0966893154     0.2911836743
    7      H      -0.0869051298    -0.0302675419    -1.5097791209
    8      H       0.2206690340     1.4064596590    -0.5632966861
    9      H      -1.4090958202     0.8776910248     1.0387553744
   10      H      -1.2437831457    -0.8632501332     0.8083703922
   11      H      -2.1207523025     0.1063229452    -0.3757463123
 ----------------------------------------------------------------
 Nuclear Repulsion Energy =          82.73306744 hartrees
 There are       13 alpha and       13 beta electrons
 Requested basis set is 6-311+G(2df,2pd)
 There are 72 shells and 214 basis functions

 Total QAlloc Memory Limit   2000 MB
 Mega-Array Size       188 MB
 MEM_STATIC part       192 MB

                       Distance Matrix (Angstroms)
             C (  1)   C (  2)   H (  3)   H (  4)   H (  5)   C (  6)
   C (  2)  1.524047
   H (  3)  1.091868  2.168524
   H (  4)  1.091868  2.168524  1.761329
   H (  5)  1.090469  2.176509  1.763882  1.763882
   C (  6)  2.534408  1.524047  2.794347  2.794347  3.487286
   H (  7)  2.151060  1.092592  2.512525  3.064496  2.495791  2.151060
   H (  8)  2.151060  1.092592  3.064496  2.512525  2.495791  2.151059
   H (  9)  3.045071  2.168524  3.493674  2.934748  3.982444  1.091868
   H ( 10)  2.614293  2.176509  2.467160  2.805758  3.671256  1.090469
   H ( 11)  3.428186  2.168524  3.602773  3.841909  4.279108  1.091868
             H (  7)   H (  8)   H (  9)   H ( 10)
   H (  8)  1.747746
   H (  9)  3.011246  2.345698
   H ( 10)  2.721405  3.029467  1.763883
   H ( 11)  2.332643  2.684732  1.761329  1.763882
 
 A cutoff of  1.0D-09 yielded   2531 shell pairs
 There are     22501 function pairs (     27662 Cartesian)
 Smallest overlap matrix eigenvalue = 8.34E-05

 Scale SEOQF with 1.000000e-01/1.000000e-01/1.000000e-01

 Standard Electronic Orientation quadrupole field applied
 Nucleus-field energy     =     0.0000000009 hartrees
 Requested basis set is 6-31G(d)
 There are 28 shells and 58 basis functions
 A cutoff of  1.0D-09 yielded    402 shell pairs
 There are      1773 function pairs (      1968 Cartesian)
 Smallest overlap matrix eigenvalue = 6.59E-03
 Guess from superposition of atomic densities
 Warning:  Energy on first SCF cycle will be non-variational
 SAD guess density has 26.000000 electrons
 Long-range K will be added via erf
 Coulomb attenuation parameter = 0.2 bohr**(-1)
 A restricted hybrid HF-DFT SCF calculation will be
 performed using Relaxed Constraint Minimization + Pulay DIIS
 Exchange:     0.2220 Hartree-Fock + 1.0000 wB97X-D + LR-HF
 Correlation:  1.0000 wB97X-D
 Using Euler-Maclaurin-Lebedev (75,302) quadrature formula
 Dispersion:   Grimme D
 SCF converges when DIIS error is below 1.0E-04
 using 3 threads for integral computing
 -------------------------------------------------------
 OpenMP Integral computing Module                
 Release: version 1.0, May 2013, Q-Chem Inc. Pittsburgh 
 -------------------------------------------------------
 using 3 threads for integral computing
 -------------------------------------------------------
 OpenMP Integral computing Module                
 Release: version 1.0, May 2013, Q-Chem Inc. Pittsburgh 
 -------------------------------------------------------
 ---------------------------------------
  Cycle       Energy         DIIS Error
 ---------------------------------------
    1    -119.6201842315      1.00E-01
    2    -119.0641440074      9.02E-03
    3    -119.0852706278      2.46E-03
    4    -119.0991927823      1.68E-03
    5    -119.0998882420      2.66E-04 Done RCA. Switching to DIIS
    6    -119.1003981236      1.97E-04
    7    -119.1004149049      4.45E-06 Convergence criterion met
 ---------------------------------------
 SCF time:  CPU 19.62 s  wall 7.24 s
 SCF   energy in the small basis set = -119.10041490
 Total energy in the small basis set = -119.10041490
 ----------------------------------------------------
  Cycle       Energy    
 ----------------------------------------------------
    1     -16.5411649442     -1.65E+01
 Long-range K will be added via erf
 Coulomb attenuation parameter = 0.2 bohr**(-1)
 A restricted hybrid HF-DFT SCF calculation will be
 performed using Relaxed Constraint Minimization + Pulay DIIS
 Exchange:     0.2220 Hartree-Fock + 1.0000 wB97X-D + LR-HF
 Correlation:  1.0000 wB97X-D
 Using Euler-Maclaurin-Lebedev (75,302) quadrature formula
 Dispersion:   Grimme D
 SCF converges when DIIS error is below 1.0E-05
 Basis2 calculation detected. Using small basis as guess for larger.
 SCFMinFind is unable to tell whether the solution found is close.
 Resetting ReadMinima to 0 and attempting to follow guess.
 SCFMinFind following SCF Guess.
 using 3 threads for integral computing
 -------------------------------------------------------
 OpenMP Integral computing Module                
 Release: version 1.0, May 2013, Q-Chem Inc. Pittsburgh 
 -------------------------------------------------------
 using 3 threads for integral computing
 -------------------------------------------------------
 OpenMP Integral computing Module                
 Release: version 1.0, May 2013, Q-Chem Inc. Pittsburgh 
 -------------------------------------------------------
 ---------------------------------------
  Cycle       Energy         DIIS Error
 ---------------------------------------
    1    -119.1195753351      4.21E-03
    2    -119.1416079839      5.98E-04 Done RCA. Switching to DIIS
    3    -119.1424408591      4.20E-04
    4    -119.1434065662      4.55E-05
    5    -119.1434212711      1.01E-05
    6    -119.1434219601      3.88E-06 Convergence criterion met
 ---------------------------------------
 SCF time:  CPU 52.83 s  wall 17.93 s
 SCF   energy in the final basis set = -119.14342196
 Total energy in the final basis set = -119.14342196
 
 --------------------------------------------------------------
 
                    Orbital Energies (a.u.)
 --------------------------------------------------------------
 
 Alpha MOs
 -- Occupied --
-10.2733 -10.2651 -10.2643  -0.8810  -0.7770  -0.6776  -0.5452  -0.5245
 -0.4818  -0.4657  -0.4190  -0.4166  -0.4045
 -- Virtual --
  0.0694   0.0865   0.0911   0.0996   0.1239   0.1309   0.1327   0.1394
  0.1453   0.1684   0.1737   0.1907   0.2219   0.2388   0.2520   0.2575
  0.2879   0.2981   0.3106   0.3242   0.3344   0.3470   0.4576   0.4701
  0.4759   0.5033   0.5118   0.5169   0.5340   0.5601   0.5835   0.5922
  0.6112   0.6255   0.6329   0.6409   0.6540   0.6558   0.7070   0.7137
  0.7315   0.7660   0.8089   0.8559   0.8836   0.9059   0.9221   0.9634
  1.0009   1.0228   1.0924   1.1160   1.1449   1.1749   1.1885   1.2203
  1.2361   1.2502   1.2549   1.2723   1.2739   1.3175   1.3360   1.3592
  1.3718   1.3886   1.4299   1.4439   1.4527   1.4652   1.4669   1.5150
  1.5245   1.5515   1.5814   1.5995   1.6342   1.6423   1.6675   1.6940
  1.7419   2.3603   2.4122   2.4724   2.4794   2.5300   2.6104   2.6284
  2.6535   2.6828   2.8026   2.8221   2.8386   2.8965   2.9267   2.9332
  2.9389   2.9558   3.0074   3.0350   3.0489   3.0660   3.0814   3.1056
  3.1312   3.1429   3.1715   3.1872   3.1985   3.2406   3.2763   3.2963
  3.2991   3.3222   3.3446   3.3585   3.3736   3.4073   3.4159   3.4354
  3.4399   3.4759   3.5056   3.5291   3.5689   3.5832   3.6093   3.6200
  3.6391   3.6522   3.6951   3.7023   3.7637   3.7870   3.8363   3.8714
  3.8853   3.9271   3.9530   3.9779   4.0060   4.0164   4.0545   4.0664
  4.0885   4.0916   4.1148   4.1265   4.1511   4.1726   4.2031   4.2126
  4.2292   4.2647   4.3003   4.3157   4.3463   4.4070   4.4183   4.4487
  4.4800   4.5238   4.5926   4.6076   4.6418   4.8166   4.8410   4.9128
  4.9347   4.9397   4.9737   4.9920   5.0070   5.0510   5.0558   5.1146
  5.1441   5.2144   5.2322   5.2795   5.2832   5.3238   5.3492   5.3666
  5.3710   5.3972   5.4163   5.5093   5.5172   5.5367   5.6401   5.7205
  5.9591   6.3624   6.3796   6.4010   6.4229   6.4869  25.1633  25.4182
 25.4639
 --------------------------------------------------------------
 
 -----------------------------------------------------------------
                    Cartesian Multipole Moments
 -----------------------------------------------------------------
    Charge (ESU x 10^10)
                -0.0000
    Dipole Moment (Debye)
         X       0.0013      Y       0.0510      Z      -0.0711
       Tot       0.0875
    Quadrupole Moments (Debye-Ang)
        XX     -22.2003     XY       0.1452     YY     -21.4779
        XZ       0.0965     YZ       0.2132     ZZ     -21.7050
    Octopole Moments (Debye-Ang^2)
       XXX       0.1698    XXY       0.1624    XYY      -0.1814
       YYY      -0.9439    XXZ      -1.5249    XYZ      -0.0163
       YYZ       0.3923    XZZ      -0.1140    YZZ      -0.1575
       ZZZ      -0.7421
    Hexadecapole Moments (Debye-Ang^3)
      XXXX    -197.9038   XXXY      14.0746   XXYY     -43.7511
      XYYY      13.3147   YYYY     -54.4745   XXXZ       4.9148
      XXYZ       1.8929   XYYZ       0.7204   YYYZ       4.6449
      XXZZ     -42.7931   XYZZ       4.6373   YYZZ     -20.1661
      XZZZ       5.5913   YZZZ       6.4657   ZZZZ     -62.5945
 -----------------------------------------------------------------
Archival summary:
1\1\centos77-c4\SP\ProcedureUnspecified\BasisUnspecified\38\shihchen\TueJul700:49:182020TueJul700:49:182020\0\\#,ProcedureUnspecified,BasisUnspecified,\\0,1\C\H,1,1.09259\H,1,1.09259,2,106.225\C,1,1.52405,2,109.48,3,-118.121,0\H,4,1.09047,1,111.633,2,58.0358,0\H,4,1.09187,1,110.906,2,178.334,0\H,4,1.09187,1,110.906,2,-62.2628,0\C,1,1.52405,2,109.48,3,118.121,0\H,8,1.09047,1,111.633,2,91.9642,0\H,8,1.09187,1,110.906,2,-147.737,0\H,8,1.09187,1,110.906,2,-28.3343,0\\\@

 Total job time:  28.13s(wall), 76.14s(cpu) 
 Tue Jul  7 00:49:18 2020

        *************************************************************
        *                                                           *
        *  Thank you very much for using Q-Chem.  Have a nice day.  *
        *                                                           *
        *************************************************************


