                  Welcome to Q-Chem
     A Quantum Leap Into The Future Of Chemistry


 Q-Chem 5.3 (devel), Q-Chem, Inc., Pleasanton, CA (2020)

 Yihan Shao,  Zhengting Gan,  E. Epifanovsky,  A. T. B. Gilbert,  M. Wormit,  
 J. Kussmann,  A. W. Lange,  A. Behn,  Jia Deng,  Xintian Feng,  D. Ghosh,  
 M. Goldey,  P. R. Horn,  L. D. Jacobson,  I. Kaliman,  T. Kus,  A. Landau,  
 Jie Liu,  E. I. Proynov,  R. M. Richard,  R. P. Steele,  E. J. Sundstrom,  
 H. L. Woodcock III,  P. M. Zimmerman,  D. Zuev,  B. Alam,  B. Albrecht,  
 E. Alguire,  S. A. Baeppler,  D. Barton,  Z. Benda,  Y. A. Bernard,  
 E. J. Berquist,  K. B. Bravaya,  H. Burton,  K. Carter-Fenk,  D. Casanova,  
 Chun-Min Chang,  Yunqing Chen,  A. Chien,  K. D. Closser,  M. P. Coons,  
 S. Coriani,  S. Dasgupta,  A. L. Dempwolff,  M. Diedenhofen,  Hainam Do,  
 R. G. Edgar,  Po-Tung Fang,  S. Faraji,  S. Fatehi,  Qingguo Feng,  
 J. Fosso-Tande,  J. Gayvert,  Qinghui Ge,  A. Ghysels,  G. Gidofalvi,  
 J. Gomes,  J. Gonthier,  A. Gunina,  D. Hait,  M. W. D. Hanson-Heine,  
 P. H. P. Harbach,  A. W. Hauser,  M. F. Herbst,  J. E. Herr,  
 E. G. Hohenstein,  Z. C. Holden,  Kerwin Hui,  B. C. Huynh,  T.-C. Jagau,  
 Hyunjun Ji,  B. Kaduk,  K. Khistyaev,  Jaehoon Kim,  P. Klunzinger,  K. Koh,  
 D. Kosenkov,  L. Koulias,  T. Kowalczyk,  C. M. Krauter,  A. Kunitsa,  
 Ka Un Lao,  A. Laurent,  K. V. Lawler,  Joonho Lee,  D. Lefrancois,  
 S. Lehtola,  D. S. Levine,  Yi-Pei Li,  You-Sheng Lin,  Fenglai Liu,  
 Kuan-Yu Liu,  E. Livshits,  M. Loipersberger,  A. Luenser,  P. Manohar,  
 E. Mansoor,  S. F. Manzer,  Shan-Ping Mao,  Yuezhi Mao,  N. Mardirossian,  
 A. V. Marenich,  T. Markovich,  L. A. Martinez-Martinez,  S. A. Maurer,  
 N. J. Mayhall,  S. C. McKenzie,  J.-M. Mewes,  P. Morgante,  A. F. Morrison,  
 J. W. Mullinax,  K. Nanda,  T. S. Nguyen-Beck,  R. Olivares-Amaya,  
 K. J. Oosterbaan,  J. A. Parkhill,  S. K. Paul,  F. Pavosevic,  Zheng Pei,  
 T. M. Perrine,  F. Plasser,  P. Pokhilko,  S. Prager,  A. Prociuk,  
 E. Ramos,  B. Rana,  D. R. Rehn,  F. Rob,  M. Scheurer,  M. Schneider,  
 N. Sergueev,  S. M. Sharada,  S. Sharma,  D. W. Small,  T. Stauch,  
 C. J. Stein,  T. Stein,  Yu-Chuan Su,  S. P. Veccham,  Zhen Tao,  
 A. J. W. Thom,  A. Tkatchenko,  T. Tsuchimochi,  N. M. Tubman,  L. Vogt,  
 M. L. Vidal,  O. Vydrov,  M. A. Watson,  J. Wenzel,  M. de Wergifosse,  
 T. A. Wesolowski,  A. White,  J. Witte,  A. Yamada,  Jun Yang,  K. Yao,  
 S. Yeganeh,  S. R. Yost,  Zhi-Qiang You,  A. Zech,  Igor Ying Zhang,  
 Xing Zhang,  Yan Zhao,  Ying Zhu,  B. R. Brooks,  G. K. L. Chan,  
 C. J. Cramer,  M. S. Gordon,  W. J. Hehre,  A. Klamt,  M. W. Schmidt,  
 C. D. Sherrill,  D. G. Truhlar,  A. Aspuru-Guzik,  R. Baer,  A. T. Bell,  
 N. A. Besley,  Jeng-Da Chai,  A. E. DePrince, III,  R. A. DiStasio Jr.,  
 A. Dreuw,  B. D. Dunietz,  T. R. Furlani,  Chao-Ping Hsu,  Yousung Jung,  
 Jing Kong,  D. S. Lambrecht,  WanZhen Liang,  C. Ochsenfeld,  
 V. A. Rassolov,  L. V. Slipchenko,  J. E. Subotnik,  T. Van Voorhis,  
 J. M. Herbert,  A. I. Krylov,  P. M. W. Gill,  M. Head-Gordon

 Contributors to earlier versions of Q-Chem not listed above: 
 R. D. Adamson,  B. Austin,  J. Baker,  G. J. O. Beran,  K. Brandhorst,  
 S. T. Brown,  E. F. C. Byrd,  A. K. Chakraborty,  C.-L. Cheng,  
 Siu Hung Chien,  D. M. Chipman,  D. L. Crittenden,  H. Dachsel,  
 R. J. Doerksen,  A. D. Dutoi,  L. Fusti-Molnar,  W. A. Goddard III,  
 A. Golubeva-Zadorozhnaya,  S. R. Gwaltney,  G. Hawkins,  A. Heyden,  
 S. Hirata,  G. Kedziora,  F. J. Keil,  C. Kelley,  Jihan Kim,  R. A. King,  
 R. Z. Khaliullin,  P. P. Korambath,  W. Kurlancheek,  A. M. Lee,  M. S. Lee,  
 S. V. Levchenko,  Ching Yeh Lin,  D. Liotard,  R. C. Lochan,  I. Lotan,  
 P. E. Maslen,  N. Nair,  D. P. O'Neill,  D. Neuhauser,  E. Neuscamman,  
 C. M. Oana,  R. Olson,  B. Peters,  R. Peverati,  P. A. Pieniazek,  
 Y. M. Rhee,  J. Ritchie,  M. A. Rohrdanz,  E. Rosta,  N. J. Russ,  
 H. F. Schaefer III,  N. E. Schultz,  N. Shenvi,  A. C. Simmonett,  A. Sodt,  
 D. Stuck,  K. S. Thanthiriwatte,  V. Vanovschi,  Tao Wang,  A. Warshel,  
 C. F. Williams,  Q. Wu,  X. Xu,  W. Zhang

 Please cite Q-Chem as follows:
 Y. Shao et al., Mol. Phys. 113, 184-215 (2015)
 DOI: 10.1080/00268976.2014.952696

 Q-Chem 5.3.0 for Intel X86 EM64T Linux

 Parts of Q-Chem use Armadillo 9.800.1 (Horizon Scraper).
 http://arma.sourceforge.net/

 Q-Chem begins on Tue Jul  7 00:35:12 2020  

Host: centos77-c4
0

     Scratch files written to /tmp/26964.centos77-h1/qchem88979//
Processing $rem in /opt/qchem-5.3.0-intel2020u1//config/preferences:
Processing $rem in /home/shihchengli/.qchemrc:

Checking the input file for inconsistencies... 	...done.

--------------------------------------------------------------
User input:
--------------------------------------------------------------
$rem
   JOBTYPE  sp
   EXCHANGE   omegaB97X-D
   BASIS   6-311+G(2df,2pd)
   UNRESTRICTED   False
   max_scf_cycles   250
   geom_opt_max_cycles   1500
   basis2 6-31G*
   scf_algorithm rca_diis
   SYM_IGNORE  TRUE
   print_input   true
   geom_opt_dmax   80
   pop_mulliken false
   XC_GRID 000075000302
$end

$molecule
0 1
C       1.2440115059     -0.1385281535     0.3291428609
C       -0.0738416831     -0.4698178064     -0.3609519771
H       1.6692341086     0.7861177675     -0.0663201470
H       1.9772031398     -0.9318592065     0.1702995415
H       1.1143316149     -0.0136440015     1.4046471424
C       -1.1929324998     0.4889456064     0.0278014274
H       -0.3678086654     -1.4925517249     -0.1132516807
H       0.0661727672     -0.4463014591     -1.4442800099
H       -1.3725894501     0.4620317619     1.1044510107
H       -2.1285456538     0.2391948698     -0.4735716678
H       -0.9352352448     1.5164130122     -0.2369214815
$end
--------------------------------------------------------------
 ----------------------------------------------------------------
             Standard Nuclear Orientation (Angstroms)
    I     Atom           X                Y                Z
 ----------------------------------------------------------------
    1      C       1.2440115059    -0.1385281535     0.3291428609
    2      C      -0.0738416831    -0.4698178064    -0.3609519771
    3      H       1.6692341086     0.7861177675    -0.0663201470
    4      H       1.9772031398    -0.9318592065     0.1702995415
    5      H       1.1143316149    -0.0136440015     1.4046471424
    6      C      -1.1929324998     0.4889456064     0.0278014274
    7      H      -0.3678086654    -1.4925517249    -0.1132516807
    8      H       0.0661727672    -0.4463014591    -1.4442800099
    9      H      -1.3725894501     0.4620317619     1.1044510107
   10      H      -2.1285456538     0.2391948698    -0.4735716678
   11      H      -0.9352352448     1.5164130122    -0.2369214815
 ----------------------------------------------------------------
 Nuclear Repulsion Energy =          82.72340774 hartrees
 There are       13 alpha and       13 beta electrons
 Requested basis set is 6-311+G(2df,2pd)
 There are 72 shells and 214 basis functions

 Total QAlloc Memory Limit   2000 MB
 Mega-Array Size       188 MB
 MEM_STATIC part       192 MB

                       Distance Matrix (Angstroms)
             C (  1)   C (  2)   H (  3)   H (  4)   H (  5)   C (  6)
   C (  2)  1.524047
   H (  3)  1.091868  2.168524
   H (  4)  1.091868  2.168524  1.761329
   H (  5)  1.090469  2.176509  1.763882  1.763882
   C (  6)  2.534408  1.524047  2.879091  3.476888  2.733454
   H (  7)  2.151060  1.092592  3.056809  2.427727  2.586102  2.151060
   H (  8)  2.151060  1.092592  2.446924  2.548464  3.066303  2.151059
   H (  9)  2.794347  2.168524  3.275428  3.746556  2.549738  1.091868
   H ( 10)  3.487286  2.176509  3.858511  4.317767  3.756047  1.090469
   H ( 11)  2.794347  2.168524  2.710295  3.826508  3.039169  1.091868
             H (  7)   H (  8)   H (  9)   H ( 10)
   H (  8)  1.747746
   H (  9)  2.512525  3.064496
   H ( 10)  2.495791  2.495790  1.763883
   H ( 11)  3.064496  2.512525  1.761329  1.763882
 
 A cutoff of  1.0D-09 yielded   2532 shell pairs
 There are     22550 function pairs (     27725 Cartesian)
 Smallest overlap matrix eigenvalue = 8.62E-05

 Scale SEOQF with 1.000000e-01/1.000000e-01/1.000000e-01

 Standard Electronic Orientation quadrupole field applied
 Nucleus-field energy     =     0.0000000011 hartrees
 Requested basis set is 6-31G(d)
 There are 28 shells and 58 basis functions
 A cutoff of  1.0D-09 yielded    402 shell pairs
 There are      1773 function pairs (      1968 Cartesian)
 Smallest overlap matrix eigenvalue = 6.76E-03
 Guess from superposition of atomic densities
 Warning:  Energy on first SCF cycle will be non-variational
 SAD guess density has 26.000000 electrons
 Long-range K will be added via erf
 Coulomb attenuation parameter = 0.2 bohr**(-1)
 A restricted hybrid HF-DFT SCF calculation will be
 performed using Relaxed Constraint Minimization + Pulay DIIS
 Exchange:     0.2220 Hartree-Fock + 1.0000 wB97X-D + LR-HF
 Correlation:  1.0000 wB97X-D
 Using Euler-Maclaurin-Lebedev (75,302) quadrature formula
 Dispersion:   Grimme D
 SCF converges when DIIS error is below 1.0E-04
 using 3 threads for integral computing
 -------------------------------------------------------
 OpenMP Integral computing Module                
 Release: version 1.0, May 2013, Q-Chem Inc. Pittsburgh 
 -------------------------------------------------------
 using 3 threads for integral computing
 -------------------------------------------------------
 OpenMP Integral computing Module                
 Release: version 1.0, May 2013, Q-Chem Inc. Pittsburgh 
 -------------------------------------------------------
 ---------------------------------------
  Cycle       Energy         DIIS Error
 ---------------------------------------
    1    -119.6182727896      1.00E-01
    2    -119.0665240336      9.00E-03
    3    -119.0876050546      2.46E-03
    4    -119.1014867294      1.68E-03
    5    -119.1021824696      2.67E-04 Done RCA. Switching to DIIS
    6    -119.1026920371      1.97E-04
    7    -119.1027088790      4.48E-06 Convergence criterion met
 ---------------------------------------
 SCF time:  CPU 21.43 s  wall 7.95 s
 SCF   energy in the small basis set = -119.10270888
 Total energy in the small basis set = -119.10270888
 ----------------------------------------------------
  Cycle       Energy    
 ----------------------------------------------------
    1     -16.5395799133     -1.65E+01
 Long-range K will be added via erf
 Coulomb attenuation parameter = 0.2 bohr**(-1)
 A restricted hybrid HF-DFT SCF calculation will be
 performed using Relaxed Constraint Minimization + Pulay DIIS
 Exchange:     0.2220 Hartree-Fock + 1.0000 wB97X-D + LR-HF
 Correlation:  1.0000 wB97X-D
 Using Euler-Maclaurin-Lebedev (75,302) quadrature formula
 Dispersion:   Grimme D
 SCF converges when DIIS error is below 1.0E-05
 Basis2 calculation detected. Using small basis as guess for larger.
 SCFMinFind is unable to tell whether the solution found is close.
 Resetting ReadMinima to 0 and attempting to follow guess.
 SCFMinFind following SCF Guess.
 using 3 threads for integral computing
 -------------------------------------------------------
 OpenMP Integral computing Module                
 Release: version 1.0, May 2013, Q-Chem Inc. Pittsburgh 
 -------------------------------------------------------
 using 3 threads for integral computing
 -------------------------------------------------------
 OpenMP Integral computing Module                
 Release: version 1.0, May 2013, Q-Chem Inc. Pittsburgh 
 -------------------------------------------------------
 ---------------------------------------
  Cycle       Energy         DIIS Error
 ---------------------------------------
    1    -119.1217808754      4.21E-03
    2    -119.1438173486      5.97E-04 Done RCA. Switching to DIIS
    3    -119.1446490163      4.18E-04
    4    -119.1456055779      4.55E-05
    5    -119.1456202762      1.01E-05
    6    -119.1456209571      3.85E-06 Convergence criterion met
 ---------------------------------------
 SCF time:  CPU 52.07 s  wall 17.69 s
 SCF   energy in the final basis set = -119.14562096
 Total energy in the final basis set = -119.14562096
 
 --------------------------------------------------------------
 
                    Orbital Energies (a.u.)
 --------------------------------------------------------------
 
 Alpha MOs
 -- Occupied --
-10.2739 -10.2650 -10.2650  -0.8811  -0.7772  -0.6776  -0.5457  -0.5238
 -0.4828  -0.4642  -0.4183  -0.4175  -0.4072
 -- Virtual --
  0.0691   0.0861   0.0910   0.0990   0.1250   0.1302   0.1333   0.1417
  0.1440   0.1704   0.1724   0.1912   0.2321   0.2401   0.2455   0.2623
  0.2829   0.2873   0.3109   0.3139   0.3350   0.3491   0.4584   0.4667
  0.4715   0.5097   0.5120   0.5174   0.5433   0.5613   0.5844   0.5865
  0.6221   0.6260   0.6407   0.6437   0.6534   0.6593   0.7084   0.7237
  0.7274   0.7665   0.8177   0.8645   0.8714   0.8791   0.8841   0.9593
  1.0008   1.0429   1.0686   1.1361   1.1401   1.1787   1.1922   1.2048
  1.2387   1.2424   1.2569   1.2752   1.2872   1.2956   1.3315   1.3667
  1.3834   1.3908   1.4046   1.4523   1.4616   1.4704   1.4720   1.4894
  1.5237   1.5750   1.6086   1.6145   1.6396   1.6440   1.6793   1.6971
  1.7416   2.3721   2.4518   2.4803   2.5020   2.5495   2.5602   2.6013
  2.6339   2.7070   2.8181   2.8341   2.8397   2.9060   2.9287   2.9311
  2.9369   2.9414   3.0027   3.0186   3.0545   3.0712   3.0783   3.1011
  3.1346   3.1367   3.1746   3.1921   3.2022   3.2281   3.2812   3.3030
  3.3216   3.3386   3.3418   3.3493   3.3697   3.3825   3.3992   3.4441
  3.4600   3.4877   3.4953   3.5167   3.5659   3.5788   3.5990   3.6194
  3.6247   3.6789   3.6810   3.7039   3.7811   3.7992   3.8762   3.8867
  3.9260   3.9379   3.9560   3.9646   3.9737   3.9941   4.0541   4.0625
  4.0819   4.0973   4.1086   4.1400   4.1566   4.1609   4.1876   4.2037
  4.2174   4.2460   4.2699   4.3671   4.3913   4.4000   4.4149   4.4281
  4.4449   4.5685   4.5897   4.6010   4.6598   4.8093   4.8298   4.9010
  4.9399   4.9589   4.9625   4.9770   5.0309   5.0449   5.0545   5.1043
  5.1314   5.2399   5.2485   5.2749   5.3053   5.3495   5.3567   5.3667
  5.3745   5.3922   5.4458   5.4976   5.5443   5.5531   5.6310   5.7383
  5.9537   6.3837   6.3847   6.3929   6.4151   6.4679  25.1983  25.4390
 25.4541
 --------------------------------------------------------------
 
 -----------------------------------------------------------------
                    Cartesian Multipole Moments
 -----------------------------------------------------------------
    Charge (ESU x 10^10)
                -0.0000
    Dipole Moment (Debye)
         X      -0.0064      Y      -0.0662      Z      -0.0580
       Tot       0.0883
    Quadrupole Moments (Debye-Ang)
        XX     -22.1437     XY       0.1544     YY     -21.6901
        XZ      -0.1244     YZ      -0.2080     ZZ     -21.5375
    Octopole Moments (Debye-Ang^2)
       XXX      -0.3168    XXY      -0.3941    XYY       0.8153
       YYY       1.2124    XXZ      -1.1724    XYZ      -0.0776
       YYZ      -0.6432    XZZ      -0.2278    YZZ       0.5613
       ZZZ      -0.4146
    Hexadecapole Moments (Debye-Ang^3)
      XXXX    -191.8345   XXXY      17.7054   XXYY     -43.0779
      XYYY      17.9662   YYYY     -67.3303   XXXZ      -9.1564
      XXYZ      -1.2792   XYYZ      -3.7193   YYYZ      -5.0755
      XXZZ     -41.8500   XYZZ       6.0877   YYZZ     -22.3807
      XZZZ     -10.4840   YZZZ      -3.3520   ZZZZ     -54.4404
 -----------------------------------------------------------------
Archival summary:
1\1\centos77-c4\SP\ProcedureUnspecified\BasisUnspecified\38\shihchen\TueJul700:35:412020TueJul700:35:412020\0\\#,ProcedureUnspecified,BasisUnspecified,\\0,1\C\H,1,1.09259\H,1,1.09259,2,106.225\C,1,1.52405,2,109.48,3,-118.121,0\H,4,1.09047,1,111.633,2,58.0357,0\H,4,1.09187,1,110.906,2,178.334,0\H,4,1.09187,1,110.906,2,-62.2628,0\C,1,1.52405,2,109.48,3,118.121,0\H,8,1.09047,1,111.633,2,171.964,0\H,8,1.09187,1,110.906,2,51.6657,0\H,8,1.09187,1,110.906,2,-67.7372,0\\\@

 Total job time:  28.54s(wall), 77.08s(cpu) 
 Tue Jul  7 00:35:41 2020

        *************************************************************
        *                                                           *
        *  Thank you very much for using Q-Chem.  Have a nice day.  *
        *                                                           *
        *************************************************************


