                  Welcome to Q-Chem
     A Quantum Leap Into The Future Of Chemistry


 Q-Chem 5.3 (devel), Q-Chem, Inc., Pleasanton, CA (2020)

 Yihan Shao,  Zhengting Gan,  E. Epifanovsky,  A. T. B. Gilbert,  M. Wormit,  
 J. Kussmann,  A. W. Lange,  A. Behn,  Jia Deng,  Xintian Feng,  D. Ghosh,  
 M. Goldey,  P. R. Horn,  L. D. Jacobson,  I. Kaliman,  T. Kus,  A. Landau,  
 Jie Liu,  E. I. Proynov,  R. M. Richard,  R. P. Steele,  E. J. Sundstrom,  
 H. L. Woodcock III,  P. M. Zimmerman,  D. Zuev,  B. Alam,  B. Albrecht,  
 E. Alguire,  S. A. Baeppler,  D. Barton,  Z. Benda,  Y. A. Bernard,  
 E. J. Berquist,  K. B. Bravaya,  H. Burton,  K. Carter-Fenk,  D. Casanova,  
 Chun-Min Chang,  Yunqing Chen,  A. Chien,  K. D. Closser,  M. P. Coons,  
 S. Coriani,  S. Dasgupta,  A. L. Dempwolff,  M. Diedenhofen,  Hainam Do,  
 R. G. Edgar,  Po-Tung Fang,  S. Faraji,  S. Fatehi,  Qingguo Feng,  
 J. Fosso-Tande,  J. Gayvert,  Qinghui Ge,  A. Ghysels,  G. Gidofalvi,  
 J. Gomes,  J. Gonthier,  A. Gunina,  D. Hait,  M. W. D. Hanson-Heine,  
 P. H. P. Harbach,  A. W. Hauser,  M. F. Herbst,  J. E. Herr,  
 E. G. Hohenstein,  Z. C. Holden,  Kerwin Hui,  B. C. Huynh,  T.-C. Jagau,  
 Hyunjun Ji,  B. Kaduk,  K. Khistyaev,  Jaehoon Kim,  P. Klunzinger,  K. Koh,  
 D. Kosenkov,  L. Koulias,  T. Kowalczyk,  C. M. Krauter,  A. Kunitsa,  
 Ka Un Lao,  A. Laurent,  K. V. Lawler,  Joonho Lee,  D. Lefrancois,  
 S. Lehtola,  D. S. Levine,  Yi-Pei Li,  You-Sheng Lin,  Fenglai Liu,  
 Kuan-Yu Liu,  E. Livshits,  M. Loipersberger,  A. Luenser,  P. Manohar,  
 E. Mansoor,  S. F. Manzer,  Shan-Ping Mao,  Yuezhi Mao,  N. Mardirossian,  
 A. V. Marenich,  T. Markovich,  L. A. Martinez-Martinez,  S. A. Maurer,  
 N. J. Mayhall,  S. C. McKenzie,  J.-M. Mewes,  P. Morgante,  A. F. Morrison,  
 J. W. Mullinax,  K. Nanda,  T. S. Nguyen-Beck,  R. Olivares-Amaya,  
 K. J. Oosterbaan,  J. A. Parkhill,  S. K. Paul,  F. Pavosevic,  Zheng Pei,  
 T. M. Perrine,  F. Plasser,  P. Pokhilko,  S. Prager,  A. Prociuk,  
 E. Ramos,  B. Rana,  D. R. Rehn,  F. Rob,  M. Scheurer,  M. Schneider,  
 N. Sergueev,  S. M. Sharada,  S. Sharma,  D. W. Small,  T. Stauch,  
 C. J. Stein,  T. Stein,  Yu-Chuan Su,  S. P. Veccham,  Zhen Tao,  
 A. J. W. Thom,  A. Tkatchenko,  T. Tsuchimochi,  N. M. Tubman,  L. Vogt,  
 M. L. Vidal,  O. Vydrov,  M. A. Watson,  J. Wenzel,  M. de Wergifosse,  
 T. A. Wesolowski,  A. White,  J. Witte,  A. Yamada,  Jun Yang,  K. Yao,  
 S. Yeganeh,  S. R. Yost,  Zhi-Qiang You,  A. Zech,  Igor Ying Zhang,  
 Xing Zhang,  Yan Zhao,  Ying Zhu,  B. R. Brooks,  G. K. L. Chan,  
 C. J. Cramer,  M. S. Gordon,  W. J. Hehre,  A. Klamt,  M. W. Schmidt,  
 C. D. Sherrill,  D. G. Truhlar,  A. Aspuru-Guzik,  R. Baer,  A. T. Bell,  
 N. A. Besley,  Jeng-Da Chai,  A. E. DePrince, III,  R. A. DiStasio Jr.,  
 A. Dreuw,  B. D. Dunietz,  T. R. Furlani,  Chao-Ping Hsu,  Yousung Jung,  
 Jing Kong,  D. S. Lambrecht,  WanZhen Liang,  C. Ochsenfeld,  
 V. A. Rassolov,  L. V. Slipchenko,  J. E. Subotnik,  T. Van Voorhis,  
 J. M. Herbert,  A. I. Krylov,  P. M. W. Gill,  M. Head-Gordon

 Contributors to earlier versions of Q-Chem not listed above: 
 R. D. Adamson,  B. Austin,  J. Baker,  G. J. O. Beran,  K. Brandhorst,  
 S. T. Brown,  E. F. C. Byrd,  A. K. Chakraborty,  C.-L. Cheng,  
 Siu Hung Chien,  D. M. Chipman,  D. L. Crittenden,  H. Dachsel,  
 R. J. Doerksen,  A. D. Dutoi,  L. Fusti-Molnar,  W. A. Goddard III,  
 A. Golubeva-Zadorozhnaya,  S. R. Gwaltney,  G. Hawkins,  A. Heyden,  
 S. Hirata,  G. Kedziora,  F. J. Keil,  C. Kelley,  Jihan Kim,  R. A. King,  
 R. Z. Khaliullin,  P. P. Korambath,  W. Kurlancheek,  A. M. Lee,  M. S. Lee,  
 S. V. Levchenko,  Ching Yeh Lin,  D. Liotard,  R. C. Lochan,  I. Lotan,  
 P. E. Maslen,  N. Nair,  D. P. O'Neill,  D. Neuhauser,  E. Neuscamman,  
 C. M. Oana,  R. Olson,  B. Peters,  R. Peverati,  P. A. Pieniazek,  
 Y. M. Rhee,  J. Ritchie,  M. A. Rohrdanz,  E. Rosta,  N. J. Russ,  
 H. F. Schaefer III,  N. E. Schultz,  N. Shenvi,  A. C. Simmonett,  A. Sodt,  
 D. Stuck,  K. S. Thanthiriwatte,  V. Vanovschi,  Tao Wang,  A. Warshel,  
 C. F. Williams,  Q. Wu,  X. Xu,  W. Zhang

 Please cite Q-Chem as follows:
 Y. Shao et al., Mol. Phys. 113, 184-215 (2015)
 DOI: 10.1080/00268976.2014.952696

 Q-Chem 5.3.0 for Intel X86 EM64T Linux

 Parts of Q-Chem use Armadillo 9.800.1 (Horizon Scraper).
 http://arma.sourceforge.net/

 Q-Chem begins on Tue Jul  7 00:38:03 2020  

Host: centos77-c4
0

     Scratch files written to /tmp/26964.centos77-h1/qchem89791//
Processing $rem in /opt/qchem-5.3.0-intel2020u1//config/preferences:
Processing $rem in /home/shihchengli/.qchemrc:

Checking the input file for inconsistencies... 	...done.

--------------------------------------------------------------
User input:
--------------------------------------------------------------
$rem
   JOBTYPE  sp
   EXCHANGE   omegaB97X-D
   BASIS   6-311+G(2df,2pd)
   UNRESTRICTED   False
   max_scf_cycles   250
   geom_opt_max_cycles   1500
   basis2 6-31G*
   scf_algorithm rca_diis
   SYM_IGNORE  TRUE
   print_input   true
   geom_opt_dmax   80
   pop_mulliken false
   XC_GRID 000075000302
$end

$molecule
0 1
C       1.2332116953     -0.1607425880     0.3632932776
C       -0.1117035351     -0.5412875057     -0.2442504130
H       1.2540569739     0.8974061317     0.6317371135
H       2.0446923343     -0.3360522064     -0.3458900851
H       1.4454710875     -0.7382574963     1.2635959301
C       -1.1526258010     0.5617124888     -0.0939420768
H       -0.4790323539     -1.4556870095     0.2276603602
H       0.0201658281     -0.7759757237     -1.3031595700
H       -1.3243377495     0.7945407267     0.9589023174
H       -2.1086385801     0.2748094344     -0.5330873699
H       -0.8212599601     1.4795344140     -0.5838144650
$end
--------------------------------------------------------------
 ----------------------------------------------------------------
             Standard Nuclear Orientation (Angstroms)
    I     Atom           X                Y                Z
 ----------------------------------------------------------------
    1      C       1.2332116953    -0.1607425880     0.3632932776
    2      C      -0.1117035351    -0.5412875057    -0.2442504130
    3      H       1.2540569739     0.8974061317     0.6317371135
    4      H       2.0446923343    -0.3360522064    -0.3458900851
    5      H       1.4454710875    -0.7382574963     1.2635959301
    6      C      -1.1526258010     0.5617124888    -0.0939420768
    7      H      -0.4790323539    -1.4556870095     0.2276603602
    8      H       0.0201658281    -0.7759757237    -1.3031595700
    9      H      -1.3243377495     0.7945407267     0.9589023174
   10      H      -2.1086385801     0.2748094344    -0.5330873699
   11      H      -0.8212599601     1.4795344140    -0.5838144650
 ----------------------------------------------------------------
 Nuclear Repulsion Energy =          82.75051202 hartrees
 There are       13 alpha and       13 beta electrons
 Requested basis set is 6-311+G(2df,2pd)
 There are 72 shells and 214 basis functions

 Total QAlloc Memory Limit   2000 MB
 Mega-Array Size       188 MB
 MEM_STATIC part       192 MB

                       Distance Matrix (Angstroms)
             C (  1)   C (  2)   H (  3)   H (  4)   H (  5)   C (  6)
   C (  2)  1.524047
   H (  3)  1.091868  2.168524
   H (  4)  1.091868  2.168524  1.761329
   H (  5)  1.090469  2.176509  1.763882  1.763882
   C (  6)  2.534408  1.524047  2.536025  3.330511  3.206702
   H (  7)  2.151060  1.092592  2.950241  2.819881  2.300344  2.151060
   H (  8)  2.151060  1.092592  2.840162  2.282237  2.936180  2.151059
   H (  9)  2.794347  2.168524  2.601103  3.785642  3.180275  1.091868
   H ( 10)  3.487286  2.176509  3.612778  4.202184  4.109266  1.090469
   H ( 11)  2.794347  2.168524  2.474546  3.400977  3.670095  1.091868
             H (  7)   H (  8)   H (  9)   H ( 10)
   H (  8)  1.747746
   H (  9)  2.512525  3.064496
   H ( 10)  2.495791  2.495790  1.763883
   H ( 11)  3.064496  2.512525  1.761329  1.763882
 
 A cutoff of  1.0D-09 yielded   2532 shell pairs
 There are     22566 function pairs (     27757 Cartesian)
 Smallest overlap matrix eigenvalue = 8.04E-05

 Scale SEOQF with 1.000000e-01/1.000000e-01/1.000000e-01

 Standard Electronic Orientation quadrupole field applied
 Nucleus-field energy     =     0.0000000012 hartrees
 Requested basis set is 6-31G(d)
 There are 28 shells and 58 basis functions
 A cutoff of  1.0D-09 yielded    400 shell pairs
 There are      1771 function pairs (      1966 Cartesian)
 Smallest overlap matrix eigenvalue = 6.39E-03
 Guess from superposition of atomic densities
 Warning:  Energy on first SCF cycle will be non-variational
 SAD guess density has 26.000000 electrons
 Long-range K will be added via erf
 Coulomb attenuation parameter = 0.2 bohr**(-1)
 A restricted hybrid HF-DFT SCF calculation will be
 performed using Relaxed Constraint Minimization + Pulay DIIS
 Exchange:     0.2220 Hartree-Fock + 1.0000 wB97X-D + LR-HF
 Correlation:  1.0000 wB97X-D
 Using Euler-Maclaurin-Lebedev (75,302) quadrature formula
 Dispersion:   Grimme D
 SCF converges when DIIS error is below 1.0E-04
 using 3 threads for integral computing
 -------------------------------------------------------
 OpenMP Integral computing Module                
 Release: version 1.0, May 2013, Q-Chem Inc. Pittsburgh 
 -------------------------------------------------------
 using 3 threads for integral computing
 -------------------------------------------------------
 OpenMP Integral computing Module                
 Release: version 1.0, May 2013, Q-Chem Inc. Pittsburgh 
 -------------------------------------------------------
 ---------------------------------------
  Cycle       Energy         DIIS Error
 ---------------------------------------
    1    -119.6223513381      1.00E-01
    2    -119.0617996524      9.03E-03
    3    -119.0829661199      2.46E-03
    4    -119.0969138792      1.68E-03
    5    -119.0976100886      2.66E-04 Done RCA. Switching to DIIS
    6    -119.0981208264      1.97E-04
    7    -119.0981376058      4.40E-06 Convergence criterion met
 ---------------------------------------
 SCF time:  CPU 19.28 s  wall 6.96 s
 SCF   energy in the small basis set = -119.09813761
 Total energy in the small basis set = -119.09813761
 ----------------------------------------------------
  Cycle       Energy    
 ----------------------------------------------------
    1     -16.5427776236     -1.65E+01
 Long-range K will be added via erf
 Coulomb attenuation parameter = 0.2 bohr**(-1)
 A restricted hybrid HF-DFT SCF calculation will be
 performed using Relaxed Constraint Minimization + Pulay DIIS
 Exchange:     0.2220 Hartree-Fock + 1.0000 wB97X-D + LR-HF
 Correlation:  1.0000 wB97X-D
 Using Euler-Maclaurin-Lebedev (75,302) quadrature formula
 Dispersion:   Grimme D
 SCF converges when DIIS error is below 1.0E-05
 Basis2 calculation detected. Using small basis as guess for larger.
 SCFMinFind is unable to tell whether the solution found is close.
 Resetting ReadMinima to 0 and attempting to follow guess.
 SCFMinFind following SCF Guess.
 using 3 threads for integral computing
 -------------------------------------------------------
 OpenMP Integral computing Module                
 Release: version 1.0, May 2013, Q-Chem Inc. Pittsburgh 
 -------------------------------------------------------
 using 3 threads for integral computing
 -------------------------------------------------------
 OpenMP Integral computing Module                
 Release: version 1.0, May 2013, Q-Chem Inc. Pittsburgh 
 -------------------------------------------------------
 ---------------------------------------
  Cycle       Energy         DIIS Error
 ---------------------------------------
    1    -119.1173687566      4.21E-03
    2    -119.1394007092      6.01E-04 Done RCA. Switching to DIIS
    3    -119.1402360566      4.22E-04
    4    -119.1412128392      4.54E-05
    5    -119.1412275562      1.02E-05
    6    -119.1412282585      3.94E-06 Convergence criterion met
 ---------------------------------------
 SCF time:  CPU 52.11 s  wall 17.69 s
 SCF   energy in the final basis set = -119.14122826
 Total energy in the final basis set = -119.14122826
 
 --------------------------------------------------------------
 
                    Orbital Energies (a.u.)
 --------------------------------------------------------------
 
 Alpha MOs
 -- Occupied --
-10.2727 -10.2653 -10.2636  -0.8811  -0.7768  -0.6776  -0.5448  -0.5254
 -0.4799  -0.4680  -0.4189  -0.4160  -0.4026
 -- Virtual --
  0.0697   0.0869   0.0911   0.1011   0.1223   0.1310   0.1326   0.1382
  0.1453   0.1661   0.1748   0.1903   0.2147   0.2403   0.2518   0.2597
  0.2911   0.3046   0.3126   0.3276   0.3352   0.3491   0.4563   0.4763
  0.4851   0.4981   0.5123   0.5191   0.5255   0.5480   0.5751   0.5864
  0.6198   0.6253   0.6308   0.6386   0.6501   0.6551   0.7039   0.7106
  0.7356   0.7719   0.8079   0.8458   0.8977   0.9224   0.9603   0.9793
  0.9869   1.0329   1.0810   1.1096   1.1407   1.1753   1.1852   1.2187
  1.2232   1.2348   1.2593   1.2757   1.2827   1.3012   1.3285   1.3675
  1.3916   1.4129   1.4350   1.4476   1.4527   1.4657   1.4681   1.5150
  1.5283   1.5491   1.5683   1.6015   1.6311   1.6534   1.6645   1.6777
  1.7436   2.3562   2.3790   2.4664   2.4689   2.5052   2.6379   2.6609
  2.6811   2.6929   2.8002   2.8072   2.8489   2.8816   2.9322   2.9350
  2.9404   2.9675   3.0139   3.0417   3.0511   3.0648   3.0735   3.1139
  3.1222   3.1474   3.1869   3.1950   3.1979   3.2385   3.2672   3.2913
  3.3123   3.3155   3.3387   3.3531   3.3596   3.4034   3.4252   3.4355
  3.4511   3.4829   3.5289   3.5486   3.5618   3.5973   3.6088   3.6175
  3.6406   3.6742   3.6994   3.7146   3.7333   3.7446   3.7907   3.8490
  3.8719   3.9268   3.9486   3.9674   4.0034   4.0228   4.0457   4.0687
  4.0964   4.1060   4.1180   4.1309   4.1528   4.1741   4.1953   4.2078
  4.2558   4.2748   4.2898   4.3142   4.3536   4.4141   4.4231   4.4727
  4.4984   4.5512   4.6038   4.6154   4.6860   4.8101   4.8392   4.8780
  4.9088   4.9368   4.9575   4.9859   5.0005   5.0695   5.0760   5.1432
  5.1493   5.2008   5.2478   5.2791   5.2908   5.2970   5.3481   5.3577
  5.3745   5.3927   5.4301   5.4685   5.5250   5.5460   5.6465   5.7215
  5.9865   6.3371   6.3818   6.4064   6.4299   6.4954  25.1364  25.4189
 25.4826
 --------------------------------------------------------------
 
 -----------------------------------------------------------------
                    Cartesian Multipole Moments
 -----------------------------------------------------------------
    Charge (ESU x 10^10)
                -0.0000
    Dipole Moment (Debye)
         X      -0.0114      Y      -0.0742      Z      -0.0365
       Tot       0.0835
    Quadrupole Moments (Debye-Ang)
        XX     -22.1897     XY       0.1323     YY     -21.7720
        XZ      -0.2384     YZ      -0.1821     ZZ     -21.4362
    Octopole Moments (Debye-Ang^2)
       XXX      -0.4241    XXY      -0.2727    XYY       0.4616
       YYY       1.8589    XXZ      -1.3987    XYZ      -0.0564
       YYZ       0.0220    XZZ       0.2774    YZZ       0.0536
       ZZZ      -1.2201
    Hexadecapole Moments (Debye-Ang^3)
      XXXX    -186.0930   XXXY      19.7211   XXYY     -45.1156
      XYYY      20.4662   YYYY     -76.8484   XXXZ     -14.9587
      XXYZ       0.1374   XYYZ      -4.6089   YYYZ      -2.5095
      XXZZ     -39.3927   XYZZ       5.3913   YYZZ     -21.3266
      XZZZ     -15.1033   YZZZ      -0.8298   ZZZZ     -53.8975
 -----------------------------------------------------------------
Archival summary:
1\1\centos77-c4\SP\ProcedureUnspecified\BasisUnspecified\38\shihchen\TueJul700:38:302020TueJul700:38:302020\0\\#,ProcedureUnspecified,BasisUnspecified,\\0,1\C\H,1,1.09259\H,1,1.09259,2,106.225\C,1,1.52405,2,109.48,3,118.121,0\H,4,1.09047,1,111.633,2,-128.036,0\H,4,1.09187,1,110.906,2,-7.7372,0\H,4,1.09187,1,110.906,2,111.666,0\C,1,1.52405,2,109.48,3,-118.121,0\H,8,1.09047,1,111.633,2,58.0357,0\H,8,1.09187,1,110.906,2,178.334,0\H,8,1.09187,1,110.906,2,-62.2628,0\\\@

 Total job time:  27.63s(wall), 75.07s(cpu) 
 Tue Jul  7 00:38:30 2020

        *************************************************************
        *                                                           *
        *  Thank you very much for using Q-Chem.  Have a nice day.  *
        *                                                           *
        *************************************************************


