                  Welcome to Q-Chem
     A Quantum Leap Into The Future Of Chemistry


 Q-Chem 5.2 (devel), Q-Chem, Inc., Pleasanton, CA (2019)

 Yihan Shao,  Zhengting Gan,  E. Epifanovsky,  A. T. B. Gilbert,  M. Wormit,  
 J. Kussmann,  A. W. Lange,  A. Behn,  Jia Deng,  Xintian Feng,  D. Ghosh,  
 M. Goldey,  P. R. Horn,  L. D. Jacobson,  I. Kaliman,  T. Kus,  A. Landau,  
 Jie Liu,  E. I. Proynov,  R. M. Richard,  R. P. Steele,  E. J. Sundstrom,  
 H. L. Woodcock III,  P. M. Zimmerman,  D. Zuev,  B. Alam,  B. Albrecht,  
 E. Alguire,  S. A. Baeppler,  D. Barton,  Z. Benda,  Y. A. Bernard,  
 E. J. Berquist,  K. B. Bravaya,  H. Burton,  K. Carter-Fenk,  D. Casanova,  
 Chun-Min Chang,  Yunqing Chen,  A. Chien,  K. D. Closser,  M. P. Coons,  
 S. Coriani,  S. Dasgupta,  A. L. Dempwolff,  M. Diedenhofen,  Hainam Do,  
 R. G. Edgar,  Po-Tung Fang,  S. Faraji,  S. Fatehi,  Qingguo Feng,  
 J. Fosso-Tande,  J. Gayvert,  Qinghui Ge,  A. Ghysels,  G. Gidofalvi,  
 J. Gomes,  J. Gonthier,  A. Gunina,  D. Hait,  M. W. D. Hanson-Heine,  
 P. H. P. Harbach,  A. W. Hauser,  M. F. Herbst,  J. E. Herr,  
 E. G. Hohenstein,  Z. C. Holden,  Kerwin Hui,  B. C. Huynh,  T.-C. Jagau,  
 Hyunjun Ji,  B. Kaduk,  K. Khistyaev,  Jaehoon Kim,  P. Klunzinger,  K. Koh,  
 D. Kosenkov,  L. Koulias,  T. Kowalczyk,  C. M. Krauter,  A. Kunitsa,  
 Ka Un Lao,  A. Laurent,  K. V. Lawler,  Joonho Lee,  D. Lefrancois,  
 S. Lehtola,  D. S. Levine,  Yi-Pei Li,  You-Sheng Lin,  Fenglai Liu,  
 Kuan-Yu Liu,  E. Livshits,  M. Loipersberger,  A. Luenser,  P. Manohar,  
 E. Mansoor,  S. F. Manzer,  Shan-Ping Mao,  Yuezhi Mao,  N. Mardirossian,  
 A. V. Marenich,  T. Markovich,  L. A. Martinez-Martinez,  S. A. Maurer,  
 N. J. Mayhall,  S. C. McKenzie,  J.-M. Mewes,  P. Morgante,  A. F. Morrison,  
 J. W. Mullinax,  K. Nanda,  T. S. Nguyen-Beck,  R. Olivares-Amaya,  
 J. A. Parkhill,  S. K. Paul,  Zheng Pei,  T. M. Perrine,  F. Plasser,  
 P. Pokhilko,  S. Prager,  A. Prociuk,  E. Ramos,  B. Rana,  D. R. Rehn,  
 F. Rob,  M. Scheurer,  M. Schneider,  N. Sergueev,  S. M. Sharada,  
 S. Sharma,  D. W. Small,  T. Stauch,  C. J. Stein,  T. Stein,  Yu-Chuan Su,  
 S. P. Veccham,  A. J. W. Thom,  A. Tkatchenko,  T. Tsuchimochi,  
 N. M. Tubman,  L. Vogt,  M. L. Vidal,  O. Vydrov,  M. A. Watson,  J. Wenzel,  
 M. de Wergifosse,  T. A. Wesolowski,  A. White,  J. Witte,  A. Yamada,  
 Jun Yang,  K. Yao,  S. Yeganeh,  S. R. Yost,  Zhi-Qiang You,  A. Zech,  
 Igor Ying Zhang,  Xing Zhang,  Yan Zhao,  Ying Zhu,  B. R. Brooks,  
 G. K. L. Chan,  C. J. Cramer,  M. S. Gordon,  W. J. Hehre,  A. Klamt,  
 M. W. Schmidt,  C. D. Sherrill,  D. G. Truhlar,  A. Aspuru-Guzik,  R. Baer,  
 A. T. Bell,  N. A. Besley,  Jeng-Da Chai,  A. E. DePrince, III,  
 R. A. DiStasio Jr.,  A. Dreuw,  B. D. Dunietz,  T. R. Furlani,  
 Chao-Ping Hsu,  Yousung Jung,  Jing Kong,  D. S. Lambrecht,  WanZhen Liang,  
 C. Ochsenfeld,  V. A. Rassolov,  L. V. Slipchenko,  J. E. Subotnik,  
 T. Van Voorhis,  J. M. Herbert,  A. I. Krylov,  P. M. W. Gill,  M. Head-Gordon

 Contributors to earlier versions of Q-Chem not listed above: 
 R. D. Adamson,  B. Austin,  J. Baker,  G. J. O. Beran,  K. Brandhorst,  
 S. T. Brown,  E. F. C. Byrd,  A. K. Chakraborty,  C.-L. Cheng,  
 Siu Hung Chien,  D. M. Chipman,  D. L. Crittenden,  H. Dachsel,  
 R. J. Doerksen,  A. D. Dutoi,  L. Fusti-Molnar,  W. A. Goddard III,  
 A. Golubeva-Zadorozhnaya,  S. R. Gwaltney,  G. Hawkins,  A. Heyden,  
 S. Hirata,  G. Kedziora,  F. J. Keil,  C. Kelley,  Jihan Kim,  R. A. King,  
 R. Z. Khaliullin,  P. P. Korambath,  W. Kurlancheek,  A. M. Lee,  M. S. Lee,  
 S. V. Levchenko,  Ching Yeh Lin,  D. Liotard,  R. C. Lochan,  I. Lotan,  
 P. E. Maslen,  N. Nair,  D. P. O'Neill,  D. Neuhauser,  E. Neuscamman,  
 C. M. Oana,  R. Olson,  B. Peters,  R. Peverati,  P. A. Pieniazek,  
 Y. M. Rhee,  J. Ritchie,  M. A. Rohrdanz,  E. Rosta,  N. J. Russ,  
 H. F. Schaefer III,  N. E. Schultz,  N. Shenvi,  A. C. Simmonett,  A. Sodt,  
 D. Stuck,  K. S. Thanthiriwatte,  V. Vanovschi,  Tao Wang,  A. Warshel,  
 C. F. Williams,  Q. Wu,  X. Xu,  W. Zhang

 Please cite Q-Chem as follows:
 Y. Shao et al., Mol. Phys. 113, 184-215 (2015)
 DOI: 10.1080/00268976.2014.952696

 Q-Chem 5.2.2 for Intel X86 EM64T Linux

 Parts of Q-Chem use Armadillo 9.800.1 (Horizon Scraper).
 http://arma.sourceforge.net/

 Q-Chem begins on Sun Apr 12 05:00:39 2020  

Host: cn0821
0

     Scratch files written to /tmp/ypli/6721342.srvc1/qchem164834//
Warning:  Did not find "$end" marker in "$molecule" section

Checking the input file for inconsistencies... 	...done.

--------------------------------------------------------------
User input:
--------------------------------------------------------------
$rem
   JOBTYPE  sp
   EXCHANGE   omegaB97X-D
   BASIS   6-311+G(2df,2pd)
   max_scf_cycles   250
   geom_opt_max_cycles   1500
   basis2 6-31G*
   scf_algorithm rca_diis
   SYM_IGNORE  TRUE
   print_input   true
   geom_opt_dmax   80
   pop_mulliken false
   XC_GRID 000075000302
$end

$molecule
0 1
C       1.2670623120     -0.0247397123     0.2590308934
C       0.0001529808     0.0235031690     -0.5867433913
H       1.2940574150     -0.9299102724     0.8690414436
H       1.3159026235     0.8299827448     0.9367030082
H       2.1645499860     -0.0120718893     -0.3602249404
C       -1.2671511093     0.0066932377     0.2596480780
H       -0.0105325111     -0.8244640196     -1.2756513507
H       0.0111441745     0.9218573522     -1.2085115672
H       -1.2344348027     -0.8005146728     0.9941686879
H       -2.1579812233     -0.1348536788     -0.3531396413
H       -1.3827699060     0.9445184074     0.8067237987
--------------------------------------------------------------
 ----------------------------------------------------------------
             Standard Nuclear Orientation (Angstroms)
    I     Atom           X                Y                Z
 ----------------------------------------------------------------
    1      C       1.2670623120    -0.0247397123     0.2590308934
    2      C       0.0001529808     0.0235031690    -0.5867433913
    3      H       1.2940574150    -0.9299102724     0.8690414436
    4      H       1.3159026235     0.8299827448     0.9367030082
    5      H       2.1645499860    -0.0120718893    -0.3602249404
    6      C      -1.2671511093     0.0066932377     0.2596480780
    7      H      -0.0105325111    -0.8244640196    -1.2756513507
    8      H       0.0111441745     0.9218573522    -1.2085115672
    9      H      -1.2344348027    -0.8005146728     0.9941686879
   10      H      -2.1579812233    -0.1348536788    -0.3531396413
   11      H      -1.3827699060     0.9445184074     0.8067237987
 ----------------------------------------------------------------
 Nuclear Repulsion Energy =          82.73157745 hartrees
 There are       13 alpha and       13 beta electrons
 Requested basis set is 6-311+G(2df,2pd)
 There are 72 shells and 214 basis functions

 Total QAlloc Memory Limit   2000 MB
 Mega-Array Size       188 MB
 MEM_STATIC part       192 MB

                       Distance Matrix (Angstroms)
             C (  1)   C (  2)   H (  3)   H (  4)   H (  5)   C (  6)
   C (  2)  1.524047
   H (  3)  1.091868  2.168524
   H (  4)  1.091868  2.168524  1.761329
   H (  5)  1.090469  2.176509  1.763882  1.763882
   C (  6)  2.534408  1.524047  2.794347  2.794347  3.487286
   H (  7)  2.151060  1.092592  2.512525  3.064496  2.495791  2.151060
   H (  8)  2.151060  1.092592  3.064496  2.512525  2.495791  2.151059
   H (  9)  2.720247  2.168524  2.534891  3.027548  3.742876  1.091868
   H ( 10)  3.481063  2.176509  3.747321  3.829161  4.324280  1.090469
   H ( 11)  2.874202  2.168524  3.268451  2.704228  3.854908  1.091868
             H (  7)   H (  8)   H (  9)   H ( 10)
   H (  8)  1.747746
   H (  9)  2.578874  3.061018
   H ( 10)  2.436827  2.559962  1.763883
   H ( 11)  3.057551  2.450446  1.761329  1.763882
 
 A cutoff of  1.0D-09 yielded   2532 shell pairs
 There are     22550 function pairs (     27725 Cartesian)
 Smallest overlap matrix eigenvalue = 8.64E-05

 Scale SEOQF with 1.000000e-01/1.000000e-01/1.000000e-01

 Standard Electronic Orientation quadrupole field applied
 Nucleus-field energy     =     0.0000000006 hartrees
 Requested basis set is 6-31G(d)
 There are 28 shells and 58 basis functions
 A cutoff of  1.0D-09 yielded    402 shell pairs
 There are      1773 function pairs (      1968 Cartesian)
 Smallest overlap matrix eigenvalue = 6.77E-03
 Guess from superposition of atomic densities
 Warning:  Energy on first SCF cycle will be non-variational
 SAD guess density has 26.000000 electrons
 Long-range K will be added via erf
 Coulomb attenuation parameter = 0.2 bohr**(-1)
 A restricted hybrid HF-DFT SCF calculation will be
 performed using Relaxed Constraint Minimization + Pulay DIIS
 Exchange:     0.2220 Hartree-Fock + 1.0000 wB97X-D + LR-HF
 Correlation:  1.0000 wB97X-D
 Using Euler-Maclaurin-Lebedev (75,302) quadrature formula
 Dispersion:   Grimme D
 SCF converges when DIIS error is below 1.0E-04
 using 3 threads for integral computing
 -------------------------------------------------------
 OpenMP Integral computing Module                
 Release: version 1.0, May 2013, Q-Chem Inc. Pittsburgh 
 -------------------------------------------------------
 using 3 threads for integral computing
 -------------------------------------------------------
 OpenMP Integral computing Module                
 Release: version 1.0, May 2013, Q-Chem Inc. Pittsburgh 
 -------------------------------------------------------
 ---------------------------------------
  Cycle       Energy         DIIS Error
 ---------------------------------------
    1    -119.6184679049      1.00E-01
    2    -119.0666284114      9.00E-03
    3    -119.0876967639      2.46E-03
    4    -119.1015551747      1.68E-03
    5    -119.1022530985      2.68E-04 Done RCA. Switching to DIIS
    6    -119.1027640614      1.98E-04
    7    -119.1027809923      4.50E-06 Convergence criterion met
 ---------------------------------------
 SCF time:  CPU 26.53 s  wall 9.15 s
 SCF   energy in the small basis set = -119.10278099
 Total energy in the small basis set = -119.10278099
 ----------------------------------------------------
  Cycle       Energy    
 ----------------------------------------------------
    1     -16.5395758423     -1.65E+01
 Long-range K will be added via erf
 Coulomb attenuation parameter = 0.2 bohr**(-1)
 A restricted hybrid HF-DFT SCF calculation will be
 performed using Relaxed Constraint Minimization + Pulay DIIS
 Exchange:     0.2220 Hartree-Fock + 1.0000 wB97X-D + LR-HF
 Correlation:  1.0000 wB97X-D
 Using Euler-Maclaurin-Lebedev (75,302) quadrature formula
 Dispersion:   Grimme D
 SCF converges when DIIS error is below 1.0E-05
 Basis2 calculation detected. Using small basis as guess for larger.
 SCFMinFind is unable to tell whether the solution found is close.
 Resetting ReadMinima to 0 and attempting to follow guess.
 SCFMinFind following SCF Guess.
 using 3 threads for integral computing
 -------------------------------------------------------
 OpenMP Integral computing Module                
 Release: version 1.0, May 2013, Q-Chem Inc. Pittsburgh 
 -------------------------------------------------------
 using 3 threads for integral computing
 -------------------------------------------------------
 OpenMP Integral computing Module                
 Release: version 1.0, May 2013, Q-Chem Inc. Pittsburgh 
 -------------------------------------------------------
 ---------------------------------------
  Cycle       Energy         DIIS Error
 ---------------------------------------
    1    -119.1218555415      4.21E-03
    2    -119.1439006606      5.97E-04 Done RCA. Switching to DIIS
    3    -119.1447334339      4.18E-04
    4    -119.1456910063      4.55E-05
    5    -119.1457057064      1.01E-05
    6    -119.1457063906      3.88E-06 Convergence criterion met
 ---------------------------------------
 SCF time:  CPU 80.78 s  wall 27.29 s
 SCF   energy in the final basis set = -119.14570639
 Total energy in the final basis set = -119.14570639
 
 --------------------------------------------------------------
 
                    Orbital Energies (a.u.)
 --------------------------------------------------------------
 
 Alpha MOs
 -- Occupied --
-10.2739 -10.2651 -10.2650  -0.8811  -0.7771  -0.6777  -0.5457  -0.5243
 -0.4824  -0.4639  -0.4185  -0.4179  -0.4071
 -- Virtual --
  0.0692   0.0860   0.0910   0.0990   0.1249   0.1302   0.1333   0.1417
  0.1440   0.1704   0.1723   0.1912   0.2313   0.2403   0.2455   0.2623
  0.2827   0.2876   0.3112   0.3139   0.3347   0.3493   0.4583   0.4671
  0.4713   0.5095   0.5113   0.5174   0.5441   0.5613   0.5844   0.5862
  0.6233   0.6258   0.6397   0.6433   0.6534   0.6591   0.7087   0.7237
  0.7273   0.7663   0.8174   0.8650   0.8708   0.8785   0.8853   0.9592
  1.0016   1.0422   1.0692   1.1347   1.1393   1.1788   1.1917   1.2048
  1.2391   1.2431   1.2584   1.2756   1.2877   1.2961   1.3318   1.3649
  1.3839   1.3909   1.4040   1.4518   1.4611   1.4709   1.4712   1.4890
  1.5240   1.5742   1.6087   1.6167   1.6388   1.6437   1.6794   1.6964
  1.7443   2.3739   2.4505   2.4799   2.5011   2.5483   2.5608   2.6035
  2.6329   2.7075   2.8175   2.8310   2.8408   2.9076   2.9282   2.9315
  2.9366   2.9419   3.0026   3.0204   3.0547   3.0687   3.0778   3.1024
  3.1336   3.1372   3.1745   3.1917   3.2026   3.2292   3.2814   3.3017
  3.3235   3.3393   3.3428   3.3497   3.3704   3.3832   3.3986   3.4415
  3.4619   3.4899   3.4930   3.5147   3.5662   3.5791   3.5994   3.6188
  3.6233   3.6805   3.6815   3.7030   3.7801   3.7962   3.8776   3.8849
  3.9251   3.9400   3.9535   3.9660   3.9743   3.9959   4.0553   4.0641
  4.0810   4.0977   4.1088   4.1409   4.1548   4.1609   4.1881   4.2063
  4.2175   4.2453   4.2714   4.3679   4.3896   4.4025   4.4142   4.4283
  4.4440   4.5692   4.5903   4.6031   4.6587   4.8096   4.8277   4.9026
  4.9391   4.9573   4.9605   4.9709   5.0353   5.0489   5.0581   5.1030
  5.1287   5.2387   5.2473   5.2753   5.3059   5.3498   5.3567   5.3656
  5.3761   5.3893   5.4468   5.4991   5.5456   5.5558   5.6320   5.7381
  5.9530   6.3841   6.3847   6.3933   6.4149   6.4683  25.1984  25.4381
 25.4548
 --------------------------------------------------------------
 
 -----------------------------------------------------------------
                    Cartesian Multipole Moments
 -----------------------------------------------------------------
    Charge (ESU x 10^10)
                -0.0000
    Dipole Moment (Debye)
         X       0.0001      Y       0.0053      Z      -0.0856
       Tot       0.0858
    Quadrupole Moments (Debye-Ang)
        XX     -22.1722     XY       0.0189     YY     -21.3570
        XZ       0.0047     YZ       0.0157     ZZ     -21.8430
    Octopole Moments (Debye-Ang^2)
       XXX       0.0211    XXY      -0.0845    XYY      -0.0312
       YYY       0.1724    XXZ      -1.5394    XYZ      -0.1104
       YYZ       0.4491    XZZ       0.0140    YZZ      -0.1674
       ZZZ      -0.3847
    Hexadecapole Moments (Debye-Ang^3)
      XXXX    -202.3684   XXXY       1.4478   XXYY     -42.1217
      XYYY       0.5384   YYYY     -44.1333   XXXZ      -0.0304
      XXYZ       0.5309   XYYZ       0.0562   YYYZ       0.4295
      XXZZ     -45.3429   XYZZ       0.5598   YYZZ     -17.1324
      XZZZ       0.0267   YZZZ       0.4553   ZZZZ     -72.0905
 -----------------------------------------------------------------
Archival summary:
1\1\cn0821\SP\ProcedureUnspecified\BasisUnspecified\38\r0852400\SunApr1205:01:192020SunApr1205:01:192020\0\\#,ProcedureUnspecified,BasisUnspecified,\\0,1\C\H,1,1.09259\H,1,1.09259,2,106.225\C,1,1.52405,2,109.48,3,118.121,0\H,4,1.09047,1,111.633,2,-48.0358,0\H,4,1.09187,1,110.906,2,72.2628,0\H,4,1.09187,1,110.906,2,-168.334,0\C,1,1.52405,2,109.48,3,-118.121,0\H,8,1.09047,1,111.633,2,58.0358,0\H,8,1.09187,1,110.906,2,178.334,0\H,8,1.09187,1,110.906,2,-62.2628,0\\\@

 Total job time:  40.37s(wall), 112.07s(cpu) 
 Sun Apr 12 05:01:19 2020

        *************************************************************
        *                                                           *
        *  Thank you very much for using Q-Chem.  Have a nice day.  *
        *                                                           *
        *************************************************************


