                  Welcome to Q-Chem
     A Quantum Leap Into The Future Of Chemistry


 Q-Chem 5.3 (devel), Q-Chem, Inc., Pleasanton, CA (2020)

 Yihan Shao,  Zhengting Gan,  E. Epifanovsky,  A. T. B. Gilbert,  M. Wormit,  
 J. Kussmann,  A. W. Lange,  A. Behn,  Jia Deng,  Xintian Feng,  D. Ghosh,  
 M. Goldey,  P. R. Horn,  L. D. Jacobson,  I. Kaliman,  T. Kus,  A. Landau,  
 Jie Liu,  E. I. Proynov,  R. M. Richard,  R. P. Steele,  E. J. Sundstrom,  
 H. L. Woodcock III,  P. M. Zimmerman,  D. Zuev,  B. Alam,  B. Albrecht,  
 E. Alguire,  S. A. Baeppler,  D. Barton,  Z. Benda,  Y. A. Bernard,  
 E. J. Berquist,  K. B. Bravaya,  H. Burton,  K. Carter-Fenk,  D. Casanova,  
 Chun-Min Chang,  Yunqing Chen,  A. Chien,  K. D. Closser,  M. P. Coons,  
 S. Coriani,  S. Dasgupta,  A. L. Dempwolff,  M. Diedenhofen,  Hainam Do,  
 R. G. Edgar,  Po-Tung Fang,  S. Faraji,  S. Fatehi,  Qingguo Feng,  
 J. Fosso-Tande,  J. Gayvert,  Qinghui Ge,  A. Ghysels,  G. Gidofalvi,  
 J. Gomes,  J. Gonthier,  A. Gunina,  D. Hait,  M. W. D. Hanson-Heine,  
 P. H. P. Harbach,  A. W. Hauser,  M. F. Herbst,  J. E. Herr,  
 E. G. Hohenstein,  Z. C. Holden,  Kerwin Hui,  B. C. Huynh,  T.-C. Jagau,  
 Hyunjun Ji,  B. Kaduk,  K. Khistyaev,  Jaehoon Kim,  P. Klunzinger,  K. Koh,  
 D. Kosenkov,  L. Koulias,  T. Kowalczyk,  C. M. Krauter,  A. Kunitsa,  
 Ka Un Lao,  A. Laurent,  K. V. Lawler,  Joonho Lee,  D. Lefrancois,  
 S. Lehtola,  D. S. Levine,  Yi-Pei Li,  You-Sheng Lin,  Fenglai Liu,  
 Kuan-Yu Liu,  E. Livshits,  M. Loipersberger,  A. Luenser,  P. Manohar,  
 E. Mansoor,  S. F. Manzer,  Shan-Ping Mao,  Yuezhi Mao,  N. Mardirossian,  
 A. V. Marenich,  T. Markovich,  L. A. Martinez-Martinez,  S. A. Maurer,  
 N. J. Mayhall,  S. C. McKenzie,  J.-M. Mewes,  P. Morgante,  A. F. Morrison,  
 J. W. Mullinax,  K. Nanda,  T. S. Nguyen-Beck,  R. Olivares-Amaya,  
 K. J. Oosterbaan,  J. A. Parkhill,  S. K. Paul,  F. Pavosevic,  Zheng Pei,  
 T. M. Perrine,  F. Plasser,  P. Pokhilko,  S. Prager,  A. Prociuk,  
 E. Ramos,  B. Rana,  D. R. Rehn,  F. Rob,  M. Scheurer,  M. Schneider,  
 N. Sergueev,  S. M. Sharada,  S. Sharma,  D. W. Small,  T. Stauch,  
 C. J. Stein,  T. Stein,  Yu-Chuan Su,  S. P. Veccham,  Zhen Tao,  
 A. J. W. Thom,  A. Tkatchenko,  T. Tsuchimochi,  N. M. Tubman,  L. Vogt,  
 M. L. Vidal,  O. Vydrov,  M. A. Watson,  J. Wenzel,  M. de Wergifosse,  
 T. A. Wesolowski,  A. White,  J. Witte,  A. Yamada,  Jun Yang,  K. Yao,  
 S. Yeganeh,  S. R. Yost,  Zhi-Qiang You,  A. Zech,  Igor Ying Zhang,  
 Xing Zhang,  Yan Zhao,  Ying Zhu,  B. R. Brooks,  G. K. L. Chan,  
 C. J. Cramer,  M. S. Gordon,  W. J. Hehre,  A. Klamt,  M. W. Schmidt,  
 C. D. Sherrill,  D. G. Truhlar,  A. Aspuru-Guzik,  R. Baer,  A. T. Bell,  
 N. A. Besley,  Jeng-Da Chai,  A. E. DePrince, III,  R. A. DiStasio Jr.,  
 A. Dreuw,  B. D. Dunietz,  T. R. Furlani,  Chao-Ping Hsu,  Yousung Jung,  
 Jing Kong,  D. S. Lambrecht,  WanZhen Liang,  C. Ochsenfeld,  
 V. A. Rassolov,  L. V. Slipchenko,  J. E. Subotnik,  T. Van Voorhis,  
 J. M. Herbert,  A. I. Krylov,  P. M. W. Gill,  M. Head-Gordon

 Contributors to earlier versions of Q-Chem not listed above: 
 R. D. Adamson,  B. Austin,  J. Baker,  G. J. O. Beran,  K. Brandhorst,  
 S. T. Brown,  E. F. C. Byrd,  A. K. Chakraborty,  C.-L. Cheng,  
 Siu Hung Chien,  D. M. Chipman,  D. L. Crittenden,  H. Dachsel,  
 R. J. Doerksen,  A. D. Dutoi,  L. Fusti-Molnar,  W. A. Goddard III,  
 A. Golubeva-Zadorozhnaya,  S. R. Gwaltney,  G. Hawkins,  A. Heyden,  
 S. Hirata,  G. Kedziora,  F. J. Keil,  C. Kelley,  Jihan Kim,  R. A. King,  
 R. Z. Khaliullin,  P. P. Korambath,  W. Kurlancheek,  A. M. Lee,  M. S. Lee,  
 S. V. Levchenko,  Ching Yeh Lin,  D. Liotard,  R. C. Lochan,  I. Lotan,  
 P. E. Maslen,  N. Nair,  D. P. O'Neill,  D. Neuhauser,  E. Neuscamman,  
 C. M. Oana,  R. Olson,  B. Peters,  R. Peverati,  P. A. Pieniazek,  
 Y. M. Rhee,  J. Ritchie,  M. A. Rohrdanz,  E. Rosta,  N. J. Russ,  
 H. F. Schaefer III,  N. E. Schultz,  N. Shenvi,  A. C. Simmonett,  A. Sodt,  
 D. Stuck,  K. S. Thanthiriwatte,  V. Vanovschi,  Tao Wang,  A. Warshel,  
 C. F. Williams,  Q. Wu,  X. Xu,  W. Zhang

 Please cite Q-Chem as follows:
 Y. Shao et al., Mol. Phys. 113, 184-215 (2015)
 DOI: 10.1080/00268976.2014.952696

 Q-Chem 5.3.0 for Intel X86 EM64T Linux

 Parts of Q-Chem use Armadillo 9.800.1 (Horizon Scraper).
 http://arma.sourceforge.net/

 Q-Chem begins on Tue Jul  7 00:53:02 2020  

Host: centos77-c4
0

     Scratch files written to /tmp/26964.centos77-h1/qchem94138//
Processing $rem in /opt/qchem-5.3.0-intel2020u1//config/preferences:
Processing $rem in /home/shihchengli/.qchemrc:

Checking the input file for inconsistencies... 	...done.

--------------------------------------------------------------
User input:
--------------------------------------------------------------
$rem
   JOBTYPE  sp
   EXCHANGE   omegaB97X-D
   BASIS   6-311+G(2df,2pd)
   UNRESTRICTED   False
   max_scf_cycles   250
   geom_opt_max_cycles   1500
   basis2 6-31G*
   scf_algorithm rca_diis
   SYM_IGNORE  TRUE
   print_input   true
   geom_opt_dmax   80
   pop_mulliken false
   XC_GRID 000075000302
$end

$molecule
0 1
C       1.1866386356     -0.5031891953     0.0087660060
C       0.0797872110     0.4837871859     -0.3426287777
H       0.9160995153     -1.5164179713     -0.2951276657
H       1.3663682299     -0.5198745904     1.0856105641
H       2.1254366521     -0.2461695823     -0.4828858911
C       -1.2422901798     0.1428611260     0.3345724787
H       -0.0602587769     0.5036249873     -1.4260263383
H       0.3865375732     1.4924834084     -0.0559358449
H       -2.0169257099     0.8621719052     0.0612464858
H       -1.1503037702     0.1473828900     1.4211452738
H       -1.5910894410     -0.8466594975     0.0323087281
$end
--------------------------------------------------------------
 ----------------------------------------------------------------
             Standard Nuclear Orientation (Angstroms)
    I     Atom           X                Y                Z
 ----------------------------------------------------------------
    1      C       1.1866386356    -0.5031891953     0.0087660060
    2      C       0.0797872110     0.4837871859    -0.3426287777
    3      H       0.9160995153    -1.5164179713    -0.2951276657
    4      H       1.3663682299    -0.5198745904     1.0856105641
    5      H       2.1254366521    -0.2461695823    -0.4828858911
    6      C      -1.2422901798     0.1428611260     0.3345724787
    7      H      -0.0602587769     0.5036249873    -1.4260263383
    8      H       0.3865375732     1.4924834084    -0.0559358449
    9      H      -2.0169257099     0.8621719052     0.0612464858
   10      H      -1.1503037702     0.1473828900     1.4211452738
   11      H      -1.5910894410    -0.8466594975     0.0323087281
 ----------------------------------------------------------------
 Nuclear Repulsion Energy =          82.72250649 hartrees
 There are       13 alpha and       13 beta electrons
 Requested basis set is 6-311+G(2df,2pd)
 There are 72 shells and 214 basis functions

 Total QAlloc Memory Limit   2000 MB
 Mega-Array Size       188 MB
 MEM_STATIC part       192 MB

                       Distance Matrix (Angstroms)
             C (  1)   C (  2)   H (  3)   H (  4)   H (  5)   C (  6)
   C (  2)  1.524047
   H (  3)  1.091868  2.168524
   H (  4)  1.091868  2.168524  1.761329
   H (  5)  1.090469  2.176509  1.763882  1.763882
   C (  6)  2.534408  1.524047  2.794347  2.794347  3.487286
   H (  7)  2.151060  1.092592  2.512525  3.064496  2.495791  2.151060
   H (  8)  2.151060  1.092592  3.064496  2.512525  2.495791  2.151059
   H (  9)  3.482785  2.168524  3.793063  3.795531  4.322461  1.091868
   H ( 10)  2.807020  2.176509  3.159723  2.625158  3.809290  1.090469
   H ( 11)  2.798982  2.168524  2.615681  3.156389  3.799813  1.091868
             H (  7)   H (  8)   H (  9)   H ( 10)
   H (  8)  1.747746
   H (  9)  2.483764  2.487501
   H ( 10)  3.069445  2.520505  1.763883
   H ( 11)  2.508675  3.064374  1.761329  1.763882
 
 A cutoff of  1.0D-09 yielded   2532 shell pairs
 There are     22578 function pairs (     27759 Cartesian)
 Smallest overlap matrix eigenvalue = 8.66E-05

 Scale SEOQF with 1.000000e-01/1.000000e-01/1.000000e-01

 Standard Electronic Orientation quadrupole field applied
 Nucleus-field energy     =     0.0000000011 hartrees
 Requested basis set is 6-31G(d)
 There are 28 shells and 58 basis functions
 A cutoff of  1.0D-09 yielded    402 shell pairs
 There are      1773 function pairs (      1968 Cartesian)
 Smallest overlap matrix eigenvalue = 6.78E-03
 Guess from superposition of atomic densities
 Warning:  Energy on first SCF cycle will be non-variational
 SAD guess density has 26.000000 electrons
 Long-range K will be added via erf
 Coulomb attenuation parameter = 0.2 bohr**(-1)
 A restricted hybrid HF-DFT SCF calculation will be
 performed using Relaxed Constraint Minimization + Pulay DIIS
 Exchange:     0.2220 Hartree-Fock + 1.0000 wB97X-D + LR-HF
 Correlation:  1.0000 wB97X-D
 Using Euler-Maclaurin-Lebedev (75,302) quadrature formula
 Dispersion:   Grimme D
 SCF converges when DIIS error is below 1.0E-04
 using 3 threads for integral computing
 -------------------------------------------------------
 OpenMP Integral computing Module                
 Release: version 1.0, May 2013, Q-Chem Inc. Pittsburgh 
 -------------------------------------------------------
 using 3 threads for integral computing
 -------------------------------------------------------
 OpenMP Integral computing Module                
 Release: version 1.0, May 2013, Q-Chem Inc. Pittsburgh 
 -------------------------------------------------------
 ---------------------------------------
  Cycle       Energy         DIIS Error
 ---------------------------------------
    1    -119.6179987505      1.00E-01
    2    -119.0668816829      9.00E-03
    3    -119.0879567031      2.46E-03
    4    -119.1018315419      1.68E-03
    5    -119.1025274165      2.67E-04 Done RCA. Switching to DIIS
    6    -119.1030369713      1.97E-04
    7    -119.1030538282      4.49E-06 Convergence criterion met
 ---------------------------------------
 SCF time:  CPU 19.53 s  wall 7.15 s
 SCF   energy in the small basis set = -119.10305383
 Total energy in the small basis set = -119.10305383
 ----------------------------------------------------
  Cycle       Energy    
 ----------------------------------------------------
    1     -16.5393294325     -1.65E+01
 Long-range K will be added via erf
 Coulomb attenuation parameter = 0.2 bohr**(-1)
 A restricted hybrid HF-DFT SCF calculation will be
 performed using Relaxed Constraint Minimization + Pulay DIIS
 Exchange:     0.2220 Hartree-Fock + 1.0000 wB97X-D + LR-HF
 Correlation:  1.0000 wB97X-D
 Using Euler-Maclaurin-Lebedev (75,302) quadrature formula
 Dispersion:   Grimme D
 SCF converges when DIIS error is below 1.0E-05
 Basis2 calculation detected. Using small basis as guess for larger.
 SCFMinFind is unable to tell whether the solution found is close.
 Resetting ReadMinima to 0 and attempting to follow guess.
 SCFMinFind following SCF Guess.
 using 3 threads for integral computing
 -------------------------------------------------------
 OpenMP Integral computing Module                
 Release: version 1.0, May 2013, Q-Chem Inc. Pittsburgh 
 -------------------------------------------------------
 using 3 threads for integral computing
 -------------------------------------------------------
 OpenMP Integral computing Module                
 Release: version 1.0, May 2013, Q-Chem Inc. Pittsburgh 
 -------------------------------------------------------
 ---------------------------------------
  Cycle       Energy         DIIS Error
 ---------------------------------------
    1    -119.1221082389      4.21E-03
    2    -119.1441440191      5.96E-04 Done RCA. Switching to DIIS
    3    -119.1449754399      4.17E-04
    4    -119.1459303359      4.56E-05
    5    -119.1459450367      1.00E-05
    6    -119.1459457154      3.85E-06 Convergence criterion met
 ---------------------------------------
 SCF time:  CPU 52.13 s  wall 17.69 s
 SCF   energy in the final basis set = -119.14594572
 Total energy in the final basis set = -119.14594572
 
 --------------------------------------------------------------
 
                    Orbital Energies (a.u.)
 --------------------------------------------------------------
 
 Alpha MOs
 -- Occupied --
-10.2740 -10.2651 -10.2650  -0.8811  -0.7772  -0.6776  -0.5458  -0.5237
 -0.4829  -0.4640  -0.4181  -0.4175  -0.4077
 -- Virtual --
  0.0691   0.0860   0.0910   0.0990   0.1251   0.1300   0.1334   0.1427
  0.1431   0.1706   0.1721   0.1912   0.2334   0.2411   0.2443   0.2641
  0.2819   0.2841   0.3109   0.3125   0.3347   0.3500   0.4585   0.4662
  0.4710   0.5102   0.5134   0.5177   0.5445   0.5612   0.5843   0.5846
  0.6237   0.6257   0.6426   0.6446   0.6564   0.6569   0.7085   0.7260
  0.7270   0.7672   0.8216   0.8666   0.8671   0.8732   0.8788   0.9590
  1.0011   1.0526   1.0574   1.1402   1.1417   1.1803   1.1824   1.2127
  1.2326   1.2334   1.2684   1.2773   1.2847   1.2910   1.3273   1.3788
  1.3830   1.3941   1.3981   1.4478   1.4669   1.4708   1.4789   1.4802
  1.5215   1.5800   1.6118   1.6209   1.6425   1.6434   1.6852   1.6943
  1.7424   2.3737   2.4704   2.4790   2.4983   2.5447   2.5603   2.5982
  2.6295   2.7132   2.8232   2.8355   2.8396   2.9084   2.9282   2.9320
  2.9327   2.9417   3.0030   3.0144   3.0548   3.0747   3.0755   3.1000
  3.1345   3.1360   3.1803   3.1950   3.2055   3.2176   3.2817   3.3110
  3.3317   3.3340   3.3365   3.3603   3.3626   3.3665   3.4001   3.4480
  3.4720   3.4860   3.4898   3.5184   3.5628   3.5768   3.5987   3.6192
  3.6219   3.6790   3.6865   3.7029   3.7831   3.7977   3.8832   3.8942
  3.9361   3.9495   3.9525   3.9546   3.9616   3.9868   4.0530   4.0666
  4.0740   4.1045   4.1082   4.1451   4.1530   4.1585   4.1893   4.2005
  4.2141   4.2444   4.2621   4.3728   4.3968   4.4111   4.4151   4.4272
  4.4350   4.5848   4.5896   4.5903   4.6735   4.8056   4.8278   4.8918
  4.9450   4.9596   4.9625   4.9687   5.0389   5.0452   5.0548   5.1104
  5.1237   5.2482   5.2503   5.2757   5.3110   5.3502   5.3525   5.3725
  5.3794   5.3870   5.4552   5.4964   5.5522   5.5562   5.6280   5.7446
  5.9549   6.3840   6.3842   6.3924   6.4165   6.4631  25.2048  25.4455
 25.4533
 --------------------------------------------------------------
 
 -----------------------------------------------------------------
                    Cartesian Multipole Moments
 -----------------------------------------------------------------
    Charge (ESU x 10^10)
                -0.0000
    Dipole Moment (Debye)
         X       0.0079      Y       0.0691      Z      -0.0540
       Tot       0.0880
    Quadrupole Moments (Debye-Ang)
        XX     -22.1311     XY       0.1607     YY     -21.7112
        XZ       0.1324     YZ       0.1986     ZZ     -21.5277
    Octopole Moments (Debye-Ang^2)
       XXX       0.2763    XXY       0.4243    XYY      -0.7623
       YYY      -1.4707    XXZ      -1.2100    XYZ       0.0085
       YYZ      -0.6671    XZZ       0.1934    YZZ      -0.3950
       ZZZ      -0.4140
    Hexadecapole Moments (Debye-Ang^3)
      XXXX    -190.6415   XXXY      17.8758   XXYY     -43.3567
      XYYY      18.7907   YYYY     -69.0541   XXXZ      10.0796
      XXYZ       0.8169   XYYZ       4.0570   YYYZ       4.7275
      XXZZ     -41.5602   XYZZ       5.9419   YYZZ     -22.4032
      XZZZ      11.0730   YZZZ       3.1041   ZZZZ     -53.8483
 -----------------------------------------------------------------
Archival summary:
1\1\centos77-c4\SP\ProcedureUnspecified\BasisUnspecified\38\shihchen\TueJul700:53:292020TueJul700:53:292020\0\\#,ProcedureUnspecified,BasisUnspecified,\\0,1\C\H,1,1.09259\H,1,1.09259,2,106.225\C,1,1.52405,2,109.48,3,118.121,0\H,4,1.09047,1,111.633,2,-178.036,0\H,4,1.09187,1,110.906,2,-57.7372,0\H,4,1.09187,1,110.906,2,61.6657,0\C,1,1.52405,2,109.48,3,-118.121,0\H,8,1.09047,1,111.633,2,58.0358,0\H,8,1.09187,1,110.906,2,178.334,0\H,8,1.09187,1,110.906,2,-62.2628,0\\\@

 Total job time:  27.76s(wall), 75.25s(cpu) 
 Tue Jul  7 00:53:30 2020

        *************************************************************
        *                                                           *
        *  Thank you very much for using Q-Chem.  Have a nice day.  *
        *                                                           *
        *************************************************************


