                  Welcome to Q-Chem
     A Quantum Leap Into The Future Of Chemistry


 Q-Chem 5.3 (devel), Q-Chem, Inc., Pleasanton, CA (2020)

 Yihan Shao,  Zhengting Gan,  E. Epifanovsky,  A. T. B. Gilbert,  M. Wormit,  
 J. Kussmann,  A. W. Lange,  A. Behn,  Jia Deng,  Xintian Feng,  D. Ghosh,  
 M. Goldey,  P. R. Horn,  L. D. Jacobson,  I. Kaliman,  T. Kus,  A. Landau,  
 Jie Liu,  E. I. Proynov,  R. M. Richard,  R. P. Steele,  E. J. Sundstrom,  
 H. L. Woodcock III,  P. M. Zimmerman,  D. Zuev,  B. Alam,  B. Albrecht,  
 E. Alguire,  S. A. Baeppler,  D. Barton,  Z. Benda,  Y. A. Bernard,  
 E. J. Berquist,  K. B. Bravaya,  H. Burton,  K. Carter-Fenk,  D. Casanova,  
 Chun-Min Chang,  Yunqing Chen,  A. Chien,  K. D. Closser,  M. P. Coons,  
 S. Coriani,  S. Dasgupta,  A. L. Dempwolff,  M. Diedenhofen,  Hainam Do,  
 R. G. Edgar,  Po-Tung Fang,  S. Faraji,  S. Fatehi,  Qingguo Feng,  
 J. Fosso-Tande,  J. Gayvert,  Qinghui Ge,  A. Ghysels,  G. Gidofalvi,  
 J. Gomes,  J. Gonthier,  A. Gunina,  D. Hait,  M. W. D. Hanson-Heine,  
 P. H. P. Harbach,  A. W. Hauser,  M. F. Herbst,  J. E. Herr,  
 E. G. Hohenstein,  Z. C. Holden,  Kerwin Hui,  B. C. Huynh,  T.-C. Jagau,  
 Hyunjun Ji,  B. Kaduk,  K. Khistyaev,  Jaehoon Kim,  P. Klunzinger,  K. Koh,  
 D. Kosenkov,  L. Koulias,  T. Kowalczyk,  C. M. Krauter,  A. Kunitsa,  
 Ka Un Lao,  A. Laurent,  K. V. Lawler,  Joonho Lee,  D. Lefrancois,  
 S. Lehtola,  D. S. Levine,  Yi-Pei Li,  You-Sheng Lin,  Fenglai Liu,  
 Kuan-Yu Liu,  E. Livshits,  M. Loipersberger,  A. Luenser,  P. Manohar,  
 E. Mansoor,  S. F. Manzer,  Shan-Ping Mao,  Yuezhi Mao,  N. Mardirossian,  
 A. V. Marenich,  T. Markovich,  L. A. Martinez-Martinez,  S. A. Maurer,  
 N. J. Mayhall,  S. C. McKenzie,  J.-M. Mewes,  P. Morgante,  A. F. Morrison,  
 J. W. Mullinax,  K. Nanda,  T. S. Nguyen-Beck,  R. Olivares-Amaya,  
 K. J. Oosterbaan,  J. A. Parkhill,  S. K. Paul,  F. Pavosevic,  Zheng Pei,  
 T. M. Perrine,  F. Plasser,  P. Pokhilko,  S. Prager,  A. Prociuk,  
 E. Ramos,  B. Rana,  D. R. Rehn,  F. Rob,  M. Scheurer,  M. Schneider,  
 N. Sergueev,  S. M. Sharada,  S. Sharma,  D. W. Small,  T. Stauch,  
 C. J. Stein,  T. Stein,  Yu-Chuan Su,  S. P. Veccham,  Zhen Tao,  
 A. J. W. Thom,  A. Tkatchenko,  T. Tsuchimochi,  N. M. Tubman,  L. Vogt,  
 M. L. Vidal,  O. Vydrov,  M. A. Watson,  J. Wenzel,  M. de Wergifosse,  
 T. A. Wesolowski,  A. White,  J. Witte,  A. Yamada,  Jun Yang,  K. Yao,  
 S. Yeganeh,  S. R. Yost,  Zhi-Qiang You,  A. Zech,  Igor Ying Zhang,  
 Xing Zhang,  Yan Zhao,  Ying Zhu,  B. R. Brooks,  G. K. L. Chan,  
 C. J. Cramer,  M. S. Gordon,  W. J. Hehre,  A. Klamt,  M. W. Schmidt,  
 C. D. Sherrill,  D. G. Truhlar,  A. Aspuru-Guzik,  R. Baer,  A. T. Bell,  
 N. A. Besley,  Jeng-Da Chai,  A. E. DePrince, III,  R. A. DiStasio Jr.,  
 A. Dreuw,  B. D. Dunietz,  T. R. Furlani,  Chao-Ping Hsu,  Yousung Jung,  
 Jing Kong,  D. S. Lambrecht,  WanZhen Liang,  C. Ochsenfeld,  
 V. A. Rassolov,  L. V. Slipchenko,  J. E. Subotnik,  T. Van Voorhis,  
 J. M. Herbert,  A. I. Krylov,  P. M. W. Gill,  M. Head-Gordon

 Contributors to earlier versions of Q-Chem not listed above: 
 R. D. Adamson,  B. Austin,  J. Baker,  G. J. O. Beran,  K. Brandhorst,  
 S. T. Brown,  E. F. C. Byrd,  A. K. Chakraborty,  C.-L. Cheng,  
 Siu Hung Chien,  D. M. Chipman,  D. L. Crittenden,  H. Dachsel,  
 R. J. Doerksen,  A. D. Dutoi,  L. Fusti-Molnar,  W. A. Goddard III,  
 A. Golubeva-Zadorozhnaya,  S. R. Gwaltney,  G. Hawkins,  A. Heyden,  
 S. Hirata,  G. Kedziora,  F. J. Keil,  C. Kelley,  Jihan Kim,  R. A. King,  
 R. Z. Khaliullin,  P. P. Korambath,  W. Kurlancheek,  A. M. Lee,  M. S. Lee,  
 S. V. Levchenko,  Ching Yeh Lin,  D. Liotard,  R. C. Lochan,  I. Lotan,  
 P. E. Maslen,  N. Nair,  D. P. O'Neill,  D. Neuhauser,  E. Neuscamman,  
 C. M. Oana,  R. Olson,  B. Peters,  R. Peverati,  P. A. Pieniazek,  
 Y. M. Rhee,  J. Ritchie,  M. A. Rohrdanz,  E. Rosta,  N. J. Russ,  
 H. F. Schaefer III,  N. E. Schultz,  N. Shenvi,  A. C. Simmonett,  A. Sodt,  
 D. Stuck,  K. S. Thanthiriwatte,  V. Vanovschi,  Tao Wang,  A. Warshel,  
 C. F. Williams,  Q. Wu,  X. Xu,  W. Zhang

 Please cite Q-Chem as follows:
 Y. Shao et al., Mol. Phys. 113, 184-215 (2015)
 DOI: 10.1080/00268976.2014.952696

 Q-Chem 5.3.0 for Intel X86 EM64T Linux

 Parts of Q-Chem use Armadillo 9.800.1 (Horizon Scraper).
 http://arma.sourceforge.net/

 Q-Chem begins on Tue Jul  7 00:58:38 2020  

Host: centos77-c4
0

     Scratch files written to /tmp/26964.centos77-h1/qchem95515//
Processing $rem in /opt/qchem-5.3.0-intel2020u1//config/preferences:
Processing $rem in /home/shihchengli/.qchemrc:

Checking the input file for inconsistencies... 	...done.

--------------------------------------------------------------
User input:
--------------------------------------------------------------
$rem
   JOBTYPE  sp
   EXCHANGE   omegaB97X-D
   BASIS   6-311+G(2df,2pd)
   UNRESTRICTED   False
   max_scf_cycles   250
   geom_opt_max_cycles   1500
   basis2 6-31G*
   scf_algorithm rca_diis
   SYM_IGNORE  TRUE
   print_input   true
   geom_opt_dmax   80
   pop_mulliken false
   XC_GRID 000075000302
$end

$molecule
0 1
C       1.1005489611     -0.6053266992     -0.2525241826
C       0.1607432592     0.5838532320     -0.0933479244
H       0.6971541119     -1.3281583019     -0.9645371050
H       1.2385751042     -1.1229321824     0.6989003701
H       2.0830900651     -0.2961212141     -0.6104729665
C       -1.2193727365     0.1737341744     0.4064549808
H       0.0626427400     1.1014043254     -1.0505698660
H       0.5998884377     1.3050478354     0.6000398083
H       -1.6924653935     -0.5256919639     -0.2857600977
H       -1.8797602085     1.0346573048     0.5151846245
H       -1.1510444012     -0.3204658444     1.3776773774
$end
--------------------------------------------------------------
 ----------------------------------------------------------------
             Standard Nuclear Orientation (Angstroms)
    I     Atom           X                Y                Z
 ----------------------------------------------------------------
    1      C       1.1005489611    -0.6053266992    -0.2525241826
    2      C       0.1607432592     0.5838532320    -0.0933479244
    3      H       0.6971541119    -1.3281583019    -0.9645371050
    4      H       1.2385751042    -1.1229321824     0.6989003701
    5      H       2.0830900651    -0.2961212141    -0.6104729665
    6      C      -1.2193727365     0.1737341744     0.4064549808
    7      H       0.0626427400     1.1014043254    -1.0505698660
    8      H       0.5998884377     1.3050478354     0.6000398083
    9      H      -1.6924653935    -0.5256919639    -0.2857600977
   10      H      -1.8797602085     1.0346573048     0.5151846245
   11      H      -1.1510444012    -0.3204658444     1.3776773774
 ----------------------------------------------------------------
 Nuclear Repulsion Energy =          82.72993649 hartrees
 There are       13 alpha and       13 beta electrons
 Requested basis set is 6-311+G(2df,2pd)
 There are 72 shells and 214 basis functions

 Total QAlloc Memory Limit   2000 MB
 Mega-Array Size       188 MB
 MEM_STATIC part       192 MB

                       Distance Matrix (Angstroms)
             C (  1)   C (  2)   H (  3)   H (  4)   H (  5)   C (  6)
   C (  2)  1.524047
   H (  3)  1.091868  2.168524
   H (  4)  1.091868  2.168524  1.761329
   H (  5)  1.090469  2.176509  1.763882  1.763882
   C (  6)  2.534408  1.524047  2.794347  2.794347  3.487286
   H (  7)  2.151060  1.092592  2.512525  3.064496  2.495791  2.151060
   H (  8)  2.151060  1.092592  3.064496  2.512525  2.495791  2.151059
   H (  9)  2.794347  2.168524  2.610550  3.149167  3.796440  1.091868
   H ( 10)  3.487286  2.176509  3.796441  3.796440  4.329233  1.090469
   H ( 11)  2.794347  2.168524  3.149167  2.610550  3.796440  1.091868
             H (  7)   H (  8)   H (  9)   H ( 10)
   H (  8)  1.747746
   H (  9)  2.512525  3.064496
   H ( 10)  2.495791  2.495790  1.763883
   H ( 11)  3.064496  2.512525  1.761329  1.763882
 
 A cutoff of  1.0D-09 yielded   2532 shell pairs
 There are     22578 function pairs (     27759 Cartesian)
 Smallest overlap matrix eigenvalue = 8.69E-05

 Scale SEOQF with 1.000000e-01/1.000000e-01/1.000000e-01

 Standard Electronic Orientation quadrupole field applied
 Nucleus-field energy     =     0.0000000012 hartrees
 Requested basis set is 6-31G(d)
 There are 28 shells and 58 basis functions
 A cutoff of  1.0D-09 yielded    402 shell pairs
 There are      1773 function pairs (      1968 Cartesian)
 Smallest overlap matrix eigenvalue = 6.79E-03
 Guess from superposition of atomic densities
 Warning:  Energy on first SCF cycle will be non-variational
 SAD guess density has 26.000000 electrons
 Long-range K will be added via erf
 Coulomb attenuation parameter = 0.2 bohr**(-1)
 A restricted hybrid HF-DFT SCF calculation will be
 performed using Relaxed Constraint Minimization + Pulay DIIS
 Exchange:     0.2220 Hartree-Fock + 1.0000 wB97X-D + LR-HF
 Correlation:  1.0000 wB97X-D
 Using Euler-Maclaurin-Lebedev (75,302) quadrature formula
 Dispersion:   Grimme D
 SCF converges when DIIS error is below 1.0E-04
 using 3 threads for integral computing
 -------------------------------------------------------
 OpenMP Integral computing Module                
 Release: version 1.0, May 2013, Q-Chem Inc. Pittsburgh 
 -------------------------------------------------------
 using 3 threads for integral computing
 -------------------------------------------------------
 OpenMP Integral computing Module                
 Release: version 1.0, May 2013, Q-Chem Inc. Pittsburgh 
 -------------------------------------------------------
 ---------------------------------------
  Cycle       Energy         DIIS Error
 ---------------------------------------
    1    -119.6181508496      1.00E-01
    2    -119.0669590450      9.00E-03
    3    -119.0880154320      2.46E-03
    4    -119.1018669404      1.68E-03
    5    -119.1025638463      2.67E-04 Done RCA. Switching to DIIS
    6    -119.1030739861      1.98E-04
    7    -119.1030908966      4.48E-06 Convergence criterion met
 ---------------------------------------
 SCF time:  CPU 19.39 s  wall 7.06 s
 SCF   energy in the small basis set = -119.10309090
 Total energy in the small basis set = -119.10309090
 ----------------------------------------------------
  Cycle       Energy    
 ----------------------------------------------------
    1     -16.5393033158     -1.65E+01
 Long-range K will be added via erf
 Coulomb attenuation parameter = 0.2 bohr**(-1)
 A restricted hybrid HF-DFT SCF calculation will be
 performed using Relaxed Constraint Minimization + Pulay DIIS
 Exchange:     0.2220 Hartree-Fock + 1.0000 wB97X-D + LR-HF
 Correlation:  1.0000 wB97X-D
 Using Euler-Maclaurin-Lebedev (75,302) quadrature formula
 Dispersion:   Grimme D
 SCF converges when DIIS error is below 1.0E-05
 Basis2 calculation detected. Using small basis as guess for larger.
 SCFMinFind is unable to tell whether the solution found is close.
 Resetting ReadMinima to 0 and attempting to follow guess.
 SCFMinFind following SCF Guess.
 using 3 threads for integral computing
 -------------------------------------------------------
 OpenMP Integral computing Module                
 Release: version 1.0, May 2013, Q-Chem Inc. Pittsburgh 
 -------------------------------------------------------
 using 3 threads for integral computing
 -------------------------------------------------------
 OpenMP Integral computing Module                
 Release: version 1.0, May 2013, Q-Chem Inc. Pittsburgh 
 -------------------------------------------------------
 ---------------------------------------
  Cycle       Energy         DIIS Error
 ---------------------------------------
    1    -119.1221498722      4.21E-03
    2    -119.1441876206      5.97E-04 Done RCA. Switching to DIIS
    3    -119.1450195782      4.18E-04
    4    -119.1459756500      4.55E-05
    5    -119.1459903287      1.01E-05
    6    -119.1459910074      3.87E-06 Convergence criterion met
 ---------------------------------------
 SCF time:  CPU 51.44 s  wall 17.46 s
 SCF   energy in the final basis set = -119.14599101
 Total energy in the final basis set = -119.14599101
 
 --------------------------------------------------------------
 
                    Orbital Energies (a.u.)
 --------------------------------------------------------------
 
 Alpha MOs
 -- Occupied --
-10.2740 -10.2651 -10.2651  -0.8812  -0.7771  -0.6777  -0.5457  -0.5242
 -0.4826  -0.4636  -0.4186  -0.4177  -0.4075
 -- Virtual --
  0.0691   0.0860   0.0910   0.0990   0.1251   0.1300   0.1335   0.1426
  0.1431   0.1706   0.1721   0.1913   0.2326   0.2413   0.2444   0.2642
  0.2816   0.2844   0.3109   0.3127   0.3344   0.3500   0.4585   0.4666
  0.4708   0.5100   0.5127   0.5178   0.5452   0.5613   0.5843   0.5843
  0.6251   0.6257   0.6420   0.6438   0.6562   0.6567   0.7088   0.7259
  0.7268   0.7670   0.8216   0.8652   0.8681   0.8734   0.8794   0.9589
  1.0022   1.0523   1.0575   1.1392   1.1400   1.1811   1.1814   1.2134
  1.2333   1.2335   1.2686   1.2778   1.2858   1.2916   1.3275   1.3771
  1.3817   1.3953   1.3990   1.4471   1.4664   1.4713   1.4783   1.4790
  1.5219   1.5792   1.6121   1.6233   1.6416   1.6431   1.6848   1.6935
  1.7454   2.3755   2.4669   2.4796   2.4987   2.5446   2.5608   2.5999
  2.6280   2.7141   2.8234   2.8320   2.8404   2.9106   2.9284   2.9321
  2.9325   2.9408   3.0025   3.0164   3.0550   3.0725   3.0751   3.1013
  3.1334   3.1363   3.1810   3.1948   3.2043   3.2197   3.2818   3.3093
  3.3337   3.3352   3.3372   3.3611   3.3626   3.3675   3.3993   3.4453
  3.4736   3.4849   3.4912   3.5162   3.5629   3.5774   3.5984   3.6188
  3.6212   3.6790   3.6888   3.7016   3.7834   3.7943   3.8822   3.8935
  3.9392   3.9508   3.9516   3.9552   3.9592   3.9885   4.0544   4.0644
  4.0781   4.1049   4.1064   4.1462   4.1522   4.1580   4.1899   4.2015
  4.2164   4.2440   4.2619   4.3727   4.3991   4.4100   4.4139   4.4268
  4.4346   4.5874   4.5898   4.5915   4.6719   4.8065   4.8264   4.8927
  4.9440   4.9579   4.9618   4.9623   5.0407   5.0491   5.0585   5.1095
  5.1224   5.2484   5.2491   5.2763   5.3114   5.3512   5.3522   5.3727
  5.3801   5.3828   5.4565   5.4968   5.5540   5.5569   5.6295   5.7450
  5.9540   6.3832   6.3850   6.3929   6.4165   6.4632  25.2048  25.4443
 25.4541
 --------------------------------------------------------------
 
 -----------------------------------------------------------------
                    Cartesian Multipole Moments
 -----------------------------------------------------------------
    Charge (ESU x 10^10)
                -0.0000
    Dipole Moment (Debye)
         X       0.0223      Y       0.0809      Z      -0.0173
       Tot       0.0857
    Quadrupole Moments (Debye-Ang)
        XX     -22.0688     XY       0.1103     YY     -21.8605
        XZ       0.2171     YZ       0.0282     ZZ     -21.4367
    Octopole Moments (Debye-Ang^2)
       XXX       0.4500    XXY       0.3280    XYY      -0.8948
       YYY      -1.1806    XXZ      -1.0659    XYZ      -0.3832
       YYZ      -0.5089    XZZ      -0.0383    YZZ      -0.9510
       ZZZ      -1.3970
    Hexadecapole Moments (Debye-Ang^3)
      XXXX    -178.8201   XXXY      19.2503   XXYY     -43.2375
      XYYY      18.6813   YYYY     -83.7448   XXXZ      18.8147
      XXYZ      -0.9455   XYYZ       7.1718   YYYZ      -2.9861
      XXZZ     -39.6215   XYZZ       6.8047   YYZZ     -21.8752
      XZZZ      19.9600   YZZZ      -5.1503   ZZZZ     -55.9094
 -----------------------------------------------------------------
Archival summary:
1\1\centos77-c4\SP\ProcedureUnspecified\BasisUnspecified\38\shihchen\TueJul700:59:062020TueJul700:59:062020\0\\#,ProcedureUnspecified,BasisUnspecified,\\0,1\C\H,1,1.09259\H,1,1.09259,2,106.225\C,1,1.52405,2,109.48,3,-118.121,0\H,4,1.09047,1,111.633,2,58.0357,0\H,4,1.09187,1,110.906,2,178.334,0\H,4,1.09187,1,110.906,2,-62.2628,0\C,1,1.52405,2,109.48,3,118.121,0\H,8,1.09047,1,111.633,2,-58.0358,0\H,8,1.09187,1,110.906,2,62.2628,0\H,8,1.09187,1,110.906,2,-178.334,0\\\@

 Total job time:  27.48s(wall), 74.55s(cpu) 
 Tue Jul  7 00:59:06 2020

        *************************************************************
        *                                                           *
        *  Thank you very much for using Q-Chem.  Have a nice day.  *
        *                                                           *
        *************************************************************


