                  Welcome to Q-Chem
     A Quantum Leap Into The Future Of Chemistry


 Q-Chem 5.2 (devel), Q-Chem, Inc., Pleasanton, CA (2019)

 Yihan Shao,  Zhengting Gan,  E. Epifanovsky,  A. T. B. Gilbert,  M. Wormit,  
 J. Kussmann,  A. W. Lange,  A. Behn,  Jia Deng,  Xintian Feng,  D. Ghosh,  
 M. Goldey,  P. R. Horn,  L. D. Jacobson,  I. Kaliman,  T. Kus,  A. Landau,  
 Jie Liu,  E. I. Proynov,  R. M. Richard,  R. P. Steele,  E. J. Sundstrom,  
 H. L. Woodcock III,  P. M. Zimmerman,  D. Zuev,  B. Alam,  B. Albrecht,  
 E. Alguire,  S. A. Baeppler,  D. Barton,  Z. Benda,  Y. A. Bernard,  
 E. J. Berquist,  K. B. Bravaya,  H. Burton,  K. Carter-Fenk,  D. Casanova,  
 Chun-Min Chang,  Yunqing Chen,  A. Chien,  K. D. Closser,  M. P. Coons,  
 S. Coriani,  S. Dasgupta,  A. L. Dempwolff,  M. Diedenhofen,  Hainam Do,  
 R. G. Edgar,  Po-Tung Fang,  S. Faraji,  S. Fatehi,  Qingguo Feng,  
 J. Fosso-Tande,  J. Gayvert,  Qinghui Ge,  A. Ghysels,  G. Gidofalvi,  
 J. Gomes,  J. Gonthier,  A. Gunina,  D. Hait,  M. W. D. Hanson-Heine,  
 P. H. P. Harbach,  A. W. Hauser,  M. F. Herbst,  J. E. Herr,  
 E. G. Hohenstein,  Z. C. Holden,  Kerwin Hui,  B. C. Huynh,  T.-C. Jagau,  
 Hyunjun Ji,  B. Kaduk,  K. Khistyaev,  Jaehoon Kim,  P. Klunzinger,  K. Koh,  
 D. Kosenkov,  L. Koulias,  T. Kowalczyk,  C. M. Krauter,  A. Kunitsa,  
 Ka Un Lao,  A. Laurent,  K. V. Lawler,  Joonho Lee,  D. Lefrancois,  
 S. Lehtola,  D. S. Levine,  Yi-Pei Li,  You-Sheng Lin,  Fenglai Liu,  
 Kuan-Yu Liu,  E. Livshits,  M. Loipersberger,  A. Luenser,  P. Manohar,  
 E. Mansoor,  S. F. Manzer,  Shan-Ping Mao,  Yuezhi Mao,  N. Mardirossian,  
 A. V. Marenich,  T. Markovich,  L. A. Martinez-Martinez,  S. A. Maurer,  
 N. J. Mayhall,  S. C. McKenzie,  J.-M. Mewes,  P. Morgante,  A. F. Morrison,  
 J. W. Mullinax,  K. Nanda,  T. S. Nguyen-Beck,  R. Olivares-Amaya,  
 J. A. Parkhill,  S. K. Paul,  Zheng Pei,  T. M. Perrine,  F. Plasser,  
 P. Pokhilko,  S. Prager,  A. Prociuk,  E. Ramos,  B. Rana,  D. R. Rehn,  
 F. Rob,  M. Scheurer,  M. Schneider,  N. Sergueev,  S. M. Sharada,  
 S. Sharma,  D. W. Small,  T. Stauch,  C. J. Stein,  T. Stein,  Yu-Chuan Su,  
 S. P. Veccham,  A. J. W. Thom,  A. Tkatchenko,  T. Tsuchimochi,  
 N. M. Tubman,  L. Vogt,  M. L. Vidal,  O. Vydrov,  M. A. Watson,  J. Wenzel,  
 M. de Wergifosse,  T. A. Wesolowski,  A. White,  J. Witte,  A. Yamada,  
 Jun Yang,  K. Yao,  S. Yeganeh,  S. R. Yost,  Zhi-Qiang You,  A. Zech,  
 Igor Ying Zhang,  Xing Zhang,  Yan Zhao,  Ying Zhu,  B. R. Brooks,  
 G. K. L. Chan,  C. J. Cramer,  M. S. Gordon,  W. J. Hehre,  A. Klamt,  
 M. W. Schmidt,  C. D. Sherrill,  D. G. Truhlar,  A. Aspuru-Guzik,  R. Baer,  
 A. T. Bell,  N. A. Besley,  Jeng-Da Chai,  A. E. DePrince, III,  
 R. A. DiStasio Jr.,  A. Dreuw,  B. D. Dunietz,  T. R. Furlani,  
 Chao-Ping Hsu,  Yousung Jung,  Jing Kong,  D. S. Lambrecht,  WanZhen Liang,  
 C. Ochsenfeld,  V. A. Rassolov,  L. V. Slipchenko,  J. E. Subotnik,  
 T. Van Voorhis,  J. M. Herbert,  A. I. Krylov,  P. M. W. Gill,  M. Head-Gordon

 Contributors to earlier versions of Q-Chem not listed above: 
 R. D. Adamson,  B. Austin,  J. Baker,  G. J. O. Beran,  K. Brandhorst,  
 S. T. Brown,  E. F. C. Byrd,  A. K. Chakraborty,  C.-L. Cheng,  
 Siu Hung Chien,  D. M. Chipman,  D. L. Crittenden,  H. Dachsel,  
 R. J. Doerksen,  A. D. Dutoi,  L. Fusti-Molnar,  W. A. Goddard III,  
 A. Golubeva-Zadorozhnaya,  S. R. Gwaltney,  G. Hawkins,  A. Heyden,  
 S. Hirata,  G. Kedziora,  F. J. Keil,  C. Kelley,  Jihan Kim,  R. A. King,  
 R. Z. Khaliullin,  P. P. Korambath,  W. Kurlancheek,  A. M. Lee,  M. S. Lee,  
 S. V. Levchenko,  Ching Yeh Lin,  D. Liotard,  R. C. Lochan,  I. Lotan,  
 P. E. Maslen,  N. Nair,  D. P. O'Neill,  D. Neuhauser,  E. Neuscamman,  
 C. M. Oana,  R. Olson,  B. Peters,  R. Peverati,  P. A. Pieniazek,  
 Y. M. Rhee,  J. Ritchie,  M. A. Rohrdanz,  E. Rosta,  N. J. Russ,  
 H. F. Schaefer III,  N. E. Schultz,  N. Shenvi,  A. C. Simmonett,  A. Sodt,  
 D. Stuck,  K. S. Thanthiriwatte,  V. Vanovschi,  Tao Wang,  A. Warshel,  
 C. F. Williams,  Q. Wu,  X. Xu,  W. Zhang

 Please cite Q-Chem as follows:
 Y. Shao et al., Mol. Phys. 113, 184-215 (2015)
 DOI: 10.1080/00268976.2014.952696

 Q-Chem 5.2.2 for Intel X86 EM64T Linux

 Parts of Q-Chem use Armadillo 9.800.1 (Horizon Scraper).
 http://arma.sourceforge.net/

 Q-Chem begins on Sun Apr 12 05:24:43 2020  

Host: cn0821
0

     Scratch files written to /tmp/ypli/6721342.srvc1/qchem168599//
Warning:  Did not find "$end" marker in "$molecule" section

Checking the input file for inconsistencies... 	...done.

--------------------------------------------------------------
User input:
--------------------------------------------------------------
$rem
   JOBTYPE  sp
   EXCHANGE   omegaB97X-D
   BASIS   6-311+G(2df,2pd)
   max_scf_cycles   250
   geom_opt_max_cycles   1500
   basis2 6-31G*
   scf_algorithm rca_diis
   SYM_IGNORE  TRUE
   print_input   true
   geom_opt_dmax   80
   pop_mulliken false
   XC_GRID 000075000302
$end

$molecule
0 1
C       1.1005368019     -0.6053360484     -0.2525593078
C       0.1607543446     0.5838605255     -0.0933158491
H       0.6971252490     -1.3281241340     -0.9646165312
H       1.2385560226     -1.1230004763     0.6988413546
H       2.0830833388     -0.2961281393     -0.6104924957
C       -1.2193688188     0.1737383717     0.4064664879
H       0.0626607504     1.1014700991     -1.0505139265
H       0.5999161540     1.3050119375     0.6001160013
H       -1.6924954253     -0.5256576719     -0.2858563640
H       -1.8797512849     1.0347356086     0.5152714617
H       -1.1510171931     -0.3205694065     1.3777041878
--------------------------------------------------------------
 ----------------------------------------------------------------
             Standard Nuclear Orientation (Angstroms)
    I     Atom           X                Y                Z
 ----------------------------------------------------------------
    1      C       1.1005368019    -0.6053360484    -0.2525593078
    2      C       0.1607543446     0.5838605255    -0.0933158491
    3      H       0.6971252490    -1.3281241340    -0.9646165312
    4      H       1.2385560226    -1.1230004763     0.6988413546
    5      H       2.0830833388    -0.2961281393    -0.6104924957
    6      C      -1.2193688188     0.1737383717     0.4064664879
    7      H       0.0626607504     1.1014700991    -1.0505139265
    8      H       0.5999161540     1.3050119375     0.6001160013
    9      H      -1.6924954253    -0.5256576719    -0.2858563640
   10      H      -1.8797512849     1.0347356086     0.5152714617
   11      H      -1.1510171931    -0.3205694065     1.3777041878
 ----------------------------------------------------------------
 Nuclear Repulsion Energy =          82.72908815 hartrees
 There are       13 alpha and       13 beta electrons
 Requested basis set is 6-311+G(2df,2pd)
 There are 72 shells and 214 basis functions

 Total QAlloc Memory Limit   2000 MB
 Mega-Array Size       188 MB
 MEM_STATIC part       192 MB

                       Distance Matrix (Angstroms)
             C (  1)   C (  2)   H (  3)   H (  4)   H (  5)   C (  6)
   C (  2)  1.524053
   H (  3)  1.091874  2.168535
   H (  4)  1.091874  2.168535  1.761339
   H (  5)  1.090469  2.176511  1.763888  1.763888
   C (  6)  2.534410  1.524048  2.794353  2.794353  3.487287
   H (  7)  2.151071  1.092598  2.512539  3.064513  2.495798  2.151064
   H (  8)  2.151071  1.092598  3.064514  2.512539  2.495798  2.151064
   H (  9)  2.794367  2.168556  2.610547  3.149208  3.796455  1.091932
   H ( 10)  3.487337  2.176541  3.796507  3.796494  4.329273  1.090532
   H ( 11)  2.794342  2.168557  3.149169  2.610519  3.796436  1.091932
             H (  7)   H (  8)   H (  9)   H ( 10)
   H (  8)  1.747756
   H (  9)  2.512532  3.064547
   H ( 10)  2.495817  2.495796  1.764000
   H ( 11)  3.064548  2.512554  1.761446  1.764000
 
 A cutoff of  1.0D-09 yielded   2532 shell pairs
 There are     22578 function pairs (     27759 Cartesian)
 Smallest overlap matrix eigenvalue = 8.69E-05

 Scale SEOQF with 1.000000e-01/1.000000e-01/1.000000e-01

 Standard Electronic Orientation quadrupole field applied
 Nucleus-field energy     =     0.0000000012 hartrees
 Requested basis set is 6-31G(d)
 There are 28 shells and 58 basis functions
 A cutoff of  1.0D-09 yielded    402 shell pairs
 There are      1773 function pairs (      1968 Cartesian)
 Smallest overlap matrix eigenvalue = 6.79E-03
 Guess from superposition of atomic densities
 Warning:  Energy on first SCF cycle will be non-variational
 SAD guess density has 26.000000 electrons
 Long-range K will be added via erf
 Coulomb attenuation parameter = 0.2 bohr**(-1)
 A restricted hybrid HF-DFT SCF calculation will be
 performed using Relaxed Constraint Minimization + Pulay DIIS
 Exchange:     0.2220 Hartree-Fock + 1.0000 wB97X-D + LR-HF
 Correlation:  1.0000 wB97X-D
 Using Euler-Maclaurin-Lebedev (75,302) quadrature formula
 Dispersion:   Grimme D
 SCF converges when DIIS error is below 1.0E-04
 using 3 threads for integral computing
 -------------------------------------------------------
 OpenMP Integral computing Module                
 Release: version 1.0, May 2013, Q-Chem Inc. Pittsburgh 
 -------------------------------------------------------
 using 3 threads for integral computing
 -------------------------------------------------------
 OpenMP Integral computing Module                
 Release: version 1.0, May 2013, Q-Chem Inc. Pittsburgh 
 -------------------------------------------------------
 ---------------------------------------
  Cycle       Energy         DIIS Error
 ---------------------------------------
    1    -119.6180214019      1.00E-01
    2    -119.0669650635      9.00E-03
    3    -119.0880182653      2.46E-03
    4    -119.1018684861      1.68E-03
    5    -119.1025652268      2.67E-04 Done RCA. Switching to DIIS
    6    -119.1030752679      1.97E-04
    7    -119.1030921718      4.48E-06 Convergence criterion met
 ---------------------------------------
 SCF time:  CPU 30.37 s  wall 10.50 s
 SCF   energy in the small basis set = -119.10309217
 Total energy in the small basis set = -119.10309217
 ----------------------------------------------------
  Cycle       Energy    
 ----------------------------------------------------
    1     -16.5392285588     -1.65E+01
 Long-range K will be added via erf
 Coulomb attenuation parameter = 0.2 bohr**(-1)
 A restricted hybrid HF-DFT SCF calculation will be
 performed using Relaxed Constraint Minimization + Pulay DIIS
 Exchange:     0.2220 Hartree-Fock + 1.0000 wB97X-D + LR-HF
 Correlation:  1.0000 wB97X-D
 Using Euler-Maclaurin-Lebedev (75,302) quadrature formula
 Dispersion:   Grimme D
 SCF converges when DIIS error is below 1.0E-05
 Basis2 calculation detected. Using small basis as guess for larger.
 SCFMinFind is unable to tell whether the solution found is close.
 Resetting ReadMinima to 0 and attempting to follow guess.
 SCFMinFind following SCF Guess.
 using 3 threads for integral computing
 -------------------------------------------------------
 OpenMP Integral computing Module                
 Release: version 1.0, May 2013, Q-Chem Inc. Pittsburgh 
 -------------------------------------------------------
 using 3 threads for integral computing
 -------------------------------------------------------
 OpenMP Integral computing Module                
 Release: version 1.0, May 2013, Q-Chem Inc. Pittsburgh 
 -------------------------------------------------------
 ---------------------------------------
  Cycle       Energy         DIIS Error
 ---------------------------------------
    1    -119.1221500124      4.21E-03
    2    -119.1441876008      5.97E-04 Done RCA. Switching to DIIS
    3    -119.1450195009      4.18E-04
    4    -119.1459755998      4.55E-05
    5    -119.1459902790      1.01E-05
    6    -119.1459909576      3.87E-06 Convergence criterion met
 ---------------------------------------
 SCF time:  CPU 93.02 s  wall 31.43 s
 SCF   energy in the final basis set = -119.14599096
 Total energy in the final basis set = -119.14599096
 
 --------------------------------------------------------------
 
                    Orbital Energies (a.u.)
 --------------------------------------------------------------
 
 Alpha MOs
 -- Occupied --
-10.2740 -10.2652 -10.2651  -0.8812  -0.7771  -0.6777  -0.5457  -0.5242
 -0.4826  -0.4636  -0.4186  -0.4177  -0.4075
 -- Virtual --
  0.0691   0.0860   0.0910   0.0990   0.1251   0.1300   0.1335   0.1426
  0.1431   0.1706   0.1721   0.1913   0.2326   0.2413   0.2444   0.2642
  0.2816   0.2844   0.3109   0.3127   0.3344   0.3500   0.4585   0.4666
  0.4708   0.5100   0.5127   0.5178   0.5452   0.5613   0.5843   0.5843
  0.6251   0.6257   0.6420   0.6437   0.6562   0.6567   0.7088   0.7258
  0.7268   0.7670   0.8216   0.8652   0.8681   0.8734   0.8794   0.9589
  1.0022   1.0523   1.0575   1.1392   1.1399   1.1811   1.1814   1.2133
  1.2333   1.2335   1.2686   1.2778   1.2858   1.2916   1.3275   1.3771
  1.3817   1.3953   1.3990   1.4471   1.4664   1.4713   1.4783   1.4790
  1.5218   1.5792   1.6120   1.6233   1.6416   1.6431   1.6847   1.6935
  1.7454   2.3756   2.4670   2.4796   2.4987   2.5446   2.5608   2.5999
  2.6280   2.7141   2.8234   2.8319   2.8404   2.9106   2.9284   2.9321
  2.9325   2.9407   3.0025   3.0164   3.0550   3.0724   3.0751   3.1013
  3.1333   3.1363   3.1810   3.1948   3.2043   3.2197   3.2818   3.3093
  3.3337   3.3352   3.3372   3.3610   3.3625   3.3675   3.3993   3.4453
  3.4736   3.4849   3.4912   3.5162   3.5629   3.5774   3.5984   3.6188
  3.6212   3.6790   3.6887   3.7016   3.7835   3.7943   3.8822   3.8935
  3.9392   3.9508   3.9516   3.9551   3.9592   3.9885   4.0543   4.0643
  4.0780   4.1049   4.1064   4.1461   4.1522   4.1580   4.1898   4.2015
  4.2163   4.2439   4.2619   4.3726   4.3990   4.4100   4.4139   4.4267
  4.4346   4.5874   4.5897   4.5914   4.6719   4.8065   4.8263   4.8927
  4.9439   4.9578   4.9617   4.9622   5.0406   5.0490   5.0584   5.1095
  5.1223   5.2483   5.2490   5.2762   5.3113   5.3510   5.3520   5.3727
  5.3800   5.3827   5.4565   5.4967   5.5540   5.5569   5.6295   5.7449
  5.9539   6.3831   6.3849   6.3928   6.4164   6.4632  25.2048  25.4441
 25.4540
 --------------------------------------------------------------
 
 -----------------------------------------------------------------
                    Cartesian Multipole Moments
 -----------------------------------------------------------------
    Charge (ESU x 10^10)
                -0.0000
    Dipole Moment (Debye)
         X       0.0224      Y       0.0809      Z      -0.0173
       Tot       0.0857
    Quadrupole Moments (Debye-Ang)
        XX     -22.0692     XY       0.1102     YY     -21.8606
        XZ       0.2172     YZ       0.0282     ZZ     -21.4368
    Octopole Moments (Debye-Ang^2)
       XXX       0.4515    XXY       0.3280    XYY      -0.8947
       YYY      -1.1804    XXZ      -1.0662    XYZ      -0.3834
       YYZ      -0.5089    XZZ      -0.0381    YZZ      -0.9511
       ZZZ      -1.3974
    Hexadecapole Moments (Debye-Ang^3)
      XXXX    -178.8232   XXXY      19.2504   XXYY     -43.2381
      XYYY      18.6810   YYYY     -83.7477   XXXZ      18.8165
      XXYZ      -0.9456   XYYZ       7.1721   YYYZ      -2.9876
      XXZZ     -39.6223   XYZZ       6.8050   YYZZ     -21.8759
      XZZZ      19.9615   YZZZ      -5.1516   ZZZZ     -55.9127
 -----------------------------------------------------------------
Archival summary:
1\1\cn0821\SP\ProcedureUnspecified\BasisUnspecified\38\r0852400\SunApr1205:25:292020SunApr1205:25:292020\0\\#,ProcedureUnspecified,BasisUnspecified,\\0,1\C\H,1,1.0926\H,1,1.0926,2,106.225\C,1,1.52405,2,109.48,3,118.121,0\H,4,1.09053,1,111.631,2,-58.0374,0\H,4,1.09193,1,110.905,2,62.2612,0\H,4,1.09193,1,110.905,2,-178.336,0\C,1,1.52405,2,109.48,3,-118.121,0\H,8,1.09047,1,111.632,2,58.0359,0\H,8,1.09187,1,110.906,2,178.334,0\H,8,1.09187,1,110.906,2,-62.2626,0\\\@

 Total job time:  45.92s(wall), 128.24s(cpu) 
 Sun Apr 12 05:25:29 2020

        *************************************************************
        *                                                           *
        *  Thank you very much for using Q-Chem.  Have a nice day.  *
        *                                                           *
        *************************************************************


