                  Welcome to Q-Chem
     A Quantum Leap Into The Future Of Chemistry


 Q-Chem 5.3 (devel), Q-Chem, Inc., Pleasanton, CA (2020)

 Yihan Shao,  Zhengting Gan,  E. Epifanovsky,  A. T. B. Gilbert,  M. Wormit,  
 J. Kussmann,  A. W. Lange,  A. Behn,  Jia Deng,  Xintian Feng,  D. Ghosh,  
 M. Goldey,  P. R. Horn,  L. D. Jacobson,  I. Kaliman,  T. Kus,  A. Landau,  
 Jie Liu,  E. I. Proynov,  R. M. Richard,  R. P. Steele,  E. J. Sundstrom,  
 H. L. Woodcock III,  P. M. Zimmerman,  D. Zuev,  B. Alam,  B. Albrecht,  
 E. Alguire,  S. A. Baeppler,  D. Barton,  Z. Benda,  Y. A. Bernard,  
 E. J. Berquist,  K. B. Bravaya,  H. Burton,  K. Carter-Fenk,  D. Casanova,  
 Chun-Min Chang,  Yunqing Chen,  A. Chien,  K. D. Closser,  M. P. Coons,  
 S. Coriani,  S. Dasgupta,  A. L. Dempwolff,  M. Diedenhofen,  Hainam Do,  
 R. G. Edgar,  Po-Tung Fang,  S. Faraji,  S. Fatehi,  Qingguo Feng,  
 J. Fosso-Tande,  J. Gayvert,  Qinghui Ge,  A. Ghysels,  G. Gidofalvi,  
 J. Gomes,  J. Gonthier,  A. Gunina,  D. Hait,  M. W. D. Hanson-Heine,  
 P. H. P. Harbach,  A. W. Hauser,  M. F. Herbst,  J. E. Herr,  
 E. G. Hohenstein,  Z. C. Holden,  Kerwin Hui,  B. C. Huynh,  T.-C. Jagau,  
 Hyunjun Ji,  B. Kaduk,  K. Khistyaev,  Jaehoon Kim,  P. Klunzinger,  K. Koh,  
 D. Kosenkov,  L. Koulias,  T. Kowalczyk,  C. M. Krauter,  A. Kunitsa,  
 Ka Un Lao,  A. Laurent,  K. V. Lawler,  Joonho Lee,  D. Lefrancois,  
 S. Lehtola,  D. S. Levine,  Yi-Pei Li,  You-Sheng Lin,  Fenglai Liu,  
 Kuan-Yu Liu,  E. Livshits,  M. Loipersberger,  A. Luenser,  P. Manohar,  
 E. Mansoor,  S. F. Manzer,  Shan-Ping Mao,  Yuezhi Mao,  N. Mardirossian,  
 A. V. Marenich,  T. Markovich,  L. A. Martinez-Martinez,  S. A. Maurer,  
 N. J. Mayhall,  S. C. McKenzie,  J.-M. Mewes,  P. Morgante,  A. F. Morrison,  
 J. W. Mullinax,  K. Nanda,  T. S. Nguyen-Beck,  R. Olivares-Amaya,  
 K. J. Oosterbaan,  J. A. Parkhill,  S. K. Paul,  F. Pavosevic,  Zheng Pei,  
 T. M. Perrine,  F. Plasser,  P. Pokhilko,  S. Prager,  A. Prociuk,  
 E. Ramos,  B. Rana,  D. R. Rehn,  F. Rob,  M. Scheurer,  M. Schneider,  
 N. Sergueev,  S. M. Sharada,  S. Sharma,  D. W. Small,  T. Stauch,  
 C. J. Stein,  T. Stein,  Yu-Chuan Su,  S. P. Veccham,  Zhen Tao,  
 A. J. W. Thom,  A. Tkatchenko,  T. Tsuchimochi,  N. M. Tubman,  L. Vogt,  
 M. L. Vidal,  O. Vydrov,  M. A. Watson,  J. Wenzel,  M. de Wergifosse,  
 T. A. Wesolowski,  A. White,  J. Witte,  A. Yamada,  Jun Yang,  K. Yao,  
 S. Yeganeh,  S. R. Yost,  Zhi-Qiang You,  A. Zech,  Igor Ying Zhang,  
 Xing Zhang,  Yan Zhao,  Ying Zhu,  B. R. Brooks,  G. K. L. Chan,  
 C. J. Cramer,  M. S. Gordon,  W. J. Hehre,  A. Klamt,  M. W. Schmidt,  
 C. D. Sherrill,  D. G. Truhlar,  A. Aspuru-Guzik,  R. Baer,  A. T. Bell,  
 N. A. Besley,  Jeng-Da Chai,  A. E. DePrince, III,  R. A. DiStasio Jr.,  
 A. Dreuw,  B. D. Dunietz,  T. R. Furlani,  Chao-Ping Hsu,  Yousung Jung,  
 Jing Kong,  D. S. Lambrecht,  WanZhen Liang,  C. Ochsenfeld,  
 V. A. Rassolov,  L. V. Slipchenko,  J. E. Subotnik,  T. Van Voorhis,  
 J. M. Herbert,  A. I. Krylov,  P. M. W. Gill,  M. Head-Gordon

 Contributors to earlier versions of Q-Chem not listed above: 
 R. D. Adamson,  B. Austin,  J. Baker,  G. J. O. Beran,  K. Brandhorst,  
 S. T. Brown,  E. F. C. Byrd,  A. K. Chakraborty,  C.-L. Cheng,  
 Siu Hung Chien,  D. M. Chipman,  D. L. Crittenden,  H. Dachsel,  
 R. J. Doerksen,  A. D. Dutoi,  L. Fusti-Molnar,  W. A. Goddard III,  
 A. Golubeva-Zadorozhnaya,  S. R. Gwaltney,  G. Hawkins,  A. Heyden,  
 S. Hirata,  G. Kedziora,  F. J. Keil,  C. Kelley,  Jihan Kim,  R. A. King,  
 R. Z. Khaliullin,  P. P. Korambath,  W. Kurlancheek,  A. M. Lee,  M. S. Lee,  
 S. V. Levchenko,  Ching Yeh Lin,  D. Liotard,  R. C. Lochan,  I. Lotan,  
 P. E. Maslen,  N. Nair,  D. P. O'Neill,  D. Neuhauser,  E. Neuscamman,  
 C. M. Oana,  R. Olson,  B. Peters,  R. Peverati,  P. A. Pieniazek,  
 Y. M. Rhee,  J. Ritchie,  M. A. Rohrdanz,  E. Rosta,  N. J. Russ,  
 H. F. Schaefer III,  N. E. Schultz,  N. Shenvi,  A. C. Simmonett,  A. Sodt,  
 D. Stuck,  K. S. Thanthiriwatte,  V. Vanovschi,  Tao Wang,  A. Warshel,  
 C. F. Williams,  Q. Wu,  X. Xu,  W. Zhang

 Please cite Q-Chem as follows:
 Y. Shao et al., Mol. Phys. 113, 184-215 (2015)
 DOI: 10.1080/00268976.2014.952696

 Q-Chem 5.3.0 for Intel X86 EM64T Linux

 Parts of Q-Chem use Armadillo 9.800.1 (Horizon Scraper).
 http://arma.sourceforge.net/

 Q-Chem begins on Tue Jul  7 00:33:20 2020  

Host: centos77-c4
0

     Scratch files written to /tmp/26964.centos77-h1/qchem88437//
Processing $rem in /opt/qchem-5.3.0-intel2020u1//config/preferences:
Processing $rem in /home/shihchengli/.qchemrc:

Checking the input file for inconsistencies... 	...done.

--------------------------------------------------------------
User input:
--------------------------------------------------------------
$rem
   JOBTYPE  sp
   EXCHANGE   omegaB97X-D
   BASIS   6-311+G(2df,2pd)
   UNRESTRICTED   False
   max_scf_cycles   250
   geom_opt_max_cycles   1500
   basis2 6-31G*
   scf_algorithm rca_diis
   SYM_IGNORE  TRUE
   print_input   true
   geom_opt_dmax   80
   pop_mulliken false
   XC_GRID 000075000302
$end

$molecule
0 1
C       1.2505214171     -0.1190399160     0.3088035673
C       -0.0518275441     -0.4065458660     -0.4287249131
H       1.9564174132     0.4065450257     -0.3374522980
H       1.7281570467     -1.0462012542     0.6319310811
H       1.0842053787     0.4971046792     1.1930134961
C       -1.2159795268     0.4242049113     0.0978907480
H       -0.2932015096     -1.4685586467     -0.3414085120
H       0.0825051425     -0.2106848773     -1.4951909903
H       -1.3897611085     0.2240251100     1.1570901197
H       -2.1399022005     0.2074769886     -0.4392482335
H       -1.0111345692     1.4916745114     -0.0056590465
$end
--------------------------------------------------------------
 ----------------------------------------------------------------
             Standard Nuclear Orientation (Angstroms)
    I     Atom           X                Y                Z
 ----------------------------------------------------------------
    1      C       1.2505214171    -0.1190399160     0.3088035673
    2      C      -0.0518275441    -0.4065458660    -0.4287249131
    3      H       1.9564174132     0.4065450257    -0.3374522980
    4      H       1.7281570467    -1.0462012542     0.6319310811
    5      H       1.0842053787     0.4971046792     1.1930134961
    6      C      -1.2159795268     0.4242049113     0.0978907480
    7      H      -0.2932015096    -1.4685586467    -0.3414085120
    8      H       0.0825051425    -0.2106848773    -1.4951909903
    9      H      -1.3897611085     0.2240251100     1.1570901197
   10      H      -2.1399022005     0.2074769886    -0.4392482335
   11      H      -1.0111345692     1.4916745114    -0.0056590465
 ----------------------------------------------------------------
 Nuclear Repulsion Energy =          82.74324337 hartrees
 There are       13 alpha and       13 beta electrons
 Requested basis set is 6-311+G(2df,2pd)
 There are 72 shells and 214 basis functions

 Total QAlloc Memory Limit   2000 MB
 Mega-Array Size       188 MB
 MEM_STATIC part       192 MB

                       Distance Matrix (Angstroms)
             C (  1)   C (  2)   H (  3)   H (  4)   H (  5)   C (  6)
   C (  2)  1.524047
   H (  3)  1.091868  2.168524
   H (  4)  1.091868  2.168524  1.761329
   H (  5)  1.090469  2.176509  1.763882  1.763882
   C (  6)  2.534408  1.524047  3.202177  3.333952  2.548619
   H (  7)  2.151060  1.092592  2.928620  2.282907  2.848777  2.151060
   H (  8)  2.151060  1.092592  2.287549  2.816186  2.954795  2.151059
   H (  9)  2.794347  2.168524  3.669316  3.407445  2.489252  1.091868
   H ( 10)  3.487286  2.176509  4.102417  4.204880  3.625332  1.090469
   H ( 11)  2.794347  2.168524  3.177099  3.788278  2.610830  1.091868
             H (  7)   H (  8)   H (  9)   H ( 10)
   H (  8)  1.747746
   H (  9)  2.512525  3.064496
   H ( 10)  2.495791  2.495790  1.763883
   H ( 11)  3.064496  2.512525  1.761329  1.763882
 
 A cutoff of  1.0D-09 yielded   2532 shell pairs
 There are     22566 function pairs (     27757 Cartesian)
 Smallest overlap matrix eigenvalue = 8.05E-05

 Scale SEOQF with 1.000000e-01/1.000000e-01/1.000000e-01

 Standard Electronic Orientation quadrupole field applied
 Nucleus-field energy     =     0.0000000010 hartrees
 Requested basis set is 6-31G(d)
 There are 28 shells and 58 basis functions
 A cutoff of  1.0D-09 yielded    400 shell pairs
 There are      1771 function pairs (      1966 Cartesian)
 Smallest overlap matrix eigenvalue = 6.41E-03
 Guess from superposition of atomic densities
 Warning:  Energy on first SCF cycle will be non-variational
 SAD guess density has 26.000000 electrons
 Long-range K will be added via erf
 Coulomb attenuation parameter = 0.2 bohr**(-1)
 A restricted hybrid HF-DFT SCF calculation will be
 performed using Relaxed Constraint Minimization + Pulay DIIS
 Exchange:     0.2220 Hartree-Fock + 1.0000 wB97X-D + LR-HF
 Correlation:  1.0000 wB97X-D
 Using Euler-Maclaurin-Lebedev (75,302) quadrature formula
 Dispersion:   Grimme D
 SCF converges when DIIS error is below 1.0E-04
 using 3 threads for integral computing
 -------------------------------------------------------
 OpenMP Integral computing Module                
 Release: version 1.0, May 2013, Q-Chem Inc. Pittsburgh 
 -------------------------------------------------------
 using 3 threads for integral computing
 -------------------------------------------------------
 OpenMP Integral computing Module                
 Release: version 1.0, May 2013, Q-Chem Inc. Pittsburgh 
 -------------------------------------------------------
 ---------------------------------------
  Cycle       Energy         DIIS Error
 ---------------------------------------
    1    -119.6220772212      1.00E-01
    2    -119.0617451043      9.03E-03
    3    -119.0829162180      2.45E-03
    4    -119.0968771218      1.68E-03
    5    -119.0975721024      2.65E-04 Done RCA. Switching to DIIS
    6    -119.0980821121      1.96E-04
    7    -119.0980988327      4.40E-06 Convergence criterion met
 ---------------------------------------
 SCF time:  CPU 19.33 s  wall 7.08 s
 SCF   energy in the small basis set = -119.09809883
 Total energy in the small basis set = -119.09809883
 ----------------------------------------------------
  Cycle       Energy    
 ----------------------------------------------------
    1     -16.5427586217     -1.65E+01
 Long-range K will be added via erf
 Coulomb attenuation parameter = 0.2 bohr**(-1)
 A restricted hybrid HF-DFT SCF calculation will be
 performed using Relaxed Constraint Minimization + Pulay DIIS
 Exchange:     0.2220 Hartree-Fock + 1.0000 wB97X-D + LR-HF
 Correlation:  1.0000 wB97X-D
 Using Euler-Maclaurin-Lebedev (75,302) quadrature formula
 Dispersion:   Grimme D
 SCF converges when DIIS error is below 1.0E-05
 Basis2 calculation detected. Using small basis as guess for larger.
 SCFMinFind is unable to tell whether the solution found is close.
 Resetting ReadMinima to 0 and attempting to follow guess.
 SCFMinFind following SCF Guess.
 using 3 threads for integral computing
 -------------------------------------------------------
 OpenMP Integral computing Module                
 Release: version 1.0, May 2013, Q-Chem Inc. Pittsburgh 
 -------------------------------------------------------
 using 3 threads for integral computing
 -------------------------------------------------------
 OpenMP Integral computing Module                
 Release: version 1.0, May 2013, Q-Chem Inc. Pittsburgh 
 -------------------------------------------------------
 ---------------------------------------
  Cycle       Energy         DIIS Error
 ---------------------------------------
    1    -119.1173309300      4.21E-03
    2    -119.1393583880      6.00E-04 Done RCA. Switching to DIIS
    3    -119.1401929167      4.22E-04
    4    -119.1411691297      4.54E-05
    5    -119.1411838485      1.02E-05
    6    -119.1411845469      3.92E-06 Convergence criterion met
 ---------------------------------------
 SCF time:  CPU 52.15 s  wall 17.69 s
 SCF   energy in the final basis set = -119.14118455
 Total energy in the final basis set = -119.14118455
 
 --------------------------------------------------------------
 
                    Orbital Energies (a.u.)
 --------------------------------------------------------------
 
 Alpha MOs
 -- Occupied --
-10.2727 -10.2652 -10.2636  -0.8810  -0.7768  -0.6775  -0.5447  -0.5253
 -0.4806  -0.4676  -0.4194  -0.4157  -0.4022
 -- Virtual --
  0.0697   0.0868   0.0911   0.1011   0.1223   0.1310   0.1327   0.1381
  0.1453   0.1662   0.1747   0.1902   0.2146   0.2404   0.2521   0.2600
  0.2912   0.3043   0.3122   0.3274   0.3352   0.3491   0.4563   0.4758
  0.4856   0.4984   0.5120   0.5189   0.5251   0.5482   0.5750   0.5865
  0.6212   0.6257   0.6302   0.6386   0.6502   0.6542   0.7038   0.7105
  0.7356   0.7720   0.8081   0.8461   0.8992   0.9218   0.9600   0.9789
  0.9876   1.0324   1.0789   1.1106   1.1407   1.1748   1.1857   1.2190
  1.2227   1.2338   1.2587   1.2754   1.2837   1.3011   1.3287   1.3672
  1.3903   1.4121   1.4354   1.4475   1.4533   1.4662   1.4689   1.5148
  1.5283   1.5489   1.5699   1.6014   1.6307   1.6538   1.6625   1.6779
  1.7429   2.3565   2.3786   2.4666   2.4681   2.5067   2.6377   2.6608
  2.6792   2.6937   2.8001   2.8072   2.8501   2.8811   2.9323   2.9355
  2.9416   2.9644   3.0132   3.0422   3.0525   3.0652   3.0737   3.1136
  3.1227   3.1476   3.1882   3.1947   3.1960   3.2382   3.2676   3.2915
  3.3113   3.3151   3.3396   3.3533   3.3603   3.4018   3.4244   3.4382
  3.4491   3.4812   3.5263   3.5489   3.5604   3.5965   3.6105   3.6171
  3.6369   3.6753   3.7017   3.7140   3.7321   3.7467   3.7938   3.8505
  3.8708   3.9263   3.9509   3.9657   4.0030   4.0235   4.0459   4.0678
  4.0952   4.1043   4.1174   4.1305   4.1513   4.1737   4.1958   4.2071
  4.2547   4.2749   4.2907   4.3137   4.3534   4.4140   4.4229   4.4717
  4.4988   4.5492   4.6064   4.6148   4.6834   4.8125   4.8380   4.8741
  4.9086   4.9354   4.9568   4.9871   5.0021   5.0680   5.0773   5.1457
  5.1487   5.2003   5.2476   5.2779   5.2931   5.2991   5.3504   5.3578
  5.3733   5.3931   5.4305   5.4686   5.5224   5.5466   5.6456   5.7212
  5.9868   6.3370   6.3812   6.4066   6.4304   6.4951  25.1363  25.4180
 25.4834
 --------------------------------------------------------------
 
 -----------------------------------------------------------------
                    Cartesian Multipole Moments
 -----------------------------------------------------------------
    Charge (ESU x 10^10)
                -0.0000
    Dipole Moment (Debye)
         X      -0.0012      Y      -0.0562      Z      -0.0638
       Tot       0.0850
    Quadrupole Moments (Debye-Ang)
        XX     -22.2381     XY       0.1347     YY     -21.5612
        XZ      -0.1500     YZ      -0.2497     ZZ     -21.5991
    Octopole Moments (Debye-Ang^2)
       XXX      -0.4246    XXY      -0.1618    XYY       0.6035
       YYY       0.5281    XXZ      -1.3226    XYZ      -0.2916
       YYZ       0.0140    XZZ      -0.0185    YZZ       0.7688
       ZZZ      -0.7424
    Hexadecapole Moments (Debye-Ang^3)
      XXXX    -196.1391   XXXY      17.0062   XXYY     -43.3088
      XYYY      14.9055   YYYY     -60.4031   XXXZ      -6.7622
      XXYZ      -2.5842   XYYZ      -1.8348   YYYZ      -5.6767
      XXZZ     -42.1837   XYZZ       5.8716   YYZZ     -21.3322
      XZZZ      -8.3561   YZZZ      -4.7483   ZZZZ     -58.4766
 -----------------------------------------------------------------
Archival summary:
1\1\centos77-c4\SP\ProcedureUnspecified\BasisUnspecified\38\shihchen\TueJul700:33:482020TueJul700:33:482020\0\\#,ProcedureUnspecified,BasisUnspecified,\\0,1\C\H,1,1.09259\H,1,1.09259,2,106.225\C,1,1.52405,2,109.48,3,-118.121,0\H,4,1.09047,1,111.633,2,58.0357,0\H,4,1.09187,1,110.906,2,178.334,0\H,4,1.09187,1,110.906,2,-62.2628,0\C,1,1.52405,2,109.48,3,118.121,0\H,8,1.09047,1,111.633,2,131.964,0\H,8,1.09187,1,110.906,2,11.6657,0\H,8,1.09187,1,110.906,2,-107.737,0\\\@

 Total job time:  27.74s(wall), 75.12s(cpu) 
 Tue Jul  7 00:33:48 2020

        *************************************************************
        *                                                           *
        *  Thank you very much for using Q-Chem.  Have a nice day.  *
        *                                                           *
        *************************************************************


