                  Welcome to Q-Chem
     A Quantum Leap Into The Future Of Chemistry


 Q-Chem 5.2 (devel), Q-Chem, Inc., Pleasanton, CA (2019)

 Yihan Shao,  Zhengting Gan,  E. Epifanovsky,  A. T. B. Gilbert,  M. Wormit,  
 J. Kussmann,  A. W. Lange,  A. Behn,  Jia Deng,  Xintian Feng,  D. Ghosh,  
 M. Goldey,  P. R. Horn,  L. D. Jacobson,  I. Kaliman,  T. Kus,  A. Landau,  
 Jie Liu,  E. I. Proynov,  R. M. Richard,  R. P. Steele,  E. J. Sundstrom,  
 H. L. Woodcock III,  P. M. Zimmerman,  D. Zuev,  B. Alam,  B. Albrecht,  
 E. Alguire,  S. A. Baeppler,  D. Barton,  Z. Benda,  Y. A. Bernard,  
 E. J. Berquist,  K. B. Bravaya,  H. Burton,  K. Carter-Fenk,  D. Casanova,  
 Chun-Min Chang,  Yunqing Chen,  A. Chien,  K. D. Closser,  M. P. Coons,  
 S. Coriani,  S. Dasgupta,  A. L. Dempwolff,  M. Diedenhofen,  Hainam Do,  
 R. G. Edgar,  Po-Tung Fang,  S. Faraji,  S. Fatehi,  Qingguo Feng,  
 J. Fosso-Tande,  J. Gayvert,  Qinghui Ge,  A. Ghysels,  G. Gidofalvi,  
 J. Gomes,  J. Gonthier,  A. Gunina,  D. Hait,  M. W. D. Hanson-Heine,  
 P. H. P. Harbach,  A. W. Hauser,  M. F. Herbst,  J. E. Herr,  
 E. G. Hohenstein,  Z. C. Holden,  Kerwin Hui,  B. C. Huynh,  T.-C. Jagau,  
 Hyunjun Ji,  B. Kaduk,  K. Khistyaev,  Jaehoon Kim,  P. Klunzinger,  K. Koh,  
 D. Kosenkov,  L. Koulias,  T. Kowalczyk,  C. M. Krauter,  A. Kunitsa,  
 Ka Un Lao,  A. Laurent,  K. V. Lawler,  Joonho Lee,  D. Lefrancois,  
 S. Lehtola,  D. S. Levine,  Yi-Pei Li,  You-Sheng Lin,  Fenglai Liu,  
 Kuan-Yu Liu,  E. Livshits,  M. Loipersberger,  A. Luenser,  P. Manohar,  
 E. Mansoor,  S. F. Manzer,  Shan-Ping Mao,  Yuezhi Mao,  N. Mardirossian,  
 A. V. Marenich,  T. Markovich,  L. A. Martinez-Martinez,  S. A. Maurer,  
 N. J. Mayhall,  S. C. McKenzie,  J.-M. Mewes,  P. Morgante,  A. F. Morrison,  
 J. W. Mullinax,  K. Nanda,  T. S. Nguyen-Beck,  R. Olivares-Amaya,  
 J. A. Parkhill,  S. K. Paul,  Zheng Pei,  T. M. Perrine,  F. Plasser,  
 P. Pokhilko,  S. Prager,  A. Prociuk,  E. Ramos,  B. Rana,  D. R. Rehn,  
 F. Rob,  M. Scheurer,  M. Schneider,  N. Sergueev,  S. M. Sharada,  
 S. Sharma,  D. W. Small,  T. Stauch,  C. J. Stein,  T. Stein,  Yu-Chuan Su,  
 S. P. Veccham,  A. J. W. Thom,  A. Tkatchenko,  T. Tsuchimochi,  
 N. M. Tubman,  L. Vogt,  M. L. Vidal,  O. Vydrov,  M. A. Watson,  J. Wenzel,  
 M. de Wergifosse,  T. A. Wesolowski,  A. White,  J. Witte,  A. Yamada,  
 Jun Yang,  K. Yao,  S. Yeganeh,  S. R. Yost,  Zhi-Qiang You,  A. Zech,  
 Igor Ying Zhang,  Xing Zhang,  Yan Zhao,  Ying Zhu,  B. R. Brooks,  
 G. K. L. Chan,  C. J. Cramer,  M. S. Gordon,  W. J. Hehre,  A. Klamt,  
 M. W. Schmidt,  C. D. Sherrill,  D. G. Truhlar,  A. Aspuru-Guzik,  R. Baer,  
 A. T. Bell,  N. A. Besley,  Jeng-Da Chai,  A. E. DePrince, III,  
 R. A. DiStasio Jr.,  A. Dreuw,  B. D. Dunietz,  T. R. Furlani,  
 Chao-Ping Hsu,  Yousung Jung,  Jing Kong,  D. S. Lambrecht,  WanZhen Liang,  
 C. Ochsenfeld,  V. A. Rassolov,  L. V. Slipchenko,  J. E. Subotnik,  
 T. Van Voorhis,  J. M. Herbert,  A. I. Krylov,  P. M. W. Gill,  M. Head-Gordon

 Contributors to earlier versions of Q-Chem not listed above: 
 R. D. Adamson,  B. Austin,  J. Baker,  G. J. O. Beran,  K. Brandhorst,  
 S. T. Brown,  E. F. C. Byrd,  A. K. Chakraborty,  C.-L. Cheng,  
 Siu Hung Chien,  D. M. Chipman,  D. L. Crittenden,  H. Dachsel,  
 R. J. Doerksen,  A. D. Dutoi,  L. Fusti-Molnar,  W. A. Goddard III,  
 A. Golubeva-Zadorozhnaya,  S. R. Gwaltney,  G. Hawkins,  A. Heyden,  
 S. Hirata,  G. Kedziora,  F. J. Keil,  C. Kelley,  Jihan Kim,  R. A. King,  
 R. Z. Khaliullin,  P. P. Korambath,  W. Kurlancheek,  A. M. Lee,  M. S. Lee,  
 S. V. Levchenko,  Ching Yeh Lin,  D. Liotard,  R. C. Lochan,  I. Lotan,  
 P. E. Maslen,  N. Nair,  D. P. O'Neill,  D. Neuhauser,  E. Neuscamman,  
 C. M. Oana,  R. Olson,  B. Peters,  R. Peverati,  P. A. Pieniazek,  
 Y. M. Rhee,  J. Ritchie,  M. A. Rohrdanz,  E. Rosta,  N. J. Russ,  
 H. F. Schaefer III,  N. E. Schultz,  N. Shenvi,  A. C. Simmonett,  A. Sodt,  
 D. Stuck,  K. S. Thanthiriwatte,  V. Vanovschi,  Tao Wang,  A. Warshel,  
 C. F. Williams,  Q. Wu,  X. Xu,  W. Zhang

 Please cite Q-Chem as follows:
 Y. Shao et al., Mol. Phys. 113, 184-215 (2015)
 DOI: 10.1080/00268976.2014.952696

 Q-Chem 5.2.2 for Intel X86 EM64T Linux

 Parts of Q-Chem use Armadillo 9.800.1 (Horizon Scraper).
 http://arma.sourceforge.net/

 Q-Chem begins on Sun Apr 12 04:49:52 2020  

Host: cn0821
0

     Scratch files written to /tmp/ypli/6721342.srvc1/qchem162977//
Warning:  Did not find "$end" marker in "$molecule" section

Checking the input file for inconsistencies... 	...done.

--------------------------------------------------------------
User input:
--------------------------------------------------------------
$rem
   JOBTYPE  sp
   EXCHANGE   omegaB97X-D
   BASIS   6-311+G(2df,2pd)
   max_scf_cycles   250
   geom_opt_max_cycles   1500
   basis2 6-31G*
   scf_algorithm rca_diis
   SYM_IGNORE  TRUE
   print_input   true
   geom_opt_dmax   80
   pop_mulliken false
   XC_GRID 000075000302
$end

$molecule
0 1
C       1.2456967267     -0.1339715597     0.3238430820
C       -0.0680664670     -0.4550903523     -0.3787455589
H       1.7467551639     0.7104289930     -0.1538486529
H       1.9272668327     -0.9861051966     0.2840044787
H       1.0890289997     0.1200598615     1.3727130467
C       -1.1990224285     0.4739123356     0.0462529639
H       -0.3490878779     -1.4901918977     -0.1705232107
H       0.0713605517     -0.3882771536     -1.4603466381
H       -1.3780478431     0.4034621492     1.1210413940
H       -2.1315519056     0.2318330081     -0.4645399152
H       -0.9543318132     1.5139404784     -0.1788059705
--------------------------------------------------------------
 ----------------------------------------------------------------
             Standard Nuclear Orientation (Angstroms)
    I     Atom           X                Y                Z
 ----------------------------------------------------------------
    1      C       1.2456967267    -0.1339715597     0.3238430820
    2      C      -0.0680664670    -0.4550903523    -0.3787455589
    3      H       1.7467551639     0.7104289930    -0.1538486529
    4      H       1.9272668327    -0.9861051966     0.2840044787
    5      H       1.0890289997     0.1200598615     1.3727130467
    6      C      -1.1990224285     0.4739123356     0.0462529639
    7      H      -0.3490878779    -1.4901918977    -0.1705232107
    8      H       0.0713605517    -0.3882771536    -1.4603466381
    9      H      -1.3780478431     0.4034621492     1.1210413940
   10      H      -2.1315519056     0.2318330081    -0.4645399152
   11      H      -0.9543318132     1.5139404784    -0.1788059705
 ----------------------------------------------------------------
 Nuclear Repulsion Energy =          82.72682928 hartrees
 There are       13 alpha and       13 beta electrons
 Requested basis set is 6-311+G(2df,2pd)
 There are 72 shells and 214 basis functions

 Total QAlloc Memory Limit   2000 MB
 Mega-Array Size       188 MB
 MEM_STATIC part       192 MB

                       Distance Matrix (Angstroms)
             C (  1)   C (  2)   H (  3)   H (  4)   H (  5)   C (  6)
   C (  2)  1.524048
   H (  3)  1.091907  2.168546
   H (  4)  1.091905  2.168541  1.761399
   H (  5)  1.090507  2.176528  1.763953  1.763953
   C (  6)  2.534409  1.524051  2.962024  3.458592  2.668312
   H (  7)  2.151062  1.092595  3.039008  2.375393  2.653803  2.151066
   H (  8)  2.151062  1.092595  2.391869  2.616209  3.052914  2.151066
   H (  9)  2.794351  2.168530  3.388800  3.681933  2.496022  1.091872
   H ( 10)  3.487287  2.176510  3.920057  4.303220  3.709465  1.090469
   H ( 11)  2.794351  2.168530  2.818178  3.842920  2.919835  1.091872
             H (  7)   H (  8)   H (  9)   H ( 10)
   H (  8)  1.747752
   H (  9)  2.512533  3.064506
   H ( 10)  2.495795  2.495795  1.763886
   H ( 11)  3.064507  2.512533  1.761335  1.763885
 
 A cutoff of  1.0D-09 yielded   2531 shell pairs
 There are     22536 function pairs (     27711 Cartesian)
 Smallest overlap matrix eigenvalue = 8.51E-05

 Scale SEOQF with 1.000000e-01/1.000000e-01/1.000000e-01

 Standard Electronic Orientation quadrupole field applied
 Nucleus-field energy     =     0.0000000011 hartrees
 Requested basis set is 6-31G(d)
 There are 28 shells and 58 basis functions
 A cutoff of  1.0D-09 yielded    402 shell pairs
 There are      1773 function pairs (      1968 Cartesian)
 Smallest overlap matrix eigenvalue = 6.68E-03
 Guess from superposition of atomic densities
 Warning:  Energy on first SCF cycle will be non-variational
 SAD guess density has 26.000000 electrons
 Long-range K will be added via erf
 Coulomb attenuation parameter = 0.2 bohr**(-1)
 A restricted hybrid HF-DFT SCF calculation will be
 performed using Relaxed Constraint Minimization + Pulay DIIS
 Exchange:     0.2220 Hartree-Fock + 1.0000 wB97X-D + LR-HF
 Correlation:  1.0000 wB97X-D
 Using Euler-Maclaurin-Lebedev (75,302) quadrature formula
 Dispersion:   Grimme D
 SCF converges when DIIS error is below 1.0E-04
 using 3 threads for integral computing
 -------------------------------------------------------
 OpenMP Integral computing Module                
 Release: version 1.0, May 2013, Q-Chem Inc. Pittsburgh 
 -------------------------------------------------------
 using 3 threads for integral computing
 -------------------------------------------------------
 OpenMP Integral computing Module                
 Release: version 1.0, May 2013, Q-Chem Inc. Pittsburgh 
 -------------------------------------------------------
 ---------------------------------------
  Cycle       Energy         DIIS Error
 ---------------------------------------
    1    -119.6189962921      1.00E-01
    2    -119.0655224170      9.01E-03
    3    -119.0866208497      2.46E-03
    4    -119.1005187601      1.68E-03
    5    -119.1012143459      2.67E-04 Done RCA. Switching to DIIS
    6    -119.1017240346      1.97E-04
    7    -119.1017408483      4.47E-06 Convergence criterion met
 ---------------------------------------
 SCF time:  CPU 26.52 s  wall 9.14 s
 SCF   energy in the small basis set = -119.10174085
 Total energy in the small basis set = -119.10174085
 ----------------------------------------------------
  Cycle       Energy    
 ----------------------------------------------------
    1     -16.5401999805     -1.65E+01
 Long-range K will be added via erf
 Coulomb attenuation parameter = 0.2 bohr**(-1)
 A restricted hybrid HF-DFT SCF calculation will be
 performed using Relaxed Constraint Minimization + Pulay DIIS
 Exchange:     0.2220 Hartree-Fock + 1.0000 wB97X-D + LR-HF
 Correlation:  1.0000 wB97X-D
 Using Euler-Maclaurin-Lebedev (75,302) quadrature formula
 Dispersion:   Grimme D
 SCF converges when DIIS error is below 1.0E-05
 Basis2 calculation detected. Using small basis as guess for larger.
 SCFMinFind is unable to tell whether the solution found is close.
 Resetting ReadMinima to 0 and attempting to follow guess.
 SCFMinFind following SCF Guess.
 using 3 threads for integral computing
 -------------------------------------------------------
 OpenMP Integral computing Module                
 Release: version 1.0, May 2013, Q-Chem Inc. Pittsburgh 
 -------------------------------------------------------
 using 3 threads for integral computing
 -------------------------------------------------------
 OpenMP Integral computing Module                
 Release: version 1.0, May 2013, Q-Chem Inc. Pittsburgh 
 -------------------------------------------------------
 ---------------------------------------
  Cycle       Energy         DIIS Error
 ---------------------------------------
    1    -119.1208527948      4.21E-03
    2    -119.1428870226      5.97E-04 Done RCA. Switching to DIIS
    3    -119.1437191370      4.19E-04
    4    -119.1446796406      4.55E-05
    5    -119.1446943371      1.01E-05
    6    -119.1446950218      3.86E-06 Convergence criterion met
 ---------------------------------------
 SCF time:  CPU 80.94 s  wall 27.37 s
 SCF   energy in the final basis set = -119.14469502
 Total energy in the final basis set = -119.14469502
 
 --------------------------------------------------------------
 
                    Orbital Energies (a.u.)
 --------------------------------------------------------------
 
 Alpha MOs
 -- Occupied --
-10.2737 -10.2650 -10.2647  -0.8811  -0.7771  -0.6776  -0.5455  -0.5241
 -0.4824  -0.4648  -0.4187  -0.4171  -0.4060
 -- Virtual --
  0.0693   0.0863   0.0911   0.0991   0.1245   0.1306   0.1330   0.1405
  0.1448   0.1696   0.1730   0.1910   0.2275   0.2390   0.2484   0.2595
  0.2853   0.2932   0.3108   0.3181   0.3353   0.3475   0.4580   0.4680
  0.4731   0.5066   0.5115   0.5167   0.5398   0.5611   0.5844   0.5910
  0.6160   0.6263   0.6361   0.6422   0.6531   0.6585   0.7081   0.7184
  0.7292   0.7655   0.8120   0.8608   0.8767   0.8921   0.9007   0.9604
  1.0006   1.0316   1.0827   1.1255   1.1402   1.1815   1.1910   1.2132
  1.2384   1.2483   1.2574   1.2695   1.2793   1.3079   1.3428   1.3508
  1.3734   1.3906   1.4194   1.4506   1.4586   1.4611   1.4689   1.5035
  1.5271   1.5626   1.5949   1.6053   1.6360   1.6429   1.6719   1.6980
  1.7409   2.3672   2.4297   2.4768   2.4929   2.5417   2.5829   2.6116
  2.6437   2.6929   2.8087   2.8296   2.8392   2.9016   2.9266   2.9328
  2.9388   2.9472   3.0044   3.0267   3.0527   3.0667   3.0812   3.1035
  3.1349   3.1386   3.1679   3.1878   3.2003   3.2383   3.2794   3.2960
  3.3086   3.3322   3.3440   3.3525   3.3773   3.3999   3.4038   3.4367
  3.4435   3.4830   3.5041   3.5178   3.5692   3.5816   3.6030   3.6199
  3.6308   3.6639   3.6866   3.7049   3.7737   3.7996   3.8549   3.8787
  3.9059   3.9316   3.9540   3.9736   3.9920   4.0131   4.0512   4.0625
  4.0859   4.0917   4.1145   4.1292   4.1533   4.1710   4.1917   4.2021
  4.2279   4.2543   4.2872   4.3464   4.3615   4.4025   4.4188   4.4340
  4.4609   4.5433   4.5911   4.6099   4.6360   4.8142   4.8373   4.9177
  4.9273   4.9581   4.9662   4.9875   5.0174   5.0463   5.0525   5.1046
  5.1381   5.2246   5.2395   5.2763   5.2932   5.3427   5.3522   5.3648
  5.3738   5.3958   5.4268   5.5051   5.5287   5.5447   5.6362   5.7266
  5.9536   6.3766   6.3818   6.3965   6.4174   6.4778  25.1822  25.4263
 25.4574
 --------------------------------------------------------------
 
 -----------------------------------------------------------------
                    Cartesian Multipole Moments
 -----------------------------------------------------------------
    Charge (ESU x 10^10)
                 0.0000
    Dipole Moment (Debye)
         X      -0.0052      Y      -0.0633      Z      -0.0611
       Tot       0.0881
    Quadrupole Moments (Debye-Ang)
        XX     -22.1653     XY       0.1465     YY     -21.6636
        XZ      -0.1253     YZ      -0.2210     ZZ     -21.5470
    Octopole Moments (Debye-Ang^2)
       XXX      -0.3676    XXY      -0.3430    XYY       0.8269
       YYY       0.9578    XXZ      -1.1648    XYZ      -0.1663
       YYZ      -0.5433    XZZ      -0.2194    YZZ       0.6996
       ZZZ      -0.4681
    Hexadecapole Moments (Debye-Ang^3)
      XXXX    -193.0514   XXXY      17.5914   XXYY     -42.9429
      XYYY      17.1018   YYYY     -65.5849   XXXZ      -8.3667
      XXYZ      -1.7410   XYYZ      -3.2954   YYYZ      -5.3655
      XXZZ     -42.0326   XYZZ       6.1658   YYZZ     -22.2397
      XZZZ      -9.9480   YZZZ      -3.6246   ZZZZ     -55.2467
 -----------------------------------------------------------------
Archival summary:
1\1\cn0821\SP\ProcedureUnspecified\BasisUnspecified\38\r0852400\SunApr1204:50:332020SunApr1204:50:332020\0\\#,ProcedureUnspecified,BasisUnspecified,\\0,1\C\H,1,1.0926\H,1,1.0926,2,106.225\C,1,1.52405,2,109.48,3,-118.121,0\H,4,1.09051,1,111.632,2,-81.9652,0\H,4,1.09191,1,110.905,2,38.3334,0\H,4,1.09191,1,110.906,2,157.736,0\C,1,1.52405,2,109.48,3,118.121,0\H,8,1.09047,1,111.632,2,-58.0359,0\H,8,1.09187,1,110.906,2,62.2627,0\H,8,1.09187,1,110.906,2,-178.334,0\\\@

 Total job time:  40.47s(wall), 112.30s(cpu) 
 Sun Apr 12 04:50:33 2020

        *************************************************************
        *                                                           *
        *  Thank you very much for using Q-Chem.  Have a nice day.  *
        *                                                           *
        *************************************************************


