                  Welcome to Q-Chem
     A Quantum Leap Into The Future Of Chemistry


 Q-Chem 5.3 (devel), Q-Chem, Inc., Pleasanton, CA (2020)

 Yihan Shao,  Zhengting Gan,  E. Epifanovsky,  A. T. B. Gilbert,  M. Wormit,  
 J. Kussmann,  A. W. Lange,  A. Behn,  Jia Deng,  Xintian Feng,  D. Ghosh,  
 M. Goldey,  P. R. Horn,  L. D. Jacobson,  I. Kaliman,  T. Kus,  A. Landau,  
 Jie Liu,  E. I. Proynov,  R. M. Richard,  R. P. Steele,  E. J. Sundstrom,  
 H. L. Woodcock III,  P. M. Zimmerman,  D. Zuev,  B. Alam,  B. Albrecht,  
 E. Alguire,  S. A. Baeppler,  D. Barton,  Z. Benda,  Y. A. Bernard,  
 E. J. Berquist,  K. B. Bravaya,  H. Burton,  K. Carter-Fenk,  D. Casanova,  
 Chun-Min Chang,  Yunqing Chen,  A. Chien,  K. D. Closser,  M. P. Coons,  
 S. Coriani,  S. Dasgupta,  A. L. Dempwolff,  M. Diedenhofen,  Hainam Do,  
 R. G. Edgar,  Po-Tung Fang,  S. Faraji,  S. Fatehi,  Qingguo Feng,  
 J. Fosso-Tande,  J. Gayvert,  Qinghui Ge,  A. Ghysels,  G. Gidofalvi,  
 J. Gomes,  J. Gonthier,  A. Gunina,  D. Hait,  M. W. D. Hanson-Heine,  
 P. H. P. Harbach,  A. W. Hauser,  M. F. Herbst,  J. E. Herr,  
 E. G. Hohenstein,  Z. C. Holden,  Kerwin Hui,  B. C. Huynh,  T.-C. Jagau,  
 Hyunjun Ji,  B. Kaduk,  K. Khistyaev,  Jaehoon Kim,  P. Klunzinger,  K. Koh,  
 D. Kosenkov,  L. Koulias,  T. Kowalczyk,  C. M. Krauter,  A. Kunitsa,  
 Ka Un Lao,  A. Laurent,  K. V. Lawler,  Joonho Lee,  D. Lefrancois,  
 S. Lehtola,  D. S. Levine,  Yi-Pei Li,  You-Sheng Lin,  Fenglai Liu,  
 Kuan-Yu Liu,  E. Livshits,  M. Loipersberger,  A. Luenser,  P. Manohar,  
 E. Mansoor,  S. F. Manzer,  Shan-Ping Mao,  Yuezhi Mao,  N. Mardirossian,  
 A. V. Marenich,  T. Markovich,  L. A. Martinez-Martinez,  S. A. Maurer,  
 N. J. Mayhall,  S. C. McKenzie,  J.-M. Mewes,  P. Morgante,  A. F. Morrison,  
 J. W. Mullinax,  K. Nanda,  T. S. Nguyen-Beck,  R. Olivares-Amaya,  
 K. J. Oosterbaan,  J. A. Parkhill,  S. K. Paul,  F. Pavosevic,  Zheng Pei,  
 T. M. Perrine,  F. Plasser,  P. Pokhilko,  S. Prager,  A. Prociuk,  
 E. Ramos,  B. Rana,  D. R. Rehn,  F. Rob,  M. Scheurer,  M. Schneider,  
 N. Sergueev,  S. M. Sharada,  S. Sharma,  D. W. Small,  T. Stauch,  
 C. J. Stein,  T. Stein,  Yu-Chuan Su,  S. P. Veccham,  Zhen Tao,  
 A. J. W. Thom,  A. Tkatchenko,  T. Tsuchimochi,  N. M. Tubman,  L. Vogt,  
 M. L. Vidal,  O. Vydrov,  M. A. Watson,  J. Wenzel,  M. de Wergifosse,  
 T. A. Wesolowski,  A. White,  J. Witte,  A. Yamada,  Jun Yang,  K. Yao,  
 S. Yeganeh,  S. R. Yost,  Zhi-Qiang You,  A. Zech,  Igor Ying Zhang,  
 Xing Zhang,  Yan Zhao,  Ying Zhu,  B. R. Brooks,  G. K. L. Chan,  
 C. J. Cramer,  M. S. Gordon,  W. J. Hehre,  A. Klamt,  M. W. Schmidt,  
 C. D. Sherrill,  D. G. Truhlar,  A. Aspuru-Guzik,  R. Baer,  A. T. Bell,  
 N. A. Besley,  Jeng-Da Chai,  A. E. DePrince, III,  R. A. DiStasio Jr.,  
 A. Dreuw,  B. D. Dunietz,  T. R. Furlani,  Chao-Ping Hsu,  Yousung Jung,  
 Jing Kong,  D. S. Lambrecht,  WanZhen Liang,  C. Ochsenfeld,  
 V. A. Rassolov,  L. V. Slipchenko,  J. E. Subotnik,  T. Van Voorhis,  
 J. M. Herbert,  A. I. Krylov,  P. M. W. Gill,  M. Head-Gordon

 Contributors to earlier versions of Q-Chem not listed above: 
 R. D. Adamson,  B. Austin,  J. Baker,  G. J. O. Beran,  K. Brandhorst,  
 S. T. Brown,  E. F. C. Byrd,  A. K. Chakraborty,  C.-L. Cheng,  
 Siu Hung Chien,  D. M. Chipman,  D. L. Crittenden,  H. Dachsel,  
 R. J. Doerksen,  A. D. Dutoi,  L. Fusti-Molnar,  W. A. Goddard III,  
 A. Golubeva-Zadorozhnaya,  S. R. Gwaltney,  G. Hawkins,  A. Heyden,  
 S. Hirata,  G. Kedziora,  F. J. Keil,  C. Kelley,  Jihan Kim,  R. A. King,  
 R. Z. Khaliullin,  P. P. Korambath,  W. Kurlancheek,  A. M. Lee,  M. S. Lee,  
 S. V. Levchenko,  Ching Yeh Lin,  D. Liotard,  R. C. Lochan,  I. Lotan,  
 P. E. Maslen,  N. Nair,  D. P. O'Neill,  D. Neuhauser,  E. Neuscamman,  
 C. M. Oana,  R. Olson,  B. Peters,  R. Peverati,  P. A. Pieniazek,  
 Y. M. Rhee,  J. Ritchie,  M. A. Rohrdanz,  E. Rosta,  N. J. Russ,  
 H. F. Schaefer III,  N. E. Schultz,  N. Shenvi,  A. C. Simmonett,  A. Sodt,  
 D. Stuck,  K. S. Thanthiriwatte,  V. Vanovschi,  Tao Wang,  A. Warshel,  
 C. F. Williams,  Q. Wu,  X. Xu,  W. Zhang

 Please cite Q-Chem as follows:
 Y. Shao et al., Mol. Phys. 113, 184-215 (2015)
 DOI: 10.1080/00268976.2014.952696

 Q-Chem 5.3.0 for Intel X86 EM64T Linux

 Parts of Q-Chem use Armadillo 9.800.1 (Horizon Scraper).
 http://arma.sourceforge.net/

 Q-Chem begins on Tue Jul  7 00:55:51 2020  

Host: centos77-c4
0

     Scratch files written to /tmp/26964.centos77-h1/qchem94958//
Processing $rem in /opt/qchem-5.3.0-intel2020u1//config/preferences:
Processing $rem in /home/shihchengli/.qchemrc:

Checking the input file for inconsistencies... 	...done.

--------------------------------------------------------------
User input:
--------------------------------------------------------------
$rem
   JOBTYPE  sp
   EXCHANGE   omegaB97X-D
   BASIS   6-311+G(2df,2pd)
   UNRESTRICTED   False
   max_scf_cycles   250
   geom_opt_max_cycles   1500
   basis2 6-31G*
   scf_algorithm rca_diis
   SYM_IGNORE  TRUE
   print_input   true
   geom_opt_dmax   80
   pop_mulliken false
   XC_GRID 000075000302
$end

$molecule
0 1
C       1.1454155088     -0.5707576568     -0.1157557889
C       0.1184576802     0.5501714773     -0.2234416362
H       0.8027107494     -1.4648755710     -0.6404289588
H       1.3138733757     -0.8459516521     0.9273480141
H       2.1050857290     -0.2792320378     -0.5437374090
C       -1.2313100345     0.1634981920     0.3692907099
H       -0.0101356148     0.8269567750     -1.2725414193
H       0.4970850570     1.4411077983     0.2831454470
H       -2.0167005449     0.2087642426     -0.3878671539
H       -1.5163025638     0.8267331909     1.1866162139
H       -1.2081794028     -0.8564140924     0.7584170002
$end
--------------------------------------------------------------
 ----------------------------------------------------------------
             Standard Nuclear Orientation (Angstroms)
    I     Atom           X                Y                Z
 ----------------------------------------------------------------
    1      C       1.1454155088    -0.5707576568    -0.1157557889
    2      C       0.1184576802     0.5501714773    -0.2234416362
    3      H       0.8027107494    -1.4648755710    -0.6404289588
    4      H       1.3138733757    -0.8459516521     0.9273480141
    5      H       2.1050857290    -0.2792320378    -0.5437374090
    6      C      -1.2313100345     0.1634981920     0.3692907099
    7      H      -0.0101356148     0.8269567750    -1.2725414193
    8      H       0.4970850570     1.4411077983     0.2831454470
    9      H      -2.0167005449     0.2087642426    -0.3878671539
   10      H      -1.5163025638     0.8267331909     1.1866162139
   11      H      -1.2081794028    -0.8564140924     0.7584170002
 ----------------------------------------------------------------
 Nuclear Repulsion Energy =          82.75297255 hartrees
 There are       13 alpha and       13 beta electrons
 Requested basis set is 6-311+G(2df,2pd)
 There are 72 shells and 214 basis functions

 Total QAlloc Memory Limit   2000 MB
 Mega-Array Size       188 MB
 MEM_STATIC part       192 MB

                       Distance Matrix (Angstroms)
             C (  1)   C (  2)   H (  3)   H (  4)   H (  5)   C (  6)
   C (  2)  1.524047
   H (  3)  1.091868  2.168524
   H (  4)  1.091868  2.168524  1.761329
   H (  5)  1.090469  2.176509  1.763882  1.763882
   C (  6)  2.534408  1.524047  2.794347  2.794347  3.487286
   H (  7)  2.151060  1.092592  2.512525  3.064496  2.495791  2.151060
   H (  8)  2.151060  1.092592  3.064496  2.512525  2.495791  2.151059
   H (  9)  3.268130  2.168524  3.288455  3.732953  4.153499  1.091868
   H ( 10)  3.276263  2.176509  3.737297  3.297725  4.163140  1.090469
   H ( 11)  2.526893  2.168524  2.524020  2.527726  3.606449  1.091868
             H (  7)   H (  8)   H (  9)   H ( 10)
   H (  8)  1.747746
   H (  9)  2.278401  2.878897
   H ( 10)  2.883747  2.290730  1.763883
   H ( 11)  2.897212  2.900417  1.761329  1.763882
 
 A cutoff of  1.0D-09 yielded   2529 shell pairs
 There are     22516 function pairs (     27697 Cartesian)
 Smallest overlap matrix eigenvalue = 7.99E-05

 Scale SEOQF with 1.000000e-01/1.000000e-01/1.000000e-01

 Standard Electronic Orientation quadrupole field applied
 Nucleus-field energy     =     0.0000000012 hartrees
 Requested basis set is 6-31G(d)
 There are 28 shells and 58 basis functions
 A cutoff of  1.0D-09 yielded    400 shell pairs
 There are      1771 function pairs (      1966 Cartesian)
 Smallest overlap matrix eigenvalue = 6.37E-03
 Guess from superposition of atomic densities
 Warning:  Energy on first SCF cycle will be non-variational
 SAD guess density has 26.000000 electrons
 Long-range K will be added via erf
 Coulomb attenuation parameter = 0.2 bohr**(-1)
 A restricted hybrid HF-DFT SCF calculation will be
 performed using Relaxed Constraint Minimization + Pulay DIIS
 Exchange:     0.2220 Hartree-Fock + 1.0000 wB97X-D + LR-HF
 Correlation:  1.0000 wB97X-D
 Using Euler-Maclaurin-Lebedev (75,302) quadrature formula
 Dispersion:   Grimme D
 SCF converges when DIIS error is below 1.0E-04
 using 3 threads for integral computing
 -------------------------------------------------------
 OpenMP Integral computing Module                
 Release: version 1.0, May 2013, Q-Chem Inc. Pittsburgh 
 -------------------------------------------------------
 using 3 threads for integral computing
 -------------------------------------------------------
 OpenMP Integral computing Module                
 Release: version 1.0, May 2013, Q-Chem Inc. Pittsburgh 
 -------------------------------------------------------
 ---------------------------------------
  Cycle       Energy         DIIS Error
 ---------------------------------------
    1    -119.6226612334      1.00E-01
    2    -119.0614237990      9.03E-03
    3    -119.0825938278      2.45E-03
    4    -119.0965440970      1.68E-03
    5    -119.0972401603      2.66E-04 Done RCA. Switching to DIIS
    6    -119.0977508340      1.97E-04
    7    -119.0977676058      4.39E-06 Convergence criterion met
 ---------------------------------------
 SCF time:  CPU 20.91 s  wall 7.90 s
 SCF   energy in the small basis set = -119.09776761
 Total energy in the small basis set = -119.09776761
 ----------------------------------------------------
  Cycle       Energy    
 ----------------------------------------------------
    1     -16.5430147592     -1.65E+01
 Long-range K will be added via erf
 Coulomb attenuation parameter = 0.2 bohr**(-1)
 A restricted hybrid HF-DFT SCF calculation will be
 performed using Relaxed Constraint Minimization + Pulay DIIS
 Exchange:     0.2220 Hartree-Fock + 1.0000 wB97X-D + LR-HF
 Correlation:  1.0000 wB97X-D
 Using Euler-Maclaurin-Lebedev (75,302) quadrature formula
 Dispersion:   Grimme D
 SCF converges when DIIS error is below 1.0E-05
 Basis2 calculation detected. Using small basis as guess for larger.
 SCFMinFind is unable to tell whether the solution found is close.
 Resetting ReadMinima to 0 and attempting to follow guess.
 SCFMinFind following SCF Guess.
 using 3 threads for integral computing
 -------------------------------------------------------
 OpenMP Integral computing Module                
 Release: version 1.0, May 2013, Q-Chem Inc. Pittsburgh 
 -------------------------------------------------------
 using 3 threads for integral computing
 -------------------------------------------------------
 OpenMP Integral computing Module                
 Release: version 1.0, May 2013, Q-Chem Inc. Pittsburgh 
 -------------------------------------------------------
 ---------------------------------------
  Cycle       Energy         DIIS Error
 ---------------------------------------
    1    -119.1170080069      4.21E-03
    2    -119.1390359867      6.01E-04 Done RCA. Switching to DIIS
    3    -119.1398713689      4.23E-04
    4    -119.1408494593      4.54E-05
    5    -119.1408641763      1.02E-05
    6    -119.1408648779      3.95E-06 Convergence criterion met
 ---------------------------------------
 SCF time:  CPU 48.77 s  wall 16.28 s
 SCF   energy in the final basis set = -119.14086488
 Total energy in the final basis set = -119.14086488
 
 --------------------------------------------------------------
 
                    Orbital Energies (a.u.)
 --------------------------------------------------------------
 
 Alpha MOs
 -- Occupied --
-10.2726 -10.2653 -10.2635  -0.8811  -0.7767  -0.6776  -0.5447  -0.5256
 -0.4796  -0.4683  -0.4190  -0.4160  -0.4023
 -- Virtual --
  0.0697   0.0869   0.0911   0.1014   0.1220   0.1310   0.1326   0.1380
  0.1452   0.1657   0.1749   0.1902   0.2140   0.2410   0.2510   0.2605
  0.2915   0.3051   0.3140   0.3262   0.3363   0.3496   0.4560   0.4774
  0.4887   0.4965   0.5120   0.5163   0.5284   0.5426   0.5740   0.5862
  0.6215   0.6263   0.6308   0.6382   0.6494   0.6545   0.7034   0.7104
  0.7363   0.7736   0.8081   0.8440   0.9010   0.9234   0.9692   0.9751
  0.9896   1.0414   1.0710   1.1089   1.1345   1.1749   1.2010   1.2064
  1.2213   1.2371   1.2545   1.2761   1.2846   1.2946   1.3290   1.3659
  1.4003   1.4226   1.4413   1.4425   1.4470   1.4639   1.4703   1.5180
  1.5310   1.5475   1.5688   1.6041   1.6305   1.6557   1.6598   1.6766
  1.7440   2.3608   2.3683   2.4661   2.4682   2.5015   2.6388   2.6682
  2.6875   2.6968   2.7983   2.8060   2.8570   2.8752   2.9322   2.9360
  2.9419   2.9687   3.0152   3.0412   3.0566   3.0612   3.0719   3.1117
  3.1295   3.1454   3.1891   3.1943   3.2004   3.2371   3.2662   3.2917
  3.3154   3.3220   3.3288   3.3506   3.3543   3.4124   3.4151   3.4364
  3.4520   3.4855   3.5348   3.5531   3.5587   3.6010   3.6069   3.6169
  3.6434   3.6875   3.6996   3.7085   3.7391   3.7446   3.7642   3.8459
  3.8704   3.9271   3.9484   3.9626   4.0049   4.0188   4.0454   4.0676
  4.1044   4.1095   4.1107   4.1277   4.1601   4.1727   4.1937   4.2027
  4.2549   4.2744   4.3026   4.3140   4.3543   4.4175   4.4205   4.4761
  4.5013   4.5600   4.6152   4.6175   4.6913   4.8089   4.8418   4.8639
  4.9088   4.9314   4.9508   4.9845   5.0007   5.0702   5.0848   5.1469
  5.1485   5.1990   5.2531   5.2741   5.2963   5.2992   5.3497   5.3549
  5.3765   5.3950   5.4320   5.4598   5.5235   5.5537   5.6461   5.7222
  5.9938   6.3332   6.3831   6.4062   6.4311   6.4955  25.1327  25.4198
 25.4876
 --------------------------------------------------------------
 
 -----------------------------------------------------------------
                    Cartesian Multipole Moments
 -----------------------------------------------------------------
    Charge (ESU x 10^10)
                -0.0000
    Dipole Moment (Debye)
         X       0.0119      Y       0.0742      Z      -0.0342
       Tot       0.0826
    Quadrupole Moments (Debye-Ang)
        XX     -22.1964     XY       0.1215     YY     -21.7869
        XZ       0.2435     YZ       0.1677     ZZ     -21.4171
    Octopole Moments (Debye-Ang^2)
       XXX       0.4826    XXY       0.2320    XYY      -0.4764
       YYY      -1.7270    XXZ      -1.3631    XYZ      -0.1649
       YYZ       0.1422    XZZ      -0.3288    YZZ      -0.1690
       ZZZ      -1.4157
    Hexadecapole Moments (Debye-Ang^3)
      XXXX    -185.2887   XXXY      20.0283   XXYY     -45.1573
      XYYY      20.2725   YYYY     -78.1838   XXXZ      15.6461
      XXYZ      -0.0709   XYYZ       4.7012   YYYZ       1.9464
      XXZZ     -39.1178   XYZZ       5.5014   YYZZ     -21.1311
      XZZZ      15.9945   YZZZ       0.0043   ZZZZ     -54.2343
 -----------------------------------------------------------------
Archival summary:
1\1\centos77-c4\SP\ProcedureUnspecified\BasisUnspecified\38\shihchen\TueJul700:56:182020TueJul700:56:182020\0\\#,ProcedureUnspecified,BasisUnspecified,\\0,1\C\H,1,1.09259\H,1,1.09259,2,106.225\C,1,1.52405,2,109.48,3,118.121,0\H,4,1.09047,1,111.633,2,-58.0358,0\H,4,1.09187,1,110.906,2,62.2628,0\H,4,1.09187,1,110.906,2,-178.334,0\C,1,1.52405,2,109.48,3,-118.121,0\H,8,1.09047,1,111.633,2,-1.96428,0\H,8,1.09187,1,110.906,2,118.334,0\H,8,1.09187,1,110.906,2,-122.263,0\\\@

 Total job time:  27.10s(wall), 73.28s(cpu) 
 Tue Jul  7 00:56:18 2020

        *************************************************************
        *                                                           *
        *  Thank you very much for using Q-Chem.  Have a nice day.  *
        *                                                           *
        *************************************************************


