                  Welcome to Q-Chem
     A Quantum Leap Into The Future Of Chemistry


 Q-Chem 5.3 (devel), Q-Chem, Inc., Pleasanton, CA (2020)

 Yihan Shao,  Zhengting Gan,  E. Epifanovsky,  A. T. B. Gilbert,  M. Wormit,  
 J. Kussmann,  A. W. Lange,  A. Behn,  Jia Deng,  Xintian Feng,  D. Ghosh,  
 M. Goldey,  P. R. Horn,  L. D. Jacobson,  I. Kaliman,  T. Kus,  A. Landau,  
 Jie Liu,  E. I. Proynov,  R. M. Richard,  R. P. Steele,  E. J. Sundstrom,  
 H. L. Woodcock III,  P. M. Zimmerman,  D. Zuev,  B. Alam,  B. Albrecht,  
 E. Alguire,  S. A. Baeppler,  D. Barton,  Z. Benda,  Y. A. Bernard,  
 E. J. Berquist,  K. B. Bravaya,  H. Burton,  K. Carter-Fenk,  D. Casanova,  
 Chun-Min Chang,  Yunqing Chen,  A. Chien,  K. D. Closser,  M. P. Coons,  
 S. Coriani,  S. Dasgupta,  A. L. Dempwolff,  M. Diedenhofen,  Hainam Do,  
 R. G. Edgar,  Po-Tung Fang,  S. Faraji,  S. Fatehi,  Qingguo Feng,  
 J. Fosso-Tande,  J. Gayvert,  Qinghui Ge,  A. Ghysels,  G. Gidofalvi,  
 J. Gomes,  J. Gonthier,  A. Gunina,  D. Hait,  M. W. D. Hanson-Heine,  
 P. H. P. Harbach,  A. W. Hauser,  M. F. Herbst,  J. E. Herr,  
 E. G. Hohenstein,  Z. C. Holden,  Kerwin Hui,  B. C. Huynh,  T.-C. Jagau,  
 Hyunjun Ji,  B. Kaduk,  K. Khistyaev,  Jaehoon Kim,  P. Klunzinger,  K. Koh,  
 D. Kosenkov,  L. Koulias,  T. Kowalczyk,  C. M. Krauter,  A. Kunitsa,  
 Ka Un Lao,  A. Laurent,  K. V. Lawler,  Joonho Lee,  D. Lefrancois,  
 S. Lehtola,  D. S. Levine,  Yi-Pei Li,  You-Sheng Lin,  Fenglai Liu,  
 Kuan-Yu Liu,  E. Livshits,  M. Loipersberger,  A. Luenser,  P. Manohar,  
 E. Mansoor,  S. F. Manzer,  Shan-Ping Mao,  Yuezhi Mao,  N. Mardirossian,  
 A. V. Marenich,  T. Markovich,  L. A. Martinez-Martinez,  S. A. Maurer,  
 N. J. Mayhall,  S. C. McKenzie,  J.-M. Mewes,  P. Morgante,  A. F. Morrison,  
 J. W. Mullinax,  K. Nanda,  T. S. Nguyen-Beck,  R. Olivares-Amaya,  
 K. J. Oosterbaan,  J. A. Parkhill,  S. K. Paul,  F. Pavosevic,  Zheng Pei,  
 T. M. Perrine,  F. Plasser,  P. Pokhilko,  S. Prager,  A. Prociuk,  
 E. Ramos,  B. Rana,  D. R. Rehn,  F. Rob,  M. Scheurer,  M. Schneider,  
 N. Sergueev,  S. M. Sharada,  S. Sharma,  D. W. Small,  T. Stauch,  
 C. J. Stein,  T. Stein,  Yu-Chuan Su,  S. P. Veccham,  Zhen Tao,  
 A. J. W. Thom,  A. Tkatchenko,  T. Tsuchimochi,  N. M. Tubman,  L. Vogt,  
 M. L. Vidal,  O. Vydrov,  M. A. Watson,  J. Wenzel,  M. de Wergifosse,  
 T. A. Wesolowski,  A. White,  J. Witte,  A. Yamada,  Jun Yang,  K. Yao,  
 S. Yeganeh,  S. R. Yost,  Zhi-Qiang You,  A. Zech,  Igor Ying Zhang,  
 Xing Zhang,  Yan Zhao,  Ying Zhu,  B. R. Brooks,  G. K. L. Chan,  
 C. J. Cramer,  M. S. Gordon,  W. J. Hehre,  A. Klamt,  M. W. Schmidt,  
 C. D. Sherrill,  D. G. Truhlar,  A. Aspuru-Guzik,  R. Baer,  A. T. Bell,  
 N. A. Besley,  Jeng-Da Chai,  A. E. DePrince, III,  R. A. DiStasio Jr.,  
 A. Dreuw,  B. D. Dunietz,  T. R. Furlani,  Chao-Ping Hsu,  Yousung Jung,  
 Jing Kong,  D. S. Lambrecht,  WanZhen Liang,  C. Ochsenfeld,  
 V. A. Rassolov,  L. V. Slipchenko,  J. E. Subotnik,  T. Van Voorhis,  
 J. M. Herbert,  A. I. Krylov,  P. M. W. Gill,  M. Head-Gordon

 Contributors to earlier versions of Q-Chem not listed above: 
 R. D. Adamson,  B. Austin,  J. Baker,  G. J. O. Beran,  K. Brandhorst,  
 S. T. Brown,  E. F. C. Byrd,  A. K. Chakraborty,  C.-L. Cheng,  
 Siu Hung Chien,  D. M. Chipman,  D. L. Crittenden,  H. Dachsel,  
 R. J. Doerksen,  A. D. Dutoi,  L. Fusti-Molnar,  W. A. Goddard III,  
 A. Golubeva-Zadorozhnaya,  S. R. Gwaltney,  G. Hawkins,  A. Heyden,  
 S. Hirata,  G. Kedziora,  F. J. Keil,  C. Kelley,  Jihan Kim,  R. A. King,  
 R. Z. Khaliullin,  P. P. Korambath,  W. Kurlancheek,  A. M. Lee,  M. S. Lee,  
 S. V. Levchenko,  Ching Yeh Lin,  D. Liotard,  R. C. Lochan,  I. Lotan,  
 P. E. Maslen,  N. Nair,  D. P. O'Neill,  D. Neuhauser,  E. Neuscamman,  
 C. M. Oana,  R. Olson,  B. Peters,  R. Peverati,  P. A. Pieniazek,  
 Y. M. Rhee,  J. Ritchie,  M. A. Rohrdanz,  E. Rosta,  N. J. Russ,  
 H. F. Schaefer III,  N. E. Schultz,  N. Shenvi,  A. C. Simmonett,  A. Sodt,  
 D. Stuck,  K. S. Thanthiriwatte,  V. Vanovschi,  Tao Wang,  A. Warshel,  
 C. F. Williams,  Q. Wu,  X. Xu,  W. Zhang

 Please cite Q-Chem as follows:
 Y. Shao et al., Mol. Phys. 113, 184-215 (2015)
 DOI: 10.1080/00268976.2014.952696

 Q-Chem 5.3.0 for Intel X86 EM64T Linux

 Parts of Q-Chem use Armadillo 9.800.1 (Horizon Scraper).
 http://arma.sourceforge.net/

 Q-Chem begins on Tue Jul  7 00:46:01 2020  

Host: centos77-c4
0

     Scratch files written to /tmp/26964.centos77-h1/qchem92122//
Processing $rem in /opt/qchem-5.3.0-intel2020u1//config/preferences:
Processing $rem in /home/shihchengli/.qchemrc:

Checking the input file for inconsistencies... 	...done.

--------------------------------------------------------------
User input:
--------------------------------------------------------------
$rem
   JOBTYPE  sp
   EXCHANGE   omegaB97X-D
   BASIS   6-311+G(2df,2pd)
   UNRESTRICTED   False
   max_scf_cycles   250
   geom_opt_max_cycles   1500
   basis2 6-31G*
   scf_algorithm rca_diis
   SYM_IGNORE  TRUE
   print_input   true
   geom_opt_dmax   80
   pop_mulliken false
   XC_GRID 000075000302
$end

$molecule
0 1
C       1.2556685163     -0.2177010205     0.2219109051
C       0.0122143474     0.2073030270     -0.5500437806
H       1.1849609388     -1.2629421986     0.5295578616
H       1.3778411293     0.3833386590     1.1252383586
H       2.1591605753     -0.1063280007     -0.3784394383
C       -1.2630478322     0.0595275943     0.2712902209
H       -0.0711635047     -0.3876649310     -1.4626323814
H       0.1202292046     1.2459204221     -0.8715455516
H       -1.0602315714     0.2015317266     1.3347166127
H       -1.7104340946     -0.9269043074     0.1451156577
H       -2.0051977695     0.8039196952     -0.0241234457
$end
--------------------------------------------------------------
 ----------------------------------------------------------------
             Standard Nuclear Orientation (Angstroms)
    I     Atom           X                Y                Z
 ----------------------------------------------------------------
    1      C       1.2556685163    -0.2177010205     0.2219109051
    2      C       0.0122143474     0.2073030270    -0.5500437806
    3      H       1.1849609388    -1.2629421986     0.5295578616
    4      H       1.3778411293     0.3833386590     1.1252383586
    5      H       2.1591605753    -0.1063280007    -0.3784394383
    6      C      -1.2630478322     0.0595275943     0.2712902209
    7      H      -0.0711635047    -0.3876649310    -1.4626323814
    8      H       0.1202292046     1.2459204221    -0.8715455516
    9      H      -1.0602315714     0.2015317266     1.3347166127
   10      H      -1.7104340946    -0.9269043074     0.1451156577
   11      H      -2.0051977695     0.8039196952    -0.0241234457
 ----------------------------------------------------------------
 Nuclear Repulsion Energy =          82.73785259 hartrees
 There are       13 alpha and       13 beta electrons
 Requested basis set is 6-311+G(2df,2pd)
 There are 72 shells and 214 basis functions

 Total QAlloc Memory Limit   2000 MB
 Mega-Array Size       188 MB
 MEM_STATIC part       192 MB

                       Distance Matrix (Angstroms)
             C (  1)   C (  2)   H (  3)   H (  4)   H (  5)   C (  6)
   C (  2)  1.524047
   H (  3)  1.091868  2.168524
   H (  4)  1.091868  2.168524  1.761329
   H (  5)  1.090469  2.176509  1.763882  1.763882
   C (  6)  2.534408  1.524047  2.794347  2.794347  3.487286
   H (  7)  2.151060  1.092592  2.512525  3.064496  2.495791  2.151060
   H (  8)  2.151060  1.092592  3.064496  2.512525  2.495791  2.151059
   H (  9)  2.603360  2.168524  2.798902  2.453800  3.659804  1.091868
   H ( 10)  3.050677  2.176509  2.940073  3.494971  3.990140  1.090469
   H ( 11)  3.426002  2.168524  3.841301  3.597620  4.277379  1.091868
             H (  7)   H (  8)   H (  9)   H ( 10)
   H (  8)  1.747746
   H (  9)  3.024991  2.711425
   H ( 10)  2.358568  3.017631  1.763883
   H ( 11)  2.688805  2.330435  1.761329  1.763882
 
 A cutoff of  1.0D-09 yielded   2529 shell pairs
 There are     22495 function pairs (     27656 Cartesian)
 Smallest overlap matrix eigenvalue = 8.35E-05

 Scale SEOQF with 1.000000e-01/1.000000e-01/1.000000e-01

 Standard Electronic Orientation quadrupole field applied
 Nucleus-field energy     =     0.0000000007 hartrees
 Requested basis set is 6-31G(d)
 There are 28 shells and 58 basis functions
 A cutoff of  1.0D-09 yielded    402 shell pairs
 There are      1773 function pairs (      1968 Cartesian)
 Smallest overlap matrix eigenvalue = 6.57E-03
 Guess from superposition of atomic densities
 Warning:  Energy on first SCF cycle will be non-variational
 SAD guess density has 26.000000 electrons
 Long-range K will be added via erf
 Coulomb attenuation parameter = 0.2 bohr**(-1)
 A restricted hybrid HF-DFT SCF calculation will be
 performed using Relaxed Constraint Minimization + Pulay DIIS
 Exchange:     0.2220 Hartree-Fock + 1.0000 wB97X-D + LR-HF
 Correlation:  1.0000 wB97X-D
 Using Euler-Maclaurin-Lebedev (75,302) quadrature formula
 Dispersion:   Grimme D
 SCF converges when DIIS error is below 1.0E-04
 using 3 threads for integral computing
 -------------------------------------------------------
 OpenMP Integral computing Module                
 Release: version 1.0, May 2013, Q-Chem Inc. Pittsburgh 
 -------------------------------------------------------
 using 3 threads for integral computing
 -------------------------------------------------------
 OpenMP Integral computing Module                
 Release: version 1.0, May 2013, Q-Chem Inc. Pittsburgh 
 -------------------------------------------------------
 ---------------------------------------
  Cycle       Energy         DIIS Error
 ---------------------------------------
    1    -119.6203653578      1.00E-01
    2    -119.0641551186      9.02E-03
    3    -119.0852797286      2.46E-03
    4    -119.0991930849      1.68E-03
    5    -119.0998893377      2.66E-04 Done RCA. Switching to DIIS
    6    -119.1003996470      1.97E-04
    7    -119.1004164705      4.45E-06 Convergence criterion met
 ---------------------------------------
 SCF time:  CPU 21.78 s  wall 8.28 s
 SCF   energy in the small basis set = -119.10041647
 Total energy in the small basis set = -119.10041647
 ----------------------------------------------------
  Cycle       Energy    
 ----------------------------------------------------
    1     -16.5411563404     -1.65E+01
 Long-range K will be added via erf
 Coulomb attenuation parameter = 0.2 bohr**(-1)
 A restricted hybrid HF-DFT SCF calculation will be
 performed using Relaxed Constraint Minimization + Pulay DIIS
 Exchange:     0.2220 Hartree-Fock + 1.0000 wB97X-D + LR-HF
 Correlation:  1.0000 wB97X-D
 Using Euler-Maclaurin-Lebedev (75,302) quadrature formula
 Dispersion:   Grimme D
 SCF converges when DIIS error is below 1.0E-05
 Basis2 calculation detected. Using small basis as guess for larger.
 SCFMinFind is unable to tell whether the solution found is close.
 Resetting ReadMinima to 0 and attempting to follow guess.
 SCFMinFind following SCF Guess.
 using 3 threads for integral computing
 -------------------------------------------------------
 OpenMP Integral computing Module                
 Release: version 1.0, May 2013, Q-Chem Inc. Pittsburgh 
 -------------------------------------------------------
 using 3 threads for integral computing
 -------------------------------------------------------
 OpenMP Integral computing Module                
 Release: version 1.0, May 2013, Q-Chem Inc. Pittsburgh 
 -------------------------------------------------------
 ---------------------------------------
  Cycle       Energy         DIIS Error
 ---------------------------------------
    1    -119.1195776667      4.21E-03
    2    -119.1416085472      5.98E-04 Done RCA. Switching to DIIS
    3    -119.1424416700      4.20E-04
    4    -119.1434070381      4.55E-05
    5    -119.1434217429      1.01E-05
    6    -119.1434224334      3.89E-06 Convergence criterion met
 ---------------------------------------
 SCF time:  CPU 51.33 s  wall 17.37 s
 SCF   energy in the final basis set = -119.14342243
 Total energy in the final basis set = -119.14342243
 
 --------------------------------------------------------------
 
                    Orbital Energies (a.u.)
 --------------------------------------------------------------
 
 Alpha MOs
 -- Occupied --
-10.2733 -10.2651 -10.2643  -0.8811  -0.7769  -0.6776  -0.5453  -0.5246
 -0.4814  -0.4659  -0.4186  -0.4168  -0.4049
 -- Virtual --
  0.0695   0.0865   0.0911   0.0996   0.1239   0.1310   0.1327   0.1395
  0.1453   0.1685   0.1738   0.1908   0.2213   0.2387   0.2514   0.2575
  0.2878   0.2985   0.3109   0.3240   0.3349   0.3472   0.4574   0.4705
  0.4757   0.5028   0.5120   0.5170   0.5347   0.5600   0.5836   0.5918
  0.6102   0.6251   0.6331   0.6409   0.6545   0.6560   0.7071   0.7138
  0.7316   0.7658   0.8084   0.8559   0.8822   0.9065   0.9226   0.9637
  1.0001   1.0224   1.0939   1.1164   1.1449   1.1740   1.1891   1.2211
  1.2357   1.2497   1.2551   1.2724   1.2750   1.3175   1.3354   1.3591
  1.3719   1.3885   1.4292   1.4445   1.4529   1.4645   1.4668   1.5152
  1.5239   1.5515   1.5802   1.6000   1.6339   1.6424   1.6687   1.6949
  1.7416   2.3603   2.4127   2.4724   2.4786   2.5291   2.6066   2.6309
  2.6541   2.6830   2.8032   2.8218   2.8384   2.8963   2.9268   2.9330
  2.9382   2.9578   3.0077   3.0347   3.0479   3.0653   3.0813   3.1054
  3.1315   3.1427   3.1700   3.1876   3.1993   3.2406   3.2765   3.2966
  3.2996   3.3234   3.3443   3.3593   3.3728   3.4082   3.4157   3.4353
  3.4397   3.4780   3.5070   3.5282   3.5691   3.5839   3.6103   3.6193
  3.6376   3.6505   3.6968   3.7032   3.7594   3.7882   3.8341   3.8707
  3.8874   3.9267   3.9506   3.9795   4.0073   4.0162   4.0534   4.0679
  4.0896   4.0903   4.1155   4.1280   4.1500   4.1731   4.2031   4.2113
  4.2297   4.2660   4.3018   4.3163   4.3476   4.4073   4.4184   4.4487
  4.4792   4.5242   4.5908   4.6082   4.6431   4.8163   4.8402   4.9127
  4.9357   4.9401   4.9734   4.9891   5.0098   5.0523   5.0585   5.1155
  5.1387   5.2113   5.2322   5.2786   5.2834   5.3248   5.3493   5.3645
  5.3717   5.3978   5.4166   5.5099   5.5192   5.5378   5.6401   5.7198
  5.9593   6.3621   6.3799   6.4011   6.4228   6.4873  25.1633  25.4187
 25.4633
 --------------------------------------------------------------
 
 -----------------------------------------------------------------
                    Cartesian Multipole Moments
 -----------------------------------------------------------------
    Charge (ESU x 10^10)
                -0.0000
    Dipole Moment (Debye)
         X      -0.0014      Y       0.0280      Z      -0.0821
       Tot       0.0867
    Quadrupole Moments (Debye-Ang)
        XX     -22.2195     XY       0.0828     YY     -21.3763
        XZ       0.0464     YZ       0.1692     ZZ     -21.7889
    Octopole Moments (Debye-Ang^2)
       XXX       0.2905    XXY       0.2878    XYY      -0.6607
       YYY      -0.7813    XXZ      -1.2812    XYZ       0.1240
       YYZ      -0.4302    XZZ       0.3421    YZZ      -0.0294
       ZZZ       0.0956
    Hexadecapole Moments (Debye-Ang^3)
      XXXX    -202.0558   XXXY       8.3552   XXYY     -40.9191
      XYYY       8.5371   YYYY     -47.7692   XXXZ       0.6782
      XXYZ       1.1578   XYYZ       1.4286   YYYZ       2.7349
      XXZZ     -45.4369   XYZZ       3.2630   YYZZ     -19.4970
      XZZZ       1.7815   YZZZ       5.6618   ZZZZ     -66.6859
 -----------------------------------------------------------------
Archival summary:
1\1\centos77-c4\SP\ProcedureUnspecified\BasisUnspecified\38\shihchen\TueJul700:46:292020TueJul700:46:292020\0\\#,ProcedureUnspecified,BasisUnspecified,\\0,1\C\H,1,1.09259\H,1,1.09259,2,106.225\C,1,1.52405,2,109.48,3,-118.121,0\H,4,1.09047,1,111.633,2,148.036,0\H,4,1.09187,1,110.906,2,-91.6657,0\H,4,1.09187,1,110.906,2,27.7372,0\C,1,1.52405,2,109.48,3,118.121,0\H,8,1.09047,1,111.633,2,-58.0358,0\H,8,1.09187,1,110.906,2,-178.334,0\H,8,1.09187,1,110.906,2,62.2628,0\\\@

 Total job time:  28.63s(wall), 76.75s(cpu) 
 Tue Jul  7 00:46:29 2020

        *************************************************************
        *                                                           *
        *  Thank you very much for using Q-Chem.  Have a nice day.  *
        *                                                           *
        *************************************************************


