                  Welcome to Q-Chem
     A Quantum Leap Into The Future Of Chemistry


 Q-Chem 5.3 (devel), Q-Chem, Inc., Pleasanton, CA (2020)

 Yihan Shao,  Zhengting Gan,  E. Epifanovsky,  A. T. B. Gilbert,  M. Wormit,  
 J. Kussmann,  A. W. Lange,  A. Behn,  Jia Deng,  Xintian Feng,  D. Ghosh,  
 M. Goldey,  P. R. Horn,  L. D. Jacobson,  I. Kaliman,  T. Kus,  A. Landau,  
 Jie Liu,  E. I. Proynov,  R. M. Richard,  R. P. Steele,  E. J. Sundstrom,  
 H. L. Woodcock III,  P. M. Zimmerman,  D. Zuev,  B. Alam,  B. Albrecht,  
 E. Alguire,  S. A. Baeppler,  D. Barton,  Z. Benda,  Y. A. Bernard,  
 E. J. Berquist,  K. B. Bravaya,  H. Burton,  K. Carter-Fenk,  D. Casanova,  
 Chun-Min Chang,  Yunqing Chen,  A. Chien,  K. D. Closser,  M. P. Coons,  
 S. Coriani,  S. Dasgupta,  A. L. Dempwolff,  M. Diedenhofen,  Hainam Do,  
 R. G. Edgar,  Po-Tung Fang,  S. Faraji,  S. Fatehi,  Qingguo Feng,  
 J. Fosso-Tande,  J. Gayvert,  Qinghui Ge,  A. Ghysels,  G. Gidofalvi,  
 J. Gomes,  J. Gonthier,  A. Gunina,  D. Hait,  M. W. D. Hanson-Heine,  
 P. H. P. Harbach,  A. W. Hauser,  M. F. Herbst,  J. E. Herr,  
 E. G. Hohenstein,  Z. C. Holden,  Kerwin Hui,  B. C. Huynh,  T.-C. Jagau,  
 Hyunjun Ji,  B. Kaduk,  K. Khistyaev,  Jaehoon Kim,  P. Klunzinger,  K. Koh,  
 D. Kosenkov,  L. Koulias,  T. Kowalczyk,  C. M. Krauter,  A. Kunitsa,  
 Ka Un Lao,  A. Laurent,  K. V. Lawler,  Joonho Lee,  D. Lefrancois,  
 S. Lehtola,  D. S. Levine,  Yi-Pei Li,  You-Sheng Lin,  Fenglai Liu,  
 Kuan-Yu Liu,  E. Livshits,  M. Loipersberger,  A. Luenser,  P. Manohar,  
 E. Mansoor,  S. F. Manzer,  Shan-Ping Mao,  Yuezhi Mao,  N. Mardirossian,  
 A. V. Marenich,  T. Markovich,  L. A. Martinez-Martinez,  S. A. Maurer,  
 N. J. Mayhall,  S. C. McKenzie,  J.-M. Mewes,  P. Morgante,  A. F. Morrison,  
 J. W. Mullinax,  K. Nanda,  T. S. Nguyen-Beck,  R. Olivares-Amaya,  
 K. J. Oosterbaan,  J. A. Parkhill,  S. K. Paul,  F. Pavosevic,  Zheng Pei,  
 T. M. Perrine,  F. Plasser,  P. Pokhilko,  S. Prager,  A. Prociuk,  
 E. Ramos,  B. Rana,  D. R. Rehn,  F. Rob,  M. Scheurer,  M. Schneider,  
 N. Sergueev,  S. M. Sharada,  S. Sharma,  D. W. Small,  T. Stauch,  
 C. J. Stein,  T. Stein,  Yu-Chuan Su,  S. P. Veccham,  Zhen Tao,  
 A. J. W. Thom,  A. Tkatchenko,  T. Tsuchimochi,  N. M. Tubman,  L. Vogt,  
 M. L. Vidal,  O. Vydrov,  M. A. Watson,  J. Wenzel,  M. de Wergifosse,  
 T. A. Wesolowski,  A. White,  J. Witte,  A. Yamada,  Jun Yang,  K. Yao,  
 S. Yeganeh,  S. R. Yost,  Zhi-Qiang You,  A. Zech,  Igor Ying Zhang,  
 Xing Zhang,  Yan Zhao,  Ying Zhu,  B. R. Brooks,  G. K. L. Chan,  
 C. J. Cramer,  M. S. Gordon,  W. J. Hehre,  A. Klamt,  M. W. Schmidt,  
 C. D. Sherrill,  D. G. Truhlar,  A. Aspuru-Guzik,  R. Baer,  A. T. Bell,  
 N. A. Besley,  Jeng-Da Chai,  A. E. DePrince, III,  R. A. DiStasio Jr.,  
 A. Dreuw,  B. D. Dunietz,  T. R. Furlani,  Chao-Ping Hsu,  Yousung Jung,  
 Jing Kong,  D. S. Lambrecht,  WanZhen Liang,  C. Ochsenfeld,  
 V. A. Rassolov,  L. V. Slipchenko,  J. E. Subotnik,  T. Van Voorhis,  
 J. M. Herbert,  A. I. Krylov,  P. M. W. Gill,  M. Head-Gordon

 Contributors to earlier versions of Q-Chem not listed above: 
 R. D. Adamson,  B. Austin,  J. Baker,  G. J. O. Beran,  K. Brandhorst,  
 S. T. Brown,  E. F. C. Byrd,  A. K. Chakraborty,  C.-L. Cheng,  
 Siu Hung Chien,  D. M. Chipman,  D. L. Crittenden,  H. Dachsel,  
 R. J. Doerksen,  A. D. Dutoi,  L. Fusti-Molnar,  W. A. Goddard III,  
 A. Golubeva-Zadorozhnaya,  S. R. Gwaltney,  G. Hawkins,  A. Heyden,  
 S. Hirata,  G. Kedziora,  F. J. Keil,  C. Kelley,  Jihan Kim,  R. A. King,  
 R. Z. Khaliullin,  P. P. Korambath,  W. Kurlancheek,  A. M. Lee,  M. S. Lee,  
 S. V. Levchenko,  Ching Yeh Lin,  D. Liotard,  R. C. Lochan,  I. Lotan,  
 P. E. Maslen,  N. Nair,  D. P. O'Neill,  D. Neuhauser,  E. Neuscamman,  
 C. M. Oana,  R. Olson,  B. Peters,  R. Peverati,  P. A. Pieniazek,  
 Y. M. Rhee,  J. Ritchie,  M. A. Rohrdanz,  E. Rosta,  N. J. Russ,  
 H. F. Schaefer III,  N. E. Schultz,  N. Shenvi,  A. C. Simmonett,  A. Sodt,  
 D. Stuck,  K. S. Thanthiriwatte,  V. Vanovschi,  Tao Wang,  A. Warshel,  
 C. F. Williams,  Q. Wu,  X. Xu,  W. Zhang

 Please cite Q-Chem as follows:
 Y. Shao et al., Mol. Phys. 113, 184-215 (2015)
 DOI: 10.1080/00268976.2014.952696

 Q-Chem 5.3.0 for Intel X86 EM64T Linux

 Parts of Q-Chem use Armadillo 9.800.1 (Horizon Scraper).
 http://arma.sourceforge.net/

 Q-Chem begins on Tue Jul  7 01:39:28 2020  

Host: centos77-c4
0

     Scratch files written to /tmp/26964.centos77-h1/qchem102595//
Processing $rem in /opt/qchem-5.3.0-intel2020u1//config/preferences:
Processing $rem in /home/shihchengli/.qchemrc:

Checking the input file for inconsistencies... 	...done.

--------------------------------------------------------------
User input:
--------------------------------------------------------------
$rem
   JOBTYPE  sp
   EXCHANGE   omegaB97X-D
   BASIS   6-311+G(2df,2pd)
   UNRESTRICTED   False
   max_scf_cycles   250
   geom_opt_max_cycles   1500
   basis2 6-31G*
   scf_algorithm rca_diis
   SYM_IGNORE  TRUE
   print_input   true
   geom_opt_dmax   80
   pop_mulliken false
   XC_GRID 000075000302
$end

$molecule
0 1
C       1.2593040118     0.0529821699     0.2674156281
C       -0.0000001291     -0.0400661059     -0.6117931946
H       1.1413522359     -0.8044955648     0.9377324657
H       1.4985319014     0.9061419380     0.9003144263
H       2.1057067953     -0.2107702685     -0.3681979536
C       -1.2593042970     0.0529822075     0.2674155570
H       -0.0000006207     -0.7823626968     -1.4132733862
H       0.0000007189     0.9347131489     -1.1084174136
H       -1.1413524447     -0.8044955555     0.9377323242
H       -2.1057069442     -0.2107705502     -0.3681980531
H       -1.4985312881     0.9061419434     0.9003146186
$end
--------------------------------------------------------------
 ----------------------------------------------------------------
             Standard Nuclear Orientation (Angstroms)
    I     Atom           X                Y                Z
 ----------------------------------------------------------------
    1      C       1.2593040118     0.0529821699     0.2674156281
    2      C      -0.0000001291    -0.0400661059    -0.6117931946
    3      H       1.1413522359    -0.8044955648     0.9377324657
    4      H       1.4985319014     0.9061419380     0.9003144263
    5      H       2.1057067953    -0.2107702685    -0.3681979536
    6      C      -1.2593042970     0.0529822075     0.2674155570
    7      H      -0.0000006207    -0.7823626968    -1.4132733862
    8      H       0.0000007189     0.9347131489    -1.1084174136
    9      H      -1.1413524447    -0.8044955555     0.9377323242
   10      H      -2.1057069442    -0.2107705502    -0.3681980531
   11      H      -1.4985312881     0.9061419434     0.9003146186
 ----------------------------------------------------------------
 Nuclear Repulsion Energy =          82.57841355 hartrees
 There are       13 alpha and       13 beta electrons
 Requested basis set is 6-311+G(2df,2pd)
 There are 72 shells and 214 basis functions

 Total QAlloc Memory Limit   2000 MB
 Mega-Array Size       188 MB
 MEM_STATIC part       192 MB

                       Distance Matrix (Angstroms)
             C (  1)   C (  2)   H (  3)   H (  4)   H (  5)   C (  6)
   C (  2)  1.538672
   H (  3)  1.094763  2.070765
   H (  4)  1.088886  2.329673  1.747930
   H (  5)  1.090856  2.126612  1.728567  1.795906
   C (  6)  2.518608  1.538672  2.635857  2.955352  3.434657
   H (  7)  2.260169  1.092417  2.613504  3.232543  2.419278  2.260169
   H (  8)  2.063059  1.093997  2.917920  2.506275  2.508796  2.063060
   H (  9)  2.635857  2.070765  2.282705  3.145897  3.549839  1.094763
   H ( 10)  3.434657  2.126612  3.549839  3.980849  4.211414  1.090856
   H ( 11)  2.955351  2.329673  3.145897  2.997063  3.980848  1.088886
             H (  7)   H (  8)   H (  9)   H ( 10)
   H (  8)  1.743929
   H (  9)  2.613504  2.917921
   H ( 10)  2.419277  2.508797  1.728567
   H ( 11)  3.232543  2.506276  1.747929  1.795907
 
 A cutoff of  1.0D-09 yielded   2529 shell pairs
 There are     22501 function pairs (     27674 Cartesian)
 Smallest overlap matrix eigenvalue = 9.42E-05

 Scale SEOQF with 1.000000e-01/1.000000e-01/1.000000e-01

 Standard Electronic Orientation quadrupole field applied
 Nucleus-field energy     =     0.0000000005 hartrees
 Requested basis set is 6-31G(d)
 There are 28 shells and 58 basis functions
 A cutoff of  1.0D-09 yielded    402 shell pairs
 There are      1773 function pairs (      1968 Cartesian)
 Smallest overlap matrix eigenvalue = 6.57E-03
 Guess from superposition of atomic densities
 Warning:  Energy on first SCF cycle will be non-variational
 SAD guess density has 26.000000 electrons
 Long-range K will be added via erf
 Coulomb attenuation parameter = 0.2 bohr**(-1)
 A restricted hybrid HF-DFT SCF calculation will be
 performed using Relaxed Constraint Minimization + Pulay DIIS
 Exchange:     0.2220 Hartree-Fock + 1.0000 wB97X-D + LR-HF
 Correlation:  1.0000 wB97X-D
 Using Euler-Maclaurin-Lebedev (75,302) quadrature formula
 Dispersion:   Grimme D
 SCF converges when DIIS error is below 1.0E-04
 using 3 threads for integral computing
 -------------------------------------------------------
 OpenMP Integral computing Module                
 Release: version 1.0, May 2013, Q-Chem Inc. Pittsburgh 
 -------------------------------------------------------
 using 3 threads for integral computing
 -------------------------------------------------------
 OpenMP Integral computing Module                
 Release: version 1.0, May 2013, Q-Chem Inc. Pittsburgh 
 -------------------------------------------------------
 ---------------------------------------
  Cycle       Energy         DIIS Error
 ---------------------------------------
    1    -119.5994914357      9.96E-02
    2    -119.0428820102      8.95E-03
    3    -119.0637564922      2.49E-03
    4    -119.0774003998      1.71E-03
    5    -119.0781193752      2.75E-04 Done RCA. Switching to DIIS
    6    -119.0786427073      2.02E-04
    7    -119.0786603561      5.76E-06 Convergence criterion met
 ---------------------------------------
 SCF time:  CPU 19.37 s  wall 7.12 s
 SCF   energy in the small basis set = -119.07866036
 Total energy in the small basis set = -119.07866036
 ----------------------------------------------------
  Cycle       Energy    
 ----------------------------------------------------
    1     -16.5285219635     -1.65E+01
 Long-range K will be added via erf
 Coulomb attenuation parameter = 0.2 bohr**(-1)
 A restricted hybrid HF-DFT SCF calculation will be
 performed using Relaxed Constraint Minimization + Pulay DIIS
 Exchange:     0.2220 Hartree-Fock + 1.0000 wB97X-D + LR-HF
 Correlation:  1.0000 wB97X-D
 Using Euler-Maclaurin-Lebedev (75,302) quadrature formula
 Dispersion:   Grimme D
 SCF converges when DIIS error is below 1.0E-05
 Basis2 calculation detected. Using small basis as guess for larger.
 SCFMinFind is unable to tell whether the solution found is close.
 Resetting ReadMinima to 0 and attempting to follow guess.
 SCFMinFind following SCF Guess.
 using 3 threads for integral computing
 -------------------------------------------------------
 OpenMP Integral computing Module                
 Release: version 1.0, May 2013, Q-Chem Inc. Pittsburgh 
 -------------------------------------------------------
 using 3 threads for integral computing
 -------------------------------------------------------
 OpenMP Integral computing Module                
 Release: version 1.0, May 2013, Q-Chem Inc. Pittsburgh 
 -------------------------------------------------------
 ---------------------------------------
  Cycle       Energy         DIIS Error
 ---------------------------------------
    1    -119.0983230719      4.21E-03
    2    -119.1204146654      6.10E-04 Done RCA. Switching to DIIS
    3    -119.1212742411      4.30E-04
    4    -119.1222907707      4.55E-05
    5    -119.1223057389      9.49E-06 Convergence criterion met
 ---------------------------------------
 SCF time:  CPU 44.57 s  wall 15.07 s
 SCF   energy in the final basis set = -119.12230574
 Total energy in the final basis set = -119.12230574
 
 --------------------------------------------------------------
 
                    Orbital Energies (a.u.)
 --------------------------------------------------------------
 
 Alpha MOs
 -- Occupied --
-10.2787 -10.2655 -10.2655  -0.8809  -0.7759  -0.6807  -0.5434  -0.5233
 -0.4960  -0.4512  -0.4441  -0.4043  -0.3836
 -- Virtual --
  0.0689   0.0862   0.0889   0.0989   0.1244   0.1281   0.1342   0.1379
  0.1436   0.1704   0.1715   0.1921   0.2225   0.2256   0.2392   0.2719
  0.2872   0.2954   0.3049   0.3131   0.3323   0.3483   0.4517   0.4684
  0.4742   0.5048   0.5146   0.5169   0.5423   0.5660   0.5874   0.5897
  0.6189   0.6201   0.6329   0.6491   0.6592   0.6707   0.7002   0.7161
  0.7265   0.7525   0.8353   0.8396   0.8784   0.8845   0.9257   0.9508
  0.9934   1.0190   1.0730   1.1326   1.1429   1.1637   1.1732   1.2113
  1.2249   1.2398   1.2782   1.2784   1.3062   1.3257   1.3514   1.3726
  1.3734   1.3938   1.4184   1.4334   1.4545   1.4609   1.4846   1.4951
  1.5208   1.5651   1.5785   1.6024   1.6232   1.6680   1.6827   1.7189
  1.7222   2.3685   2.4548   2.4697   2.4935   2.4962   2.5676   2.5754
  2.6287   2.7107   2.7889   2.8271   2.8389   2.8795   2.9157   2.9209
  2.9522   2.9761   3.0216   3.0307   3.0638   3.0831   3.0920   3.1058
  3.1229   3.1540   3.1800   3.1821   3.2051   3.2471   3.2831   3.3135
  3.3330   3.3434   3.3621   3.3812   3.3832   3.3997   3.4255   3.4376
  3.4544   3.4727   3.4930   3.5125   3.5454   3.5705   3.5834   3.6048
  3.6355   3.6556   3.6916   3.7159   3.7277   3.7591   3.7762   3.7895
  3.8518   3.9256   3.9475   3.9626   3.9821   4.0188   4.0381   4.0465
  4.0573   4.1097   4.1383   4.1429   4.1554   4.2077   4.2087   4.2232
  4.2234   4.2829   4.3186   4.3479   4.3758   4.3912   4.4536   4.4640
  4.4888   4.4933   4.5466   4.6189   4.6976   4.7924   4.8132   4.8731
  4.8837   4.8908   4.9220   4.9915   5.0386   5.0607   5.0756   5.1447
  5.1756   5.1801   5.2133   5.2375   5.2999   5.3062   5.3375   5.3786
  5.4326   5.4328   5.4777   5.5219   5.5438   5.5746   5.6099   5.7271
  5.9741   6.3681   6.3957   6.4058   6.4385   6.4709  25.1483  25.4116
 25.4384
 --------------------------------------------------------------
 
 -----------------------------------------------------------------
                    Cartesian Multipole Moments
 -----------------------------------------------------------------
    Charge (ESU x 10^10)
                -0.0000
    Dipole Moment (Debye)
         X       0.0000      Y       0.0073      Z      -0.1143
       Tot       0.1145
    Quadrupole Moments (Debye-Ang)
        XX     -22.4800     XY       0.0000     YY     -21.4758
        XZ       0.0000     YZ       0.9617     ZZ     -21.5731
    Octopole Moments (Debye-Ang^2)
       XXX       0.0000    XXY       0.4640    XYY       0.0000
       YYY      -0.2513    XXZ      -0.8407    XYZ      -0.0000
       YYZ       0.4553    XZZ       0.0000    YZZ      -0.5998
       ZZZ      -0.6428
    Hexadecapole Moments (Debye-Ang^3)
      XXXX    -204.3267   XXXY       0.0000   XXYY     -41.2939
      XYYY      -0.0000   YYYY     -44.2718   XXXZ       0.0000
      XXYZ       2.6741   XYYZ      -0.0000   YYYZ      -0.4545
      XXZZ     -44.7259   XYZZ       0.0000   YYZZ     -17.5285
      XZZZ      -0.0000   YZZZ       1.4204   ZZZZ     -73.3495
 -----------------------------------------------------------------
Archival summary:
1\1\centos77-c4\SP\ProcedureUnspecified\BasisUnspecified\38\shihchen\TueJul701:39:532020TueJul701:39:532020\0\\#,ProcedureUnspecified,BasisUnspecified,\\0,1\C\H,1,1.09242\H,1,1.094,2,105.807\C,1,1.53867,2,117.408,3,112.792,0\H,4,1.08889,1,124.008,2,-162.378,0\H,4,1.09086,1,106.706,2,-31.6124,0\H,4,1.09476,1,102.376,2,77.9076,0\C,1,1.53867,2,117.408,3,-112.792,0\H,8,1.08889,1,124.008,2,162.378,0\H,8,1.09086,1,106.706,2,31.6125,0\H,8,1.09476,1,102.376,2,-77.9076,0\\\@

 Total job time:  25.13s(wall), 67.56s(cpu) 
 Tue Jul  7 01:39:53 2020

        *************************************************************
        *                                                           *
        *  Thank you very much for using Q-Chem.  Have a nice day.  *
        *                                                           *
        *************************************************************


