                  Welcome to Q-Chem
     A Quantum Leap Into The Future Of Chemistry


 Q-Chem 5.3 (devel), Q-Chem, Inc., Pleasanton, CA (2020)

 Yihan Shao,  Zhengting Gan,  E. Epifanovsky,  A. T. B. Gilbert,  M. Wormit,  
 J. Kussmann,  A. W. Lange,  A. Behn,  Jia Deng,  Xintian Feng,  D. Ghosh,  
 M. Goldey,  P. R. Horn,  L. D. Jacobson,  I. Kaliman,  T. Kus,  A. Landau,  
 Jie Liu,  E. I. Proynov,  R. M. Richard,  R. P. Steele,  E. J. Sundstrom,  
 H. L. Woodcock III,  P. M. Zimmerman,  D. Zuev,  B. Alam,  B. Albrecht,  
 E. Alguire,  S. A. Baeppler,  D. Barton,  Z. Benda,  Y. A. Bernard,  
 E. J. Berquist,  K. B. Bravaya,  H. Burton,  K. Carter-Fenk,  D. Casanova,  
 Chun-Min Chang,  Yunqing Chen,  A. Chien,  K. D. Closser,  M. P. Coons,  
 S. Coriani,  S. Dasgupta,  A. L. Dempwolff,  M. Diedenhofen,  Hainam Do,  
 R. G. Edgar,  Po-Tung Fang,  S. Faraji,  S. Fatehi,  Qingguo Feng,  
 J. Fosso-Tande,  J. Gayvert,  Qinghui Ge,  A. Ghysels,  G. Gidofalvi,  
 J. Gomes,  J. Gonthier,  A. Gunina,  D. Hait,  M. W. D. Hanson-Heine,  
 P. H. P. Harbach,  A. W. Hauser,  M. F. Herbst,  J. E. Herr,  
 E. G. Hohenstein,  Z. C. Holden,  Kerwin Hui,  B. C. Huynh,  T.-C. Jagau,  
 Hyunjun Ji,  B. Kaduk,  K. Khistyaev,  Jaehoon Kim,  P. Klunzinger,  K. Koh,  
 D. Kosenkov,  L. Koulias,  T. Kowalczyk,  C. M. Krauter,  A. Kunitsa,  
 Ka Un Lao,  A. Laurent,  K. V. Lawler,  Joonho Lee,  D. Lefrancois,  
 S. Lehtola,  D. S. Levine,  Yi-Pei Li,  You-Sheng Lin,  Fenglai Liu,  
 Kuan-Yu Liu,  E. Livshits,  M. Loipersberger,  A. Luenser,  P. Manohar,  
 E. Mansoor,  S. F. Manzer,  Shan-Ping Mao,  Yuezhi Mao,  N. Mardirossian,  
 A. V. Marenich,  T. Markovich,  L. A. Martinez-Martinez,  S. A. Maurer,  
 N. J. Mayhall,  S. C. McKenzie,  J.-M. Mewes,  P. Morgante,  A. F. Morrison,  
 J. W. Mullinax,  K. Nanda,  T. S. Nguyen-Beck,  R. Olivares-Amaya,  
 K. J. Oosterbaan,  J. A. Parkhill,  S. K. Paul,  F. Pavosevic,  Zheng Pei,  
 T. M. Perrine,  F. Plasser,  P. Pokhilko,  S. Prager,  A. Prociuk,  
 E. Ramos,  B. Rana,  D. R. Rehn,  F. Rob,  M. Scheurer,  M. Schneider,  
 N. Sergueev,  S. M. Sharada,  S. Sharma,  D. W. Small,  T. Stauch,  
 C. J. Stein,  T. Stein,  Yu-Chuan Su,  S. P. Veccham,  Zhen Tao,  
 A. J. W. Thom,  A. Tkatchenko,  T. Tsuchimochi,  N. M. Tubman,  L. Vogt,  
 M. L. Vidal,  O. Vydrov,  M. A. Watson,  J. Wenzel,  M. de Wergifosse,  
 T. A. Wesolowski,  A. White,  J. Witte,  A. Yamada,  Jun Yang,  K. Yao,  
 S. Yeganeh,  S. R. Yost,  Zhi-Qiang You,  A. Zech,  Igor Ying Zhang,  
 Xing Zhang,  Yan Zhao,  Ying Zhu,  B. R. Brooks,  G. K. L. Chan,  
 C. J. Cramer,  M. S. Gordon,  W. J. Hehre,  A. Klamt,  M. W. Schmidt,  
 C. D. Sherrill,  D. G. Truhlar,  A. Aspuru-Guzik,  R. Baer,  A. T. Bell,  
 N. A. Besley,  Jeng-Da Chai,  A. E. DePrince, III,  R. A. DiStasio Jr.,  
 A. Dreuw,  B. D. Dunietz,  T. R. Furlani,  Chao-Ping Hsu,  Yousung Jung,  
 Jing Kong,  D. S. Lambrecht,  WanZhen Liang,  C. Ochsenfeld,  
 V. A. Rassolov,  L. V. Slipchenko,  J. E. Subotnik,  T. Van Voorhis,  
 J. M. Herbert,  A. I. Krylov,  P. M. W. Gill,  M. Head-Gordon

 Contributors to earlier versions of Q-Chem not listed above: 
 R. D. Adamson,  B. Austin,  J. Baker,  G. J. O. Beran,  K. Brandhorst,  
 S. T. Brown,  E. F. C. Byrd,  A. K. Chakraborty,  C.-L. Cheng,  
 Siu Hung Chien,  D. M. Chipman,  D. L. Crittenden,  H. Dachsel,  
 R. J. Doerksen,  A. D. Dutoi,  L. Fusti-Molnar,  W. A. Goddard III,  
 A. Golubeva-Zadorozhnaya,  S. R. Gwaltney,  G. Hawkins,  A. Heyden,  
 S. Hirata,  G. Kedziora,  F. J. Keil,  C. Kelley,  Jihan Kim,  R. A. King,  
 R. Z. Khaliullin,  P. P. Korambath,  W. Kurlancheek,  A. M. Lee,  M. S. Lee,  
 S. V. Levchenko,  Ching Yeh Lin,  D. Liotard,  R. C. Lochan,  I. Lotan,  
 P. E. Maslen,  N. Nair,  D. P. O'Neill,  D. Neuhauser,  E. Neuscamman,  
 C. M. Oana,  R. Olson,  B. Peters,  R. Peverati,  P. A. Pieniazek,  
 Y. M. Rhee,  J. Ritchie,  M. A. Rohrdanz,  E. Rosta,  N. J. Russ,  
 H. F. Schaefer III,  N. E. Schultz,  N. Shenvi,  A. C. Simmonett,  A. Sodt,  
 D. Stuck,  K. S. Thanthiriwatte,  V. Vanovschi,  Tao Wang,  A. Warshel,  
 C. F. Williams,  Q. Wu,  X. Xu,  W. Zhang

 Please cite Q-Chem as follows:
 Y. Shao et al., Mol. Phys. 113, 184-215 (2015)
 DOI: 10.1080/00268976.2014.952696

 Q-Chem 5.3.0 for Intel X86 EM64T Linux

 Parts of Q-Chem use Armadillo 9.800.1 (Horizon Scraper).
 http://arma.sourceforge.net/

 Q-Chem begins on Tue Jul  7 01:13:03 2020  

Host: centos77-c4
0

     Scratch files written to /tmp/26964.centos77-h1/qchem97987//
Processing $rem in /opt/qchem-5.3.0-intel2020u1//config/preferences:
Processing $rem in /home/shihchengli/.qchemrc:

Checking the input file for inconsistencies... 	...done.

--------------------------------------------------------------
User input:
--------------------------------------------------------------
$rem
   JOBTYPE  sp
   EXCHANGE   omegaB97X-D
   BASIS   6-311+G(2df,2pd)
   UNRESTRICTED   False
   max_scf_cycles   250
   geom_opt_max_cycles   1500
   basis2 6-31G*
   scf_algorithm rca_diis
   SYM_IGNORE  TRUE
   print_input   true
   geom_opt_dmax   80
   pop_mulliken false
   XC_GRID 000075000302
$end

$molecule
0 1
C       1.2929818814     0.0025640578     0.2590200913
C       -0.0000000171     -0.0027098830     -0.6204850822
H       1.3099887680     -0.8799620170     0.9022790677
H       1.3002991417     0.8767743801     0.9134881635
H       2.2183048110     0.0093710952     -0.3184641174
C       -1.2929819933     0.0025639292     0.2590199513
H       0.0000002345     -0.8817318860     -1.2692913772
H       -0.0000000652     0.8669469642     -1.2818248581
H       -1.3099888611     -0.8799621344     0.9022789238
H       -2.2183050912     0.0093720311     -0.3184639604
H       -1.3002988694     0.8767741288     0.9134882167
$end
--------------------------------------------------------------
 ----------------------------------------------------------------
             Standard Nuclear Orientation (Angstroms)
    I     Atom           X                Y                Z
 ----------------------------------------------------------------
    1      C       1.2929818814     0.0025640578     0.2590200913
    2      C      -0.0000000171    -0.0027098830    -0.6204850822
    3      H       1.3099887680    -0.8799620170     0.9022790677
    4      H       1.3002991417     0.8767743801     0.9134881635
    5      H       2.2183048110     0.0093710952    -0.3184641174
    6      C      -1.2929819933     0.0025639292     0.2590199513
    7      H       0.0000002345    -0.8817318860    -1.2692913772
    8      H      -0.0000000652     0.8669469642    -1.2818248581
    9      H      -1.3099888611    -0.8799621344     0.9022789238
   10      H      -2.2183050912     0.0093720311    -0.3184639604
   11      H      -1.3002988694     0.8767741288     0.9134882167
 ----------------------------------------------------------------
 Nuclear Repulsion Energy =          81.56990932 hartrees
 There are       13 alpha and       13 beta electrons
 Requested basis set is 6-311+G(2df,2pd)
 There are 72 shells and 214 basis functions

 Total QAlloc Memory Limit   2000 MB
 Mega-Array Size       188 MB
 MEM_STATIC part       192 MB

                       Distance Matrix (Angstroms)
             C (  1)   C (  2)   H (  3)   H (  4)   H (  5)   C (  6)
   C (  2)  1.563764
   H (  3)  1.092210  2.191906
   H (  4)  1.092074  2.194845  1.756799
   H (  5)  1.090760  2.238803  1.762432  1.764321
   C (  6)  2.585964  1.563764  2.822781  2.813837  3.558464
   H (  7)  2.188496  1.092533  2.536098  3.089927  2.572744  2.188497
   H (  8)  2.189329  1.092554  3.088377  2.551524  2.566004  2.189329
   H (  9)  2.822781  2.191906  2.619978  3.146403  3.837966  1.092210
   H ( 10)  3.558465  2.238803  3.837966  3.827619  4.436610  1.090760
   H ( 11)  2.813837  2.194845  3.146403  2.600598  3.827619  1.092074
             H (  7)   H (  8)   H (  9)   H ( 10)
   H (  8)  1.748724
   H (  9)  2.536098  3.088377
   H ( 10)  2.572745  2.566004  1.762432
   H ( 11)  3.089927  2.551524  1.756799  1.764321
 
 A cutoff of  1.0D-09 yielded   2528 shell pairs
 There are     22554 function pairs (     27735 Cartesian)
 Smallest overlap matrix eigenvalue = 1.02E-04

 Scale SEOQF with 1.000000e-01/1.000000e-01/1.000000e-01

 Standard Electronic Orientation quadrupole field applied
 Nucleus-field energy     =     0.0000000006 hartrees
 Requested basis set is 6-31G(d)
 There are 28 shells and 58 basis functions
 A cutoff of  1.0D-09 yielded    402 shell pairs
 There are      1773 function pairs (      1968 Cartesian)
 Smallest overlap matrix eigenvalue = 7.65E-03
 Guess from superposition of atomic densities
 Warning:  Energy on first SCF cycle will be non-variational
 SAD guess density has 26.000000 electrons
 Long-range K will be added via erf
 Coulomb attenuation parameter = 0.2 bohr**(-1)
 A restricted hybrid HF-DFT SCF calculation will be
 performed using Relaxed Constraint Minimization + Pulay DIIS
 Exchange:     0.2220 Hartree-Fock + 1.0000 wB97X-D + LR-HF
 Correlation:  1.0000 wB97X-D
 Using Euler-Maclaurin-Lebedev (75,302) quadrature formula
 Dispersion:   Grimme D
 SCF converges when DIIS error is below 1.0E-04
 using 3 threads for integral computing
 -------------------------------------------------------
 OpenMP Integral computing Module                
 Release: version 1.0, May 2013, Q-Chem Inc. Pittsburgh 
 -------------------------------------------------------
 using 3 threads for integral computing
 -------------------------------------------------------
 OpenMP Integral computing Module                
 Release: version 1.0, May 2013, Q-Chem Inc. Pittsburgh 
 -------------------------------------------------------
 ---------------------------------------
  Cycle       Energy         DIIS Error
 ---------------------------------------
    1    -119.5110403809      9.70E-02
    2    -119.0686371452      8.58E-03
    3    -119.0880619619      2.48E-03
    4    -119.1003459299      1.69E-03
    5    -119.1010582239      2.85E-04 Done RCA. Switching to DIIS
    6    -119.1015649497      2.08E-04
    7    -119.1015837916      4.70E-06 Convergence criterion met
 ---------------------------------------
 SCF time:  CPU 19.16 s  wall 6.96 s
 SCF   energy in the small basis set = -119.10158379
 Total energy in the small basis set = -119.10158379
 ----------------------------------------------------
  Cycle       Energy    
 ----------------------------------------------------
    1     -16.5070624752     -1.65E+01
 Long-range K will be added via erf
 Coulomb attenuation parameter = 0.2 bohr**(-1)
 A restricted hybrid HF-DFT SCF calculation will be
 performed using Relaxed Constraint Minimization + Pulay DIIS
 Exchange:     0.2220 Hartree-Fock + 1.0000 wB97X-D + LR-HF
 Correlation:  1.0000 wB97X-D
 Using Euler-Maclaurin-Lebedev (75,302) quadrature formula
 Dispersion:   Grimme D
 SCF converges when DIIS error is below 1.0E-05
 Basis2 calculation detected. Using small basis as guess for larger.
 SCFMinFind is unable to tell whether the solution found is close.
 Resetting ReadMinima to 0 and attempting to follow guess.
 SCFMinFind following SCF Guess.
 using 3 threads for integral computing
 -------------------------------------------------------
 OpenMP Integral computing Module                
 Release: version 1.0, May 2013, Q-Chem Inc. Pittsburgh 
 -------------------------------------------------------
 using 3 threads for integral computing
 -------------------------------------------------------
 OpenMP Integral computing Module                
 Release: version 1.0, May 2013, Q-Chem Inc. Pittsburgh 
 -------------------------------------------------------
 ---------------------------------------
  Cycle       Energy         DIIS Error
 ---------------------------------------
    1    -119.1203264608      4.21E-03
    2    -119.1423891822      5.93E-04 Done RCA. Switching to DIIS
    3    -119.1432348815      4.10E-04
    4    -119.1441597651      4.47E-05
    5    -119.1441740637      9.97E-06 Convergence criterion met
 ---------------------------------------
 SCF time:  CPU 44.04 s  wall 14.96 s
 SCF   energy in the final basis set = -119.14417406
 Total energy in the final basis set = -119.14417406
 
 --------------------------------------------------------------
 
                    Orbital Energies (a.u.)
 --------------------------------------------------------------
 
 Alpha MOs
 -- Occupied --
-10.2809 -10.2685 -10.2685  -0.8709  -0.7745  -0.6813  -0.5400  -0.5204
 -0.4765  -0.4629  -0.4196  -0.4166  -0.4116
 -- Virtual --
  0.0695   0.0851   0.0908   0.1002   0.1247   0.1300   0.1334   0.1430
  0.1435   0.1706   0.1711   0.1914   0.2299   0.2421   0.2450   0.2643
  0.2811   0.2842   0.2979   0.3051   0.3321   0.3428   0.4561   0.4644
  0.4711   0.5109   0.5138   0.5217   0.5520   0.5629   0.5863   0.5865
  0.6086   0.6209   0.6313   0.6381   0.6460   0.6526   0.7080   0.7217
  0.7261   0.7632   0.8195   0.8470   0.8650   0.8778   0.8816   0.9555
  1.0025   1.0475   1.0535   1.1174   1.1359   1.1735   1.1807   1.2160
  1.2251   1.2266   1.2553   1.2716   1.2855   1.2881   1.3166   1.3534
  1.3618   1.3947   1.3999   1.4482   1.4564   1.4673   1.4733   1.4783
  1.5198   1.5639   1.6071   1.6292   1.6383   1.6489   1.6818   1.6907
  1.7582   2.3715   2.4352   2.4741   2.4884   2.5296   2.5540   2.5909
  2.5955   2.7080   2.7959   2.8109   2.8320   2.9041   2.9093   2.9175
  2.9320   2.9341   3.0124   3.0166   3.0616   3.0675   3.0809   3.0959
  3.1180   3.1373   3.1782   3.1905   3.1918   3.2230   3.2850   3.3049
  3.3358   3.3378   3.3406   3.3539   3.3540   3.3679   3.3850   3.4136
  3.4438   3.4679   3.4811   3.4932   3.5605   3.5756   3.5904   3.6162
  3.6172   3.6740   3.6778   3.6977   3.7630   3.7735   3.8383   3.8679
  3.9125   3.9291   3.9377   3.9382   3.9445   3.9978   4.0236   4.0496
  4.0697   4.0909   4.1181   4.1350   4.1398   4.1451   4.1820   4.1904
  4.2228   4.2248   4.2456   4.3548   4.3568   4.3620   4.3963   4.4152
  4.4507   4.5529   4.5626   4.5664   4.6411   4.7929   4.8114   4.8994
  4.9261   4.9451   4.9475   4.9498   5.0430   5.0492   5.0620   5.0747
  5.0925   5.2168   5.2413   5.2559   5.2842   5.3267   5.3381   5.3406
  5.3520   5.3616   5.4265   5.4667   5.5062   5.5408   5.5909   5.6640
  5.8706   6.3753   6.3834   6.3905   6.4110   6.4529  25.1533  25.4107
 25.4234
 --------------------------------------------------------------
 
 -----------------------------------------------------------------
                    Cartesian Multipole Moments
 -----------------------------------------------------------------
    Charge (ESU x 10^10)
                 0.0000
    Dipole Moment (Debye)
         X       0.0000      Y      -0.0032      Z      -0.0572
       Tot       0.0573
    Quadrupole Moments (Debye-Ang)
        XX     -21.9647     XY      -0.0000     YY     -21.4440
        XZ      -0.0000     YZ       0.0065     ZZ     -21.8810
    Octopole Moments (Debye-Ang^2)
       XXX      -0.0000    XXY      -0.0040    XYY       0.0000
       YYY      -0.0724    XXZ      -1.3083    XYZ       0.0000
       YYZ       0.6151    XZZ       0.0000    YZZ       0.0213
       ZZZ       0.0322
    Hexadecapole Moments (Debye-Ang^3)
      XXXX    -205.6896   XXXY      -0.0000   XXYY     -43.4473
      XYYY       0.0000   YYYY     -44.1600   XXXZ      -0.0000
      XXYZ      -0.0549   XYYZ      -0.0000   YYYZ      -0.0677
      XXZZ     -47.0707   XYZZ       0.0000   YYZZ     -17.2626
      XZZZ      -0.0000   YZZZ      -0.0649   ZZZZ     -74.0471
 -----------------------------------------------------------------
Archival summary:
1\1\centos77-c4\SP\ProcedureUnspecified\BasisUnspecified\38\shihchen\TueJul701:13:282020TueJul701:13:282020\0\\#,ProcedureUnspecified,BasisUnspecified,\\0,1\C\H,1,1.09253\H,1,1.09255,2,106.317\C,1,1.56376,2,109.677,3,118.584,0\H,4,1.09076,1,113.809,2,-58.8743,0\H,4,1.09207,1,110.2,2,179.832,0\H,4,1.09221,1,109.962,2,62.0139,0\C,1,1.56376,2,109.677,3,-118.584,0\H,8,1.09076,1,113.809,2,58.8743,0\H,8,1.09207,1,110.2,2,-179.832,0\H,8,1.09221,1,109.962,2,-62.0139,0\\\@

 Total job time:  24.80s(wall), 66.75s(cpu) 
 Tue Jul  7 01:13:28 2020

        *************************************************************
        *                                                           *
        *  Thank you very much for using Q-Chem.  Have a nice day.  *
        *                                                           *
        *************************************************************


