                  Welcome to Q-Chem
     A Quantum Leap Into The Future Of Chemistry


 Q-Chem 5.3 (devel), Q-Chem, Inc., Pleasanton, CA (2020)

 Yihan Shao,  Zhengting Gan,  E. Epifanovsky,  A. T. B. Gilbert,  M. Wormit,  
 J. Kussmann,  A. W. Lange,  A. Behn,  Jia Deng,  Xintian Feng,  D. Ghosh,  
 M. Goldey,  P. R. Horn,  L. D. Jacobson,  I. Kaliman,  T. Kus,  A. Landau,  
 Jie Liu,  E. I. Proynov,  R. M. Richard,  R. P. Steele,  E. J. Sundstrom,  
 H. L. Woodcock III,  P. M. Zimmerman,  D. Zuev,  B. Alam,  B. Albrecht,  
 E. Alguire,  S. A. Baeppler,  D. Barton,  Z. Benda,  Y. A. Bernard,  
 E. J. Berquist,  K. B. Bravaya,  H. Burton,  K. Carter-Fenk,  D. Casanova,  
 Chun-Min Chang,  Yunqing Chen,  A. Chien,  K. D. Closser,  M. P. Coons,  
 S. Coriani,  S. Dasgupta,  A. L. Dempwolff,  M. Diedenhofen,  Hainam Do,  
 R. G. Edgar,  Po-Tung Fang,  S. Faraji,  S. Fatehi,  Qingguo Feng,  
 J. Fosso-Tande,  J. Gayvert,  Qinghui Ge,  A. Ghysels,  G. Gidofalvi,  
 J. Gomes,  J. Gonthier,  A. Gunina,  D. Hait,  M. W. D. Hanson-Heine,  
 P. H. P. Harbach,  A. W. Hauser,  M. F. Herbst,  J. E. Herr,  
 E. G. Hohenstein,  Z. C. Holden,  Kerwin Hui,  B. C. Huynh,  T.-C. Jagau,  
 Hyunjun Ji,  B. Kaduk,  K. Khistyaev,  Jaehoon Kim,  P. Klunzinger,  K. Koh,  
 D. Kosenkov,  L. Koulias,  T. Kowalczyk,  C. M. Krauter,  A. Kunitsa,  
 Ka Un Lao,  A. Laurent,  K. V. Lawler,  Joonho Lee,  D. Lefrancois,  
 S. Lehtola,  D. S. Levine,  Yi-Pei Li,  You-Sheng Lin,  Fenglai Liu,  
 Kuan-Yu Liu,  E. Livshits,  M. Loipersberger,  A. Luenser,  P. Manohar,  
 E. Mansoor,  S. F. Manzer,  Shan-Ping Mao,  Yuezhi Mao,  N. Mardirossian,  
 A. V. Marenich,  T. Markovich,  L. A. Martinez-Martinez,  S. A. Maurer,  
 N. J. Mayhall,  S. C. McKenzie,  J.-M. Mewes,  P. Morgante,  A. F. Morrison,  
 J. W. Mullinax,  K. Nanda,  T. S. Nguyen-Beck,  R. Olivares-Amaya,  
 K. J. Oosterbaan,  J. A. Parkhill,  S. K. Paul,  F. Pavosevic,  Zheng Pei,  
 T. M. Perrine,  F. Plasser,  P. Pokhilko,  S. Prager,  A. Prociuk,  
 E. Ramos,  B. Rana,  D. R. Rehn,  F. Rob,  M. Scheurer,  M. Schneider,  
 N. Sergueev,  S. M. Sharada,  S. Sharma,  D. W. Small,  T. Stauch,  
 C. J. Stein,  T. Stein,  Yu-Chuan Su,  S. P. Veccham,  Zhen Tao,  
 A. J. W. Thom,  A. Tkatchenko,  T. Tsuchimochi,  N. M. Tubman,  L. Vogt,  
 M. L. Vidal,  O. Vydrov,  M. A. Watson,  J. Wenzel,  M. de Wergifosse,  
 T. A. Wesolowski,  A. White,  J. Witte,  A. Yamada,  Jun Yang,  K. Yao,  
 S. Yeganeh,  S. R. Yost,  Zhi-Qiang You,  A. Zech,  Igor Ying Zhang,  
 Xing Zhang,  Yan Zhao,  Ying Zhu,  B. R. Brooks,  G. K. L. Chan,  
 C. J. Cramer,  M. S. Gordon,  W. J. Hehre,  A. Klamt,  M. W. Schmidt,  
 C. D. Sherrill,  D. G. Truhlar,  A. Aspuru-Guzik,  R. Baer,  A. T. Bell,  
 N. A. Besley,  Jeng-Da Chai,  A. E. DePrince, III,  R. A. DiStasio Jr.,  
 A. Dreuw,  B. D. Dunietz,  T. R. Furlani,  Chao-Ping Hsu,  Yousung Jung,  
 Jing Kong,  D. S. Lambrecht,  WanZhen Liang,  C. Ochsenfeld,  
 V. A. Rassolov,  L. V. Slipchenko,  J. E. Subotnik,  T. Van Voorhis,  
 J. M. Herbert,  A. I. Krylov,  P. M. W. Gill,  M. Head-Gordon

 Contributors to earlier versions of Q-Chem not listed above: 
 R. D. Adamson,  B. Austin,  J. Baker,  G. J. O. Beran,  K. Brandhorst,  
 S. T. Brown,  E. F. C. Byrd,  A. K. Chakraborty,  C.-L. Cheng,  
 Siu Hung Chien,  D. M. Chipman,  D. L. Crittenden,  H. Dachsel,  
 R. J. Doerksen,  A. D. Dutoi,  L. Fusti-Molnar,  W. A. Goddard III,  
 A. Golubeva-Zadorozhnaya,  S. R. Gwaltney,  G. Hawkins,  A. Heyden,  
 S. Hirata,  G. Kedziora,  F. J. Keil,  C. Kelley,  Jihan Kim,  R. A. King,  
 R. Z. Khaliullin,  P. P. Korambath,  W. Kurlancheek,  A. M. Lee,  M. S. Lee,  
 S. V. Levchenko,  Ching Yeh Lin,  D. Liotard,  R. C. Lochan,  I. Lotan,  
 P. E. Maslen,  N. Nair,  D. P. O'Neill,  D. Neuhauser,  E. Neuscamman,  
 C. M. Oana,  R. Olson,  B. Peters,  R. Peverati,  P. A. Pieniazek,  
 Y. M. Rhee,  J. Ritchie,  M. A. Rohrdanz,  E. Rosta,  N. J. Russ,  
 H. F. Schaefer III,  N. E. Schultz,  N. Shenvi,  A. C. Simmonett,  A. Sodt,  
 D. Stuck,  K. S. Thanthiriwatte,  V. Vanovschi,  Tao Wang,  A. Warshel,  
 C. F. Williams,  Q. Wu,  X. Xu,  W. Zhang

 Please cite Q-Chem as follows:
 Y. Shao et al., Mol. Phys. 113, 184-215 (2015)
 DOI: 10.1080/00268976.2014.952696

 Q-Chem 5.3.0 for Intel X86 EM64T Linux

 Parts of Q-Chem use Armadillo 9.800.1 (Horizon Scraper).
 http://arma.sourceforge.net/

 Q-Chem begins on Tue Jul  7 02:37:41 2020  

Host: centos77-c4
0

     Scratch files written to /tmp/26964.centos77-h1/qchem113396//
Processing $rem in /opt/qchem-5.3.0-intel2020u1//config/preferences:
Processing $rem in /home/shihchengli/.qchemrc:

Checking the input file for inconsistencies... 	...done.

--------------------------------------------------------------
User input:
--------------------------------------------------------------
$rem
   JOBTYPE  sp
   EXCHANGE   omegaB97X-D
   BASIS   6-311+G(2df,2pd)
   UNRESTRICTED   False
   max_scf_cycles   250
   geom_opt_max_cycles   1500
   basis2 6-31G*
   scf_algorithm rca_diis
   SYM_IGNORE  TRUE
   print_input   true
   geom_opt_dmax   80
   pop_mulliken false
   XC_GRID 000075000302
$end

$molecule
0 1
C       1.2670160143     -0.0481740426     0.2591150427
C       0.0002378166     -0.0000587294     -0.5868849277
H       1.2852166290     -0.7942134007     0.8135205943
H       1.3303362045     0.9706327666     0.9932080701
H       2.1612701029     -0.0519829640     -0.3580628470
C       -1.2655734410     0.0481970158     0.2605090423
H       -0.0187432978     -0.8737913838     -1.2426148034
H       0.0187701519     0.8735615226     -1.2427858071
H       -1.3287063155     -0.9680362313     0.9926140851
H       -2.1665095684     0.0523744906     -0.3607489655
H       -1.2833143572     0.7914916223     0.8131755350
$end
--------------------------------------------------------------
 ----------------------------------------------------------------
             Standard Nuclear Orientation (Angstroms)
    I     Atom           X                Y                Z
 ----------------------------------------------------------------
    1      C       1.2670160143    -0.0481740426     0.2591150427
    2      C       0.0002378166    -0.0000587294    -0.5868849277
    3      H       1.2852166290    -0.7942134007     0.8135205943
    4      H       1.3303362045     0.9706327666     0.9932080701
    5      H       2.1612701029    -0.0519829640    -0.3580628470
    6      C      -1.2655734410     0.0481970158     0.2605090423
    7      H      -0.0187432978    -0.8737913838    -1.2426148034
    8      H       0.0187701519     0.8735615226    -1.2427858071
    9      H      -1.3287063155    -0.9680362313     0.9926140851
   10      H      -2.1665095684     0.0523744906    -0.3607489655
   11      H      -1.2833143572     0.7914916223     0.8131755350
 ----------------------------------------------------------------
 Nuclear Repulsion Energy =          83.00867916 hartrees
 There are       13 alpha and       13 beta electrons
 Requested basis set is 6-311+G(2df,2pd)
 There are 72 shells and 214 basis functions

 Total QAlloc Memory Limit   2000 MB
 Mega-Array Size       188 MB
 MEM_STATIC part       192 MB

                       Distance Matrix (Angstroms)
             C (  1)   C (  2)   H (  3)   H (  4)   H (  5)   C (  6)
   C (  2)  1.524060
   H (  3)  0.929662  2.059851
   H (  4)  1.257326  2.282126  1.774544
   H (  5)  1.086560  2.173733  1.640422  1.887360
   C (  6)  2.534423  1.524035  2.742628  2.850699  3.483665
   H (  7)  2.142432  1.092589  2.436049  3.197002  2.492039  2.159636
   H (  8)  2.159495  1.092594  2.934920  2.594089  2.495931  2.142583
   H (  9)  2.849902  2.279888  2.625811  3.290736  3.852716  1.254071
   H ( 10)  3.490478  2.179147  3.742998  3.860612  4.329039  1.094379
   H ( 11)  2.741570  2.057724  3.018578  2.625961  3.734757  0.926413
             H (  7)   H (  8)   H (  9)   H ( 10)
   H (  8)  1.747756
   H (  9)  2.592515  3.194399
   H ( 10)  2.499674  2.495553  1.890699
   H ( 11)  2.932334  2.434982  1.769236  1.644514
 
 A cutoff of  1.0D-09 yielded   2533 shell pairs
 There are     22559 function pairs (     27734 Cartesian)
 Smallest overlap matrix eigenvalue = 8.69E-05

 Scale SEOQF with 1.000000e-01/1.000000e-01/1.000000e-01

 Standard Electronic Orientation quadrupole field applied
 Nucleus-field energy     =     0.0000000006 hartrees
 Requested basis set is 6-31G(d)
 There are 28 shells and 58 basis functions
 A cutoff of  1.0D-09 yielded    402 shell pairs
 There are      1773 function pairs (      1968 Cartesian)
 Smallest overlap matrix eigenvalue = 6.74E-03
 Guess from superposition of atomic densities
 Warning:  Energy on first SCF cycle will be non-variational
 SAD guess density has 26.000000 electrons
 Long-range K will be added via erf
 Coulomb attenuation parameter = 0.2 bohr**(-1)
 A restricted hybrid HF-DFT SCF calculation will be
 performed using Relaxed Constraint Minimization + Pulay DIIS
 Exchange:     0.2220 Hartree-Fock + 1.0000 wB97X-D + LR-HF
 Correlation:  1.0000 wB97X-D
 Using Euler-Maclaurin-Lebedev (75,302) quadrature formula
 Dispersion:   Grimme D
 SCF converges when DIIS error is below 1.0E-04
 using 3 threads for integral computing
 -------------------------------------------------------
 OpenMP Integral computing Module                
 Release: version 1.0, May 2013, Q-Chem Inc. Pittsburgh 
 -------------------------------------------------------
 using 3 threads for integral computing
 -------------------------------------------------------
 OpenMP Integral computing Module                
 Release: version 1.0, May 2013, Q-Chem Inc. Pittsburgh 
 -------------------------------------------------------
 ---------------------------------------
  Cycle       Energy         DIIS Error
 ---------------------------------------
    1    -119.6072043932      1.03E-01
    2    -118.9897055206      9.61E-03
    3    -119.0142151952      2.63E-03
    4    -119.0305806206      1.78E-03
    5    -119.0313699376      2.87E-04 Done RCA. Switching to DIIS
    6    -119.0319523168      2.09E-04
    7    -119.0319715156      5.97E-06 Convergence criterion met
 ---------------------------------------
 SCF time:  CPU 19.15 s  wall 6.87 s
 SCF   energy in the small basis set = -119.03197152
 Total energy in the small basis set = -119.03197152
 ----------------------------------------------------
  Cycle       Energy    
 ----------------------------------------------------
    1     -16.5658663295     -1.66E+01
 Long-range K will be added via erf
 Coulomb attenuation parameter = 0.2 bohr**(-1)
 A restricted hybrid HF-DFT SCF calculation will be
 performed using Relaxed Constraint Minimization + Pulay DIIS
 Exchange:     0.2220 Hartree-Fock + 1.0000 wB97X-D + LR-HF
 Correlation:  1.0000 wB97X-D
 Using Euler-Maclaurin-Lebedev (75,302) quadrature formula
 Dispersion:   Grimme D
 SCF converges when DIIS error is below 1.0E-05
 Basis2 calculation detected. Using small basis as guess for larger.
 SCFMinFind is unable to tell whether the solution found is close.
 Resetting ReadMinima to 0 and attempting to follow guess.
 SCFMinFind following SCF Guess.
 using 3 threads for integral computing
 -------------------------------------------------------
 OpenMP Integral computing Module                
 Release: version 1.0, May 2013, Q-Chem Inc. Pittsburgh 
 -------------------------------------------------------
 using 3 threads for integral computing
 -------------------------------------------------------
 OpenMP Integral computing Module                
 Release: version 1.0, May 2013, Q-Chem Inc. Pittsburgh 
 -------------------------------------------------------
 ---------------------------------------
  Cycle       Energy         DIIS Error
 ---------------------------------------
    1    -119.0542418819      4.21E-03
    2    -119.0761584009      5.78E-04 Done RCA. Switching to DIIS
    3    -119.0769394808      4.05E-04
    4    -119.0778436568      4.55E-05
    5    -119.0778585333      9.00E-06 Convergence criterion met
 ---------------------------------------
 SCF time:  CPU 43.82 s  wall 14.82 s
 SCF   energy in the final basis set = -119.07785853
 Total energy in the final basis set = -119.07785853
 
 --------------------------------------------------------------
 
                    Orbital Energies (a.u.)
 --------------------------------------------------------------
 
 Alpha MOs
 -- Occupied --
-10.2759 -10.2636 -10.2635  -0.8856  -0.7868  -0.6862  -0.5507  -0.5262
 -0.4858  -0.4689  -0.4204  -0.4122  -0.4026
 -- Virtual --
  0.0680   0.0853   0.0903   0.0980   0.1240   0.1297   0.1339   0.1400
  0.1426   0.1693   0.1704   0.1877   0.2180   0.2221   0.2458   0.2633
  0.2844   0.2982   0.3104   0.3153   0.3340   0.3530   0.4496   0.4706
  0.4775   0.5043   0.5095   0.5233   0.5463   0.5556   0.5803   0.5808
  0.6173   0.6241   0.6374   0.6444   0.6484   0.6660   0.7248   0.7425
  0.7566   0.7650   0.8191   0.8659   0.8663   0.8787   0.8859   0.9562
  0.9938   1.0527   1.0591   1.1335   1.1377   1.1678   1.1877   1.2154
  1.2224   1.2357   1.2636   1.2698   1.2977   1.3029   1.3196   1.3684
  1.3753   1.3854   1.4055   1.4347   1.4357   1.4643   1.4739   1.4867
  1.5408   1.5796   1.5882   1.6113   1.6617   1.6683   1.6941   1.7523
  1.7907   2.3102   2.4054   2.4713   2.5092   2.5477   2.5958   2.6197
  2.6547   2.7485   2.8127   2.8247   2.8353   2.8616   2.9075   2.9168
  2.9225   2.9429   2.9833   3.0242   3.0288   3.0693   3.0755   3.1057
  3.1412   3.1506   3.1892   3.1920   3.2124   3.2252   3.2587   3.2805
  3.2868   3.3201   3.3406   3.3535   3.3541   3.3710   3.4106   3.4450
  3.4535   3.4607   3.4844   3.5031   3.5135   3.5544   3.6107   3.6259
  3.6281   3.6537   3.6885   3.7280   3.7449   3.7844   3.8676   3.8756
  3.8858   3.9139   3.9329   3.9620   3.9898   3.9993   4.0548   4.0602
  4.0732   4.0899   4.0998   4.1495   4.1593   4.1677   4.1951   4.2110
  4.2163   4.2737   4.3006   4.3273   4.3633   4.4128   4.4235   4.4312
  4.4521   4.5109   4.5659   4.6007   4.6219   4.7469   4.8112   4.8542
  4.8595   4.8793   4.8949   4.9905   5.0057   5.0214   5.0669   5.1076
  5.1451   5.2169   5.2361   5.2692   5.3388   5.3692   5.4404   5.4811
  5.5050   5.6003   5.6742   5.7133   5.7196   5.7394   5.8091   5.9095
  5.9417   6.1926   6.2130   6.4566   6.6358   6.6761  25.1956  25.3515
 25.3607
 --------------------------------------------------------------
 
 -----------------------------------------------------------------
                    Cartesian Multipole Moments
 -----------------------------------------------------------------
    Charge (ESU x 10^10)
                -0.0000
    Dipole Moment (Debye)
         X       0.0049      Y      -0.0025      Z      -0.1871
       Tot       0.1871
    Quadrupole Moments (Debye-Ang)
        XX     -22.1713     XY      -0.6047     YY     -21.3583
        XZ      -0.0072     YZ      -0.0013     ZZ     -21.9134
    Octopole Moments (Debye-Ang^2)
       XXX       0.0261    XXY      -0.0102    XYY       0.0043
       YYY      -0.0079    XXZ      -1.8227    XYZ      -0.1784
       YYZ       0.3743    XZZ      -0.0084    YZZ      -0.0030
       ZZZ      -0.8019
    Hexadecapole Moments (Debye-Ang^3)
      XXXX    -202.3027   XXXY      -3.0533   XXYY     -42.3863
      XYYY      -1.1332   YYYY     -44.8013   XXXZ      -0.0366
      XXYZ      -0.0069   XYYZ      -0.0139   YYYZ      -0.0071
      XXZZ     -45.6560   XYZZ      -0.3186   YYZZ     -17.2722
      XZZZ      -0.0555   YZZZ      -0.0083   ZZZZ     -73.0591
 -----------------------------------------------------------------
Archival summary:
1\1\centos77-c4\SP\ProcedureUnspecified\BasisUnspecified\38\shihchen\TueJul702:38:062020TueJul702:38:062020\0\\#,ProcedureUnspecified,BasisUnspecified,\\0,1\C\H,1,1.09259\H,1,1.09259,2,106.226\C,1,1.52404,2,110.157,3,117.69,0\H,4,0.926413,1,111.902,2,-178.732,0\H,4,1.09438,1,111.607,2,-56.7268,0\H,4,1.25407,1,109.923,2,61.8812,0\C,1,1.52406,2,108.805,3,-118.554,0\H,8,0.929662,1,111.879,2,-62.6478,0\H,8,1.08656,1,111.647,2,59.3678,0\H,8,1.25733,1,109.9,2,177.984,0\\\@

 Total job time:  24.69s(wall), 66.75s(cpu) 
 Tue Jul  7 02:38:06 2020

        *************************************************************
        *                                                           *
        *  Thank you very much for using Q-Chem.  Have a nice day.  *
        *                                                           *
        *************************************************************


