                  Welcome to Q-Chem
     A Quantum Leap Into The Future Of Chemistry


 Q-Chem 5.3 (devel), Q-Chem, Inc., Pleasanton, CA (2020)

 Yihan Shao,  Zhengting Gan,  E. Epifanovsky,  A. T. B. Gilbert,  M. Wormit,  
 J. Kussmann,  A. W. Lange,  A. Behn,  Jia Deng,  Xintian Feng,  D. Ghosh,  
 M. Goldey,  P. R. Horn,  L. D. Jacobson,  I. Kaliman,  T. Kus,  A. Landau,  
 Jie Liu,  E. I. Proynov,  R. M. Richard,  R. P. Steele,  E. J. Sundstrom,  
 H. L. Woodcock III,  P. M. Zimmerman,  D. Zuev,  B. Alam,  B. Albrecht,  
 E. Alguire,  S. A. Baeppler,  D. Barton,  Z. Benda,  Y. A. Bernard,  
 E. J. Berquist,  K. B. Bravaya,  H. Burton,  K. Carter-Fenk,  D. Casanova,  
 Chun-Min Chang,  Yunqing Chen,  A. Chien,  K. D. Closser,  M. P. Coons,  
 S. Coriani,  S. Dasgupta,  A. L. Dempwolff,  M. Diedenhofen,  Hainam Do,  
 R. G. Edgar,  Po-Tung Fang,  S. Faraji,  S. Fatehi,  Qingguo Feng,  
 J. Fosso-Tande,  J. Gayvert,  Qinghui Ge,  A. Ghysels,  G. Gidofalvi,  
 J. Gomes,  J. Gonthier,  A. Gunina,  D. Hait,  M. W. D. Hanson-Heine,  
 P. H. P. Harbach,  A. W. Hauser,  M. F. Herbst,  J. E. Herr,  
 E. G. Hohenstein,  Z. C. Holden,  Kerwin Hui,  B. C. Huynh,  T.-C. Jagau,  
 Hyunjun Ji,  B. Kaduk,  K. Khistyaev,  Jaehoon Kim,  P. Klunzinger,  K. Koh,  
 D. Kosenkov,  L. Koulias,  T. Kowalczyk,  C. M. Krauter,  A. Kunitsa,  
 Ka Un Lao,  A. Laurent,  K. V. Lawler,  Joonho Lee,  D. Lefrancois,  
 S. Lehtola,  D. S. Levine,  Yi-Pei Li,  You-Sheng Lin,  Fenglai Liu,  
 Kuan-Yu Liu,  E. Livshits,  M. Loipersberger,  A. Luenser,  P. Manohar,  
 E. Mansoor,  S. F. Manzer,  Shan-Ping Mao,  Yuezhi Mao,  N. Mardirossian,  
 A. V. Marenich,  T. Markovich,  L. A. Martinez-Martinez,  S. A. Maurer,  
 N. J. Mayhall,  S. C. McKenzie,  J.-M. Mewes,  P. Morgante,  A. F. Morrison,  
 J. W. Mullinax,  K. Nanda,  T. S. Nguyen-Beck,  R. Olivares-Amaya,  
 K. J. Oosterbaan,  J. A. Parkhill,  S. K. Paul,  F. Pavosevic,  Zheng Pei,  
 T. M. Perrine,  F. Plasser,  P. Pokhilko,  S. Prager,  A. Prociuk,  
 E. Ramos,  B. Rana,  D. R. Rehn,  F. Rob,  M. Scheurer,  M. Schneider,  
 N. Sergueev,  S. M. Sharada,  S. Sharma,  D. W. Small,  T. Stauch,  
 C. J. Stein,  T. Stein,  Yu-Chuan Su,  S. P. Veccham,  Zhen Tao,  
 A. J. W. Thom,  A. Tkatchenko,  T. Tsuchimochi,  N. M. Tubman,  L. Vogt,  
 M. L. Vidal,  O. Vydrov,  M. A. Watson,  J. Wenzel,  M. de Wergifosse,  
 T. A. Wesolowski,  A. White,  J. Witte,  A. Yamada,  Jun Yang,  K. Yao,  
 S. Yeganeh,  S. R. Yost,  Zhi-Qiang You,  A. Zech,  Igor Ying Zhang,  
 Xing Zhang,  Yan Zhao,  Ying Zhu,  B. R. Brooks,  G. K. L. Chan,  
 C. J. Cramer,  M. S. Gordon,  W. J. Hehre,  A. Klamt,  M. W. Schmidt,  
 C. D. Sherrill,  D. G. Truhlar,  A. Aspuru-Guzik,  R. Baer,  A. T. Bell,  
 N. A. Besley,  Jeng-Da Chai,  A. E. DePrince, III,  R. A. DiStasio Jr.,  
 A. Dreuw,  B. D. Dunietz,  T. R. Furlani,  Chao-Ping Hsu,  Yousung Jung,  
 Jing Kong,  D. S. Lambrecht,  WanZhen Liang,  C. Ochsenfeld,  
 V. A. Rassolov,  L. V. Slipchenko,  J. E. Subotnik,  T. Van Voorhis,  
 J. M. Herbert,  A. I. Krylov,  P. M. W. Gill,  M. Head-Gordon

 Contributors to earlier versions of Q-Chem not listed above: 
 R. D. Adamson,  B. Austin,  J. Baker,  G. J. O. Beran,  K. Brandhorst,  
 S. T. Brown,  E. F. C. Byrd,  A. K. Chakraborty,  C.-L. Cheng,  
 Siu Hung Chien,  D. M. Chipman,  D. L. Crittenden,  H. Dachsel,  
 R. J. Doerksen,  A. D. Dutoi,  L. Fusti-Molnar,  W. A. Goddard III,  
 A. Golubeva-Zadorozhnaya,  S. R. Gwaltney,  G. Hawkins,  A. Heyden,  
 S. Hirata,  G. Kedziora,  F. J. Keil,  C. Kelley,  Jihan Kim,  R. A. King,  
 R. Z. Khaliullin,  P. P. Korambath,  W. Kurlancheek,  A. M. Lee,  M. S. Lee,  
 S. V. Levchenko,  Ching Yeh Lin,  D. Liotard,  R. C. Lochan,  I. Lotan,  
 P. E. Maslen,  N. Nair,  D. P. O'Neill,  D. Neuhauser,  E. Neuscamman,  
 C. M. Oana,  R. Olson,  B. Peters,  R. Peverati,  P. A. Pieniazek,  
 Y. M. Rhee,  J. Ritchie,  M. A. Rohrdanz,  E. Rosta,  N. J. Russ,  
 H. F. Schaefer III,  N. E. Schultz,  N. Shenvi,  A. C. Simmonett,  A. Sodt,  
 D. Stuck,  K. S. Thanthiriwatte,  V. Vanovschi,  Tao Wang,  A. Warshel,  
 C. F. Williams,  Q. Wu,  X. Xu,  W. Zhang

 Please cite Q-Chem as follows:
 Y. Shao et al., Mol. Phys. 113, 184-215 (2015)
 DOI: 10.1080/00268976.2014.952696

 Q-Chem 5.3.0 for Intel X86 EM64T Linux

 Parts of Q-Chem use Armadillo 9.800.1 (Horizon Scraper).
 http://arma.sourceforge.net/

 Q-Chem begins on Tue Jul  7 02:14:22 2020  

Host: centos77-c4
0

     Scratch files written to /tmp/26964.centos77-h1/qchem109566//
Processing $rem in /opt/qchem-5.3.0-intel2020u1//config/preferences:
Processing $rem in /home/shihchengli/.qchemrc:

Checking the input file for inconsistencies... 	...done.

--------------------------------------------------------------
User input:
--------------------------------------------------------------
$rem
   JOBTYPE  sp
   EXCHANGE   omegaB97X-D
   BASIS   6-311+G(2df,2pd)
   UNRESTRICTED   False
   max_scf_cycles   250
   geom_opt_max_cycles   1500
   basis2 6-31G*
   scf_algorithm rca_diis
   SYM_IGNORE  TRUE
   print_input   true
   geom_opt_dmax   80
   pop_mulliken false
   XC_GRID 000075000302
$end

$molecule
0 1
C       1.2893429846     -0.0363815444     0.2365386086
C       0.0153870391     0.0020675027     -0.5883281574
H       1.3127685489     -0.9158054840     0.8831430631
H       1.3025719193     0.6801997732     1.0655496419
H       2.1350311461     0.1723842163     -0.4137088004
C       -1.2434215345     0.0430366941     0.2802253549
H       -0.0486019400     -0.8711473665     -1.2419011883
H       0.0298800880     0.8748113392     -1.2454923343
H       -1.2950943447     -0.8369426706     0.9246508053
H       -2.1725486987     -0.1543682439     -0.2623882824
H       -1.3253152688     1.0421464499     0.7027563078
$end
--------------------------------------------------------------
 ----------------------------------------------------------------
             Standard Nuclear Orientation (Angstroms)
    I     Atom           X                Y                Z
 ----------------------------------------------------------------
    1      C       1.2893429846    -0.0363815444     0.2365386086
    2      C       0.0153870391     0.0020675027    -0.5883281574
    3      H       1.3127685489    -0.9158054840     0.8831430631
    4      H       1.3025719193     0.6801997732     1.0655496419
    5      H       2.1350311461     0.1723842163    -0.4137088004
    6      C      -1.2434215345     0.0430366941     0.2802253549
    7      H      -0.0486019400    -0.8711473665    -1.2419011883
    8      H       0.0298800880     0.8748113392    -1.2454923343
    9      H      -1.2950943447    -0.8369426706     0.9246508053
   10      H      -2.1725486987    -0.1543682439    -0.2623882824
   11      H      -1.3253152688     1.0421464499     0.7027563078
 ----------------------------------------------------------------
 Nuclear Repulsion Energy =          82.75299623 hartrees
 There are       13 alpha and       13 beta electrons
 Requested basis set is 6-311+G(2df,2pd)
 There are 72 shells and 214 basis functions

 Total QAlloc Memory Limit   2000 MB
 Mega-Array Size       188 MB
 MEM_STATIC part       192 MB

                       Distance Matrix (Angstroms)
             C (  1)   C (  2)   H (  3)   H (  4)   H (  5)   C (  6)
   C (  2)  1.518172
   H (  3)  1.091802  2.165853
   H (  4)  1.095866  2.202730  1.606427
   H (  5)  1.087011  2.133633  1.882046  1.771742
   C (  6)  2.534386  1.529922  2.795889  2.739488  3.451408
   H (  7)  2.161646  1.092592  2.524111  3.091388  2.557951  2.140139
   H (  8)  2.147774  1.092592  3.063201  2.645474  2.370006  2.154289
   H (  9)  2.791722  2.170347  2.609385  3.011552  3.817815  1.091933
   H ( 10)  3.499649  2.217605  3.746927  3.812661  4.322604  1.093927
   H ( 11)  2.866534  2.132169  3.290228  2.677390  3.738580  1.087869
             H (  7)   H (  8)   H (  9)   H ( 10)
   H (  8)  1.747725
   H (  9)  2.499772  3.065156
   H ( 10)  2.446297  2.622288  1.626314
   H ( 11)  3.012040  2.379123  1.892386  1.755265
 
 A cutoff of  1.0D-09 yielded   2536 shell pairs
 There are     22568 function pairs (     27746 Cartesian)
 Smallest overlap matrix eigenvalue = 8.58E-05

 Scale SEOQF with 1.000000e-01/1.000000e-01/1.000000e-01

 Standard Electronic Orientation quadrupole field applied
 Nucleus-field energy     =     0.0000000006 hartrees
 Requested basis set is 6-31G(d)
 There are 28 shells and 58 basis functions
 A cutoff of  1.0D-09 yielded    402 shell pairs
 There are      1773 function pairs (      1968 Cartesian)
 Smallest overlap matrix eigenvalue = 6.78E-03
 Guess from superposition of atomic densities
 Warning:  Energy on first SCF cycle will be non-variational
 SAD guess density has 26.000000 electrons
 Long-range K will be added via erf
 Coulomb attenuation parameter = 0.2 bohr**(-1)
 A restricted hybrid HF-DFT SCF calculation will be
 performed using Relaxed Constraint Minimization + Pulay DIIS
 Exchange:     0.2220 Hartree-Fock + 1.0000 wB97X-D + LR-HF
 Correlation:  1.0000 wB97X-D
 Using Euler-Maclaurin-Lebedev (75,302) quadrature formula
 Dispersion:   Grimme D
 SCF converges when DIIS error is below 1.0E-04
 using 3 threads for integral computing
 -------------------------------------------------------
 OpenMP Integral computing Module                
 Release: version 1.0, May 2013, Q-Chem Inc. Pittsburgh 
 -------------------------------------------------------
 using 3 threads for integral computing
 -------------------------------------------------------
 OpenMP Integral computing Module                
 Release: version 1.0, May 2013, Q-Chem Inc. Pittsburgh 
 -------------------------------------------------------
 ---------------------------------------
  Cycle       Energy         DIIS Error
 ---------------------------------------
    1    -119.6255987886      1.01E-01
    2    -119.0512236722      9.11E-03
    3    -119.0728539284      2.49E-03
    4    -119.0871957928      1.70E-03
    5    -119.0879095088      2.70E-04 Done RCA. Switching to DIIS
    6    -119.0884353713      1.99E-04
    7    -119.0884526196      5.32E-06 Convergence criterion met
 ---------------------------------------
 SCF time:  CPU 19.72 s  wall 7.26 s
 SCF   energy in the small basis set = -119.08845262
 Total energy in the small basis set = -119.08845262
 ----------------------------------------------------
  Cycle       Energy    
 ----------------------------------------------------
    1     -16.5377939579     -1.65E+01
 Long-range K will be added via erf
 Coulomb attenuation parameter = 0.2 bohr**(-1)
 A restricted hybrid HF-DFT SCF calculation will be
 performed using Relaxed Constraint Minimization + Pulay DIIS
 Exchange:     0.2220 Hartree-Fock + 1.0000 wB97X-D + LR-HF
 Correlation:  1.0000 wB97X-D
 Using Euler-Maclaurin-Lebedev (75,302) quadrature formula
 Dispersion:   Grimme D
 SCF converges when DIIS error is below 1.0E-05
 Basis2 calculation detected. Using small basis as guess for larger.
 SCFMinFind is unable to tell whether the solution found is close.
 Resetting ReadMinima to 0 and attempting to follow guess.
 SCFMinFind following SCF Guess.
 using 3 threads for integral computing
 -------------------------------------------------------
 OpenMP Integral computing Module                
 Release: version 1.0, May 2013, Q-Chem Inc. Pittsburgh 
 -------------------------------------------------------
 using 3 threads for integral computing
 -------------------------------------------------------
 OpenMP Integral computing Module                
 Release: version 1.0, May 2013, Q-Chem Inc. Pittsburgh 
 -------------------------------------------------------
 ---------------------------------------
  Cycle       Energy         DIIS Error
 ---------------------------------------
    1    -119.1082480927      4.21E-03
    2    -119.1302652545      6.08E-04 Done RCA. Switching to DIIS
    3    -119.1311167894      4.29E-04
    4    -119.1321273733      4.59E-05
    5    -119.1321425388      1.02E-05
    6    -119.1321432630      3.95E-06 Convergence criterion met
 ---------------------------------------
 SCF time:  CPU 48.83 s  wall 16.31 s
 SCF   energy in the final basis set = -119.13214326
 Total energy in the final basis set = -119.13214326
 
 --------------------------------------------------------------
 
                    Orbital Energies (a.u.)
 --------------------------------------------------------------
 
 Alpha MOs
 -- Occupied --
-10.2740 -10.2655 -10.2651  -0.8818  -0.7787  -0.6793  -0.5504  -0.5282
 -0.4835  -0.4633  -0.4228  -0.4081  -0.3988
 -- Virtual --
  0.0691   0.0859   0.0906   0.0984   0.1232   0.1312   0.1327   0.1423
  0.1425   0.1689   0.1742   0.1915   0.2234   0.2351   0.2530   0.2577
  0.2804   0.2945   0.3075   0.3163   0.3326   0.3452   0.4632   0.4657
  0.4746   0.5062   0.5147   0.5226   0.5402   0.5596   0.5765   0.5979
  0.6154   0.6251   0.6408   0.6417   0.6569   0.6677   0.7104   0.7208
  0.7268   0.7677   0.8119   0.8582   0.8663   0.8835   0.8977   0.9495
  0.9906   1.0541   1.0682   1.1229   1.1427   1.1551   1.1996   1.2056
  1.2390   1.2480   1.2590   1.2764   1.2922   1.2979   1.3457   1.3588
  1.3786   1.3829   1.4257   1.4497   1.4588   1.4692   1.4889   1.4981
  1.5127   1.5573   1.6041   1.6193   1.6249   1.6460   1.6742   1.7096
  1.7538   2.3721   2.4522   2.4776   2.5052   2.5501   2.5761   2.6072
  2.6424   2.7084   2.8094   2.8198   2.8239   2.8690   2.9192   2.9317
  2.9476   2.9648   3.0070   3.0270   3.0350   3.0459   3.0822   3.1086
  3.1252   3.1460   3.1678   3.1872   3.2121   3.2213   3.2680   3.2990
  3.3081   3.3427   3.3475   3.3563   3.3756   3.4246   3.4534   3.4654
  3.4732   3.4872   3.5201   3.5480   3.5554   3.5718   3.5763   3.6059
  3.6180   3.6316   3.6665   3.6931   3.7563   3.7718   3.8366   3.8724
  3.8772   3.9122   3.9401   3.9511   3.9632   4.0061   4.0149   4.0384
  4.0573   4.1059   4.1176   4.1359   4.1501   4.1852   4.1989   4.2170
  4.2239   4.2584   4.3066   4.3509   4.3829   4.4037   4.4115   4.4335
  4.4794   4.5649   4.5891   4.6180   4.6539   4.7594   4.8027   4.8609
  4.8917   4.9297   4.9539   4.9847   4.9949   5.0281   5.0434   5.1122
  5.1792   5.2091   5.2183   5.2946   5.3185   5.3203   5.3360   5.4028
  5.4505   5.4761   5.5373   5.5643   5.5908   5.6323   5.6789   5.7759
  5.9618   6.3124   6.3433   6.4234   6.4449   6.4839  25.1893  25.4268
 25.4566
 --------------------------------------------------------------
 
 -----------------------------------------------------------------
                    Cartesian Multipole Moments
 -----------------------------------------------------------------
    Charge (ESU x 10^10)
                 0.0000
    Dipole Moment (Debye)
         X      -0.0809      Y      -0.0064      Z      -0.0709
       Tot       0.1077
    Quadrupole Moments (Debye-Ang)
        XX     -22.2268     XY       0.5144     YY     -21.3305
        XZ       0.0032     YZ      -0.2290     ZZ     -21.9010
    Octopole Moments (Debye-Ang^2)
       XXX      -1.5912    XXY       0.0754    XYY      -1.4254
       YYY       0.0561    XXZ      -1.2289    XYZ      -0.3305
       YYZ       0.3111    XZZ       0.9023    YZZ      -0.2207
       ZZZ      -0.3314
    Hexadecapole Moments (Debye-Ang^3)
      XXXX    -203.2721   XXXY       4.9596   XXYY     -41.9542
      XYYY       0.9515   YYYY     -44.2307   XXXZ      -0.9748
      XXYZ      -0.4144   XYYZ      -0.2899   YYYZ       0.0683
      XXZZ     -45.3791   XYZZ       0.9185   YYZZ     -17.4245
      XZZZ       1.8419   YZZZ       0.0004   ZZZZ     -72.1869
 -----------------------------------------------------------------
Archival summary:
1\1\centos77-c4\SP\ProcedureUnspecified\BasisUnspecified\38\shihchen\TueJul702:14:482020TueJul702:14:482020\0\\#,ProcedureUnspecified,BasisUnspecified,\\0,1\C\H,1,1.09259\H,1,1.09259,2,106.223\C,1,1.51817,2,110.727,3,-118.956,0\H,4,1.08701,1,108.842,2,72.0307,0\H,4,1.0918,1,111.111,2,-61.5464,0\H,4,1.09587,1,113.866,2,-166.779,0\C,1,1.52992,2,108.229,3,117.307,0\H,8,1.08787,1,107.881,2,-163.317,0\H,8,1.09193,1,110.634,2,62.9631,0\H,8,1.09393,1,114.356,2,-44.261,0\\\@

 Total job time:  26.45s(wall), 72.11s(cpu) 
 Tue Jul  7 02:14:48 2020

        *************************************************************
        *                                                           *
        *  Thank you very much for using Q-Chem.  Have a nice day.  *
        *                                                           *
        *************************************************************


