                  Welcome to Q-Chem
     A Quantum Leap Into The Future Of Chemistry


 Q-Chem 5.3 (devel), Q-Chem, Inc., Pleasanton, CA (2020)

 Yihan Shao,  Zhengting Gan,  E. Epifanovsky,  A. T. B. Gilbert,  M. Wormit,  
 J. Kussmann,  A. W. Lange,  A. Behn,  Jia Deng,  Xintian Feng,  D. Ghosh,  
 M. Goldey,  P. R. Horn,  L. D. Jacobson,  I. Kaliman,  T. Kus,  A. Landau,  
 Jie Liu,  E. I. Proynov,  R. M. Richard,  R. P. Steele,  E. J. Sundstrom,  
 H. L. Woodcock III,  P. M. Zimmerman,  D. Zuev,  B. Alam,  B. Albrecht,  
 E. Alguire,  S. A. Baeppler,  D. Barton,  Z. Benda,  Y. A. Bernard,  
 E. J. Berquist,  K. B. Bravaya,  H. Burton,  K. Carter-Fenk,  D. Casanova,  
 Chun-Min Chang,  Yunqing Chen,  A. Chien,  K. D. Closser,  M. P. Coons,  
 S. Coriani,  S. Dasgupta,  A. L. Dempwolff,  M. Diedenhofen,  Hainam Do,  
 R. G. Edgar,  Po-Tung Fang,  S. Faraji,  S. Fatehi,  Qingguo Feng,  
 J. Fosso-Tande,  J. Gayvert,  Qinghui Ge,  A. Ghysels,  G. Gidofalvi,  
 J. Gomes,  J. Gonthier,  A. Gunina,  D. Hait,  M. W. D. Hanson-Heine,  
 P. H. P. Harbach,  A. W. Hauser,  M. F. Herbst,  J. E. Herr,  
 E. G. Hohenstein,  Z. C. Holden,  Kerwin Hui,  B. C. Huynh,  T.-C. Jagau,  
 Hyunjun Ji,  B. Kaduk,  K. Khistyaev,  Jaehoon Kim,  P. Klunzinger,  K. Koh,  
 D. Kosenkov,  L. Koulias,  T. Kowalczyk,  C. M. Krauter,  A. Kunitsa,  
 Ka Un Lao,  A. Laurent,  K. V. Lawler,  Joonho Lee,  D. Lefrancois,  
 S. Lehtola,  D. S. Levine,  Yi-Pei Li,  You-Sheng Lin,  Fenglai Liu,  
 Kuan-Yu Liu,  E. Livshits,  M. Loipersberger,  A. Luenser,  P. Manohar,  
 E. Mansoor,  S. F. Manzer,  Shan-Ping Mao,  Yuezhi Mao,  N. Mardirossian,  
 A. V. Marenich,  T. Markovich,  L. A. Martinez-Martinez,  S. A. Maurer,  
 N. J. Mayhall,  S. C. McKenzie,  J.-M. Mewes,  P. Morgante,  A. F. Morrison,  
 J. W. Mullinax,  K. Nanda,  T. S. Nguyen-Beck,  R. Olivares-Amaya,  
 K. J. Oosterbaan,  J. A. Parkhill,  S. K. Paul,  F. Pavosevic,  Zheng Pei,  
 T. M. Perrine,  F. Plasser,  P. Pokhilko,  S. Prager,  A. Prociuk,  
 E. Ramos,  B. Rana,  D. R. Rehn,  F. Rob,  M. Scheurer,  M. Schneider,  
 N. Sergueev,  S. M. Sharada,  S. Sharma,  D. W. Small,  T. Stauch,  
 C. J. Stein,  T. Stein,  Yu-Chuan Su,  S. P. Veccham,  Zhen Tao,  
 A. J. W. Thom,  A. Tkatchenko,  T. Tsuchimochi,  N. M. Tubman,  L. Vogt,  
 M. L. Vidal,  O. Vydrov,  M. A. Watson,  J. Wenzel,  M. de Wergifosse,  
 T. A. Wesolowski,  A. White,  J. Witte,  A. Yamada,  Jun Yang,  K. Yao,  
 S. Yeganeh,  S. R. Yost,  Zhi-Qiang You,  A. Zech,  Igor Ying Zhang,  
 Xing Zhang,  Yan Zhao,  Ying Zhu,  B. R. Brooks,  G. K. L. Chan,  
 C. J. Cramer,  M. S. Gordon,  W. J. Hehre,  A. Klamt,  M. W. Schmidt,  
 C. D. Sherrill,  D. G. Truhlar,  A. Aspuru-Guzik,  R. Baer,  A. T. Bell,  
 N. A. Besley,  Jeng-Da Chai,  A. E. DePrince, III,  R. A. DiStasio Jr.,  
 A. Dreuw,  B. D. Dunietz,  T. R. Furlani,  Chao-Ping Hsu,  Yousung Jung,  
 Jing Kong,  D. S. Lambrecht,  WanZhen Liang,  C. Ochsenfeld,  
 V. A. Rassolov,  L. V. Slipchenko,  J. E. Subotnik,  T. Van Voorhis,  
 J. M. Herbert,  A. I. Krylov,  P. M. W. Gill,  M. Head-Gordon

 Contributors to earlier versions of Q-Chem not listed above: 
 R. D. Adamson,  B. Austin,  J. Baker,  G. J. O. Beran,  K. Brandhorst,  
 S. T. Brown,  E. F. C. Byrd,  A. K. Chakraborty,  C.-L. Cheng,  
 Siu Hung Chien,  D. M. Chipman,  D. L. Crittenden,  H. Dachsel,  
 R. J. Doerksen,  A. D. Dutoi,  L. Fusti-Molnar,  W. A. Goddard III,  
 A. Golubeva-Zadorozhnaya,  S. R. Gwaltney,  G. Hawkins,  A. Heyden,  
 S. Hirata,  G. Kedziora,  F. J. Keil,  C. Kelley,  Jihan Kim,  R. A. King,  
 R. Z. Khaliullin,  P. P. Korambath,  W. Kurlancheek,  A. M. Lee,  M. S. Lee,  
 S. V. Levchenko,  Ching Yeh Lin,  D. Liotard,  R. C. Lochan,  I. Lotan,  
 P. E. Maslen,  N. Nair,  D. P. O'Neill,  D. Neuhauser,  E. Neuscamman,  
 C. M. Oana,  R. Olson,  B. Peters,  R. Peverati,  P. A. Pieniazek,  
 Y. M. Rhee,  J. Ritchie,  M. A. Rohrdanz,  E. Rosta,  N. J. Russ,  
 H. F. Schaefer III,  N. E. Schultz,  N. Shenvi,  A. C. Simmonett,  A. Sodt,  
 D. Stuck,  K. S. Thanthiriwatte,  V. Vanovschi,  Tao Wang,  A. Warshel,  
 C. F. Williams,  Q. Wu,  X. Xu,  W. Zhang

 Please cite Q-Chem as follows:
 Y. Shao et al., Mol. Phys. 113, 184-215 (2015)
 DOI: 10.1080/00268976.2014.952696

 Q-Chem 5.3.0 for Intel X86 EM64T Linux

 Parts of Q-Chem use Armadillo 9.800.1 (Horizon Scraper).
 http://arma.sourceforge.net/

 Q-Chem begins on Tue Jul  7 01:13:53 2020  

Host: centos77-c4
0

     Scratch files written to /tmp/26964.centos77-h1/qchem98139//
Processing $rem in /opt/qchem-5.3.0-intel2020u1//config/preferences:
Processing $rem in /home/shihchengli/.qchemrc:

Checking the input file for inconsistencies... 	...done.

--------------------------------------------------------------
User input:
--------------------------------------------------------------
$rem
   JOBTYPE  sp
   EXCHANGE   omegaB97X-D
   BASIS   6-311+G(2df,2pd)
   UNRESTRICTED   False
   max_scf_cycles   250
   geom_opt_max_cycles   1500
   basis2 6-31G*
   scf_algorithm rca_diis
   SYM_IGNORE  TRUE
   print_input   true
   geom_opt_dmax   80
   pop_mulliken false
   XC_GRID 000075000302
$end

$molecule
0 1
C       1.3431249856     0.0081721843     0.2589558194
C       -0.0000000573     -0.0080744572     -0.6875389626
H       1.3177762178     -0.8782114011     0.8977848054
H       1.2895909761     0.8686051196     0.9300116499
H       2.3179143582     0.0269589956     -0.2314104574
C       -1.3431253409     0.0081718476     0.2589554058
H       0.0000006875     -0.8966215662     -1.3230376193
H       -0.0000000746     0.8536469045     -1.3590617941
H       -1.3177765065     -0.8782117336     0.8977843848
H       -2.3179151260     0.0269604171     -0.2314099313
H       -1.2895901806     0.8686043554     0.9300117183
$end
--------------------------------------------------------------
 ----------------------------------------------------------------
             Standard Nuclear Orientation (Angstroms)
    I     Atom           X                Y                Z
 ----------------------------------------------------------------
    1      C       1.3431249856     0.0081721843     0.2589558194
    2      C      -0.0000000573    -0.0080744572    -0.6875389626
    3      H       1.3177762178    -0.8782114011     0.8977848054
    4      H       1.2895909761     0.8686051196     0.9300116499
    5      H       2.3179143582     0.0269589956    -0.2314104574
    6      C      -1.3431253409     0.0081718476     0.2589554058
    7      H       0.0000006875    -0.8966215662    -1.3230376193
    8      H      -0.0000000746     0.8536469045    -1.3590617941
    9      H      -1.3177765065    -0.8782117336     0.8977843848
   10      H      -2.3179151260     0.0269604171    -0.2314099313
   11      H      -1.2895901806     0.8686043554     0.9300117183
 ----------------------------------------------------------------
 Nuclear Repulsion Energy =          79.41933389 hartrees
 There are       13 alpha and       13 beta electrons
 Requested basis set is 6-311+G(2df,2pd)
 There are 72 shells and 214 basis functions

 Total QAlloc Memory Limit   2000 MB
 Mega-Array Size       188 MB
 MEM_STATIC part       192 MB

                       Distance Matrix (Angstroms)
             C (  1)   C (  2)   H (  3)   H (  4)   H (  5)   C (  6)
   C (  2)  1.643198
   H (  3)  1.092896  2.237616
   H (  4)  1.092486  2.246794  1.747341
   H (  5)  1.091342  2.362627  1.759174  1.764857
   C (  6)  2.686250  1.643198  2.876487  2.849887  3.693782
   H (  7)  2.263921  1.092417  2.582426  3.139315  2.723486  2.263922
   H (  8)  2.266450  1.092477  3.135159  2.627380  2.706979  2.266449
   H (  9)  2.876487  2.237616  2.635553  3.138594  3.913140  1.092896
   H ( 10)  3.693782  2.362628  3.913140  3.882186  4.635829  1.091342
   H ( 11)  2.849886  2.246793  3.138593  2.579181  3.882185  1.092486
             H (  7)   H (  8)   H (  9)   H ( 10)
   H (  8)  1.750639
   H (  9)  2.582426  3.135159
   H ( 10)  2.723488  2.706980  1.759174
   H ( 11)  3.139315  2.627380  1.747341  1.764856
 
 A cutoff of  1.0D-09 yielded   2514 shell pairs
 There are     22434 function pairs (     27559 Cartesian)
 Smallest overlap matrix eigenvalue = 1.37E-04

 Scale SEOQF with 1.000000e-01/1.000000e-01/1.000000e-01

 Standard Electronic Orientation quadrupole field applied
 Nucleus-field energy     =     0.0000000006 hartrees
 Requested basis set is 6-31G(d)
 There are 28 shells and 58 basis functions
 A cutoff of  1.0D-09 yielded    402 shell pairs
 There are      1773 function pairs (      1968 Cartesian)
 Smallest overlap matrix eigenvalue = 9.45E-03
 Guess from superposition of atomic densities
 Warning:  Energy on first SCF cycle will be non-variational
 SAD guess density has 26.000000 electrons
 Long-range K will be added via erf
 Coulomb attenuation parameter = 0.2 bohr**(-1)
 A restricted hybrid HF-DFT SCF calculation will be
 performed using Relaxed Constraint Minimization + Pulay DIIS
 Exchange:     0.2220 Hartree-Fock + 1.0000 wB97X-D + LR-HF
 Correlation:  1.0000 wB97X-D
 Using Euler-Maclaurin-Lebedev (75,302) quadrature formula
 Dispersion:   Grimme D
 SCF converges when DIIS error is below 1.0E-04
 using 3 threads for integral computing
 -------------------------------------------------------
 OpenMP Integral computing Module                
 Release: version 1.0, May 2013, Q-Chem Inc. Pittsburgh 
 -------------------------------------------------------
 using 3 threads for integral computing
 -------------------------------------------------------
 OpenMP Integral computing Module                
 Release: version 1.0, May 2013, Q-Chem Inc. Pittsburgh 
 -------------------------------------------------------
 ---------------------------------------
  Cycle       Energy         DIIS Error
 ---------------------------------------
    1    -119.3235908371      9.14E-02
    2    -119.0603905955      7.93E-03
    3    -119.0773382813      2.48E-03
    4    -119.0873926772      1.69E-03
    5    -119.0881149818      3.08E-04 Done RCA. Switching to DIIS
    6    -119.0886093177      2.22E-04
    7    -119.0886306308      5.85E-06 Convergence criterion met
 ---------------------------------------
 SCF time:  CPU 20.96 s  wall 7.88 s
 SCF   energy in the small basis set = -119.08863063
 Total energy in the small basis set = -119.08863063
 ----------------------------------------------------
  Cycle       Energy    
 ----------------------------------------------------
    1     -16.4490471953     -1.64E+01
 Long-range K will be added via erf
 Coulomb attenuation parameter = 0.2 bohr**(-1)
 A restricted hybrid HF-DFT SCF calculation will be
 performed using Relaxed Constraint Minimization + Pulay DIIS
 Exchange:     0.2220 Hartree-Fock + 1.0000 wB97X-D + LR-HF
 Correlation:  1.0000 wB97X-D
 Using Euler-Maclaurin-Lebedev (75,302) quadrature formula
 Dispersion:   Grimme D
 SCF converges when DIIS error is below 1.0E-05
 Basis2 calculation detected. Using small basis as guess for larger.
 SCFMinFind is unable to tell whether the solution found is close.
 Resetting ReadMinima to 0 and attempting to follow guess.
 SCFMinFind following SCF Guess.
 using 3 threads for integral computing
 -------------------------------------------------------
 OpenMP Integral computing Module                
 Release: version 1.0, May 2013, Q-Chem Inc. Pittsburgh 
 -------------------------------------------------------
 using 3 threads for integral computing
 -------------------------------------------------------
 OpenMP Integral computing Module                
 Release: version 1.0, May 2013, Q-Chem Inc. Pittsburgh 
 -------------------------------------------------------
 ---------------------------------------
  Cycle       Energy         DIIS Error
 ---------------------------------------
    1    -119.1070942024      4.21E-03
    2    -119.1292154590      5.86E-04 Done RCA. Switching to DIIS
    3    -119.1300848593      3.96E-04
    4    -119.1309553329      4.30E-05
    5    -119.1309689372      9.58E-06 Convergence criterion met
 ---------------------------------------
 SCF time:  CPU 42.70 s  wall 14.48 s
 SCF   energy in the final basis set = -119.13096894
 Total energy in the final basis set = -119.13096894
 
 --------------------------------------------------------------
 
                    Orbital Energies (a.u.)
 --------------------------------------------------------------
 
 Alpha MOs
 -- Occupied --
-10.2936 -10.2751 -10.2751  -0.8530  -0.7706  -0.6885  -0.5301  -0.5144
 -0.4676  -0.4615  -0.4192  -0.4180  -0.4131
 -- Virtual --
  0.0699   0.0833   0.0896   0.1022   0.1239   0.1300   0.1333   0.1426
  0.1449   0.1688   0.1711   0.1918   0.2244   0.2384   0.2464   0.2645
  0.2693   0.2778   0.2822   0.2885   0.3312   0.3358   0.4512   0.4604
  0.4716   0.5083   0.5193   0.5285   0.5644   0.5655   0.5837   0.5886
  0.5899   0.5913   0.6290   0.6311   0.6382   0.6469   0.7069   0.7148
  0.7245   0.7573   0.8128   0.8144   0.8578   0.8805   0.8919   0.9496
  1.0051   1.0292   1.0400   1.0868   1.1251   1.1677   1.1899   1.2096
  1.2140   1.2172   1.2297   1.2609   1.2644   1.2940   1.3030   1.3113
  1.3255   1.3817   1.4045   1.4198   1.4511   1.4669   1.4731   1.4769
  1.5104   1.5409   1.5985   1.6271   1.6298   1.6551   1.6770   1.6836
  1.7603   2.3667   2.3980   2.4674   2.4692   2.5045   2.5387   2.5489
  2.5760   2.6611   2.7375   2.7719   2.8172   2.8697   2.8776   2.9209
  2.9317   2.9319   3.0009   3.0287   3.0515   3.0738   3.0875   3.0938
  3.1008   3.1404   3.1646   3.1717   3.1804   3.2215   3.2787   3.2876
  3.3146   3.3376   3.3399   3.3441   3.3494   3.3626   3.3670   3.3764
  3.3996   3.4059   3.4556   3.4993   3.5564   3.5701   3.5769   3.6121
  3.6157   3.6311   3.6623   3.7105   3.7236   3.7401   3.7519   3.8149
  3.8330   3.8911   3.9046   3.9073   3.9249   3.9578   4.0098   4.0272
  4.0307   4.0603   4.0957   4.1050   4.1288   4.1316   4.1928   4.1963
  4.1981   4.2244   4.2375   4.2906   4.3085   4.3185   4.3589   4.3856
  4.4699   4.4914   4.5162   4.5187   4.5816   4.7518   4.8243   4.8430
  4.9037   4.9047   4.9332   4.9503   5.0137   5.0250   5.0294   5.0690
  5.0926   5.1658   5.2104   5.2323   5.2369   5.2586   5.2746   5.3099
  5.3194   5.3401   5.3692   5.4104   5.4232   5.4797   5.5162   5.5666
  5.7437   6.3614   6.3842   6.3845   6.4114   6.4368  25.0465  25.3578
 25.3888
 --------------------------------------------------------------
 
 -----------------------------------------------------------------
                    Cartesian Multipole Moments
 -----------------------------------------------------------------
    Charge (ESU x 10^10)
                 0.0000
    Dipole Moment (Debye)
         X       0.0000      Y      -0.0114      Z      -0.0009
       Tot       0.0114
    Quadrupole Moments (Debye-Ang)
        XX     -21.5916     XY      -0.0000     YY     -21.6016
        XZ      -0.0000     YZ       0.0237     ZZ     -21.9291
    Octopole Moments (Debye-Ang^2)
       XXX      -0.0000    XXY      -0.0029    XYY       0.0000
       YYY      -0.2325    XXZ      -0.6487    XYZ       0.0000
       YYZ       0.8540    XZZ       0.0000    YZZ       0.0499
       ZZZ       0.8336
    Hexadecapole Moments (Debye-Ang^3)
      XXXX    -212.0719   XXXY      -0.0000   XXYY     -45.8858
      XYYY      -0.0000   YYYY     -44.2426   XXXZ      -0.0000
      XXYZ      -0.1573   XYYZ      -0.0000   YYYZ      -0.2244
      XXZZ     -50.6898   XYZZ      -0.0000   YYZZ     -17.7220
      XZZZ      -0.0000   YZZZ      -0.2215   ZZZZ     -78.0002
 -----------------------------------------------------------------
Archival summary:
1\1\centos77-c4\SP\ProcedureUnspecified\BasisUnspecified\38\shihchen\TueJul701:14:182020TueJul701:14:182020\0\\#,ProcedureUnspecified,BasisUnspecified,\\0,1\C\H,1,1.09242\H,1,1.09248,2,106.499\C,1,1.6432,2,110.067,3,119.516,0\H,4,1.09134,1,118.128,2,-60.4007,0\H,4,1.09249,1,108.756,2,176.354,0\H,4,1.0929,1,108.042,2,61.5175,0\C,1,1.6432,2,110.067,3,-119.516,0\H,8,1.09134,1,118.128,2,60.4005,0\H,8,1.09249,1,108.756,2,-176.355,0\H,8,1.0929,1,108.042,2,-61.5175,0\\\@

 Total job time:  25.24s(wall), 67.28s(cpu) 
 Tue Jul  7 01:14:18 2020

        *************************************************************
        *                                                           *
        *  Thank you very much for using Q-Chem.  Have a nice day.  *
        *                                                           *
        *************************************************************


