                  Welcome to Q-Chem
     A Quantum Leap Into The Future Of Chemistry


 Q-Chem 5.2 (devel), Q-Chem, Inc., Pleasanton, CA (2019)

 Yihan Shao,  Zhengting Gan,  E. Epifanovsky,  A. T. B. Gilbert,  M. Wormit,  
 J. Kussmann,  A. W. Lange,  A. Behn,  Jia Deng,  Xintian Feng,  D. Ghosh,  
 M. Goldey,  P. R. Horn,  L. D. Jacobson,  I. Kaliman,  T. Kus,  A. Landau,  
 Jie Liu,  E. I. Proynov,  R. M. Richard,  R. P. Steele,  E. J. Sundstrom,  
 H. L. Woodcock III,  P. M. Zimmerman,  D. Zuev,  B. Alam,  B. Albrecht,  
 E. Alguire,  S. A. Baeppler,  D. Barton,  Z. Benda,  Y. A. Bernard,  
 E. J. Berquist,  K. B. Bravaya,  H. Burton,  K. Carter-Fenk,  D. Casanova,  
 Chun-Min Chang,  Yunqing Chen,  A. Chien,  K. D. Closser,  M. P. Coons,  
 S. Coriani,  S. Dasgupta,  A. L. Dempwolff,  M. Diedenhofen,  Hainam Do,  
 R. G. Edgar,  Po-Tung Fang,  S. Faraji,  S. Fatehi,  Qingguo Feng,  
 J. Fosso-Tande,  J. Gayvert,  Qinghui Ge,  A. Ghysels,  G. Gidofalvi,  
 J. Gomes,  J. Gonthier,  A. Gunina,  D. Hait,  M. W. D. Hanson-Heine,  
 P. H. P. Harbach,  A. W. Hauser,  M. F. Herbst,  J. E. Herr,  
 E. G. Hohenstein,  Z. C. Holden,  Kerwin Hui,  B. C. Huynh,  T.-C. Jagau,  
 Hyunjun Ji,  B. Kaduk,  K. Khistyaev,  Jaehoon Kim,  P. Klunzinger,  K. Koh,  
 D. Kosenkov,  L. Koulias,  T. Kowalczyk,  C. M. Krauter,  A. Kunitsa,  
 Ka Un Lao,  A. Laurent,  K. V. Lawler,  Joonho Lee,  D. Lefrancois,  
 S. Lehtola,  D. S. Levine,  Yi-Pei Li,  You-Sheng Lin,  Fenglai Liu,  
 Kuan-Yu Liu,  E. Livshits,  M. Loipersberger,  A. Luenser,  P. Manohar,  
 E. Mansoor,  S. F. Manzer,  Shan-Ping Mao,  Yuezhi Mao,  N. Mardirossian,  
 A. V. Marenich,  T. Markovich,  L. A. Martinez-Martinez,  S. A. Maurer,  
 N. J. Mayhall,  S. C. McKenzie,  J.-M. Mewes,  P. Morgante,  A. F. Morrison,  
 J. W. Mullinax,  K. Nanda,  T. S. Nguyen-Beck,  R. Olivares-Amaya,  
 J. A. Parkhill,  S. K. Paul,  Zheng Pei,  T. M. Perrine,  F. Plasser,  
 P. Pokhilko,  S. Prager,  A. Prociuk,  E. Ramos,  B. Rana,  D. R. Rehn,  
 F. Rob,  M. Scheurer,  M. Schneider,  N. Sergueev,  S. M. Sharada,  
 S. Sharma,  D. W. Small,  T. Stauch,  C. J. Stein,  T. Stein,  Yu-Chuan Su,  
 S. P. Veccham,  A. J. W. Thom,  A. Tkatchenko,  T. Tsuchimochi,  
 N. M. Tubman,  L. Vogt,  M. L. Vidal,  O. Vydrov,  M. A. Watson,  J. Wenzel,  
 M. de Wergifosse,  T. A. Wesolowski,  A. White,  J. Witte,  A. Yamada,  
 Jun Yang,  K. Yao,  S. Yeganeh,  S. R. Yost,  Zhi-Qiang You,  A. Zech,  
 Igor Ying Zhang,  Xing Zhang,  Yan Zhao,  Ying Zhu,  B. R. Brooks,  
 G. K. L. Chan,  C. J. Cramer,  M. S. Gordon,  W. J. Hehre,  A. Klamt,  
 M. W. Schmidt,  C. D. Sherrill,  D. G. Truhlar,  A. Aspuru-Guzik,  R. Baer,  
 A. T. Bell,  N. A. Besley,  Jeng-Da Chai,  A. E. DePrince, III,  
 R. A. DiStasio Jr.,  A. Dreuw,  B. D. Dunietz,  T. R. Furlani,  
 Chao-Ping Hsu,  Yousung Jung,  Jing Kong,  D. S. Lambrecht,  WanZhen Liang,  
 C. Ochsenfeld,  V. A. Rassolov,  L. V. Slipchenko,  J. E. Subotnik,  
 T. Van Voorhis,  J. M. Herbert,  A. I. Krylov,  P. M. W. Gill,  M. Head-Gordon

 Contributors to earlier versions of Q-Chem not listed above: 
 R. D. Adamson,  B. Austin,  J. Baker,  G. J. O. Beran,  K. Brandhorst,  
 S. T. Brown,  E. F. C. Byrd,  A. K. Chakraborty,  C.-L. Cheng,  
 Siu Hung Chien,  D. M. Chipman,  D. L. Crittenden,  H. Dachsel,  
 R. J. Doerksen,  A. D. Dutoi,  L. Fusti-Molnar,  W. A. Goddard III,  
 A. Golubeva-Zadorozhnaya,  S. R. Gwaltney,  G. Hawkins,  A. Heyden,  
 S. Hirata,  G. Kedziora,  F. J. Keil,  C. Kelley,  Jihan Kim,  R. A. King,  
 R. Z. Khaliullin,  P. P. Korambath,  W. Kurlancheek,  A. M. Lee,  M. S. Lee,  
 S. V. Levchenko,  Ching Yeh Lin,  D. Liotard,  R. C. Lochan,  I. Lotan,  
 P. E. Maslen,  N. Nair,  D. P. O'Neill,  D. Neuhauser,  E. Neuscamman,  
 C. M. Oana,  R. Olson,  B. Peters,  R. Peverati,  P. A. Pieniazek,  
 Y. M. Rhee,  J. Ritchie,  M. A. Rohrdanz,  E. Rosta,  N. J. Russ,  
 H. F. Schaefer III,  N. E. Schultz,  N. Shenvi,  A. C. Simmonett,  A. Sodt,  
 D. Stuck,  K. S. Thanthiriwatte,  V. Vanovschi,  Tao Wang,  A. Warshel,  
 C. F. Williams,  Q. Wu,  X. Xu,  W. Zhang

 Please cite Q-Chem as follows:
 Y. Shao et al., Mol. Phys. 113, 184-215 (2015)
 DOI: 10.1080/00268976.2014.952696

 Q-Chem 5.2.2 for Intel X86 EM64T Linux

 Parts of Q-Chem use Armadillo 9.800.1 (Horizon Scraper).
 http://arma.sourceforge.net/

 Q-Chem begins on Sun Apr 12 05:55:31 2020  

Host: cn0821
0

     Scratch files written to /tmp/ypli/6721342.srvc1/qchem173184//
Warning:  Did not find "$end" marker in "$molecule" section

Checking the input file for inconsistencies... 	...done.

--------------------------------------------------------------
User input:
--------------------------------------------------------------
$rem
   JOBTYPE  sp
   EXCHANGE   omegaB97X-D
   BASIS   6-311+G(2df,2pd)
   max_scf_cycles   250
   geom_opt_max_cycles   1500
   basis2 6-31G*
   scf_algorithm rca_diis
   SYM_IGNORE  TRUE
   print_input   true
   geom_opt_dmax   80
   pop_mulliken false
   XC_GRID 000075000302
$end

$molecule
0 1
C       1.1871643891     -0.0035484615     0.2619705814
C       0.0000000415     -0.0022769536     -0.4892775708
H       1.3055886808     -0.8863112286     0.8917611076
H       1.2972405338     0.8863523737     0.8838897213
H       1.9896355464     0.0034962800     -0.4750505602
C       -1.1871641047     -0.0035482203     0.2619709837
H       -0.0000006424     -0.8711476198     -1.1520012638
H       -0.0000001426     0.8734465672     -1.1428180132
H       -1.3055886855     -0.8863113598     0.8917608935
H       -1.9896345953     0.0034967131     -0.4750509165
H       -1.2972410815     0.8863525756     0.8838900559
--------------------------------------------------------------
 ----------------------------------------------------------------
             Standard Nuclear Orientation (Angstroms)
    I     Atom           X                Y                Z
 ----------------------------------------------------------------
    1      C       1.1871643891    -0.0035484615     0.2619705814
    2      C       0.0000000415    -0.0022769536    -0.4892775708
    3      H       1.3055886808    -0.8863112286     0.8917611076
    4      H       1.2972405338     0.8863523737     0.8838897213
    5      H       1.9896355464     0.0034962800    -0.4750505602
    6      C      -1.1871641047    -0.0035482203     0.2619709837
    7      H      -0.0000006424    -0.8711476198    -1.1520012638
    8      H      -0.0000001426     0.8734465672    -1.1428180132
    9      H      -1.3055886855    -0.8863113598     0.8917608935
   10      H      -1.9896345953     0.0034967131    -0.4750509165
   11      H      -1.2972410815     0.8863525756     0.8838900559
 ----------------------------------------------------------------
 Nuclear Repulsion Energy =          86.60367114 hartrees
 There are       13 alpha and       13 beta electrons
 Requested basis set is 6-311+G(2df,2pd)
 There are 72 shells and 214 basis functions

 Total QAlloc Memory Limit   2000 MB
 Mega-Array Size       188 MB
 MEM_STATIC part       192 MB

                       Distance Matrix (Angstroms)
             C (  1)   C (  2)   H (  3)   H (  4)   H (  5)   C (  6)
   C (  2)  1.404897
   H (  3)  1.090839  2.096031
   H (  4)  1.091249  2.087602  1.772701
   H (  5)  1.089592  1.989695  1.768573  1.762261
   C (  6)  2.374328  1.404897  2.718404  2.711268  3.261182
   H (  7)  2.039952  1.092767  2.425234  2.986050  2.276382  2.039952
   H (  8)  2.037624  1.092706  2.990121  2.406355  2.271866  2.037624
   H (  9)  2.718405  2.096031  2.611177  3.149146  3.676742  1.090839
   H ( 10)  3.261181  1.989694  3.676742  3.664656  3.979270  1.089592
   H ( 11)  2.711269  2.087603  3.149146  2.594482  3.664657  1.091249
             H (  7)   H (  8)   H (  9)   H ( 10)
   H (  8)  1.744618
   H (  9)  2.425233  2.990121
   H ( 10)  2.276380  2.271865  1.768573
   H ( 11)  2.986050  2.406355  1.772701  1.762261
 
 A cutoff of  1.0D-09 yielded   2550 shell pairs
 There are     22712 function pairs (     27939 Cartesian)
 Smallest overlap matrix eigenvalue = 5.33E-05

 Scale SEOQF with 1.000000e-01/1.000000e-01/1.000000e-01

 Standard Electronic Orientation quadrupole field applied
 Nucleus-field energy     =     0.0000000006 hartrees
 Requested basis set is 6-31G(d)
 There are 28 shells and 58 basis functions
 A cutoff of  1.0D-09 yielded    403 shell pairs
 There are      1774 function pairs (      1969 Cartesian)
 Smallest overlap matrix eigenvalue = 4.49E-03
 Guess from superposition of atomic densities
 Warning:  Energy on first SCF cycle will be non-variational
 SAD guess density has 26.000000 electrons
 Long-range K will be added via erf
 Coulomb attenuation parameter = 0.2 bohr**(-1)
 A restricted hybrid HF-DFT SCF calculation will be
 performed using Relaxed Constraint Minimization + Pulay DIIS
 Exchange:     0.2220 Hartree-Fock + 1.0000 wB97X-D + LR-HF
 Correlation:  1.0000 wB97X-D
 Using Euler-Maclaurin-Lebedev (75,302) quadrature formula
 Dispersion:   Grimme D
 SCF converges when DIIS error is below 1.0E-04
 using 3 threads for integral computing
 -------------------------------------------------------
 OpenMP Integral computing Module                
 Release: version 1.0, May 2013, Q-Chem Inc. Pittsburgh 
 -------------------------------------------------------
 using 3 threads for integral computing
 -------------------------------------------------------
 OpenMP Integral computing Module                
 Release: version 1.0, May 2013, Q-Chem Inc. Pittsburgh 
 -------------------------------------------------------
 ---------------------------------------
  Cycle       Energy         DIIS Error
 ---------------------------------------
    1    -120.0012954029      1.13E-01
    2    -119.0282739335      1.07E-02
    3    -119.0566082602      2.39E-03
    4    -119.0777298517      1.62E-03
    5    -119.0783432729      2.19E-04 Done RCA. Switching to DIIS
    6    -119.0788297123      1.60E-04
    7    -119.0788406966      4.85E-06 Convergence criterion met
 ---------------------------------------
 SCF time:  CPU 32.95 s  wall 11.37 s
 SCF   energy in the small basis set = -119.07884070
 Total energy in the small basis set = -119.07884070
 ----------------------------------------------------
  Cycle       Energy    
 ----------------------------------------------------
    1     -16.6521380423     -1.67E+01
 Long-range K will be added via erf
 Coulomb attenuation parameter = 0.2 bohr**(-1)
 A restricted hybrid HF-DFT SCF calculation will be
 performed using Relaxed Constraint Minimization + Pulay DIIS
 Exchange:     0.2220 Hartree-Fock + 1.0000 wB97X-D + LR-HF
 Correlation:  1.0000 wB97X-D
 Using Euler-Maclaurin-Lebedev (75,302) quadrature formula
 Dispersion:   Grimme D
 SCF converges when DIIS error is below 1.0E-05
 Basis2 calculation detected. Using small basis as guess for larger.
 SCFMinFind is unable to tell whether the solution found is close.
 Resetting ReadMinima to 0 and attempting to follow guess.
 SCFMinFind following SCF Guess.
 using 3 threads for integral computing
 -------------------------------------------------------
 OpenMP Integral computing Module                
 Release: version 1.0, May 2013, Q-Chem Inc. Pittsburgh 
 -------------------------------------------------------
 using 3 threads for integral computing
 -------------------------------------------------------
 OpenMP Integral computing Module                
 Release: version 1.0, May 2013, Q-Chem Inc. Pittsburgh 
 -------------------------------------------------------
 ---------------------------------------
  Cycle       Energy         DIIS Error
 ---------------------------------------
    1    -119.0999178094      4.21E-03
    2    -119.1220096320      6.14E-04 Done RCA. Switching to DIIS
    3    -119.1228031839      4.51E-04
    4    -119.1238978027      4.83E-05
    5    -119.1239139699      1.05E-05
    6    -119.1239147472      3.14E-06 Convergence criterion met
 ---------------------------------------
 SCF time:  CPU 100.67 s  wall 34.07 s
 SCF   energy in the final basis set = -119.12391475
 Total energy in the final basis set = -119.12391475
 
 --------------------------------------------------------------
 
                    Orbital Energies (a.u.)
 --------------------------------------------------------------
 
 Alpha MOs
 -- Occupied --
-10.2541 -10.2536 -10.2533  -0.9174  -0.7888  -0.6673  -0.5666  -0.5396
 -0.5050  -0.4656  -0.4176  -0.4109  -0.3944
 -- Virtual --
  0.0676   0.0882   0.0906   0.0950   0.1255   0.1300   0.1335   0.1402
  0.1432   0.1717   0.1739   0.1916   0.2351   0.2390   0.2430   0.2654
  0.2822   0.2856   0.3210   0.3223   0.3647   0.3836   0.4619   0.4691
  0.4746   0.5027   0.5043   0.5199   0.5276   0.5576   0.5764   0.5775
  0.6156   0.6554   0.6679   0.6872   0.6921   0.7131   0.7184   0.7296
  0.7465   0.7876   0.8240   0.8559   0.8694   0.8748   0.9391   0.9724
  1.0082   1.0544   1.0658   1.1495   1.1905   1.1988   1.2045   1.2187
  1.2604   1.2715   1.2885   1.3024   1.3028   1.3055   1.3754   1.3854
  1.4003   1.4402   1.4437   1.4582   1.4651   1.4676   1.4769   1.5159
  1.5245   1.5650   1.6257   1.6285   1.6374   1.6498   1.6938   1.6991
  1.7086   2.3969   2.5063   2.5409   2.5703   2.5875   2.6260   2.6393
  2.6963   2.7303   2.8263   2.8705   2.9070   2.9276   2.9433   2.9714
  2.9723   2.9788   3.0106   3.0119   3.0490   3.0579   3.0821   3.1251
  3.1340   3.1427   3.1735   3.2055   3.2081   3.2726   3.2833   3.2998
  3.3163   3.3247   3.3350   3.3749   3.3991   3.4017   3.4446   3.4706
  3.4908   3.5330   3.5663   3.5734   3.5864   3.6065   3.6400   3.6443
  3.6518   3.6844   3.7340   3.7747   3.8535   3.8840   3.8913   3.9456
  3.9564   3.9617   3.9937   4.0026   4.0339   4.0478   4.0628   4.1123
  4.1346   4.1692   4.1735   4.1793   4.2134   4.2227   4.2266   4.2385
  4.2464   4.3114   4.3296   4.4086   4.4290   4.5056   4.5058   4.5575
  4.6078   4.6219   4.6987   4.7121   4.7633   4.8041   4.8559   4.8754
  4.9403   4.9586   4.9668   5.0065   5.0550   5.0754   5.0849   5.2083
  5.2534   5.3184   5.3476   5.3642   5.3815   5.3886   5.4229   5.4361
  5.4462   5.5324   5.5582   5.6325   5.6424   5.7344   5.7689   6.0754
  6.2047   6.4019   6.4041   6.4110   6.4570   6.5025  25.2694  25.5740
 25.6912
 --------------------------------------------------------------
 
 -----------------------------------------------------------------
                    Cartesian Multipole Moments
 -----------------------------------------------------------------
    Charge (ESU x 10^10)
                -0.0000
    Dipole Moment (Debye)
         X      -0.0000      Y       0.0053      Z      -0.1658
       Tot       0.1659
    Quadrupole Moments (Debye-Ang)
        XX     -22.7943     XY      -0.0000     YY     -21.1215
        XZ       0.0000     YZ      -0.0266     ZZ     -21.6899
    Octopole Moments (Debye-Ang^2)
       XXX       0.0000    XXY       0.0430    XYY      -0.0000
       YYY       0.1321    XXZ      -1.9398    XYZ      -0.0000
       YYZ       0.0634    XZZ      -0.0000    YZZ       0.0071
       ZZZ      -1.8478
    Hexadecapole Moments (Debye-Ang^3)
      XXXX    -190.7492   XXXY       0.0000   XXYY     -38.5588
      XYYY       0.0000   YYYY     -44.0026   XXXZ      -0.0000
      XXYZ      -0.0749   XYYZ       0.0000   YYYZ       0.0023
      XXZZ     -40.3896   XYZZ       0.0000   YYZZ     -16.6308
      XZZZ       0.0000   YZZZ      -0.0192   ZZZZ     -67.1844
 -----------------------------------------------------------------
Archival summary:
1\1\cn0821\SP\ProcedureUnspecified\BasisUnspecified\38\r0852400\SunApr1205:56:212020SunApr1205:56:212020\0\\#,ProcedureUnspecified,BasisUnspecified,\\0,1\C\H,1,1.09271\H,1,1.09277,2,105.932\C,1,1.4049,2,108.696,3,116.863,0\H,4,1.08959,1,105.108,2,-57.3563,0\H,4,1.09084,1,113.653,2,-175.739,0\H,4,1.09125,1,112.908,2,59.9087,0\C,1,1.4049,2,108.696,3,-116.863,0\H,8,1.08959,1,105.108,2,57.3563,0\H,8,1.09084,1,113.653,2,175.739,0\H,8,1.09125,1,112.908,2,-59.9087,0\\\@

 Total job time:  49.94s(wall), 139.04s(cpu) 
 Sun Apr 12 05:56:21 2020

        *************************************************************
        *                                                           *
        *  Thank you very much for using Q-Chem.  Have a nice day.  *
        *                                                           *
        *************************************************************


