                  Welcome to Q-Chem
     A Quantum Leap Into The Future Of Chemistry


 Q-Chem 5.3 (devel), Q-Chem, Inc., Pleasanton, CA (2020)

 Yihan Shao,  Zhengting Gan,  E. Epifanovsky,  A. T. B. Gilbert,  M. Wormit,  
 J. Kussmann,  A. W. Lange,  A. Behn,  Jia Deng,  Xintian Feng,  D. Ghosh,  
 M. Goldey,  P. R. Horn,  L. D. Jacobson,  I. Kaliman,  T. Kus,  A. Landau,  
 Jie Liu,  E. I. Proynov,  R. M. Richard,  R. P. Steele,  E. J. Sundstrom,  
 H. L. Woodcock III,  P. M. Zimmerman,  D. Zuev,  B. Alam,  B. Albrecht,  
 E. Alguire,  S. A. Baeppler,  D. Barton,  Z. Benda,  Y. A. Bernard,  
 E. J. Berquist,  K. B. Bravaya,  H. Burton,  K. Carter-Fenk,  D. Casanova,  
 Chun-Min Chang,  Yunqing Chen,  A. Chien,  K. D. Closser,  M. P. Coons,  
 S. Coriani,  S. Dasgupta,  A. L. Dempwolff,  M. Diedenhofen,  Hainam Do,  
 R. G. Edgar,  Po-Tung Fang,  S. Faraji,  S. Fatehi,  Qingguo Feng,  
 J. Fosso-Tande,  J. Gayvert,  Qinghui Ge,  A. Ghysels,  G. Gidofalvi,  
 J. Gomes,  J. Gonthier,  A. Gunina,  D. Hait,  M. W. D. Hanson-Heine,  
 P. H. P. Harbach,  A. W. Hauser,  M. F. Herbst,  J. E. Herr,  
 E. G. Hohenstein,  Z. C. Holden,  Kerwin Hui,  B. C. Huynh,  T.-C. Jagau,  
 Hyunjun Ji,  B. Kaduk,  K. Khistyaev,  Jaehoon Kim,  P. Klunzinger,  K. Koh,  
 D. Kosenkov,  L. Koulias,  T. Kowalczyk,  C. M. Krauter,  A. Kunitsa,  
 Ka Un Lao,  A. Laurent,  K. V. Lawler,  Joonho Lee,  D. Lefrancois,  
 S. Lehtola,  D. S. Levine,  Yi-Pei Li,  You-Sheng Lin,  Fenglai Liu,  
 Kuan-Yu Liu,  E. Livshits,  M. Loipersberger,  A. Luenser,  P. Manohar,  
 E. Mansoor,  S. F. Manzer,  Shan-Ping Mao,  Yuezhi Mao,  N. Mardirossian,  
 A. V. Marenich,  T. Markovich,  L. A. Martinez-Martinez,  S. A. Maurer,  
 N. J. Mayhall,  S. C. McKenzie,  J.-M. Mewes,  P. Morgante,  A. F. Morrison,  
 J. W. Mullinax,  K. Nanda,  T. S. Nguyen-Beck,  R. Olivares-Amaya,  
 K. J. Oosterbaan,  J. A. Parkhill,  S. K. Paul,  F. Pavosevic,  Zheng Pei,  
 T. M. Perrine,  F. Plasser,  P. Pokhilko,  S. Prager,  A. Prociuk,  
 E. Ramos,  B. Rana,  D. R. Rehn,  F. Rob,  M. Scheurer,  M. Schneider,  
 N. Sergueev,  S. M. Sharada,  S. Sharma,  D. W. Small,  T. Stauch,  
 C. J. Stein,  T. Stein,  Yu-Chuan Su,  S. P. Veccham,  Zhen Tao,  
 A. J. W. Thom,  A. Tkatchenko,  T. Tsuchimochi,  N. M. Tubman,  L. Vogt,  
 M. L. Vidal,  O. Vydrov,  M. A. Watson,  J. Wenzel,  M. de Wergifosse,  
 T. A. Wesolowski,  A. White,  J. Witte,  A. Yamada,  Jun Yang,  K. Yao,  
 S. Yeganeh,  S. R. Yost,  Zhi-Qiang You,  A. Zech,  Igor Ying Zhang,  
 Xing Zhang,  Yan Zhao,  Ying Zhu,  B. R. Brooks,  G. K. L. Chan,  
 C. J. Cramer,  M. S. Gordon,  W. J. Hehre,  A. Klamt,  M. W. Schmidt,  
 C. D. Sherrill,  D. G. Truhlar,  A. Aspuru-Guzik,  R. Baer,  A. T. Bell,  
 N. A. Besley,  Jeng-Da Chai,  A. E. DePrince, III,  R. A. DiStasio Jr.,  
 A. Dreuw,  B. D. Dunietz,  T. R. Furlani,  Chao-Ping Hsu,  Yousung Jung,  
 Jing Kong,  D. S. Lambrecht,  WanZhen Liang,  C. Ochsenfeld,  
 V. A. Rassolov,  L. V. Slipchenko,  J. E. Subotnik,  T. Van Voorhis,  
 J. M. Herbert,  A. I. Krylov,  P. M. W. Gill,  M. Head-Gordon

 Contributors to earlier versions of Q-Chem not listed above: 
 R. D. Adamson,  B. Austin,  J. Baker,  G. J. O. Beran,  K. Brandhorst,  
 S. T. Brown,  E. F. C. Byrd,  A. K. Chakraborty,  C.-L. Cheng,  
 Siu Hung Chien,  D. M. Chipman,  D. L. Crittenden,  H. Dachsel,  
 R. J. Doerksen,  A. D. Dutoi,  L. Fusti-Molnar,  W. A. Goddard III,  
 A. Golubeva-Zadorozhnaya,  S. R. Gwaltney,  G. Hawkins,  A. Heyden,  
 S. Hirata,  G. Kedziora,  F. J. Keil,  C. Kelley,  Jihan Kim,  R. A. King,  
 R. Z. Khaliullin,  P. P. Korambath,  W. Kurlancheek,  A. M. Lee,  M. S. Lee,  
 S. V. Levchenko,  Ching Yeh Lin,  D. Liotard,  R. C. Lochan,  I. Lotan,  
 P. E. Maslen,  N. Nair,  D. P. O'Neill,  D. Neuhauser,  E. Neuscamman,  
 C. M. Oana,  R. Olson,  B. Peters,  R. Peverati,  P. A. Pieniazek,  
 Y. M. Rhee,  J. Ritchie,  M. A. Rohrdanz,  E. Rosta,  N. J. Russ,  
 H. F. Schaefer III,  N. E. Schultz,  N. Shenvi,  A. C. Simmonett,  A. Sodt,  
 D. Stuck,  K. S. Thanthiriwatte,  V. Vanovschi,  Tao Wang,  A. Warshel,  
 C. F. Williams,  Q. Wu,  X. Xu,  W. Zhang

 Please cite Q-Chem as follows:
 Y. Shao et al., Mol. Phys. 113, 184-215 (2015)
 DOI: 10.1080/00268976.2014.952696

 Q-Chem 5.3.0 for Intel X86 EM64T Linux

 Parts of Q-Chem use Armadillo 9.800.1 (Horizon Scraper).
 http://arma.sourceforge.net/

 Q-Chem begins on Tue Jul  7 01:03:29 2020  

Host: centos77-c4
0

     Scratch files written to /tmp/26964.centos77-h1/qchem96364//
Processing $rem in /opt/qchem-5.3.0-intel2020u1//config/preferences:
Processing $rem in /home/shihchengli/.qchemrc:

Checking the input file for inconsistencies... 	...done.

--------------------------------------------------------------
User input:
--------------------------------------------------------------
$rem
   JOBTYPE  sp
   EXCHANGE   omegaB97X-D
   BASIS   6-311+G(2df,2pd)
   UNRESTRICTED   False
   max_scf_cycles   250
   geom_opt_max_cycles   1500
   basis2 6-31G*
   scf_algorithm rca_diis
   SYM_IGNORE  TRUE
   print_input   true
   geom_opt_dmax   80
   pop_mulliken false
   XC_GRID 000075000302
$end

$molecule
0 1
C       1.3956022356     -0.0039419324     0.2622822444
C       -0.0000000391     0.0127931432     -0.3872156085
H       1.5851676825     -0.8810387920     0.8829753555
H       1.6229343342     0.8869598008     0.8500737422
H       2.1028632673     -0.0317396637     -0.5697079800
C       -1.3956024126     -0.0039422455     0.2622819863
H       0.0000004349     -0.8381295580     -1.0752187137
H       -0.0000002426     0.8848581300     -1.0477672088
H       -1.5851679068     -0.8810390859     0.8829750903
H       -2.1028636747     -0.0317384305     -0.5697079394
H       -1.6229337393     0.8869592999     0.8500740505
$end
--------------------------------------------------------------
 ----------------------------------------------------------------
             Standard Nuclear Orientation (Angstroms)
    I     Atom           X                Y                Z
 ----------------------------------------------------------------
    1      C       1.3956022356    -0.0039419324     0.2622822444
    2      C      -0.0000000391     0.0127931432    -0.3872156085
    3      H       1.5851676825    -0.8810387920     0.8829753555
    4      H       1.6229343342     0.8869598008     0.8500737422
    5      H       2.1028632673    -0.0317396637    -0.5697079800
    6      C      -1.3956024126    -0.0039422455     0.2622819863
    7      H       0.0000004349    -0.8381295580    -1.0752187137
    8      H      -0.0000002426     0.8848581300    -1.0477672088
    9      H      -1.5851679068    -0.8810390859     0.8829750903
   10      H      -2.1028636747    -0.0317384305    -0.5697079394
   11      H      -1.6229337393     0.8869592999     0.8500740505
 ----------------------------------------------------------------
 Nuclear Repulsion Energy =          81.15519130 hartrees
 There are       13 alpha and       13 beta electrons
 Requested basis set is 6-311+G(2df,2pd)
 There are 72 shells and 214 basis functions

 Total QAlloc Memory Limit   2000 MB
 Mega-Array Size       188 MB
 MEM_STATIC part       192 MB

                       Distance Matrix (Angstroms)
             C (  1)   C (  2)   H (  3)   H (  4)   H (  5)   C (  6)
   C (  2)  1.539426
   H (  3)  1.091098  2.219252
   H (  4)  1.091277  2.220128  1.768708
   H (  5)  1.092336  2.111237  1.760570  1.757874
   C (  6)  2.791205  1.539426  3.168525  3.201682  3.596143
   H (  7)  2.105346  1.094266  2.519746  3.052310  2.308211  2.105347
   H (  8)  2.110427  1.093995  3.059235  2.497143  2.343230  2.110427
   H (  9)  3.168525  2.219252  3.170336  3.663171  4.053785  1.091098
   H ( 10)  3.596143  2.111237  4.053785  4.091620  4.205727  1.092336
   H ( 11)  3.201681  2.220127  3.663170  3.245868  4.091620  1.091277
             H (  7)   H (  8)   H (  9)   H ( 10)
   H (  8)  1.723206
   H (  9)  2.519747  3.059234
   H ( 10)  2.308213  2.343230  1.760571
   H ( 11)  3.052310  2.497142  1.768708  1.757873
 
 A cutoff of  1.0D-09 yielded   2488 shell pairs
 There are     22204 function pairs (     27319 Cartesian)
 Smallest overlap matrix eigenvalue = 8.66E-05

 Scale SEOQF with 1.000000e-01/1.000000e-01/1.000000e-01

 Standard Electronic Orientation quadrupole field applied
 Nucleus-field energy     =     0.0000000010 hartrees
 Requested basis set is 6-31G(d)
 There are 28 shells and 58 basis functions
 A cutoff of  1.0D-09 yielded    398 shell pairs
 There are      1769 function pairs (      1964 Cartesian)
 Smallest overlap matrix eigenvalue = 7.24E-03
 Guess from superposition of atomic densities
 Warning:  Energy on first SCF cycle will be non-variational
 SAD guess density has 26.000000 electrons
 Long-range K will be added via erf
 Coulomb attenuation parameter = 0.2 bohr**(-1)
 A restricted hybrid HF-DFT SCF calculation will be
 performed using Relaxed Constraint Minimization + Pulay DIIS
 Exchange:     0.2220 Hartree-Fock + 1.0000 wB97X-D + LR-HF
 Correlation:  1.0000 wB97X-D
 Using Euler-Maclaurin-Lebedev (75,302) quadrature formula
 Dispersion:   Grimme D
 SCF converges when DIIS error is below 1.0E-04
 using 3 threads for integral computing
 -------------------------------------------------------
 OpenMP Integral computing Module                
 Release: version 1.0, May 2013, Q-Chem Inc. Pittsburgh 
 -------------------------------------------------------
 using 3 threads for integral computing
 -------------------------------------------------------
 OpenMP Integral computing Module                
 Release: version 1.0, May 2013, Q-Chem Inc. Pittsburgh 
 -------------------------------------------------------
 ---------------------------------------
  Cycle       Energy         DIIS Error
 ---------------------------------------
    1    -119.5759348620      9.91E-02
    2    -119.0583490475      8.67E-03
    3    -119.0783746644      2.55E-03
    4    -119.0908567229      1.75E-03
    5    -119.0916213130      2.95E-04 Done RCA. Switching to DIIS
    6    -119.0921671920      2.19E-04
    7    -119.0921880809      4.14E-06 Convergence criterion met
 ---------------------------------------
 SCF time:  CPU 20.34 s  wall 7.68 s
 SCF   energy in the small basis set = -119.09218808
 Total energy in the small basis set = -119.09218808
 ----------------------------------------------------
  Cycle       Energy    
 ----------------------------------------------------
    1     -16.5240782553     -1.65E+01
 Long-range K will be added via erf
 Coulomb attenuation parameter = 0.2 bohr**(-1)
 A restricted hybrid HF-DFT SCF calculation will be
 performed using Relaxed Constraint Minimization + Pulay DIIS
 Exchange:     0.2220 Hartree-Fock + 1.0000 wB97X-D + LR-HF
 Correlation:  1.0000 wB97X-D
 Using Euler-Maclaurin-Lebedev (75,302) quadrature formula
 Dispersion:   Grimme D
 SCF converges when DIIS error is below 1.0E-05
 Basis2 calculation detected. Using small basis as guess for larger.
 SCFMinFind is unable to tell whether the solution found is close.
 Resetting ReadMinima to 0 and attempting to follow guess.
 SCFMinFind following SCF Guess.
 using 3 threads for integral computing
 -------------------------------------------------------
 OpenMP Integral computing Module                
 Release: version 1.0, May 2013, Q-Chem Inc. Pittsburgh 
 -------------------------------------------------------
 using 3 threads for integral computing
 -------------------------------------------------------
 OpenMP Integral computing Module                
 Release: version 1.0, May 2013, Q-Chem Inc. Pittsburgh 
 -------------------------------------------------------
 ---------------------------------------
  Cycle       Energy         DIIS Error
 ---------------------------------------
    1    -119.1114358204      4.21E-03
    2    -119.1334384414      5.80E-04 Done RCA. Switching to DIIS
    3    -119.1342712939      3.94E-04
    4    -119.1351251291      4.61E-05
    5    -119.1351398546      1.24E-05
    6    -119.1351407976      4.17E-06 Convergence criterion met
 ---------------------------------------
 SCF time:  CPU 48.46 s  wall 16.33 s
 SCF   energy in the final basis set = -119.13514080
 Total energy in the final basis set = -119.13514080
 
 --------------------------------------------------------------
 
                    Orbital Energies (a.u.)
 --------------------------------------------------------------
 
 Alpha MOs
 -- Occupied --
-10.2765 -10.2688 -10.2688  -0.8740  -0.7865  -0.6736  -0.5399  -0.5127
 -0.4934  -0.4718  -0.4261  -0.4030  -0.4015
 -- Virtual --
  0.0661   0.0868   0.0940   0.0992   0.1171   0.1290   0.1325   0.1504
  0.1527   0.1742   0.1828   0.1981   0.2340   0.2341   0.2457   0.2571
  0.2699   0.2855   0.2909   0.3077   0.3263   0.3616   0.4607   0.4641
  0.4824   0.5030   0.5205   0.5303   0.5413   0.5739   0.5769   0.5938
  0.6005   0.6059   0.6378   0.6470   0.6477   0.6632   0.6986   0.7206
  0.7337   0.7739   0.8143   0.8423   0.8582   0.8686   0.9176   0.9643
  0.9744   1.0211   1.0452   1.1317   1.1513   1.1536   1.1637   1.2009
  1.2328   1.2623   1.2697   1.2770   1.2851   1.2889   1.3154   1.3208
  1.3734   1.3760   1.3811   1.4549   1.4597   1.4739   1.4760   1.4809
  1.5120   1.5660   1.6021   1.6407   1.6574   1.6607   1.6778   1.6905
  1.7760   2.3864   2.4719   2.4841   2.4866   2.5242   2.5541   2.5861
  2.6395   2.6820   2.7763   2.8282   2.8527   2.8948   2.9304   2.9374
  2.9536   2.9817   2.9987   3.0047   3.0501   3.0842   3.0940   3.1072
  3.1364   3.1382   3.1522   3.1788   3.1908   3.1912   3.2134   3.2837
  3.3009   3.3228   3.3286   3.3383   3.3574   3.3696   3.3726   3.4052
  3.4572   3.4704   3.5033   3.5621   3.5634   3.6021   3.6026   3.6208
  3.6361   3.6417   3.6583   3.7325   3.7326   3.7753   3.8142   3.8770
  3.8848   3.8944   3.9051   3.9502   3.9692   3.9821   3.9942   4.0429
  4.0922   4.1230   4.1286   4.1510   4.1573   4.1687   4.1708   4.1792
  4.2240   4.2872   4.2950   4.3431   4.3702   4.4190   4.4428   4.4646
  4.4849   4.4865   4.5726   4.5874   4.7759   4.7964   4.8438   4.8723
  4.9163   4.9303   4.9764   4.9794   5.0032   5.0470   5.0532   5.0968
  5.1331   5.1469   5.2301   5.2503   5.2984   5.3098   5.3129   5.3291
  5.3507   5.3833   5.4382   5.4636   5.5844   5.5913   5.6310   5.8125
  5.9261   6.3727   6.3729   6.3952   6.3984   6.4655  25.2093  25.4082
 25.4378
 --------------------------------------------------------------
 
 -----------------------------------------------------------------
                    Cartesian Multipole Moments
 -----------------------------------------------------------------
    Charge (ESU x 10^10)
                 0.0000
    Dipole Moment (Debye)
         X       0.0000      Y      -0.0015      Z      -0.1507
       Tot       0.1507
    Quadrupole Moments (Debye-Ang)
        XX     -21.9822     XY      -0.0000     YY     -21.4140
        XZ       0.0000     YZ      -0.0041     ZZ     -21.7857
    Octopole Moments (Debye-Ang^2)
       XXX       0.0000    XXY       0.0170    XYY       0.0000
       YYY       0.0279    XXZ      -2.0418    XYZ       0.0000
       YYZ      -0.1816    XZZ       0.0000    YZZ      -0.1112
       ZZZ      -3.0271
    Hexadecapole Moments (Debye-Ang^3)
      XXXX    -242.4246   XXXY      -0.0000   XXYY     -46.8467
      XYYY      -0.0000   YYYY     -44.1096   XXXZ       0.0000
      XXYZ       0.2297   XYYZ      -0.0000   YYYZ       0.1520
      XXZZ     -47.9664   XYZZ      -0.0000   YYZZ     -15.8736
      XZZZ      -0.0000   YZZZ       0.1567   ZZZZ     -62.5980
 -----------------------------------------------------------------
Archival summary:
1\1\centos77-c4\SP\ProcedureUnspecified\BasisUnspecified\38\shihchen\TueJul701:03:562020TueJul701:03:562020\0\\#,ProcedureUnspecified,BasisUnspecified,\\0,1\C\H,1,1.094\H,1,1.09427,2,103.901\C,1,1.53943,2,105.273,3,-109.988,0\H,4,1.0911,1,113.97,2,174.387,0\H,4,1.09128,1,114.031,2,-60.5777,0\H,4,1.09234,1,105.421,2,56.7675,0\C,1,1.53943,2,105.273,3,109.988,0\H,8,1.0911,1,113.97,2,-174.387,0\H,8,1.09128,1,114.031,2,60.5776,0\H,8,1.09234,1,105.421,2,-56.7676,0\\\@

 Total job time:  26.82s(wall), 72.34s(cpu) 
 Tue Jul  7 01:03:56 2020

        *************************************************************
        *                                                           *
        *  Thank you very much for using Q-Chem.  Have a nice day.  *
        *                                                           *
        *************************************************************


