                  Welcome to Q-Chem
     A Quantum Leap Into The Future Of Chemistry


 Q-Chem 5.3 (devel), Q-Chem, Inc., Pleasanton, CA (2020)

 Yihan Shao,  Zhengting Gan,  E. Epifanovsky,  A. T. B. Gilbert,  M. Wormit,  
 J. Kussmann,  A. W. Lange,  A. Behn,  Jia Deng,  Xintian Feng,  D. Ghosh,  
 M. Goldey,  P. R. Horn,  L. D. Jacobson,  I. Kaliman,  T. Kus,  A. Landau,  
 Jie Liu,  E. I. Proynov,  R. M. Richard,  R. P. Steele,  E. J. Sundstrom,  
 H. L. Woodcock III,  P. M. Zimmerman,  D. Zuev,  B. Alam,  B. Albrecht,  
 E. Alguire,  S. A. Baeppler,  D. Barton,  Z. Benda,  Y. A. Bernard,  
 E. J. Berquist,  K. B. Bravaya,  H. Burton,  K. Carter-Fenk,  D. Casanova,  
 Chun-Min Chang,  Yunqing Chen,  A. Chien,  K. D. Closser,  M. P. Coons,  
 S. Coriani,  S. Dasgupta,  A. L. Dempwolff,  M. Diedenhofen,  Hainam Do,  
 R. G. Edgar,  Po-Tung Fang,  S. Faraji,  S. Fatehi,  Qingguo Feng,  
 J. Fosso-Tande,  J. Gayvert,  Qinghui Ge,  A. Ghysels,  G. Gidofalvi,  
 J. Gomes,  J. Gonthier,  A. Gunina,  D. Hait,  M. W. D. Hanson-Heine,  
 P. H. P. Harbach,  A. W. Hauser,  M. F. Herbst,  J. E. Herr,  
 E. G. Hohenstein,  Z. C. Holden,  Kerwin Hui,  B. C. Huynh,  T.-C. Jagau,  
 Hyunjun Ji,  B. Kaduk,  K. Khistyaev,  Jaehoon Kim,  P. Klunzinger,  K. Koh,  
 D. Kosenkov,  L. Koulias,  T. Kowalczyk,  C. M. Krauter,  A. Kunitsa,  
 Ka Un Lao,  A. Laurent,  K. V. Lawler,  Joonho Lee,  D. Lefrancois,  
 S. Lehtola,  D. S. Levine,  Yi-Pei Li,  You-Sheng Lin,  Fenglai Liu,  
 Kuan-Yu Liu,  E. Livshits,  M. Loipersberger,  A. Luenser,  P. Manohar,  
 E. Mansoor,  S. F. Manzer,  Shan-Ping Mao,  Yuezhi Mao,  N. Mardirossian,  
 A. V. Marenich,  T. Markovich,  L. A. Martinez-Martinez,  S. A. Maurer,  
 N. J. Mayhall,  S. C. McKenzie,  J.-M. Mewes,  P. Morgante,  A. F. Morrison,  
 J. W. Mullinax,  K. Nanda,  T. S. Nguyen-Beck,  R. Olivares-Amaya,  
 K. J. Oosterbaan,  J. A. Parkhill,  S. K. Paul,  F. Pavosevic,  Zheng Pei,  
 T. M. Perrine,  F. Plasser,  P. Pokhilko,  S. Prager,  A. Prociuk,  
 E. Ramos,  B. Rana,  D. R. Rehn,  F. Rob,  M. Scheurer,  M. Schneider,  
 N. Sergueev,  S. M. Sharada,  S. Sharma,  D. W. Small,  T. Stauch,  
 C. J. Stein,  T. Stein,  Yu-Chuan Su,  S. P. Veccham,  Zhen Tao,  
 A. J. W. Thom,  A. Tkatchenko,  T. Tsuchimochi,  N. M. Tubman,  L. Vogt,  
 M. L. Vidal,  O. Vydrov,  M. A. Watson,  J. Wenzel,  M. de Wergifosse,  
 T. A. Wesolowski,  A. White,  J. Witte,  A. Yamada,  Jun Yang,  K. Yao,  
 S. Yeganeh,  S. R. Yost,  Zhi-Qiang You,  A. Zech,  Igor Ying Zhang,  
 Xing Zhang,  Yan Zhao,  Ying Zhu,  B. R. Brooks,  G. K. L. Chan,  
 C. J. Cramer,  M. S. Gordon,  W. J. Hehre,  A. Klamt,  M. W. Schmidt,  
 C. D. Sherrill,  D. G. Truhlar,  A. Aspuru-Guzik,  R. Baer,  A. T. Bell,  
 N. A. Besley,  Jeng-Da Chai,  A. E. DePrince, III,  R. A. DiStasio Jr.,  
 A. Dreuw,  B. D. Dunietz,  T. R. Furlani,  Chao-Ping Hsu,  Yousung Jung,  
 Jing Kong,  D. S. Lambrecht,  WanZhen Liang,  C. Ochsenfeld,  
 V. A. Rassolov,  L. V. Slipchenko,  J. E. Subotnik,  T. Van Voorhis,  
 J. M. Herbert,  A. I. Krylov,  P. M. W. Gill,  M. Head-Gordon

 Contributors to earlier versions of Q-Chem not listed above: 
 R. D. Adamson,  B. Austin,  J. Baker,  G. J. O. Beran,  K. Brandhorst,  
 S. T. Brown,  E. F. C. Byrd,  A. K. Chakraborty,  C.-L. Cheng,  
 Siu Hung Chien,  D. M. Chipman,  D. L. Crittenden,  H. Dachsel,  
 R. J. Doerksen,  A. D. Dutoi,  L. Fusti-Molnar,  W. A. Goddard III,  
 A. Golubeva-Zadorozhnaya,  S. R. Gwaltney,  G. Hawkins,  A. Heyden,  
 S. Hirata,  G. Kedziora,  F. J. Keil,  C. Kelley,  Jihan Kim,  R. A. King,  
 R. Z. Khaliullin,  P. P. Korambath,  W. Kurlancheek,  A. M. Lee,  M. S. Lee,  
 S. V. Levchenko,  Ching Yeh Lin,  D. Liotard,  R. C. Lochan,  I. Lotan,  
 P. E. Maslen,  N. Nair,  D. P. O'Neill,  D. Neuhauser,  E. Neuscamman,  
 C. M. Oana,  R. Olson,  B. Peters,  R. Peverati,  P. A. Pieniazek,  
 Y. M. Rhee,  J. Ritchie,  M. A. Rohrdanz,  E. Rosta,  N. J. Russ,  
 H. F. Schaefer III,  N. E. Schultz,  N. Shenvi,  A. C. Simmonett,  A. Sodt,  
 D. Stuck,  K. S. Thanthiriwatte,  V. Vanovschi,  Tao Wang,  A. Warshel,  
 C. F. Williams,  Q. Wu,  X. Xu,  W. Zhang

 Please cite Q-Chem as follows:
 Y. Shao et al., Mol. Phys. 113, 184-215 (2015)
 DOI: 10.1080/00268976.2014.952696

 Q-Chem 5.3.0 for Intel X86 EM64T Linux

 Parts of Q-Chem use Armadillo 9.800.1 (Horizon Scraper).
 http://arma.sourceforge.net/

 Q-Chem begins on Tue Jul  7 02:14:49 2020  

Host: centos77-c4
0

     Scratch files written to /tmp/26964.centos77-h1/qchem109669//
Processing $rem in /opt/qchem-5.3.0-intel2020u1//config/preferences:
Processing $rem in /home/shihchengli/.qchemrc:

Checking the input file for inconsistencies... 	...done.

--------------------------------------------------------------
User input:
--------------------------------------------------------------
$rem
   JOBTYPE  sp
   EXCHANGE   omegaB97X-D
   BASIS   6-311+G(2df,2pd)
   UNRESTRICTED   False
   max_scf_cycles   250
   geom_opt_max_cycles   1500
   basis2 6-31G*
   scf_algorithm rca_diis
   SYM_IGNORE  TRUE
   print_input   true
   geom_opt_dmax   80
   pop_mulliken false
   XC_GRID 000075000302
$end

$molecule
0 1
C       1.2998895549     -0.0523961984     0.2243656388
C       0.0232013749     0.0046652238     -0.5897275332
H       1.3152211195     -0.9304771897     0.8729794436
H       1.3073297867     0.5680722987     1.1300545680
H       2.1120014424     0.2630872372     -0.4227682050
C       -1.2307935233     0.0674278632     0.2896001725
H       -0.0729100046     -0.8677122899     -1.2404782431
H       0.0451645960     0.8759750065     -1.2485852154
H       -1.2889618325     -0.8115486808     0.9348953921
H       -2.1680489553     -0.2223456223     -0.1982980662
H       -1.3420936194     1.1052530178     0.5890070666
$end
--------------------------------------------------------------
 ----------------------------------------------------------------
             Standard Nuclear Orientation (Angstroms)
    I     Atom           X                Y                Z
 ----------------------------------------------------------------
    1      C       1.2998895549    -0.0523961984     0.2243656388
    2      C       0.0232013749     0.0046652238    -0.5897275332
    3      H       1.3152211195    -0.9304771897     0.8729794436
    4      H       1.3073297867     0.5680722987     1.1300545680
    5      H       2.1120014424     0.2630872372    -0.4227682050
    6      C      -1.2307935233     0.0674278632     0.2896001725
    7      H      -0.0729100046    -0.8677122899    -1.2404782431
    8      H       0.0451645960     0.8759750065    -1.2485852154
    9      H      -1.2889618325    -0.8115486808     0.9348953921
   10      H      -2.1680489553    -0.2223456223    -0.1982980662
   11      H      -1.3420936194     1.1052530178     0.5890070666
 ----------------------------------------------------------------
 Nuclear Repulsion Energy =          82.78388310 hartrees
 There are       13 alpha and       13 beta electrons
 Requested basis set is 6-311+G(2df,2pd)
 There are 72 shells and 214 basis functions

 Total QAlloc Memory Limit   2000 MB
 Mega-Array Size       188 MB
 MEM_STATIC part       192 MB

                       Distance Matrix (Angstroms)
             C (  1)   C (  2)   H (  3)   H (  4)   H (  5)   C (  6)
   C (  2)  1.515235
   H (  3)  1.091770  2.164098
   H (  4)  1.097866  2.219023  1.520461
   H (  5)  1.085282  2.111337  1.933499  1.775323
   C (  6)  2.534358  1.532860  2.796129  2.720125  3.423453
   H (  7)  2.166815  1.092592  2.529338  3.096121  2.592527  2.134554
   H (  8)  2.146111  1.092592  3.062246  2.710312  2.308554  2.155883
   H (  9)  2.789860  2.170818  2.607632  2.946552  3.816365  1.091966
   H ( 10)  3.497731  2.237483  3.712446  3.803622  4.313336  1.095656
   H ( 11)  2.907437  2.112993  3.359488  2.756944  3.696445  1.085870
             H (  7)   H (  8)   H (  9)   H ( 10)
   H (  8)  1.747699
   H (  9)  2.492827  3.065162
   H ( 10)  2.427395  2.684721  1.550510
   H ( 11)  2.974968  2.313828  1.948484  1.750591
 
 A cutoff of  1.0D-09 yielded   2534 shell pairs
 There are     22547 function pairs (     27723 Cartesian)
 Smallest overlap matrix eigenvalue = 8.57E-05

 Scale SEOQF with 1.000000e-01/1.000000e-01/1.000000e-01

 Standard Electronic Orientation quadrupole field applied
 Nucleus-field energy     =     0.0000000006 hartrees
 Requested basis set is 6-31G(d)
 There are 28 shells and 58 basis functions
 A cutoff of  1.0D-09 yielded    402 shell pairs
 There are      1773 function pairs (      1968 Cartesian)
 Smallest overlap matrix eigenvalue = 6.79E-03
 Guess from superposition of atomic densities
 Warning:  Energy on first SCF cycle will be non-variational
 SAD guess density has 26.000000 electrons
 Long-range K will be added via erf
 Coulomb attenuation parameter = 0.2 bohr**(-1)
 A restricted hybrid HF-DFT SCF calculation will be
 performed using Relaxed Constraint Minimization + Pulay DIIS
 Exchange:     0.2220 Hartree-Fock + 1.0000 wB97X-D + LR-HF
 Correlation:  1.0000 wB97X-D
 Using Euler-Maclaurin-Lebedev (75,302) quadrature formula
 Dispersion:   Grimme D
 SCF converges when DIIS error is below 1.0E-04
 using 3 threads for integral computing
 -------------------------------------------------------
 OpenMP Integral computing Module                
 Release: version 1.0, May 2013, Q-Chem Inc. Pittsburgh 
 -------------------------------------------------------
 using 3 threads for integral computing
 -------------------------------------------------------
 OpenMP Integral computing Module                
 Release: version 1.0, May 2013, Q-Chem Inc. Pittsburgh 
 -------------------------------------------------------
 ---------------------------------------
  Cycle       Energy         DIIS Error
 ---------------------------------------
    1    -119.6353119539      1.01E-01
    2    -119.0310687129      9.27E-03
    3    -119.0534980336      2.52E-03
    4    -119.0685296915      1.73E-03
    5    -119.0692644965      2.74E-04 Done RCA. Switching to DIIS
    6    -119.0698104844      2.00E-04
    7    -119.0698281849      6.32E-06 Convergence criterion met
 ---------------------------------------
 SCF time:  CPU 20.90 s  wall 7.86 s
 SCF   energy in the small basis set = -119.06982818
 Total energy in the small basis set = -119.06982818
 ----------------------------------------------------
  Cycle       Energy    
 ----------------------------------------------------
    1     -16.5358821308     -1.65E+01
 Long-range K will be added via erf
 Coulomb attenuation parameter = 0.2 bohr**(-1)
 A restricted hybrid HF-DFT SCF calculation will be
 performed using Relaxed Constraint Minimization + Pulay DIIS
 Exchange:     0.2220 Hartree-Fock + 1.0000 wB97X-D + LR-HF
 Correlation:  1.0000 wB97X-D
 Using Euler-Maclaurin-Lebedev (75,302) quadrature formula
 Dispersion:   Grimme D
 SCF converges when DIIS error is below 1.0E-05
 Basis2 calculation detected. Using small basis as guess for larger.
 SCFMinFind is unable to tell whether the solution found is close.
 Resetting ReadMinima to 0 and attempting to follow guess.
 SCFMinFind following SCF Guess.
 using 3 threads for integral computing
 -------------------------------------------------------
 OpenMP Integral computing Module                
 Release: version 1.0, May 2013, Q-Chem Inc. Pittsburgh 
 -------------------------------------------------------
 using 3 threads for integral computing
 -------------------------------------------------------
 OpenMP Integral computing Module                
 Release: version 1.0, May 2013, Q-Chem Inc. Pittsburgh 
 -------------------------------------------------------
 ---------------------------------------
  Cycle       Energy         DIIS Error
 ---------------------------------------
    1    -119.0905999619      4.21E-03
    2    -119.1125744164      6.24E-04 Done RCA. Switching to DIIS
    3    -119.1134511240      4.45E-04
    4    -119.1145392118      4.64E-05
    5    -119.1145549909      1.04E-05
    6    -119.1145557806      4.05E-06 Convergence criterion met
 ---------------------------------------
 SCF time:  CPU 51.49 s  wall 17.46 s
 SCF   energy in the final basis set = -119.11455578
 Total energy in the final basis set = -119.11455578
 
 --------------------------------------------------------------
 
                    Orbital Energies (a.u.)
 --------------------------------------------------------------
 
 Alpha MOs
 -- Occupied --
-10.2740 -10.2658 -10.2652  -0.8826  -0.7807  -0.6815  -0.5554  -0.5331
 -0.4854  -0.4615  -0.4249  -0.3989  -0.3894
 -- Virtual --
  0.0689   0.0859   0.0901   0.0979   0.1218   0.1307   0.1325   0.1415
  0.1423   0.1680   0.1753   0.1914   0.2163   0.2295   0.2486   0.2649
  0.2796   0.2947   0.3089   0.3187   0.3313   0.3430   0.4616   0.4692
  0.4780   0.5038   0.5153   0.5239   0.5415   0.5598   0.5733   0.6013
  0.6128   0.6227   0.6375   0.6449   0.6632   0.6727   0.7083   0.7164
  0.7278   0.7706   0.8058   0.8547   0.8640   0.8884   0.9084   0.9383
  0.9863   1.0540   1.0664   1.1238   1.1340   1.1463   1.1937   1.2147
  1.2388   1.2551   1.2607   1.2794   1.2989   1.3024   1.3511   1.3613
  1.3738   1.3920   1.4268   1.4405   1.4652   1.4702   1.5002   1.5077
  1.5133   1.5477   1.5924   1.6169   1.6241   1.6444   1.6653   1.7132
  1.7528   2.3690   2.4334   2.4933   2.5037   2.5546   2.5987   2.6216
  2.6570   2.7003   2.7860   2.7970   2.8142   2.8499   2.9116   2.9282
  2.9435   2.9728   2.9901   3.0070   3.0261   3.0692   3.0885   3.1126
  3.1144   3.1483   3.1845   3.1944   3.2197   3.2358   3.2555   3.2939
  3.2955   3.3324   3.3380   3.3466   3.3635   3.4288   3.4389   3.4636
  3.4807   3.5206   3.5451   3.5641   3.5724   3.5821   3.6007   3.6091
  3.6114   3.6558   3.6690   3.6953   3.7392   3.7507   3.8018   3.8307
  3.8733   3.8882   3.9163   3.9477   3.9629   3.9767   4.0046   4.0265
  4.0550   4.0976   4.1059   4.1305   4.1384   4.1786   4.2097   4.2301
  4.2524   4.2819   4.3223   4.3511   4.3710   4.3980   4.4084   4.4446
  4.5234   4.5420   4.6025   4.6148   4.6622   4.7108   4.7667   4.8614
  4.8759   4.9028   4.9371   4.9557   4.9906   5.0228   5.0567   5.1148
  5.1765   5.2123   5.2313   5.2862   5.3169   5.3304   5.3526   5.3979
  5.4749   5.5174   5.5352   5.6071   5.6927   5.7148   5.7458   5.8174
  5.9766   6.3086   6.3405   6.4299   6.4458   6.5047  25.1747  25.4128
 25.4589
 --------------------------------------------------------------
 
 -----------------------------------------------------------------
                    Cartesian Multipole Moments
 -----------------------------------------------------------------
    Charge (ESU x 10^10)
                -0.0000
    Dipole Moment (Debye)
         X      -0.1280      Y      -0.0178      Z      -0.0514
       Tot       0.1391
    Quadrupole Moments (Debye-Ang)
        XX     -22.3017     XY       0.7643     YY     -21.2967
        XZ       0.0397     YZ      -0.5140     ZZ     -21.9723
    Octopole Moments (Debye-Ang^2)
       XXX      -2.4400    XXY       0.1689    XYY      -2.0673
       YYY       0.1045    XXZ      -0.8325    XYZ      -0.4488
       YYZ       0.1118    XZZ       1.2772    YZZ      -0.4908
       ZZZ      -0.2524
    Hexadecapole Moments (Debye-Ang^3)
      XXXX    -204.5097   XXXY       7.2912   XXYY     -41.6656
      XYYY       1.6369   YYYY     -44.4382   XXXZ      -1.3080
      XXYZ      -0.9240   XYYZ      -0.3658   YYYZ       0.1232
      XXZZ     -45.4427   XYZZ       1.3134   YYZZ     -17.8141
      XZZZ       2.7448   YZZZ      -0.0078   ZZZZ     -72.2526
 -----------------------------------------------------------------
Archival summary:
1\1\centos77-c4\SP\ProcedureUnspecified\BasisUnspecified\38\shihchen\TueJul702:15:172020TueJul702:15:172020\0\\#,ProcedureUnspecified,BasisUnspecified,\\0,1\C\H,1,1.09259\H,1,1.09259,2,106.221\C,1,1.51523,2,111.349,3,-119.382,0\H,4,1.08528,1,107.408,2,79.2259,0\H,4,1.09177,1,111.181,2,-61.1818,0\H,4,1.09787,1,115.319,2,-159.289,0\C,1,1.53286,2,107.602,3,116.907,0\H,8,1.08587,1,106.329,2,-155.642,0\H,8,1.09197,1,110.464,2,63.3076,0\H,8,1.09566,1,115.692,2,-37.3586,0\\\@

 Total job time:  28.21s(wall), 75.94s(cpu) 
 Tue Jul  7 02:15:17 2020

        *************************************************************
        *                                                           *
        *  Thank you very much for using Q-Chem.  Have a nice day.  *
        *                                                           *
        *************************************************************


