                  Welcome to Q-Chem
     A Quantum Leap Into The Future Of Chemistry


 Q-Chem 5.3 (devel), Q-Chem, Inc., Pleasanton, CA (2020)

 Yihan Shao,  Zhengting Gan,  E. Epifanovsky,  A. T. B. Gilbert,  M. Wormit,  
 J. Kussmann,  A. W. Lange,  A. Behn,  Jia Deng,  Xintian Feng,  D. Ghosh,  
 M. Goldey,  P. R. Horn,  L. D. Jacobson,  I. Kaliman,  T. Kus,  A. Landau,  
 Jie Liu,  E. I. Proynov,  R. M. Richard,  R. P. Steele,  E. J. Sundstrom,  
 H. L. Woodcock III,  P. M. Zimmerman,  D. Zuev,  B. Alam,  B. Albrecht,  
 E. Alguire,  S. A. Baeppler,  D. Barton,  Z. Benda,  Y. A. Bernard,  
 E. J. Berquist,  K. B. Bravaya,  H. Burton,  K. Carter-Fenk,  D. Casanova,  
 Chun-Min Chang,  Yunqing Chen,  A. Chien,  K. D. Closser,  M. P. Coons,  
 S. Coriani,  S. Dasgupta,  A. L. Dempwolff,  M. Diedenhofen,  Hainam Do,  
 R. G. Edgar,  Po-Tung Fang,  S. Faraji,  S. Fatehi,  Qingguo Feng,  
 J. Fosso-Tande,  J. Gayvert,  Qinghui Ge,  A. Ghysels,  G. Gidofalvi,  
 J. Gomes,  J. Gonthier,  A. Gunina,  D. Hait,  M. W. D. Hanson-Heine,  
 P. H. P. Harbach,  A. W. Hauser,  M. F. Herbst,  J. E. Herr,  
 E. G. Hohenstein,  Z. C. Holden,  Kerwin Hui,  B. C. Huynh,  T.-C. Jagau,  
 Hyunjun Ji,  B. Kaduk,  K. Khistyaev,  Jaehoon Kim,  P. Klunzinger,  K. Koh,  
 D. Kosenkov,  L. Koulias,  T. Kowalczyk,  C. M. Krauter,  A. Kunitsa,  
 Ka Un Lao,  A. Laurent,  K. V. Lawler,  Joonho Lee,  D. Lefrancois,  
 S. Lehtola,  D. S. Levine,  Yi-Pei Li,  You-Sheng Lin,  Fenglai Liu,  
 Kuan-Yu Liu,  E. Livshits,  M. Loipersberger,  A. Luenser,  P. Manohar,  
 E. Mansoor,  S. F. Manzer,  Shan-Ping Mao,  Yuezhi Mao,  N. Mardirossian,  
 A. V. Marenich,  T. Markovich,  L. A. Martinez-Martinez,  S. A. Maurer,  
 N. J. Mayhall,  S. C. McKenzie,  J.-M. Mewes,  P. Morgante,  A. F. Morrison,  
 J. W. Mullinax,  K. Nanda,  T. S. Nguyen-Beck,  R. Olivares-Amaya,  
 K. J. Oosterbaan,  J. A. Parkhill,  S. K. Paul,  F. Pavosevic,  Zheng Pei,  
 T. M. Perrine,  F. Plasser,  P. Pokhilko,  S. Prager,  A. Prociuk,  
 E. Ramos,  B. Rana,  D. R. Rehn,  F. Rob,  M. Scheurer,  M. Schneider,  
 N. Sergueev,  S. M. Sharada,  S. Sharma,  D. W. Small,  T. Stauch,  
 C. J. Stein,  T. Stein,  Yu-Chuan Su,  S. P. Veccham,  Zhen Tao,  
 A. J. W. Thom,  A. Tkatchenko,  T. Tsuchimochi,  N. M. Tubman,  L. Vogt,  
 M. L. Vidal,  O. Vydrov,  M. A. Watson,  J. Wenzel,  M. de Wergifosse,  
 T. A. Wesolowski,  A. White,  J. Witte,  A. Yamada,  Jun Yang,  K. Yao,  
 S. Yeganeh,  S. R. Yost,  Zhi-Qiang You,  A. Zech,  Igor Ying Zhang,  
 Xing Zhang,  Yan Zhao,  Ying Zhu,  B. R. Brooks,  G. K. L. Chan,  
 C. J. Cramer,  M. S. Gordon,  W. J. Hehre,  A. Klamt,  M. W. Schmidt,  
 C. D. Sherrill,  D. G. Truhlar,  A. Aspuru-Guzik,  R. Baer,  A. T. Bell,  
 N. A. Besley,  Jeng-Da Chai,  A. E. DePrince, III,  R. A. DiStasio Jr.,  
 A. Dreuw,  B. D. Dunietz,  T. R. Furlani,  Chao-Ping Hsu,  Yousung Jung,  
 Jing Kong,  D. S. Lambrecht,  WanZhen Liang,  C. Ochsenfeld,  
 V. A. Rassolov,  L. V. Slipchenko,  J. E. Subotnik,  T. Van Voorhis,  
 J. M. Herbert,  A. I. Krylov,  P. M. W. Gill,  M. Head-Gordon

 Contributors to earlier versions of Q-Chem not listed above: 
 R. D. Adamson,  B. Austin,  J. Baker,  G. J. O. Beran,  K. Brandhorst,  
 S. T. Brown,  E. F. C. Byrd,  A. K. Chakraborty,  C.-L. Cheng,  
 Siu Hung Chien,  D. M. Chipman,  D. L. Crittenden,  H. Dachsel,  
 R. J. Doerksen,  A. D. Dutoi,  L. Fusti-Molnar,  W. A. Goddard III,  
 A. Golubeva-Zadorozhnaya,  S. R. Gwaltney,  G. Hawkins,  A. Heyden,  
 S. Hirata,  G. Kedziora,  F. J. Keil,  C. Kelley,  Jihan Kim,  R. A. King,  
 R. Z. Khaliullin,  P. P. Korambath,  W. Kurlancheek,  A. M. Lee,  M. S. Lee,  
 S. V. Levchenko,  Ching Yeh Lin,  D. Liotard,  R. C. Lochan,  I. Lotan,  
 P. E. Maslen,  N. Nair,  D. P. O'Neill,  D. Neuhauser,  E. Neuscamman,  
 C. M. Oana,  R. Olson,  B. Peters,  R. Peverati,  P. A. Pieniazek,  
 Y. M. Rhee,  J. Ritchie,  M. A. Rohrdanz,  E. Rosta,  N. J. Russ,  
 H. F. Schaefer III,  N. E. Schultz,  N. Shenvi,  A. C. Simmonett,  A. Sodt,  
 D. Stuck,  K. S. Thanthiriwatte,  V. Vanovschi,  Tao Wang,  A. Warshel,  
 C. F. Williams,  Q. Wu,  X. Xu,  W. Zhang

 Please cite Q-Chem as follows:
 Y. Shao et al., Mol. Phys. 113, 184-215 (2015)
 DOI: 10.1080/00268976.2014.952696

 Q-Chem 5.3.0 for Intel X86 EM64T Linux

 Parts of Q-Chem use Armadillo 9.800.1 (Horizon Scraper).
 http://arma.sourceforge.net/

 Q-Chem begins on Tue Jul  7 02:27:03 2020  

Host: centos77-c4
0

     Scratch files written to /tmp/26964.centos77-h1/qchem112122//
Processing $rem in /opt/qchem-5.3.0-intel2020u1//config/preferences:
Processing $rem in /home/shihchengli/.qchemrc:

Checking the input file for inconsistencies... 	...done.

--------------------------------------------------------------
User input:
--------------------------------------------------------------
$rem
   JOBTYPE  sp
   EXCHANGE   omegaB97X-D
   BASIS   6-311+G(2df,2pd)
   UNRESTRICTED   False
   max_scf_cycles   250
   geom_opt_max_cycles   1500
   basis2 6-31G*
   scf_algorithm rca_diis
   SYM_IGNORE  TRUE
   print_input   true
   geom_opt_dmax   80
   pop_mulliken false
   XC_GRID 000075000302
$end

$molecule
0 1
C       1.2699581750     -0.0000397158     0.2666033212
C       0.0000003723     0.0001030305     -0.5828262584
H       1.3042904723     -0.8444801669     0.8829747837
H       1.3046377273     0.8445942468     0.8827495511
H       2.1342030990     -0.0003098722     -0.3332615465
C       -1.2699572929     -0.0000396423     0.2666027041
H       0.0000004596     -0.8722135895     -1.2372955162
H       0.0000004336     0.8725818131     -1.2369671381
H       -1.3042901837     -0.8444847954     0.8829777134
H       -2.1342060236     -0.0003090248     -0.3332647865
H       -1.3046372995     0.8445983825     0.8827521911
$end
--------------------------------------------------------------
 ----------------------------------------------------------------
             Standard Nuclear Orientation (Angstroms)
    I     Atom           X                Y                Z
 ----------------------------------------------------------------
    1      C       1.2699581750    -0.0000397158     0.2666033212
    2      C       0.0000003723     0.0001030305    -0.5828262584
    3      H       1.3042904723    -0.8444801669     0.8829747837
    4      H       1.3046377273     0.8445942468     0.8827495511
    5      H       2.1342030990    -0.0003098722    -0.3332615465
    6      C      -1.2699572929    -0.0000396423     0.2666027041
    7      H       0.0000004596    -0.8722135895    -1.2372955162
    8      H       0.0000004336     0.8725818131    -1.2369671381
    9      H      -1.3042901837    -0.8444847954     0.8829777134
   10      H      -2.1342060236    -0.0003090248    -0.3332647865
   11      H      -1.3046372995     0.8445983825     0.8827521911
 ----------------------------------------------------------------
 Nuclear Repulsion Energy =          83.65950134 hartrees
 There are       13 alpha and       13 beta electrons
 Requested basis set is 6-311+G(2df,2pd)
 There are 72 shells and 214 basis functions

 Total QAlloc Memory Limit   2000 MB
 Mega-Array Size       188 MB
 MEM_STATIC part       192 MB

                       Distance Matrix (Angstroms)
             C (  1)   C (  2)   H (  3)   H (  4)   H (  5)   C (  6)
   C (  2)  1.527849
   H (  3)  1.046027  2.136133
   H (  4)  1.046062  2.136155  1.689074
   H (  5)  1.052025  2.148745  1.697236  1.697270
   C (  6)  2.539915  1.527849  2.778443  2.778774  3.456609
   H (  7)  2.152950  1.090535  2.489475  3.023921  2.476351  2.152949
   H (  8)  2.152902  1.090468  3.023843  2.489189  2.476579  2.152901
   H (  9)  2.778446  2.136138  2.608581  3.107972  3.743675  1.046033
   H ( 10)  3.456613  2.148748  3.743678  3.744089  4.268409  1.052030
   H ( 11)  2.778776  2.136158  3.107972  2.609275  3.744086  1.046067
             H (  7)   H (  8)   H (  9)   H ( 10)
   H (  8)  1.744795
   H (  9)  2.489478  3.023848
   H ( 10)  2.476353  2.476581  1.697244
   H ( 11)  3.023925  2.489191  1.689083  1.697277
 
 A cutoff of  1.0D-09 yielded   2534 shell pairs
 There are     22592 function pairs (     27779 Cartesian)
 Smallest overlap matrix eigenvalue = 8.89E-05

 Scale SEOQF with 1.000000e-01/1.000000e-01/1.000000e-01

 Standard Electronic Orientation quadrupole field applied
 Nucleus-field energy     =     0.0000000006 hartrees
 Requested basis set is 6-31G(d)
 There are 28 shells and 58 basis functions
 A cutoff of  1.0D-09 yielded    402 shell pairs
 There are      1773 function pairs (      1968 Cartesian)
 Smallest overlap matrix eigenvalue = 6.65E-03
 Guess from superposition of atomic densities
 Warning:  Energy on first SCF cycle will be non-variational
 SAD guess density has 26.000000 electrons
 Long-range K will be added via erf
 Coulomb attenuation parameter = 0.2 bohr**(-1)
 A restricted hybrid HF-DFT SCF calculation will be
 performed using Relaxed Constraint Minimization + Pulay DIIS
 Exchange:     0.2220 Hartree-Fock + 1.0000 wB97X-D + LR-HF
 Correlation:  1.0000 wB97X-D
 Using Euler-Maclaurin-Lebedev (75,302) quadrature formula
 Dispersion:   Grimme D
 SCF converges when DIIS error is below 1.0E-04
 using 3 threads for integral computing
 -------------------------------------------------------
 OpenMP Integral computing Module                
 Release: version 1.0, May 2013, Q-Chem Inc. Pittsburgh 
 -------------------------------------------------------
 using 3 threads for integral computing
 -------------------------------------------------------
 OpenMP Integral computing Module                
 Release: version 1.0, May 2013, Q-Chem Inc. Pittsburgh 
 -------------------------------------------------------
 ---------------------------------------
  Cycle       Energy         DIIS Error
 ---------------------------------------
    1    -119.7579045792      1.05E-01
    2    -119.0515132460      9.86E-03
    3    -119.0768938952      2.88E-03
    4    -119.0921863947      1.97E-03
    5    -119.0931397344      3.58E-04 Done RCA. Switching to DIIS
    6    -119.0937914555      2.61E-04
    7    -119.0938203321      5.08E-06 Convergence criterion met
 ---------------------------------------
 SCF time:  CPU 19.10 s  wall 6.93 s
 SCF   energy in the small basis set = -119.09382033
 Total energy in the small basis set = -119.09382033
 ----------------------------------------------------
  Cycle       Energy    
 ----------------------------------------------------
    1     -16.6285986138     -1.66E+01
 Long-range K will be added via erf
 Coulomb attenuation parameter = 0.2 bohr**(-1)
 A restricted hybrid HF-DFT SCF calculation will be
 performed using Relaxed Constraint Minimization + Pulay DIIS
 Exchange:     0.2220 Hartree-Fock + 1.0000 wB97X-D + LR-HF
 Correlation:  1.0000 wB97X-D
 Using Euler-Maclaurin-Lebedev (75,302) quadrature formula
 Dispersion:   Grimme D
 SCF converges when DIIS error is below 1.0E-05
 Basis2 calculation detected. Using small basis as guess for larger.
 SCFMinFind is unable to tell whether the solution found is close.
 Resetting ReadMinima to 0 and attempting to follow guess.
 SCFMinFind following SCF Guess.
 using 3 threads for integral computing
 -------------------------------------------------------
 OpenMP Integral computing Module                
 Release: version 1.0, May 2013, Q-Chem Inc. Pittsburgh 
 -------------------------------------------------------
 using 3 threads for integral computing
 -------------------------------------------------------
 OpenMP Integral computing Module                
 Release: version 1.0, May 2013, Q-Chem Inc. Pittsburgh 
 -------------------------------------------------------
 ---------------------------------------
  Cycle       Energy         DIIS Error
 ---------------------------------------
    1    -119.1144810191      4.22E-03
    2    -119.1367020111      6.14E-04 Done RCA. Switching to DIIS
    3    -119.1376128587      4.16E-04
    4    -119.1385414549      4.54E-05
    5    -119.1385553488      1.17E-05
    6    -119.1385561875      4.08E-06 Convergence criterion met
 ---------------------------------------
 SCF time:  CPU 51.59 s  wall 17.44 s
 SCF   energy in the final basis set = -119.13855619
 Total energy in the final basis set = -119.13855619
 
 --------------------------------------------------------------
 
                    Orbital Energies (a.u.)
 --------------------------------------------------------------
 
 Alpha MOs
 -- Occupied --
-10.2714 -10.2498 -10.2498  -0.8835  -0.7878  -0.6842  -0.5490  -0.5282
 -0.4882  -0.4729  -0.4194  -0.4189  -0.4106
 -- Virtual --
  0.0696   0.0861   0.0913   0.0995   0.1254   0.1302   0.1333   0.1435
  0.1448   0.1726   0.1738   0.1922   0.2428   0.2490   0.2568   0.2660
  0.2890   0.2922   0.3108   0.3163   0.3378   0.3575   0.4559   0.4677
  0.4688   0.5116   0.5140   0.5194   0.5465   0.5681   0.5922   0.6003
  0.6295   0.6316   0.6512   0.6557   0.6610   0.6625   0.7261   0.7410
  0.7494   0.7690   0.8317   0.8655   0.8774   0.8783   0.8847   0.9772
  1.0227   1.0601   1.0669   1.1530   1.1541   1.1905   1.1970   1.2249
  1.2433   1.2446   1.2799   1.2875   1.2948   1.2970   1.3338   1.3864
  1.3954   1.4015   1.4140   1.4570   1.4676   1.4876   1.4908   1.4969
  1.5368   1.5968   1.6256   1.6274   1.6564   1.6767   1.7085   1.7337
  1.7646   2.3489   2.4503   2.4640   2.4649   2.5463   2.5578   2.5781
  2.6160   2.7015   2.8203   2.8569   2.8573   2.9206   2.9376   2.9595
  2.9674   2.9764   3.0105   3.0448   3.0841   3.0897   3.1114   3.1119
  3.1435   3.1523   3.1810   3.2137   3.2205   3.2356   3.2813   3.3315
  3.3368   3.3694   3.3740   3.3847   3.3940   3.3959   3.4171   3.4578
  3.4809   3.4951   3.5233   3.5263   3.5703   3.6006   3.6358   3.6404
  3.6499   3.6835   3.7339   3.7427   3.7793   3.7797   3.8892   3.9043
  3.9564   3.9584   3.9647   3.9770   3.9849   4.0035   4.0807   4.0868
  4.1115   4.1389   4.1522   4.1681   4.1737   4.1993   4.2116   4.2398
  4.2618   4.2976   4.3047   4.3960   4.4342   4.4584   4.4640   4.4669
  4.4833   4.6326   4.6425   4.6443   4.7467   4.8957   4.8963   4.9376
  5.0186   5.0368   5.0413   5.0695   5.1314   5.1666   5.1716   5.1931
  5.2275   5.3616   5.3722   5.3792   5.4266   5.4412   5.4904   5.5002
  5.5092   5.5318   5.5425   5.5537   5.6248   5.6532   5.6838   5.8009
  5.9673   6.4627   6.4921   6.4961   6.5031   6.5114  25.2114  25.5907
 25.6010
 --------------------------------------------------------------
 
 -----------------------------------------------------------------
                    Cartesian Multipole Moments
 -----------------------------------------------------------------
    Charge (ESU x 10^10)
                 0.0000
    Dipole Moment (Debye)
         X       0.0000      Y       0.0000      Z      -0.0183
       Tot       0.0183
    Quadrupole Moments (Debye-Ang)
        XX     -21.8274     XY      -0.0000     YY     -21.1657
        XZ       0.0000     YZ       0.0000     ZZ     -21.6335
    Octopole Moments (Debye-Ang^2)
       XXX       0.0001    XXY      -0.0005    XYY       0.0000
       YYY       0.0006    XXZ      -1.2792    XYZ       0.0000
       YYZ       0.4207    XZZ       0.0000    YZZ      -0.0006
       ZZZ      -0.1554
    Hexadecapole Moments (Debye-Ang^3)
      XXXX    -197.4818   XXXY      -0.0000   XXYY     -40.9407
      XYYY       0.0000   YYYY     -42.0193   XXXZ       0.0001
      XXYZ       0.0018   XYYZ      -0.0000   YYYZ       0.0012
      XXZZ     -44.2115   XYZZ       0.0000   YYZZ     -16.6090
      XZZZ       0.0000   YZZZ       0.0013   ZZZZ     -70.1197
 -----------------------------------------------------------------
Archival summary:
1\1\centos77-c4\SP\ProcedureUnspecified\BasisUnspecified\38\shihchen\TueJul702:27:302020TueJul702:27:302020\0\\#,ProcedureUnspecified,BasisUnspecified,\\0,1\C\H,1,1.09047\H,1,1.09053,2,106.26\C,1,1.52785,2,109.486,3,-118.151,0\H,4,1.04603,1,110.791,2,178.359,0\H,4,1.04607,1,110.791,2,-62.1956,0\H,4,1.05203,1,111.459,2,58.0816,0\C,1,1.52785,2,109.486,3,118.151,0\H,8,1.04603,1,110.791,2,-178.359,0\H,8,1.04606,1,110.791,2,62.1956,0\H,8,1.05203,1,111.459,2,-58.0817,0\\\@

 Total job time:  27.27s(wall), 74.24s(cpu) 
 Tue Jul  7 02:27:30 2020

        *************************************************************
        *                                                           *
        *  Thank you very much for using Q-Chem.  Have a nice day.  *
        *                                                           *
        *************************************************************


