                  Welcome to Q-Chem
     A Quantum Leap Into The Future Of Chemistry


 Q-Chem 5.3 (devel), Q-Chem, Inc., Pleasanton, CA (2020)

 Yihan Shao,  Zhengting Gan,  E. Epifanovsky,  A. T. B. Gilbert,  M. Wormit,  
 J. Kussmann,  A. W. Lange,  A. Behn,  Jia Deng,  Xintian Feng,  D. Ghosh,  
 M. Goldey,  P. R. Horn,  L. D. Jacobson,  I. Kaliman,  T. Kus,  A. Landau,  
 Jie Liu,  E. I. Proynov,  R. M. Richard,  R. P. Steele,  E. J. Sundstrom,  
 H. L. Woodcock III,  P. M. Zimmerman,  D. Zuev,  B. Alam,  B. Albrecht,  
 E. Alguire,  S. A. Baeppler,  D. Barton,  Z. Benda,  Y. A. Bernard,  
 E. J. Berquist,  K. B. Bravaya,  H. Burton,  K. Carter-Fenk,  D. Casanova,  
 Chun-Min Chang,  Yunqing Chen,  A. Chien,  K. D. Closser,  M. P. Coons,  
 S. Coriani,  S. Dasgupta,  A. L. Dempwolff,  M. Diedenhofen,  Hainam Do,  
 R. G. Edgar,  Po-Tung Fang,  S. Faraji,  S. Fatehi,  Qingguo Feng,  
 J. Fosso-Tande,  J. Gayvert,  Qinghui Ge,  A. Ghysels,  G. Gidofalvi,  
 J. Gomes,  J. Gonthier,  A. Gunina,  D. Hait,  M. W. D. Hanson-Heine,  
 P. H. P. Harbach,  A. W. Hauser,  M. F. Herbst,  J. E. Herr,  
 E. G. Hohenstein,  Z. C. Holden,  Kerwin Hui,  B. C. Huynh,  T.-C. Jagau,  
 Hyunjun Ji,  B. Kaduk,  K. Khistyaev,  Jaehoon Kim,  P. Klunzinger,  K. Koh,  
 D. Kosenkov,  L. Koulias,  T. Kowalczyk,  C. M. Krauter,  A. Kunitsa,  
 Ka Un Lao,  A. Laurent,  K. V. Lawler,  Joonho Lee,  D. Lefrancois,  
 S. Lehtola,  D. S. Levine,  Yi-Pei Li,  You-Sheng Lin,  Fenglai Liu,  
 Kuan-Yu Liu,  E. Livshits,  M. Loipersberger,  A. Luenser,  P. Manohar,  
 E. Mansoor,  S. F. Manzer,  Shan-Ping Mao,  Yuezhi Mao,  N. Mardirossian,  
 A. V. Marenich,  T. Markovich,  L. A. Martinez-Martinez,  S. A. Maurer,  
 N. J. Mayhall,  S. C. McKenzie,  J.-M. Mewes,  P. Morgante,  A. F. Morrison,  
 J. W. Mullinax,  K. Nanda,  T. S. Nguyen-Beck,  R. Olivares-Amaya,  
 K. J. Oosterbaan,  J. A. Parkhill,  S. K. Paul,  F. Pavosevic,  Zheng Pei,  
 T. M. Perrine,  F. Plasser,  P. Pokhilko,  S. Prager,  A. Prociuk,  
 E. Ramos,  B. Rana,  D. R. Rehn,  F. Rob,  M. Scheurer,  M. Schneider,  
 N. Sergueev,  S. M. Sharada,  S. Sharma,  D. W. Small,  T. Stauch,  
 C. J. Stein,  T. Stein,  Yu-Chuan Su,  S. P. Veccham,  Zhen Tao,  
 A. J. W. Thom,  A. Tkatchenko,  T. Tsuchimochi,  N. M. Tubman,  L. Vogt,  
 M. L. Vidal,  O. Vydrov,  M. A. Watson,  J. Wenzel,  M. de Wergifosse,  
 T. A. Wesolowski,  A. White,  J. Witte,  A. Yamada,  Jun Yang,  K. Yao,  
 S. Yeganeh,  S. R. Yost,  Zhi-Qiang You,  A. Zech,  Igor Ying Zhang,  
 Xing Zhang,  Yan Zhao,  Ying Zhu,  B. R. Brooks,  G. K. L. Chan,  
 C. J. Cramer,  M. S. Gordon,  W. J. Hehre,  A. Klamt,  M. W. Schmidt,  
 C. D. Sherrill,  D. G. Truhlar,  A. Aspuru-Guzik,  R. Baer,  A. T. Bell,  
 N. A. Besley,  Jeng-Da Chai,  A. E. DePrince, III,  R. A. DiStasio Jr.,  
 A. Dreuw,  B. D. Dunietz,  T. R. Furlani,  Chao-Ping Hsu,  Yousung Jung,  
 Jing Kong,  D. S. Lambrecht,  WanZhen Liang,  C. Ochsenfeld,  
 V. A. Rassolov,  L. V. Slipchenko,  J. E. Subotnik,  T. Van Voorhis,  
 J. M. Herbert,  A. I. Krylov,  P. M. W. Gill,  M. Head-Gordon

 Contributors to earlier versions of Q-Chem not listed above: 
 R. D. Adamson,  B. Austin,  J. Baker,  G. J. O. Beran,  K. Brandhorst,  
 S. T. Brown,  E. F. C. Byrd,  A. K. Chakraborty,  C.-L. Cheng,  
 Siu Hung Chien,  D. M. Chipman,  D. L. Crittenden,  H. Dachsel,  
 R. J. Doerksen,  A. D. Dutoi,  L. Fusti-Molnar,  W. A. Goddard III,  
 A. Golubeva-Zadorozhnaya,  S. R. Gwaltney,  G. Hawkins,  A. Heyden,  
 S. Hirata,  G. Kedziora,  F. J. Keil,  C. Kelley,  Jihan Kim,  R. A. King,  
 R. Z. Khaliullin,  P. P. Korambath,  W. Kurlancheek,  A. M. Lee,  M. S. Lee,  
 S. V. Levchenko,  Ching Yeh Lin,  D. Liotard,  R. C. Lochan,  I. Lotan,  
 P. E. Maslen,  N. Nair,  D. P. O'Neill,  D. Neuhauser,  E. Neuscamman,  
 C. M. Oana,  R. Olson,  B. Peters,  R. Peverati,  P. A. Pieniazek,  
 Y. M. Rhee,  J. Ritchie,  M. A. Rohrdanz,  E. Rosta,  N. J. Russ,  
 H. F. Schaefer III,  N. E. Schultz,  N. Shenvi,  A. C. Simmonett,  A. Sodt,  
 D. Stuck,  K. S. Thanthiriwatte,  V. Vanovschi,  Tao Wang,  A. Warshel,  
 C. F. Williams,  Q. Wu,  X. Xu,  W. Zhang

 Please cite Q-Chem as follows:
 Y. Shao et al., Mol. Phys. 113, 184-215 (2015)
 DOI: 10.1080/00268976.2014.952696

 Q-Chem 5.3.0 for Intel X86 EM64T Linux

 Parts of Q-Chem use Armadillo 9.800.1 (Horizon Scraper).
 http://arma.sourceforge.net/

 Q-Chem begins on Tue Jul  7 01:33:40 2020  

Host: centos77-c4
0

     Scratch files written to /tmp/26964.centos77-h1/qchem101516//
Processing $rem in /opt/qchem-5.3.0-intel2020u1//config/preferences:
Processing $rem in /home/shihchengli/.qchemrc:

Checking the input file for inconsistencies... 	...done.

--------------------------------------------------------------
User input:
--------------------------------------------------------------
$rem
   JOBTYPE  sp
   EXCHANGE   omegaB97X-D
   BASIS   6-311+G(2df,2pd)
   UNRESTRICTED   False
   max_scf_cycles   250
   geom_opt_max_cycles   1500
   basis2 6-31G*
   scf_algorithm rca_diis
   SYM_IGNORE  TRUE
   print_input   true
   geom_opt_dmax   80
   pop_mulliken false
   XC_GRID 000075000302
$end

$molecule
0 1
C       1.2621385021     -0.0108927666     0.2838379725
C       0.0000000220     0.0150716204     -0.6001460920
H       1.3442539692     -0.8875982855     0.9276714708
H       1.3523519410     0.8864449980     0.8991002709
H       2.1247584991     -0.0113802635     -0.3854655605
C       -1.2621385260     -0.0108928015     0.2838380028
H       -0.0000001076     -0.8595415482     -1.2559353684
H       -0.0000000016     0.8913226525     -1.2531618666
H       -1.3442539376     -0.8875983191     0.9276714762
H       -2.1247584348     -0.0113795671     -0.3854656234
H       -1.3523519865     0.8864449464     0.8991003366
$end
--------------------------------------------------------------
 ----------------------------------------------------------------
             Standard Nuclear Orientation (Angstroms)
    I     Atom           X                Y                Z
 ----------------------------------------------------------------
    1      C       1.2621385021    -0.0108927666     0.2838379725
    2      C       0.0000000220     0.0150716204    -0.6001460920
    3      H       1.3442539692    -0.8875982855     0.9276714708
    4      H       1.3523519410     0.8864449980     0.8991002709
    5      H       2.1247584991    -0.0113802635    -0.3854655605
    6      C      -1.2621385260    -0.0108928015     0.2838380028
    7      H      -0.0000001076    -0.8595415482    -1.2559353684
    8      H      -0.0000000016     0.8913226525    -1.2531618666
    9      H      -1.3442539376    -0.8875983191     0.9276714762
   10      H      -2.1247584348    -0.0113795671    -0.3854656234
   11      H      -1.3523519865     0.8864449464     0.8991003366
 ----------------------------------------------------------------
 Nuclear Repulsion Energy =          82.29302439 hartrees
 There are       13 alpha and       13 beta electrons
 Requested basis set is 6-311+G(2df,2pd)
 There are 72 shells and 214 basis functions

 Total QAlloc Memory Limit   2000 MB
 Mega-Array Size       188 MB
 MEM_STATIC part       192 MB

                       Distance Matrix (Angstroms)
             C (  1)   C (  2)   H (  3)   H (  4)   H (  5)   C (  6)
   C (  2)  1.541134
   H (  3)  1.090815  2.226221
   H (  4)  1.091742  2.199065  1.774292
   H (  5)  1.091824  2.135740  1.761043  1.747230
   C (  6)  2.524277  1.541135  2.824255  2.831841  3.452396
   H (  7)  2.164278  1.093164  2.564361  3.085693  2.447794  2.164278
   H (  8)  2.183885  1.092815  3.118912  2.541872  2.466246  2.183885
   H (  9)  2.824255  2.226221  2.688508  3.227961  3.811317  1.090815
   H ( 10)  3.452396  2.135740  3.811317  3.813987  4.249517  1.091824
   H ( 11)  2.831841  2.199065  3.227961  2.704704  3.813987  1.091742
             H (  7)   H (  8)   H (  9)   H ( 10)
   H (  8)  1.750866
   H (  9)  2.564360  3.118912
   H ( 10)  2.447794  2.466245  1.761044
   H ( 11)  3.085693  2.541872  1.774292  1.747229
 
 A cutoff of  1.0D-09 yielded   2528 shell pairs
 There are     22530 function pairs (     27705 Cartesian)
 Smallest overlap matrix eigenvalue = 8.95E-05

 Scale SEOQF with 1.000000e-01/1.000000e-01/1.000000e-01

 Standard Electronic Orientation quadrupole field applied
 Nucleus-field energy     =     0.0000000005 hartrees
 Requested basis set is 6-31G(d)
 There are 28 shells and 58 basis functions
 A cutoff of  1.0D-09 yielded    402 shell pairs
 There are      1773 function pairs (      1968 Cartesian)
 Smallest overlap matrix eigenvalue = 6.91E-03
 Guess from superposition of atomic densities
 Warning:  Energy on first SCF cycle will be non-variational
 SAD guess density has 26.000000 electrons
 Long-range K will be added via erf
 Coulomb attenuation parameter = 0.2 bohr**(-1)
 A restricted hybrid HF-DFT SCF calculation will be
 performed using Relaxed Constraint Minimization + Pulay DIIS
 Exchange:     0.2220 Hartree-Fock + 1.0000 wB97X-D + LR-HF
 Correlation:  1.0000 wB97X-D
 Using Euler-Maclaurin-Lebedev (75,302) quadrature formula
 Dispersion:   Grimme D
 SCF converges when DIIS error is below 1.0E-04
 using 3 threads for integral computing
 -------------------------------------------------------
 OpenMP Integral computing Module                
 Release: version 1.0, May 2013, Q-Chem Inc. Pittsburgh 
 -------------------------------------------------------
 using 3 threads for integral computing
 -------------------------------------------------------
 OpenMP Integral computing Module                
 Release: version 1.0, May 2013, Q-Chem Inc. Pittsburgh 
 -------------------------------------------------------
 ---------------------------------------
  Cycle       Energy         DIIS Error
 ---------------------------------------
    1    -119.5722738914      9.89E-02
    2    -119.0651028230      8.91E-03
    3    -119.0857581539      2.45E-03
    4    -119.0993510451      1.67E-03
    5    -119.1000384309      2.67E-04 Done RCA. Switching to DIIS
    6    -119.1005402677      1.96E-04
    7    -119.1005568685      5.11E-06 Convergence criterion met
 ---------------------------------------
 SCF time:  CPU 19.19 s  wall 7.00 s
 SCF   energy in the small basis set = -119.10055687
 Total energy in the small basis set = -119.10055687
 ----------------------------------------------------
  Cycle       Energy    
 ----------------------------------------------------
    1     -16.5260946425     -1.65E+01
 Long-range K will be added via erf
 Coulomb attenuation parameter = 0.2 bohr**(-1)
 A restricted hybrid HF-DFT SCF calculation will be
 performed using Relaxed Constraint Minimization + Pulay DIIS
 Exchange:     0.2220 Hartree-Fock + 1.0000 wB97X-D + LR-HF
 Correlation:  1.0000 wB97X-D
 Using Euler-Maclaurin-Lebedev (75,302) quadrature formula
 Dispersion:   Grimme D
 SCF converges when DIIS error is below 1.0E-05
 Basis2 calculation detected. Using small basis as guess for larger.
 SCFMinFind is unable to tell whether the solution found is close.
 Resetting ReadMinima to 0 and attempting to follow guess.
 SCFMinFind following SCF Guess.
 using 3 threads for integral computing
 -------------------------------------------------------
 OpenMP Integral computing Module                
 Release: version 1.0, May 2013, Q-Chem Inc. Pittsburgh 
 -------------------------------------------------------
 using 3 threads for integral computing
 -------------------------------------------------------
 OpenMP Integral computing Module                
 Release: version 1.0, May 2013, Q-Chem Inc. Pittsburgh 
 -------------------------------------------------------
 ---------------------------------------
  Cycle       Energy         DIIS Error
 ---------------------------------------
    1    -119.1194805164      4.21E-03
    2    -119.1415257807      5.97E-04 Done RCA. Switching to DIIS
    3    -119.1423605274      4.18E-04
    4    -119.1433187053      4.55E-05
    5    -119.1433334659      9.21E-06 Convergence criterion met
 ---------------------------------------
 SCF time:  CPU 44.61 s  wall 15.15 s
 SCF   energy in the final basis set = -119.14333347
 Total energy in the final basis set = -119.14333347
 
 --------------------------------------------------------------
 
                    Orbital Energies (a.u.)
 --------------------------------------------------------------
 
 Alpha MOs
 -- Occupied --
-10.2779 -10.2650 -10.2650  -0.8766  -0.7752  -0.6792  -0.5433  -0.5171
 -0.4850  -0.4653  -0.4258  -0.4114  -0.4030
 -- Virtual --
  0.0686   0.0860   0.0903   0.0996   0.1261   0.1302   0.1333   0.1411
  0.1432   0.1699   0.1719   0.1906   0.2385   0.2399   0.2440   0.2661
  0.2835   0.2839   0.3030   0.3100   0.3387   0.3453   0.4591   0.4603
  0.4729   0.5132   0.5178   0.5220   0.5395   0.5593   0.5851   0.5857
  0.6139   0.6149   0.6471   0.6497   0.6553   0.6614   0.7059   0.7255
  0.7282   0.7690   0.8141   0.8548   0.8730   0.8742   0.8822   0.9556
  0.9951   1.0524   1.0587   1.1462   1.1568   1.1700   1.2035   1.2078
  1.2134   1.2276   1.2571   1.2677   1.2748   1.2833   1.3195   1.3802
  1.3915   1.3944   1.4061   1.4561   1.4668   1.4685   1.4757   1.4880
  1.5156   1.5814   1.6036   1.6068   1.6400   1.6567   1.6872   1.7068
  1.7074   2.3605   2.4649   2.4753   2.5041   2.5402   2.5506   2.5866
  2.6275   2.7009   2.8130   2.8235   2.8707   2.8834   2.9133   2.9220
  2.9343   2.9433   2.9963   3.0113   3.0573   3.0733   3.0842   3.0947
  3.1271   3.1452   3.1795   3.1988   3.1993   3.2239   3.2827   3.3099
  3.3230   3.3327   3.3342   3.3404   3.3527   3.3720   3.3947   3.4553
  3.4629   3.4750   3.4916   3.5305   3.5612   3.5697   3.6022   3.6219
  3.6304   3.6600   3.6811   3.7095   3.7737   3.8237   3.8682   3.8791
  3.9008   3.9139   3.9341   3.9630   3.9738   4.0110   4.0231   4.0499
  4.0726   4.1028   4.1169   4.1219   4.1522   4.1586   4.1771   4.1825
  4.2085   4.2469   4.2481   4.3414   4.3576   4.4069   4.4134   4.4320
  4.4509   4.5358   4.5613   4.5764   4.6753   4.8012   4.8548   4.8821
  4.9262   4.9651   4.9758   4.9859   5.0120   5.0123   5.0695   5.1009
  5.1418   5.2428   5.2562   5.2752   5.2784   5.3344   5.3427   5.3559
  5.3833   5.4178   5.4526   5.4907   5.5020   5.5251   5.5944   5.6921
  5.9300   6.3681   6.3857   6.3970   6.4240   6.4530  25.1761  25.4273
 25.4454
 --------------------------------------------------------------
 
 -----------------------------------------------------------------
                    Cartesian Multipole Moments
 -----------------------------------------------------------------
    Charge (ESU x 10^10)
                 0.0000
    Dipole Moment (Debye)
         X       0.0000      Y       0.0068      Z      -0.1166
       Tot       0.1168
    Quadrupole Moments (Debye-Ang)
        XX     -22.4923     XY      -0.0000     YY     -21.2665
        XZ       0.0000     YZ      -0.1119     ZZ     -21.6300
    Octopole Moments (Debye-Ang^2)
       XXX       0.0000    XXY       0.0025    XYY       0.0000
       YYY       0.1383    XXZ      -1.2225    XYZ       0.0000
       YYZ       0.3786    XZZ      -0.0000    YZZ      -0.0279
       ZZZ      -1.0200
    Hexadecapole Moments (Debye-Ang^3)
      XXXX    -207.0926   XXXY      -0.0000   XXYY     -41.7956
      XYYY       0.0000   YYYY     -44.0126   XXXZ       0.0000
      XXYZ      -0.0375   XYYZ       0.0000   YYYZ       0.2504
      XXZZ     -45.0908   XYZZ       0.0000   YYZZ     -17.1555
      XZZZ       0.0000   YZZZ       0.0639   ZZZZ     -73.5943
 -----------------------------------------------------------------
Archival summary:
1\1\centos77-c4\SP\ProcedureUnspecified\BasisUnspecified\38\shihchen\TueJul701:34:052020TueJul701:34:052020\0\\#,ProcedureUnspecified,BasisUnspecified,\\0,1\C\H,1,1.09282\H,1,1.09316,2,106.442\C,1,1.54113,2,110.871,3,118.78,0\H,4,1.09081,1,114.44,2,-177.332,0\H,4,1.09174,1,112.153,2,58.1535,0\H,4,1.09182,1,107.183,2,-58.1397,0\C,1,1.54113,2,110.871,3,-118.78,0\H,8,1.09081,1,114.44,2,177.332,0\H,8,1.09174,1,112.153,2,-58.1535,0\H,8,1.09182,1,107.183,2,58.1396,0\\\@

 Total job time:  25.05s(wall), 67.37s(cpu) 
 Tue Jul  7 01:34:05 2020

        *************************************************************
        *                                                           *
        *  Thank you very much for using Q-Chem.  Have a nice day.  *
        *                                                           *
        *************************************************************


