                  Welcome to Q-Chem
     A Quantum Leap Into The Future Of Chemistry


 Q-Chem 5.3 (devel), Q-Chem, Inc., Pleasanton, CA (2020)

 Yihan Shao,  Zhengting Gan,  E. Epifanovsky,  A. T. B. Gilbert,  M. Wormit,  
 J. Kussmann,  A. W. Lange,  A. Behn,  Jia Deng,  Xintian Feng,  D. Ghosh,  
 M. Goldey,  P. R. Horn,  L. D. Jacobson,  I. Kaliman,  T. Kus,  A. Landau,  
 Jie Liu,  E. I. Proynov,  R. M. Richard,  R. P. Steele,  E. J. Sundstrom,  
 H. L. Woodcock III,  P. M. Zimmerman,  D. Zuev,  B. Alam,  B. Albrecht,  
 E. Alguire,  S. A. Baeppler,  D. Barton,  Z. Benda,  Y. A. Bernard,  
 E. J. Berquist,  K. B. Bravaya,  H. Burton,  K. Carter-Fenk,  D. Casanova,  
 Chun-Min Chang,  Yunqing Chen,  A. Chien,  K. D. Closser,  M. P. Coons,  
 S. Coriani,  S. Dasgupta,  A. L. Dempwolff,  M. Diedenhofen,  Hainam Do,  
 R. G. Edgar,  Po-Tung Fang,  S. Faraji,  S. Fatehi,  Qingguo Feng,  
 J. Fosso-Tande,  J. Gayvert,  Qinghui Ge,  A. Ghysels,  G. Gidofalvi,  
 J. Gomes,  J. Gonthier,  A. Gunina,  D. Hait,  M. W. D. Hanson-Heine,  
 P. H. P. Harbach,  A. W. Hauser,  M. F. Herbst,  J. E. Herr,  
 E. G. Hohenstein,  Z. C. Holden,  Kerwin Hui,  B. C. Huynh,  T.-C. Jagau,  
 Hyunjun Ji,  B. Kaduk,  K. Khistyaev,  Jaehoon Kim,  P. Klunzinger,  K. Koh,  
 D. Kosenkov,  L. Koulias,  T. Kowalczyk,  C. M. Krauter,  A. Kunitsa,  
 Ka Un Lao,  A. Laurent,  K. V. Lawler,  Joonho Lee,  D. Lefrancois,  
 S. Lehtola,  D. S. Levine,  Yi-Pei Li,  You-Sheng Lin,  Fenglai Liu,  
 Kuan-Yu Liu,  E. Livshits,  M. Loipersberger,  A. Luenser,  P. Manohar,  
 E. Mansoor,  S. F. Manzer,  Shan-Ping Mao,  Yuezhi Mao,  N. Mardirossian,  
 A. V. Marenich,  T. Markovich,  L. A. Martinez-Martinez,  S. A. Maurer,  
 N. J. Mayhall,  S. C. McKenzie,  J.-M. Mewes,  P. Morgante,  A. F. Morrison,  
 J. W. Mullinax,  K. Nanda,  T. S. Nguyen-Beck,  R. Olivares-Amaya,  
 K. J. Oosterbaan,  J. A. Parkhill,  S. K. Paul,  F. Pavosevic,  Zheng Pei,  
 T. M. Perrine,  F. Plasser,  P. Pokhilko,  S. Prager,  A. Prociuk,  
 E. Ramos,  B. Rana,  D. R. Rehn,  F. Rob,  M. Scheurer,  M. Schneider,  
 N. Sergueev,  S. M. Sharada,  S. Sharma,  D. W. Small,  T. Stauch,  
 C. J. Stein,  T. Stein,  Yu-Chuan Su,  S. P. Veccham,  Zhen Tao,  
 A. J. W. Thom,  A. Tkatchenko,  T. Tsuchimochi,  N. M. Tubman,  L. Vogt,  
 M. L. Vidal,  O. Vydrov,  M. A. Watson,  J. Wenzel,  M. de Wergifosse,  
 T. A. Wesolowski,  A. White,  J. Witte,  A. Yamada,  Jun Yang,  K. Yao,  
 S. Yeganeh,  S. R. Yost,  Zhi-Qiang You,  A. Zech,  Igor Ying Zhang,  
 Xing Zhang,  Yan Zhao,  Ying Zhu,  B. R. Brooks,  G. K. L. Chan,  
 C. J. Cramer,  M. S. Gordon,  W. J. Hehre,  A. Klamt,  M. W. Schmidt,  
 C. D. Sherrill,  D. G. Truhlar,  A. Aspuru-Guzik,  R. Baer,  A. T. Bell,  
 N. A. Besley,  Jeng-Da Chai,  A. E. DePrince, III,  R. A. DiStasio Jr.,  
 A. Dreuw,  B. D. Dunietz,  T. R. Furlani,  Chao-Ping Hsu,  Yousung Jung,  
 Jing Kong,  D. S. Lambrecht,  WanZhen Liang,  C. Ochsenfeld,  
 V. A. Rassolov,  L. V. Slipchenko,  J. E. Subotnik,  T. Van Voorhis,  
 J. M. Herbert,  A. I. Krylov,  P. M. W. Gill,  M. Head-Gordon

 Contributors to earlier versions of Q-Chem not listed above: 
 R. D. Adamson,  B. Austin,  J. Baker,  G. J. O. Beran,  K. Brandhorst,  
 S. T. Brown,  E. F. C. Byrd,  A. K. Chakraborty,  C.-L. Cheng,  
 Siu Hung Chien,  D. M. Chipman,  D. L. Crittenden,  H. Dachsel,  
 R. J. Doerksen,  A. D. Dutoi,  L. Fusti-Molnar,  W. A. Goddard III,  
 A. Golubeva-Zadorozhnaya,  S. R. Gwaltney,  G. Hawkins,  A. Heyden,  
 S. Hirata,  G. Kedziora,  F. J. Keil,  C. Kelley,  Jihan Kim,  R. A. King,  
 R. Z. Khaliullin,  P. P. Korambath,  W. Kurlancheek,  A. M. Lee,  M. S. Lee,  
 S. V. Levchenko,  Ching Yeh Lin,  D. Liotard,  R. C. Lochan,  I. Lotan,  
 P. E. Maslen,  N. Nair,  D. P. O'Neill,  D. Neuhauser,  E. Neuscamman,  
 C. M. Oana,  R. Olson,  B. Peters,  R. Peverati,  P. A. Pieniazek,  
 Y. M. Rhee,  J. Ritchie,  M. A. Rohrdanz,  E. Rosta,  N. J. Russ,  
 H. F. Schaefer III,  N. E. Schultz,  N. Shenvi,  A. C. Simmonett,  A. Sodt,  
 D. Stuck,  K. S. Thanthiriwatte,  V. Vanovschi,  Tao Wang,  A. Warshel,  
 C. F. Williams,  Q. Wu,  X. Xu,  W. Zhang

 Please cite Q-Chem as follows:
 Y. Shao et al., Mol. Phys. 113, 184-215 (2015)
 DOI: 10.1080/00268976.2014.952696

 Q-Chem 5.3.0 for Intel X86 EM64T Linux

 Parts of Q-Chem use Armadillo 9.800.1 (Horizon Scraper).
 http://arma.sourceforge.net/

 Q-Chem begins on Tue Jul  7 01:45:20 2020  

Host: centos77-c4
0

     Scratch files written to /tmp/26964.centos77-h1/qchem103819//
Processing $rem in /opt/qchem-5.3.0-intel2020u1//config/preferences:
Processing $rem in /home/shihchengli/.qchemrc:

Checking the input file for inconsistencies... 	...done.

--------------------------------------------------------------
User input:
--------------------------------------------------------------
$rem
   JOBTYPE  sp
   EXCHANGE   omegaB97X-D
   BASIS   6-311+G(2df,2pd)
   UNRESTRICTED   False
   max_scf_cycles   250
   geom_opt_max_cycles   1500
   basis2 6-31G*
   scf_algorithm rca_diis
   SYM_IGNORE  TRUE
   print_input   true
   geom_opt_dmax   80
   pop_mulliken false
   XC_GRID 000075000302
$end

$molecule
0 1
C       1.2691478054     -0.1484308129     0.2472792744
C       -0.0059699594     -0.0066229898     -0.5803893869
H       1.3698625186     -0.9767646915     0.9504435066
H       1.2366165301     0.7589472129     0.8561170743
H       2.1555322920     0.0133773999     -0.3663243799
C       -1.2673647933     0.1495434671     0.2556024255
H       0.4144458070     -0.7879079443     -1.2180421627
H       -0.3995070161     0.7738693065     -1.2359174860
H       -1.2563084932     -0.7778166868     0.8331073488
H       -2.1645773427     0.0149576789     -0.3500148918
H       -1.3518774092     0.9868487260     0.9491836967
$end
--------------------------------------------------------------
 ----------------------------------------------------------------
             Standard Nuclear Orientation (Angstroms)
    I     Atom           X                Y                Z
 ----------------------------------------------------------------
    1      C       1.2691478054    -0.1484308129     0.2472792744
    2      C      -0.0059699594    -0.0066229898    -0.5803893869
    3      H       1.3698625186    -0.9767646915     0.9504435066
    4      H       1.2366165301     0.7589472129     0.8561170743
    5      H       2.1555322920     0.0133773999    -0.3663243799
    6      C      -1.2673647933     0.1495434671     0.2556024255
    7      H       0.4144458070    -0.7879079443    -1.2180421627
    8      H      -0.3995070161     0.7738693065    -1.2359174860
    9      H      -1.2563084932    -0.7778166868     0.8331073488
   10      H      -2.1645773427     0.0149576789    -0.3500148918
   11      H      -1.3518774092     0.9868487260     0.9491836967
 ----------------------------------------------------------------
 Nuclear Repulsion Energy =          82.98538356 hartrees
 There are       13 alpha and       13 beta electrons
 Requested basis set is 6-311+G(2df,2pd)
 There are 72 shells and 214 basis functions

 Total QAlloc Memory Limit   2000 MB
 Mega-Array Size       188 MB
 MEM_STATIC part       192 MB

                       Distance Matrix (Angstroms)
             C (  1)   C (  2)   H (  3)   H (  4)   H (  5)   C (  6)
   C (  2)  1.526784
   H (  3)  1.091201  2.275421
   H (  4)  1.093196  2.047845  1.743373
   H (  5)  1.090123  2.172168  1.825250  1.701365
   C (  6)  2.553968  1.521311  2.950651  2.646113  3.481603
   H (  7)  1.812902  1.092592  2.377145  2.714933  2.097347  2.424651
   H (  8)  2.415558  1.092592  3.312939  2.655886  2.804062  1.835100
   H (  9)  2.667818  2.038642  2.636308  2.928626  3.702065  1.092534
   H ( 10)  3.489115  2.170973  3.894479  3.684616  4.320141  1.090814
   H ( 11)  2.941310  2.266726  3.356136  2.600173  3.870417  1.090540
             H (  7)   H (  8)   H (  9)   H ( 10)
   H (  8)  1.761246
   H (  9)  2.645512  2.724464
   H ( 10)  2.837151  2.115713  1.689148
   H ( 11)  3.311575  2.393123  1.771059  1.814654
 
 A cutoff of  1.0D-09 yielded   2525 shell pairs
 There are     22461 function pairs (     27616 Cartesian)
 Smallest overlap matrix eigenvalue = 1.35E-04

 Scale SEOQF with 1.000000e-01/1.000000e-01/1.000000e-01

 Standard Electronic Orientation quadrupole field applied
 Nucleus-field energy     =     0.0000000006 hartrees
 Requested basis set is 6-31G(d)
 There are 28 shells and 58 basis functions
 A cutoff of  1.0D-09 yielded    402 shell pairs
 There are      1773 function pairs (      1968 Cartesian)
 Smallest overlap matrix eigenvalue = 7.82E-03
 Guess from superposition of atomic densities
 Warning:  Energy on first SCF cycle will be non-variational
 SAD guess density has 26.000000 electrons
 Long-range K will be added via erf
 Coulomb attenuation parameter = 0.2 bohr**(-1)
 A restricted hybrid HF-DFT SCF calculation will be
 performed using Relaxed Constraint Minimization + Pulay DIIS
 Exchange:     0.2220 Hartree-Fock + 1.0000 wB97X-D + LR-HF
 Correlation:  1.0000 wB97X-D
 Using Euler-Maclaurin-Lebedev (75,302) quadrature formula
 Dispersion:   Grimme D
 SCF converges when DIIS error is below 1.0E-04
 using 3 threads for integral computing
 -------------------------------------------------------
 OpenMP Integral computing Module                
 Release: version 1.0, May 2013, Q-Chem Inc. Pittsburgh 
 -------------------------------------------------------
 using 3 threads for integral computing
 -------------------------------------------------------
 OpenMP Integral computing Module                
 Release: version 1.0, May 2013, Q-Chem Inc. Pittsburgh 
 -------------------------------------------------------
 ---------------------------------------
  Cycle       Energy         DIIS Error
 ---------------------------------------
    1    -119.6768991020      1.02E-01
    2    -118.9871737358      9.08E-03
    3    -119.0088970108      2.62E-03
    4    -119.0230508123      1.82E-03
    5    -119.0238693452      2.88E-04 Done RCA. Switching to DIIS
    6    -119.0244792967      2.14E-04
    7    -119.0244994123      7.48E-06 Convergence criterion met
 ---------------------------------------
 SCF time:  CPU 21.88 s  wall 8.31 s
 SCF   energy in the small basis set = -119.02449941
 Total energy in the small basis set = -119.02449941
 ----------------------------------------------------
  Cycle       Energy    
 ----------------------------------------------------
    1     -16.5383662722     -1.65E+01
 Long-range K will be added via erf
 Coulomb attenuation parameter = 0.2 bohr**(-1)
 A restricted hybrid HF-DFT SCF calculation will be
 performed using Relaxed Constraint Minimization + Pulay DIIS
 Exchange:     0.2220 Hartree-Fock + 1.0000 wB97X-D + LR-HF
 Correlation:  1.0000 wB97X-D
 Using Euler-Maclaurin-Lebedev (75,302) quadrature formula
 Dispersion:   Grimme D
 SCF converges when DIIS error is below 1.0E-05
 Basis2 calculation detected. Using small basis as guess for larger.
 SCFMinFind is unable to tell whether the solution found is close.
 Resetting ReadMinima to 0 and attempting to follow guess.
 SCFMinFind following SCF Guess.
 using 3 threads for integral computing
 -------------------------------------------------------
 OpenMP Integral computing Module                
 Release: version 1.0, May 2013, Q-Chem Inc. Pittsburgh 
 -------------------------------------------------------
 using 3 threads for integral computing
 -------------------------------------------------------
 OpenMP Integral computing Module                
 Release: version 1.0, May 2013, Q-Chem Inc. Pittsburgh 
 -------------------------------------------------------
 ---------------------------------------
  Cycle       Energy         DIIS Error
 ---------------------------------------
    1    -119.0458839743      4.22E-03
    2    -119.0681140489      6.52E-04 Done RCA. Switching to DIIS
    3    -119.0690528138      4.73E-04
    4    -119.0702874619      4.83E-05
    5    -119.0703049591      1.34E-05
    6    -119.0703061663      4.85E-06 Convergence criterion met
 ---------------------------------------
 SCF time:  CPU 51.78 s  wall 17.56 s
 SCF   energy in the final basis set = -119.07030617
 Total energy in the final basis set = -119.07030617
 
 --------------------------------------------------------------
 
                    Orbital Energies (a.u.)
 --------------------------------------------------------------
 
 Alpha MOs
 -- Occupied --
-10.2725 -10.2705 -10.2704  -0.8897  -0.7879  -0.6783  -0.5524  -0.5301
 -0.5109  -0.4762  -0.4360  -0.3980  -0.3407
 -- Virtual --
  0.0682   0.0825   0.0898   0.0993   0.1236   0.1245   0.1297   0.1438
  0.1508   0.1599   0.1814   0.1919   0.2146   0.2178   0.2271   0.2446
  0.2827   0.2893   0.3125   0.3228   0.3269   0.3386   0.4583   0.4659
  0.4751   0.5064   0.5235   0.5322   0.5477   0.5561   0.5847   0.5977
  0.6037   0.6117   0.6423   0.6473   0.6659   0.6898   0.7057   0.7157
  0.7211   0.7718   0.7845   0.8027   0.8402   0.8986   0.9258   0.9753
  1.0056   1.0280   1.0715   1.1105   1.1122   1.1523   1.1719   1.2144
  1.2185   1.2350   1.2749   1.2887   1.3259   1.3364   1.3576   1.3690
  1.3787   1.3877   1.4115   1.4342   1.4621   1.4663   1.4934   1.5102
  1.5290   1.5588   1.5978   1.6052   1.6239   1.6411   1.6683   1.7167
  1.7697   2.3959   2.4229   2.4481   2.4665   2.5413   2.5989   2.6260
  2.6677   2.7257   2.7423   2.7918   2.7941   2.8802   2.9014   2.9281
  2.9374   3.0212   3.0456   3.0496   3.0562   3.0596   3.0861   3.0958
  3.1288   3.1340   3.1578   3.1631   3.2494   3.2584   3.2648   3.3028
  3.3193   3.3492   3.3580   3.3669   3.4037   3.4333   3.4391   3.4528
  3.4666   3.5042   3.5187   3.5375   3.5513   3.5673   3.6013   3.6188
  3.6265   3.6410   3.6693   3.6813   3.6971   3.7027   3.7804   3.8409
  3.8507   3.8990   3.9278   3.9535   3.9605   3.9828   4.0215   4.0656
  4.0763   4.1185   4.1515   4.1569   4.1650   4.1895   4.1997   4.2104
  4.2497   4.2869   4.3127   4.3222   4.3525   4.4359   4.4566   4.4621
  4.4859   4.5421   4.5587   4.6752   4.7510   4.7961   4.8188   4.8991
  4.9008   4.9811   4.9932   5.0273   5.0319   5.0414   5.1105   5.1269
  5.1802   5.2050   5.2300   5.2354   5.3088   5.3152   5.3329   5.4022
  5.4141   5.4523   5.4639   5.5697   5.5883   5.6076   5.6458   5.8051
  6.1616   6.3634   6.3683   6.4187   6.4534   6.5327  25.1825  25.4335
 25.4392
 --------------------------------------------------------------
 
 -----------------------------------------------------------------
                    Cartesian Multipole Moments
 -----------------------------------------------------------------
    Charge (ESU x 10^10)
                -0.0000
    Dipole Moment (Debye)
         X       0.0038      Y       0.0060      Z       0.0331
       Tot       0.0338
    Quadrupole Moments (Debye-Ang)
        XX     -21.6872     XY      -1.0714     YY     -21.8305
        XZ      -0.0222     YZ      -0.0200     ZZ     -22.2192
    Octopole Moments (Debye-Ang^2)
       XXX      -0.0081    XXY       0.0321    XYY      -0.0678
       YYY       0.1053    XXZ      -2.0474    XYZ      -0.4443
       YYZ       1.3826    XZZ       0.1323    YZZ       0.0758
       ZZZ       0.3793
    Hexadecapole Moments (Debye-Ang^3)
      XXXX    -203.1980   XXXY       8.4673   XXYY     -42.0291
      XYYY       7.5078   YYYY     -45.7408   XXXZ       0.0469
      XXYZ      -0.1011   XYYZ      -0.0499   YYYZ      -0.1225
      XXZZ     -44.7696   XYZZ       0.0648   YYZZ     -18.1184
      XZZZ       0.2060   YZZZ      -0.1821   ZZZZ     -73.2787
 -----------------------------------------------------------------
Archival summary:
1\1\centos77-c4\SP\ProcedureUnspecified\BasisUnspecified\38\shihchen\TueJul701:45:492020TueJul701:45:492020\0\\#,ProcedureUnspecified,BasisUnspecified,\\0,1\C\H,1,1.09259\H,1,1.09259,2,107.413\C,1,1.52131,2,135.493,3,104.824,0\H,4,1.09054,1,119.509,2,168.946,0\H,4,1.09081,1,111.36,2,-57.0061,0\H,4,1.09253,1,101.242,2,50.0603,0\C,1,1.52678,2,85.9056,3,-134.835,0\H,8,1.09012,1,111.11,2,56.7995,0\H,8,1.0912,1,119.796,2,-78.8914,0\H,8,1.0932,1,101.535,2,165.066,0\\\@

 Total job time:  28.72s(wall), 77.18s(cpu) 
 Tue Jul  7 01:45:49 2020

        *************************************************************
        *                                                           *
        *  Thank you very much for using Q-Chem.  Have a nice day.  *
        *                                                           *
        *************************************************************


