                  Welcome to Q-Chem
     A Quantum Leap Into The Future Of Chemistry


 Q-Chem 5.3 (devel), Q-Chem, Inc., Pleasanton, CA (2020)

 Yihan Shao,  Zhengting Gan,  E. Epifanovsky,  A. T. B. Gilbert,  M. Wormit,  
 J. Kussmann,  A. W. Lange,  A. Behn,  Jia Deng,  Xintian Feng,  D. Ghosh,  
 M. Goldey,  P. R. Horn,  L. D. Jacobson,  I. Kaliman,  T. Kus,  A. Landau,  
 Jie Liu,  E. I. Proynov,  R. M. Richard,  R. P. Steele,  E. J. Sundstrom,  
 H. L. Woodcock III,  P. M. Zimmerman,  D. Zuev,  B. Alam,  B. Albrecht,  
 E. Alguire,  S. A. Baeppler,  D. Barton,  Z. Benda,  Y. A. Bernard,  
 E. J. Berquist,  K. B. Bravaya,  H. Burton,  K. Carter-Fenk,  D. Casanova,  
 Chun-Min Chang,  Yunqing Chen,  A. Chien,  K. D. Closser,  M. P. Coons,  
 S. Coriani,  S. Dasgupta,  A. L. Dempwolff,  M. Diedenhofen,  Hainam Do,  
 R. G. Edgar,  Po-Tung Fang,  S. Faraji,  S. Fatehi,  Qingguo Feng,  
 J. Fosso-Tande,  J. Gayvert,  Qinghui Ge,  A. Ghysels,  G. Gidofalvi,  
 J. Gomes,  J. Gonthier,  A. Gunina,  D. Hait,  M. W. D. Hanson-Heine,  
 P. H. P. Harbach,  A. W. Hauser,  M. F. Herbst,  J. E. Herr,  
 E. G. Hohenstein,  Z. C. Holden,  Kerwin Hui,  B. C. Huynh,  T.-C. Jagau,  
 Hyunjun Ji,  B. Kaduk,  K. Khistyaev,  Jaehoon Kim,  P. Klunzinger,  K. Koh,  
 D. Kosenkov,  L. Koulias,  T. Kowalczyk,  C. M. Krauter,  A. Kunitsa,  
 Ka Un Lao,  A. Laurent,  K. V. Lawler,  Joonho Lee,  D. Lefrancois,  
 S. Lehtola,  D. S. Levine,  Yi-Pei Li,  You-Sheng Lin,  Fenglai Liu,  
 Kuan-Yu Liu,  E. Livshits,  M. Loipersberger,  A. Luenser,  P. Manohar,  
 E. Mansoor,  S. F. Manzer,  Shan-Ping Mao,  Yuezhi Mao,  N. Mardirossian,  
 A. V. Marenich,  T. Markovich,  L. A. Martinez-Martinez,  S. A. Maurer,  
 N. J. Mayhall,  S. C. McKenzie,  J.-M. Mewes,  P. Morgante,  A. F. Morrison,  
 J. W. Mullinax,  K. Nanda,  T. S. Nguyen-Beck,  R. Olivares-Amaya,  
 K. J. Oosterbaan,  J. A. Parkhill,  S. K. Paul,  F. Pavosevic,  Zheng Pei,  
 T. M. Perrine,  F. Plasser,  P. Pokhilko,  S. Prager,  A. Prociuk,  
 E. Ramos,  B. Rana,  D. R. Rehn,  F. Rob,  M. Scheurer,  M. Schneider,  
 N. Sergueev,  S. M. Sharada,  S. Sharma,  D. W. Small,  T. Stauch,  
 C. J. Stein,  T. Stein,  Yu-Chuan Su,  S. P. Veccham,  Zhen Tao,  
 A. J. W. Thom,  A. Tkatchenko,  T. Tsuchimochi,  N. M. Tubman,  L. Vogt,  
 M. L. Vidal,  O. Vydrov,  M. A. Watson,  J. Wenzel,  M. de Wergifosse,  
 T. A. Wesolowski,  A. White,  J. Witte,  A. Yamada,  Jun Yang,  K. Yao,  
 S. Yeganeh,  S. R. Yost,  Zhi-Qiang You,  A. Zech,  Igor Ying Zhang,  
 Xing Zhang,  Yan Zhao,  Ying Zhu,  B. R. Brooks,  G. K. L. Chan,  
 C. J. Cramer,  M. S. Gordon,  W. J. Hehre,  A. Klamt,  M. W. Schmidt,  
 C. D. Sherrill,  D. G. Truhlar,  A. Aspuru-Guzik,  R. Baer,  A. T. Bell,  
 N. A. Besley,  Jeng-Da Chai,  A. E. DePrince, III,  R. A. DiStasio Jr.,  
 A. Dreuw,  B. D. Dunietz,  T. R. Furlani,  Chao-Ping Hsu,  Yousung Jung,  
 Jing Kong,  D. S. Lambrecht,  WanZhen Liang,  C. Ochsenfeld,  
 V. A. Rassolov,  L. V. Slipchenko,  J. E. Subotnik,  T. Van Voorhis,  
 J. M. Herbert,  A. I. Krylov,  P. M. W. Gill,  M. Head-Gordon

 Contributors to earlier versions of Q-Chem not listed above: 
 R. D. Adamson,  B. Austin,  J. Baker,  G. J. O. Beran,  K. Brandhorst,  
 S. T. Brown,  E. F. C. Byrd,  A. K. Chakraborty,  C.-L. Cheng,  
 Siu Hung Chien,  D. M. Chipman,  D. L. Crittenden,  H. Dachsel,  
 R. J. Doerksen,  A. D. Dutoi,  L. Fusti-Molnar,  W. A. Goddard III,  
 A. Golubeva-Zadorozhnaya,  S. R. Gwaltney,  G. Hawkins,  A. Heyden,  
 S. Hirata,  G. Kedziora,  F. J. Keil,  C. Kelley,  Jihan Kim,  R. A. King,  
 R. Z. Khaliullin,  P. P. Korambath,  W. Kurlancheek,  A. M. Lee,  M. S. Lee,  
 S. V. Levchenko,  Ching Yeh Lin,  D. Liotard,  R. C. Lochan,  I. Lotan,  
 P. E. Maslen,  N. Nair,  D. P. O'Neill,  D. Neuhauser,  E. Neuscamman,  
 C. M. Oana,  R. Olson,  B. Peters,  R. Peverati,  P. A. Pieniazek,  
 Y. M. Rhee,  J. Ritchie,  M. A. Rohrdanz,  E. Rosta,  N. J. Russ,  
 H. F. Schaefer III,  N. E. Schultz,  N. Shenvi,  A. C. Simmonett,  A. Sodt,  
 D. Stuck,  K. S. Thanthiriwatte,  V. Vanovschi,  Tao Wang,  A. Warshel,  
 C. F. Williams,  Q. Wu,  X. Xu,  W. Zhang

 Please cite Q-Chem as follows:
 Y. Shao et al., Mol. Phys. 113, 184-215 (2015)
 DOI: 10.1080/00268976.2014.952696

 Q-Chem 5.3.0 for Intel X86 EM64T Linux

 Parts of Q-Chem use Armadillo 9.800.1 (Horizon Scraper).
 http://arma.sourceforge.net/

 Q-Chem begins on Tue Jul  7 01:11:42 2020  

Host: centos77-c4
0

     Scratch files written to /tmp/26964.centos77-h1/qchem97752//
Processing $rem in /opt/qchem-5.3.0-intel2020u1//config/preferences:
Processing $rem in /home/shihchengli/.qchemrc:

Checking the input file for inconsistencies... 	...done.

--------------------------------------------------------------
User input:
--------------------------------------------------------------
$rem
   JOBTYPE  sp
   EXCHANGE   omegaB97X-D
   BASIS   6-311+G(2df,2pd)
   UNRESTRICTED   False
   max_scf_cycles   250
   geom_opt_max_cycles   1500
   basis2 6-31G*
   scf_algorithm rca_diis
   SYM_IGNORE  TRUE
   print_input   true
   geom_opt_dmax   80
   pop_mulliken false
   XC_GRID 000075000302
$end

$molecule
0 1
C       1.2440520381     0.1198918881     0.2630333671
C       -0.0000000519     0.2205920748     -0.6056475754
H       1.0263666281     -0.8734195231     0.6696376024
H       1.4854687348     0.7825012107     1.0911598408
H       2.1276740041     -0.0471495840     -0.3549817979
C       -1.2440523484     0.1198919692     0.2630329609
H       -0.0000001486     -0.8601827768     -0.7980704200
H       0.0000002684     0.6759434372     -1.5929344965
H       -1.0263664332     -0.8734195331     0.6696368595
H       -2.1276746780     -0.0471487533     -0.3549818568
H       -1.4854680740     0.7825002563     1.0911605349
$end
--------------------------------------------------------------
 ----------------------------------------------------------------
             Standard Nuclear Orientation (Angstroms)
    I     Atom           X                Y                Z
 ----------------------------------------------------------------
    1      C       1.2440520381     0.1198918881     0.2630333671
    2      C      -0.0000000519     0.2205920748    -0.6056475754
    3      H       1.0263666281    -0.8734195231     0.6696376024
    4      H       1.4854687348     0.7825012107     1.0911598408
    5      H       2.1276740041    -0.0471495840    -0.3549817979
    6      C      -1.2440523484     0.1198919692     0.2630329609
    7      H      -0.0000001486    -0.8601827768    -0.7980704200
    8      H       0.0000002684     0.6759434372    -1.5929344965
    9      H      -1.0263664332    -0.8734195331     0.6696368595
   10      H      -2.1276746780    -0.0471487533    -0.3549818568
   11      H      -1.4854680740     0.7825002563     1.0911605349
 ----------------------------------------------------------------
 Nuclear Repulsion Energy =          83.63870231 hartrees
 There are       13 alpha and       13 beta electrons
 Requested basis set is 6-311+G(2df,2pd)
 There are 72 shells and 214 basis functions

 Total QAlloc Memory Limit   2000 MB
 Mega-Array Size       188 MB
 MEM_STATIC part       192 MB

                       Distance Matrix (Angstroms)
             C (  1)   C (  2)   H (  3)   H (  4)   H (  5)   C (  6)
   C (  2)  1.520662
   H (  3)  1.095163  1.968919
   H (  4)  1.087716  2.324116  1.769330
   H (  5)  1.091161  2.159054  1.716230  1.786638
   C (  6)  2.488104  1.520662  2.511334  2.928332  3.431965
   H (  7)  1.906346  1.097771  1.791025  2.911051  2.320420  1.906345
   H (  8)  2.302493  1.087235  2.928000  3.069582  2.565616  2.302493
   H (  9)  2.511333  1.968918  2.052733  3.037939  3.417680  1.095163
   H ( 10)  3.431965  2.159055  3.417681  3.979252  4.255349  1.091161
   H ( 11)  2.928331  2.324116  3.037938  2.970937  3.979251  1.087716
             H (  7)   H (  8)   H (  9)   H ( 10)
   H (  8)  1.729593
   H (  9)  1.791024  2.928000
   H ( 10)  2.320420  2.565617  1.716230
   H ( 11)  2.911051  3.069582  1.769329  1.786638
 
 A cutoff of  1.0D-09 yielded   2541 shell pairs
 There are     22613 function pairs (     27822 Cartesian)
 Smallest overlap matrix eigenvalue = 1.04E-04

 Scale SEOQF with 1.000000e-01/1.000000e-01/1.000000e-01

 Standard Electronic Orientation quadrupole field applied
 Nucleus-field energy     =     0.0000000005 hartrees
 Requested basis set is 6-31G(d)
 There are 28 shells and 58 basis functions
 A cutoff of  1.0D-09 yielded    402 shell pairs
 There are      1773 function pairs (      1968 Cartesian)
 Smallest overlap matrix eigenvalue = 5.68E-03
 Guess from superposition of atomic densities
 Warning:  Energy on first SCF cycle will be non-variational
 SAD guess density has 26.000000 electrons
 Long-range K will be added via erf
 Coulomb attenuation parameter = 0.2 bohr**(-1)
 A restricted hybrid HF-DFT SCF calculation will be
 performed using Relaxed Constraint Minimization + Pulay DIIS
 Exchange:     0.2220 Hartree-Fock + 1.0000 wB97X-D + LR-HF
 Correlation:  1.0000 wB97X-D
 Using Euler-Maclaurin-Lebedev (75,302) quadrature formula
 Dispersion:   Grimme D
 SCF converges when DIIS error is below 1.0E-04
 using 3 threads for integral computing
 -------------------------------------------------------
 OpenMP Integral computing Module                
 Release: version 1.0, May 2013, Q-Chem Inc. Pittsburgh 
 -------------------------------------------------------
 using 3 threads for integral computing
 -------------------------------------------------------
 OpenMP Integral computing Module                
 Release: version 1.0, May 2013, Q-Chem Inc. Pittsburgh 
 -------------------------------------------------------
 ---------------------------------------
  Cycle       Energy         DIIS Error
 ---------------------------------------
    1    -119.7201453250      1.03E-01
    2    -119.0142138603      9.04E-03
    3    -119.0354958775      2.55E-03
    4    -119.0496804110      1.77E-03
    5    -119.0504383222      2.68E-04 Done RCA. Switching to DIIS
    6    -119.0510077800      2.00E-04
    7    -119.0510250509      5.50E-06 Convergence criterion met
 ---------------------------------------
 SCF time:  CPU 19.24 s  wall 6.89 s
 SCF   energy in the small basis set = -119.05102505
 Total energy in the small basis set = -119.05102505
 ----------------------------------------------------
  Cycle       Energy    
 ----------------------------------------------------
    1     -16.5534719669     -1.66E+01
 Long-range K will be added via erf
 Coulomb attenuation parameter = 0.2 bohr**(-1)
 A restricted hybrid HF-DFT SCF calculation will be
 performed using Relaxed Constraint Minimization + Pulay DIIS
 Exchange:     0.2220 Hartree-Fock + 1.0000 wB97X-D + LR-HF
 Correlation:  1.0000 wB97X-D
 Using Euler-Maclaurin-Lebedev (75,302) quadrature formula
 Dispersion:   Grimme D
 SCF converges when DIIS error is below 1.0E-05
 Basis2 calculation detected. Using small basis as guess for larger.
 SCFMinFind is unable to tell whether the solution found is close.
 Resetting ReadMinima to 0 and attempting to follow guess.
 SCFMinFind following SCF Guess.
 using 3 threads for integral computing
 -------------------------------------------------------
 OpenMP Integral computing Module                
 Release: version 1.0, May 2013, Q-Chem Inc. Pittsburgh 
 -------------------------------------------------------
 using 3 threads for integral computing
 -------------------------------------------------------
 OpenMP Integral computing Module                
 Release: version 1.0, May 2013, Q-Chem Inc. Pittsburgh 
 -------------------------------------------------------
 ---------------------------------------
  Cycle       Energy         DIIS Error
 ---------------------------------------
    1    -119.0724635762      4.21E-03
    2    -119.0943502319      6.02E-04 Done RCA. Switching to DIIS
    3    -119.0951830171      4.25E-04
    4    -119.0961676572      4.80E-05
    5    -119.0961837212      1.13E-05
    6    -119.0961845962      3.74E-06 Convergence criterion met
 ---------------------------------------
 SCF time:  CPU 49.78 s  wall 16.61 s
 SCF   energy in the final basis set = -119.09618460
 Total energy in the final basis set = -119.09618460
 
 --------------------------------------------------------------
 
                    Orbital Energies (a.u.)
 --------------------------------------------------------------
 
 Alpha MOs
 -- Occupied --
-10.2772 -10.2683 -10.2682  -0.8988  -0.7790  -0.6762  -0.5624  -0.5222
 -0.4968  -0.4471  -0.4313  -0.4140  -0.3810
 -- Virtual --
  0.0674   0.0859   0.0874   0.0938   0.1260   0.1282   0.1292   0.1341
  0.1422   0.1717   0.1738   0.1933   0.2209   0.2418   0.2444   0.2621
  0.2772   0.2895   0.3159   0.3164   0.3341   0.3494   0.4610   0.4638
  0.4707   0.4822   0.5110   0.5143   0.5415   0.5515   0.5727   0.5951
  0.6140   0.6266   0.6269   0.6521   0.6600   0.6944   0.7002   0.7260
  0.7299   0.7910   0.8294   0.8375   0.8641   0.9002   0.9469   0.9914
  1.0209   1.0363   1.0631   1.1099   1.1194   1.1567   1.2079   1.2186
  1.2285   1.2347   1.2935   1.3089   1.3387   1.3420   1.3579   1.3646
  1.3857   1.4172   1.4271   1.4283   1.4571   1.4654   1.5039   1.5396
  1.5472   1.5584   1.5914   1.5966   1.6351   1.6404   1.6626   1.7114
  1.7189   2.3918   2.4062   2.4228   2.5390   2.5701   2.6050   2.6272
  2.6550   2.6911   2.7938   2.8506   2.8723   2.8729   2.8993   2.9078
  2.9861   2.9865   3.0054   3.0151   3.0449   3.0562   3.0756   3.1133
  3.1505   3.1760   3.1809   3.2004   3.2244   3.2579   3.2714   3.2906
  3.3133   3.3287   3.3731   3.4013   3.4046   3.4151   3.4251   3.4601
  3.5008   3.5327   3.5399   3.5515   3.5565   3.5867   3.5899   3.6039
  3.6062   3.6327   3.6450   3.6768   3.7211   3.8109   3.8262   3.8351
  3.9009   3.9249   3.9411   3.9678   4.0002   4.0171   4.0341   4.0941
  4.1133   4.1310   4.1374   4.1809   4.2139   4.2344   4.2474   4.2550
  4.2685   4.2946   4.3019   4.3409   4.3663   4.3997   4.4720   4.4771
  4.6018   4.6140   4.6263   4.7377   4.7940   4.8129   4.8462   4.8744
  4.9320   4.9459   4.9722   4.9893   4.9909   5.1087   5.1184   5.1383
  5.1653   5.2117   5.2615   5.2808   5.2814   5.3238   5.3835   5.3993
  5.4166   5.4688   5.4777   5.5774   5.6148   5.6964   5.7668   5.7755
  5.9865   6.4074   6.4143   6.4386   6.4753   6.5678  25.1605  25.4461
 25.4476
 --------------------------------------------------------------
 
 -----------------------------------------------------------------
                    Cartesian Multipole Moments
 -----------------------------------------------------------------
    Charge (ESU x 10^10)
                -0.0000
    Dipole Moment (Debye)
         X       0.0000      Y      -0.3303      Z      -0.1363
       Tot       0.3573
    Quadrupole Moments (Debye-Ang)
        XX     -22.2460     XY       0.0000     YY     -21.8926
        XZ       0.0000     YZ       0.2905     ZZ     -21.5883
    Octopole Moments (Debye-Ang^2)
       XXX       0.0000    XXY      -1.7159    XYY       0.0000
       YYY      -7.1687    XXZ      -0.9402    XYZ       0.0000
       YYZ       0.6209    XZZ       0.0000    YZZ      -0.3713
       ZZZ      -0.8829
    Hexadecapole Moments (Debye-Ang^3)
      XXXX    -195.8068   XXXY       0.0000   XXYY     -41.7151
      XYYY       0.0000   YYYY     -44.3867   XXXZ       0.0000
      XXYZ       2.3750   XYYZ       0.0000   YYYZ       1.1083
      XXZZ     -43.3790   XYZZ       0.0000   YYZZ     -18.6309
      XZZZ      -0.0000   YZZZ       0.5706   ZZZZ     -69.4496
 -----------------------------------------------------------------
Archival summary:
1\1\centos77-c4\SP\ProcedureUnspecified\BasisUnspecified\38\shihchen\TueJul701:12:082020TueJul701:12:082020\0\\#,ProcedureUnspecified,BasisUnspecified,\\0,1\C\H,1,1.08724\H,1,1.09777,2,104.665\C,1,1.52066,2,123.125,3,-102.35,0\H,4,1.08772,1,125.181,2,-100.213,0\H,4,1.09116,1,110.431,2,35.2407,0\H,4,1.09516,1,96.2887,2,142.132,0\C,1,1.52066,2,123.125,3,102.35,0\H,8,1.08772,1,125.181,2,100.213,0\H,8,1.09116,1,110.431,2,-35.2407,0\H,8,1.09516,1,96.2888,2,-142.132,0\\\@

 Total job time:  26.45s(wall), 72.67s(cpu) 
 Tue Jul  7 01:12:08 2020

        *************************************************************
        *                                                           *
        *  Thank you very much for using Q-Chem.  Have a nice day.  *
        *                                                           *
        *************************************************************


