                  Welcome to Q-Chem
     A Quantum Leap Into The Future Of Chemistry


 Q-Chem 5.3 (devel), Q-Chem, Inc., Pleasanton, CA (2020)

 Yihan Shao,  Zhengting Gan,  E. Epifanovsky,  A. T. B. Gilbert,  M. Wormit,  
 J. Kussmann,  A. W. Lange,  A. Behn,  Jia Deng,  Xintian Feng,  D. Ghosh,  
 M. Goldey,  P. R. Horn,  L. D. Jacobson,  I. Kaliman,  T. Kus,  A. Landau,  
 Jie Liu,  E. I. Proynov,  R. M. Richard,  R. P. Steele,  E. J. Sundstrom,  
 H. L. Woodcock III,  P. M. Zimmerman,  D. Zuev,  B. Alam,  B. Albrecht,  
 E. Alguire,  S. A. Baeppler,  D. Barton,  Z. Benda,  Y. A. Bernard,  
 E. J. Berquist,  K. B. Bravaya,  H. Burton,  K. Carter-Fenk,  D. Casanova,  
 Chun-Min Chang,  Yunqing Chen,  A. Chien,  K. D. Closser,  M. P. Coons,  
 S. Coriani,  S. Dasgupta,  A. L. Dempwolff,  M. Diedenhofen,  Hainam Do,  
 R. G. Edgar,  Po-Tung Fang,  S. Faraji,  S. Fatehi,  Qingguo Feng,  
 J. Fosso-Tande,  J. Gayvert,  Qinghui Ge,  A. Ghysels,  G. Gidofalvi,  
 J. Gomes,  J. Gonthier,  A. Gunina,  D. Hait,  M. W. D. Hanson-Heine,  
 P. H. P. Harbach,  A. W. Hauser,  M. F. Herbst,  J. E. Herr,  
 E. G. Hohenstein,  Z. C. Holden,  Kerwin Hui,  B. C. Huynh,  T.-C. Jagau,  
 Hyunjun Ji,  B. Kaduk,  K. Khistyaev,  Jaehoon Kim,  P. Klunzinger,  K. Koh,  
 D. Kosenkov,  L. Koulias,  T. Kowalczyk,  C. M. Krauter,  A. Kunitsa,  
 Ka Un Lao,  A. Laurent,  K. V. Lawler,  Joonho Lee,  D. Lefrancois,  
 S. Lehtola,  D. S. Levine,  Yi-Pei Li,  You-Sheng Lin,  Fenglai Liu,  
 Kuan-Yu Liu,  E. Livshits,  M. Loipersberger,  A. Luenser,  P. Manohar,  
 E. Mansoor,  S. F. Manzer,  Shan-Ping Mao,  Yuezhi Mao,  N. Mardirossian,  
 A. V. Marenich,  T. Markovich,  L. A. Martinez-Martinez,  S. A. Maurer,  
 N. J. Mayhall,  S. C. McKenzie,  J.-M. Mewes,  P. Morgante,  A. F. Morrison,  
 J. W. Mullinax,  K. Nanda,  T. S. Nguyen-Beck,  R. Olivares-Amaya,  
 K. J. Oosterbaan,  J. A. Parkhill,  S. K. Paul,  F. Pavosevic,  Zheng Pei,  
 T. M. Perrine,  F. Plasser,  P. Pokhilko,  S. Prager,  A. Prociuk,  
 E. Ramos,  B. Rana,  D. R. Rehn,  F. Rob,  M. Scheurer,  M. Schneider,  
 N. Sergueev,  S. M. Sharada,  S. Sharma,  D. W. Small,  T. Stauch,  
 C. J. Stein,  T. Stein,  Yu-Chuan Su,  S. P. Veccham,  Zhen Tao,  
 A. J. W. Thom,  A. Tkatchenko,  T. Tsuchimochi,  N. M. Tubman,  L. Vogt,  
 M. L. Vidal,  O. Vydrov,  M. A. Watson,  J. Wenzel,  M. de Wergifosse,  
 T. A. Wesolowski,  A. White,  J. Witte,  A. Yamada,  Jun Yang,  K. Yao,  
 S. Yeganeh,  S. R. Yost,  Zhi-Qiang You,  A. Zech,  Igor Ying Zhang,  
 Xing Zhang,  Yan Zhao,  Ying Zhu,  B. R. Brooks,  G. K. L. Chan,  
 C. J. Cramer,  M. S. Gordon,  W. J. Hehre,  A. Klamt,  M. W. Schmidt,  
 C. D. Sherrill,  D. G. Truhlar,  A. Aspuru-Guzik,  R. Baer,  A. T. Bell,  
 N. A. Besley,  Jeng-Da Chai,  A. E. DePrince, III,  R. A. DiStasio Jr.,  
 A. Dreuw,  B. D. Dunietz,  T. R. Furlani,  Chao-Ping Hsu,  Yousung Jung,  
 Jing Kong,  D. S. Lambrecht,  WanZhen Liang,  C. Ochsenfeld,  
 V. A. Rassolov,  L. V. Slipchenko,  J. E. Subotnik,  T. Van Voorhis,  
 J. M. Herbert,  A. I. Krylov,  P. M. W. Gill,  M. Head-Gordon

 Contributors to earlier versions of Q-Chem not listed above: 
 R. D. Adamson,  B. Austin,  J. Baker,  G. J. O. Beran,  K. Brandhorst,  
 S. T. Brown,  E. F. C. Byrd,  A. K. Chakraborty,  C.-L. Cheng,  
 Siu Hung Chien,  D. M. Chipman,  D. L. Crittenden,  H. Dachsel,  
 R. J. Doerksen,  A. D. Dutoi,  L. Fusti-Molnar,  W. A. Goddard III,  
 A. Golubeva-Zadorozhnaya,  S. R. Gwaltney,  G. Hawkins,  A. Heyden,  
 S. Hirata,  G. Kedziora,  F. J. Keil,  C. Kelley,  Jihan Kim,  R. A. King,  
 R. Z. Khaliullin,  P. P. Korambath,  W. Kurlancheek,  A. M. Lee,  M. S. Lee,  
 S. V. Levchenko,  Ching Yeh Lin,  D. Liotard,  R. C. Lochan,  I. Lotan,  
 P. E. Maslen,  N. Nair,  D. P. O'Neill,  D. Neuhauser,  E. Neuscamman,  
 C. M. Oana,  R. Olson,  B. Peters,  R. Peverati,  P. A. Pieniazek,  
 Y. M. Rhee,  J. Ritchie,  M. A. Rohrdanz,  E. Rosta,  N. J. Russ,  
 H. F. Schaefer III,  N. E. Schultz,  N. Shenvi,  A. C. Simmonett,  A. Sodt,  
 D. Stuck,  K. S. Thanthiriwatte,  V. Vanovschi,  Tao Wang,  A. Warshel,  
 C. F. Williams,  Q. Wu,  X. Xu,  W. Zhang

 Please cite Q-Chem as follows:
 Y. Shao et al., Mol. Phys. 113, 184-215 (2015)
 DOI: 10.1080/00268976.2014.952696

 Q-Chem 5.3.0 for Intel X86 EM64T Linux

 Parts of Q-Chem use Armadillo 9.800.1 (Horizon Scraper).
 http://arma.sourceforge.net/

 Q-Chem begins on Tue Jul  7 02:19:27 2020  

Host: centos77-c4
0

     Scratch files written to /tmp/26964.centos77-h1/qchem110572//
Processing $rem in /opt/qchem-5.3.0-intel2020u1//config/preferences:
Processing $rem in /home/shihchengli/.qchemrc:

Checking the input file for inconsistencies... 	...done.

--------------------------------------------------------------
User input:
--------------------------------------------------------------
$rem
   JOBTYPE  sp
   EXCHANGE   omegaB97X-D
   BASIS   6-311+G(2df,2pd)
   UNRESTRICTED   False
   max_scf_cycles   250
   geom_opt_max_cycles   1500
   basis2 6-31G*
   scf_algorithm rca_diis
   SYM_IGNORE  TRUE
   print_input   true
   geom_opt_dmax   80
   pop_mulliken false
   XC_GRID 000075000302
$end

$molecule
0 1
C       1.2544926768     0.0180812291     0.3135670911
C       0.0000000543     0.1189055477     -0.5299789979
H       1.2967043973     -0.9297827094     0.8525096037
H       1.4454338837     1.0286775107     0.6591460724
H       2.1467098515     -0.3986295786     -0.1685005497
C       -1.2544925104     0.0180795040     0.3135666455
H       0.0000008806     -0.6087355901     -1.3448849885
H       -0.0000008588     1.0531384705     -1.0975363240
H       -1.2967018722     -0.9297847334     0.8525085298
H       -2.1467119003     -0.3986224872     -0.1685042434
H       -1.4454346633     1.0286735028     0.6591521799
$end
--------------------------------------------------------------
 ----------------------------------------------------------------
             Standard Nuclear Orientation (Angstroms)
    I     Atom           X                Y                Z
 ----------------------------------------------------------------
    1      C       1.2544926768     0.0180812291     0.3135670911
    2      C       0.0000000543     0.1189055477    -0.5299789979
    3      H       1.2967043973    -0.9297827094     0.8525096037
    4      H       1.4454338837     1.0286775107     0.6591460724
    5      H       2.1467098515    -0.3986295786    -0.1685005497
    6      C      -1.2544925104     0.0180795040     0.3135666455
    7      H       0.0000008806    -0.6087355901    -1.3448849885
    8      H      -0.0000008588     1.0531384705    -1.0975363240
    9      H      -1.2967018722    -0.9297847334     0.8525085298
   10      H      -2.1467119003    -0.3986224872    -0.1685042434
   11      H      -1.4454346633     1.0286735028     0.6591521799
 ----------------------------------------------------------------
 Nuclear Repulsion Energy =          82.97431637 hartrees
 There are       13 alpha and       13 beta electrons
 Requested basis set is 6-311+G(2df,2pd)
 There are 72 shells and 214 basis functions

 Total QAlloc Memory Limit   2000 MB
 Mega-Array Size       188 MB
 MEM_STATIC part       192 MB

                       Distance Matrix (Angstroms)
             C (  1)   C (  2)   H (  3)   H (  4)   H (  5)   C (  6)
   C (  2)  1.515087
   H (  3)  1.091186  2.166210
   H (  4)  1.084983  2.081101  1.973595
   H (  5)  1.096398  2.237604  1.430767  1.792761
   C (  6)  2.508985  1.515086  2.774438  2.903504  3.460378
   H (  7)  2.171891  1.092490  2.571586  2.964210  2.456905  2.171891
   H (  8)  2.153209  1.093121  3.068566  2.275041  2.753017  2.153209
   H (  9)  2.774437  2.166208  2.593406  3.375244  3.630657  1.091186
   H ( 10)  3.460380  2.237604  3.630663  3.952936  4.293422  1.096398
   H ( 11)  2.903504  2.081104  3.375243  2.890869  3.952936  1.084983
             H (  7)   H (  8)   H (  9)   H ( 10)
   H (  8)  1.680181
   H (  9)  2.571585  3.068565
   H ( 10)  2.456908  2.753013  1.430775
   H ( 11)  2.964213  2.275045  1.973592  1.792757
 
 A cutoff of  1.0D-09 yielded   2526 shell pairs
 There are     22486 function pairs (     27651 Cartesian)
 Smallest overlap matrix eigenvalue = 9.89E-05

 Scale SEOQF with 1.000000e-01/1.000000e-01/1.000000e-01

 Standard Electronic Orientation quadrupole field applied
 Nucleus-field energy     =     0.0000000008 hartrees
 Requested basis set is 6-31G(d)
 There are 28 shells and 58 basis functions
 A cutoff of  1.0D-09 yielded    402 shell pairs
 There are      1773 function pairs (      1968 Cartesian)
 Smallest overlap matrix eigenvalue = 7.19E-03
 Guess from superposition of atomic densities
 Warning:  Energy on first SCF cycle will be non-variational
 SAD guess density has 26.000000 electrons
 Long-range K will be added via erf
 Coulomb attenuation parameter = 0.2 bohr**(-1)
 A restricted hybrid HF-DFT SCF calculation will be
 performed using Relaxed Constraint Minimization + Pulay DIIS
 Exchange:     0.2220 Hartree-Fock + 1.0000 wB97X-D + LR-HF
 Correlation:  1.0000 wB97X-D
 Using Euler-Maclaurin-Lebedev (75,302) quadrature formula
 Dispersion:   Grimme D
 SCF converges when DIIS error is below 1.0E-04
 using 3 threads for integral computing
 -------------------------------------------------------
 OpenMP Integral computing Module                
 Release: version 1.0, May 2013, Q-Chem Inc. Pittsburgh 
 -------------------------------------------------------
 using 3 threads for integral computing
 -------------------------------------------------------
 OpenMP Integral computing Module                
 Release: version 1.0, May 2013, Q-Chem Inc. Pittsburgh 
 -------------------------------------------------------
 ---------------------------------------
  Cycle       Energy         DIIS Error
 ---------------------------------------
    1    -119.6727429557      1.02E-01
    2    -118.9998862537      9.66E-03
    3    -119.0238900593      2.51E-03
    4    -119.0409867792      1.72E-03
    5    -119.0417076127      2.51E-04 Done RCA. Switching to DIIS
    6    -119.0422745935      1.80E-04
    7    -119.0422893615      8.30E-06 Convergence criterion met
 ---------------------------------------
 SCF time:  CPU 19.47 s  wall 7.13 s
 SCF   energy in the small basis set = -119.04228936
 Total energy in the small basis set = -119.04228936
 ----------------------------------------------------
  Cycle       Energy    
 ----------------------------------------------------
    1     -16.5414844563     -1.65E+01
 Long-range K will be added via erf
 Coulomb attenuation parameter = 0.2 bohr**(-1)
 A restricted hybrid HF-DFT SCF calculation will be
 performed using Relaxed Constraint Minimization + Pulay DIIS
 Exchange:     0.2220 Hartree-Fock + 1.0000 wB97X-D + LR-HF
 Correlation:  1.0000 wB97X-D
 Using Euler-Maclaurin-Lebedev (75,302) quadrature formula
 Dispersion:   Grimme D
 SCF converges when DIIS error is below 1.0E-05
 Basis2 calculation detected. Using small basis as guess for larger.
 SCFMinFind is unable to tell whether the solution found is close.
 Resetting ReadMinima to 0 and attempting to follow guess.
 SCFMinFind following SCF Guess.
 using 3 threads for integral computing
 -------------------------------------------------------
 OpenMP Integral computing Module                
 Release: version 1.0, May 2013, Q-Chem Inc. Pittsburgh 
 -------------------------------------------------------
 using 3 threads for integral computing
 -------------------------------------------------------
 OpenMP Integral computing Module                
 Release: version 1.0, May 2013, Q-Chem Inc. Pittsburgh 
 -------------------------------------------------------
 ---------------------------------------
  Cycle       Energy         DIIS Error
 ---------------------------------------
    1    -119.0648010587      4.21E-03
    2    -119.0866820034      6.42E-04 Done RCA. Switching to DIIS
    3    -119.0875441102      4.72E-04
    4    -119.0887668997      5.12E-05
    5    -119.0887855970      1.15E-05
    6    -119.0887866820      3.45E-06 Convergence criterion met
 ---------------------------------------
 SCF time:  CPU 51.87 s  wall 17.60 s
 SCF   energy in the final basis set = -119.08878668
 Total energy in the final basis set = -119.08878668
 
 --------------------------------------------------------------
 
                    Orbital Energies (a.u.)
 --------------------------------------------------------------
 
 Alpha MOs
 -- Occupied --
-10.2722 -10.2645 -10.2645  -0.8849  -0.7851  -0.6833  -0.5709  -0.5192
 -0.5147  -0.4454  -0.4146  -0.3929  -0.3816
 -- Virtual --
  0.0700   0.0852   0.0910   0.0946   0.1257   0.1290   0.1329   0.1374
  0.1422   0.1728   0.1739   0.1866   0.1973   0.2526   0.2528   0.2741
  0.2842   0.2889   0.3102   0.3175   0.3347   0.3380   0.4462   0.4763
  0.4819   0.5008   0.5068   0.5377   0.5544   0.5550   0.5892   0.5936
  0.5986   0.6345   0.6458   0.6504   0.6570   0.6827   0.7007   0.7150
  0.7198   0.7962   0.8110   0.8442   0.8609   0.8772   0.9229   0.9246
  0.9714   0.9978   1.0888   1.1072   1.1559   1.1923   1.2068   1.2194
  1.2358   1.2601   1.2723   1.2848   1.3003   1.3138   1.3258   1.3730
  1.3871   1.3926   1.4262   1.4542   1.4647   1.4814   1.4978   1.5074
  1.5347   1.5404   1.5751   1.6235   1.6280   1.6363   1.6763   1.7095
  1.7392   2.3741   2.4420   2.4741   2.5510   2.6176   2.6255   2.6526
  2.6659   2.6702   2.7715   2.7791   2.7986   2.8162   2.8776   2.9120
  2.9158   2.9367   2.9828   3.0075   3.0470   3.0631   3.0953   3.1224
  3.1239   3.1429   3.1824   3.1985   3.2092   3.2221   3.2341   3.2802
  3.2943   3.3284   3.3564   3.3803   3.3891   3.4073   3.4749   3.4793
  3.5015   3.5212   3.5251   3.5431   3.5622   3.5747   3.6120   3.6242
  3.6524   3.6735   3.7158   3.7218   3.7485   3.7811   3.7860   3.7903
  3.8064   3.8982   3.8995   3.9165   3.9773   3.9820   4.0176   4.0304
  4.0509   4.0762   4.1126   4.1197   4.1734   4.1907   4.2020   4.2659
  4.2755   4.3085   4.3319   4.3596   4.3864   4.3975   4.4099   4.4817
  4.5296   4.5786   4.5910   4.6067   4.6652   4.6841   4.7800   4.8379
  4.8638   4.9169   4.9361   4.9667   4.9714   5.0301   5.0503   5.0722
  5.1574   5.1867   5.2525   5.2725   5.3552   5.3582   5.3997   5.4588
  5.4941   5.5508   5.6076   5.6834   5.7163   5.7441   5.8001   5.8848
  6.0080   6.3313   6.3373   6.4228   6.4235   6.5624  25.1695  25.4290
 25.4567
 --------------------------------------------------------------
 
 -----------------------------------------------------------------
                    Cartesian Multipole Moments
 -----------------------------------------------------------------
    Charge (ESU x 10^10)
                -0.0000
    Dipole Moment (Debye)
         X       0.0000      Y      -0.2463      Z      -0.2787
       Tot       0.3719
    Quadrupole Moments (Debye-Ang)
        XX     -21.9433     XY      -0.0000     YY     -19.8784
        XZ       0.0000     YZ      -0.0285     ZZ     -23.5531
    Octopole Moments (Debye-Ang^2)
       XXX      -0.0000    XXY      -3.4778    XYY       0.0000
       YYY      -1.4141    XXZ      -0.3763    XYZ      -0.0000
       YYZ       0.0973    XZZ      -0.0000    YZZ      -0.8227
       ZZZ      -5.1278
    Hexadecapole Moments (Debye-Ang^3)
      XXXX    -205.8513   XXXY      -0.0001   XXYY     -37.9193
      XYYY      -0.0000   YYYY     -45.2944   XXXZ       0.0000
      XXYZ       0.6393   XYYZ      -0.0000   YYYZ       1.6319
      XXZZ     -48.3020   XYZZ      -0.0000   YYZZ     -18.0906
      XZZZ      -0.0000   YZZZ       2.0190   ZZZZ     -70.9164
 -----------------------------------------------------------------
Archival summary:
1\1\centos77-c4\SP\ProcedureUnspecified\BasisUnspecified\38\shihchen\TueJul702:19:552020TueJul702:19:552020\0\\#,ProcedureUnspecified,BasisUnspecified,\\0,1\C\H,1,1.09249\H,1,1.09312,2,100.483\C,1,1.51509,2,111.776,3,116.922,0\H,4,1.08498,1,105.134,2,-148.107,0\H,4,1.09119,1,111.397,2,66.4483,0\H,4,1.0964,1,117.02,2,-25.0217,0\C,1,1.51509,2,111.776,3,-116.922,0\H,8,1.08498,1,105.133,2,148.107,0\H,8,1.09119,1,111.397,2,-66.4483,0\H,8,1.0964,1,117.02,2,25.021,0\\\@

 Total job time:  27.68s(wall), 74.97s(cpu) 
 Tue Jul  7 02:19:55 2020

        *************************************************************
        *                                                           *
        *  Thank you very much for using Q-Chem.  Have a nice day.  *
        *                                                           *
        *************************************************************


