                  Welcome to Q-Chem
     A Quantum Leap Into The Future Of Chemistry


 Q-Chem 5.3 (devel), Q-Chem, Inc., Pleasanton, CA (2020)

 Yihan Shao,  Zhengting Gan,  E. Epifanovsky,  A. T. B. Gilbert,  M. Wormit,  
 J. Kussmann,  A. W. Lange,  A. Behn,  Jia Deng,  Xintian Feng,  D. Ghosh,  
 M. Goldey,  P. R. Horn,  L. D. Jacobson,  I. Kaliman,  T. Kus,  A. Landau,  
 Jie Liu,  E. I. Proynov,  R. M. Richard,  R. P. Steele,  E. J. Sundstrom,  
 H. L. Woodcock III,  P. M. Zimmerman,  D. Zuev,  B. Alam,  B. Albrecht,  
 E. Alguire,  S. A. Baeppler,  D. Barton,  Z. Benda,  Y. A. Bernard,  
 E. J. Berquist,  K. B. Bravaya,  H. Burton,  K. Carter-Fenk,  D. Casanova,  
 Chun-Min Chang,  Yunqing Chen,  A. Chien,  K. D. Closser,  M. P. Coons,  
 S. Coriani,  S. Dasgupta,  A. L. Dempwolff,  M. Diedenhofen,  Hainam Do,  
 R. G. Edgar,  Po-Tung Fang,  S. Faraji,  S. Fatehi,  Qingguo Feng,  
 J. Fosso-Tande,  J. Gayvert,  Qinghui Ge,  A. Ghysels,  G. Gidofalvi,  
 J. Gomes,  J. Gonthier,  A. Gunina,  D. Hait,  M. W. D. Hanson-Heine,  
 P. H. P. Harbach,  A. W. Hauser,  M. F. Herbst,  J. E. Herr,  
 E. G. Hohenstein,  Z. C. Holden,  Kerwin Hui,  B. C. Huynh,  T.-C. Jagau,  
 Hyunjun Ji,  B. Kaduk,  K. Khistyaev,  Jaehoon Kim,  P. Klunzinger,  K. Koh,  
 D. Kosenkov,  L. Koulias,  T. Kowalczyk,  C. M. Krauter,  A. Kunitsa,  
 Ka Un Lao,  A. Laurent,  K. V. Lawler,  Joonho Lee,  D. Lefrancois,  
 S. Lehtola,  D. S. Levine,  Yi-Pei Li,  You-Sheng Lin,  Fenglai Liu,  
 Kuan-Yu Liu,  E. Livshits,  M. Loipersberger,  A. Luenser,  P. Manohar,  
 E. Mansoor,  S. F. Manzer,  Shan-Ping Mao,  Yuezhi Mao,  N. Mardirossian,  
 A. V. Marenich,  T. Markovich,  L. A. Martinez-Martinez,  S. A. Maurer,  
 N. J. Mayhall,  S. C. McKenzie,  J.-M. Mewes,  P. Morgante,  A. F. Morrison,  
 J. W. Mullinax,  K. Nanda,  T. S. Nguyen-Beck,  R. Olivares-Amaya,  
 K. J. Oosterbaan,  J. A. Parkhill,  S. K. Paul,  F. Pavosevic,  Zheng Pei,  
 T. M. Perrine,  F. Plasser,  P. Pokhilko,  S. Prager,  A. Prociuk,  
 E. Ramos,  B. Rana,  D. R. Rehn,  F. Rob,  M. Scheurer,  M. Schneider,  
 N. Sergueev,  S. M. Sharada,  S. Sharma,  D. W. Small,  T. Stauch,  
 C. J. Stein,  T. Stein,  Yu-Chuan Su,  S. P. Veccham,  Zhen Tao,  
 A. J. W. Thom,  A. Tkatchenko,  T. Tsuchimochi,  N. M. Tubman,  L. Vogt,  
 M. L. Vidal,  O. Vydrov,  M. A. Watson,  J. Wenzel,  M. de Wergifosse,  
 T. A. Wesolowski,  A. White,  J. Witte,  A. Yamada,  Jun Yang,  K. Yao,  
 S. Yeganeh,  S. R. Yost,  Zhi-Qiang You,  A. Zech,  Igor Ying Zhang,  
 Xing Zhang,  Yan Zhao,  Ying Zhu,  B. R. Brooks,  G. K. L. Chan,  
 C. J. Cramer,  M. S. Gordon,  W. J. Hehre,  A. Klamt,  M. W. Schmidt,  
 C. D. Sherrill,  D. G. Truhlar,  A. Aspuru-Guzik,  R. Baer,  A. T. Bell,  
 N. A. Besley,  Jeng-Da Chai,  A. E. DePrince, III,  R. A. DiStasio Jr.,  
 A. Dreuw,  B. D. Dunietz,  T. R. Furlani,  Chao-Ping Hsu,  Yousung Jung,  
 Jing Kong,  D. S. Lambrecht,  WanZhen Liang,  C. Ochsenfeld,  
 V. A. Rassolov,  L. V. Slipchenko,  J. E. Subotnik,  T. Van Voorhis,  
 J. M. Herbert,  A. I. Krylov,  P. M. W. Gill,  M. Head-Gordon

 Contributors to earlier versions of Q-Chem not listed above: 
 R. D. Adamson,  B. Austin,  J. Baker,  G. J. O. Beran,  K. Brandhorst,  
 S. T. Brown,  E. F. C. Byrd,  A. K. Chakraborty,  C.-L. Cheng,  
 Siu Hung Chien,  D. M. Chipman,  D. L. Crittenden,  H. Dachsel,  
 R. J. Doerksen,  A. D. Dutoi,  L. Fusti-Molnar,  W. A. Goddard III,  
 A. Golubeva-Zadorozhnaya,  S. R. Gwaltney,  G. Hawkins,  A. Heyden,  
 S. Hirata,  G. Kedziora,  F. J. Keil,  C. Kelley,  Jihan Kim,  R. A. King,  
 R. Z. Khaliullin,  P. P. Korambath,  W. Kurlancheek,  A. M. Lee,  M. S. Lee,  
 S. V. Levchenko,  Ching Yeh Lin,  D. Liotard,  R. C. Lochan,  I. Lotan,  
 P. E. Maslen,  N. Nair,  D. P. O'Neill,  D. Neuhauser,  E. Neuscamman,  
 C. M. Oana,  R. Olson,  B. Peters,  R. Peverati,  P. A. Pieniazek,  
 Y. M. Rhee,  J. Ritchie,  M. A. Rohrdanz,  E. Rosta,  N. J. Russ,  
 H. F. Schaefer III,  N. E. Schultz,  N. Shenvi,  A. C. Simmonett,  A. Sodt,  
 D. Stuck,  K. S. Thanthiriwatte,  V. Vanovschi,  Tao Wang,  A. Warshel,  
 C. F. Williams,  Q. Wu,  X. Xu,  W. Zhang

 Please cite Q-Chem as follows:
 Y. Shao et al., Mol. Phys. 113, 184-215 (2015)
 DOI: 10.1080/00268976.2014.952696

 Q-Chem 5.3.0 for Intel X86 EM64T Linux

 Parts of Q-Chem use Armadillo 9.800.1 (Horizon Scraper).
 http://arma.sourceforge.net/

 Q-Chem begins on Tue Jul  7 02:08:32 2020  

Host: centos77-c4
0

     Scratch files written to /tmp/26964.centos77-h1/qchem108447//
Processing $rem in /opt/qchem-5.3.0-intel2020u1//config/preferences:
Processing $rem in /home/shihchengli/.qchemrc:

Checking the input file for inconsistencies... 	...done.

--------------------------------------------------------------
User input:
--------------------------------------------------------------
$rem
   JOBTYPE  sp
   EXCHANGE   omegaB97X-D
   BASIS   6-311+G(2df,2pd)
   UNRESTRICTED   False
   max_scf_cycles   250
   geom_opt_max_cycles   1500
   basis2 6-31G*
   scf_algorithm rca_diis
   SYM_IGNORE  TRUE
   print_input   true
   geom_opt_dmax   80
   pop_mulliken false
   XC_GRID 000075000302
$end

$molecule
0 1
C       1.2649957179     0.0267434082     0.2726941969
C       -0.0000002495     0.0126432408     -0.5496241054
H       1.3585014279     -0.8271719155     0.9513944571
H       1.2112660598     0.8297010670     1.0103332302
H       2.1379899450     -0.0204397442     -0.3731042023
C       -1.2649962907     0.0267462803     0.2726936944
H       -0.0000011440     -0.6924137857     -1.3936321143
H       0.0000013407     0.6621090417     -1.4383356365
H       -1.3585091913     -0.8271671178     0.9513960050
H       -2.1379890556     -0.0204509728     -0.3731053991
H       -1.2112586208     0.8297011640     1.0103348927
$end
--------------------------------------------------------------
 ----------------------------------------------------------------
             Standard Nuclear Orientation (Angstroms)
    I     Atom           X                Y                Z
 ----------------------------------------------------------------
    1      C       1.2649957179     0.0267434082     0.2726941969
    2      C      -0.0000002495     0.0126432408    -0.5496241054
    3      H       1.3585014279    -0.8271719155     0.9513944571
    4      H       1.2112660598     0.8297010670     1.0103332302
    5      H       2.1379899450    -0.0204397442    -0.3731042023
    6      C      -1.2649962907     0.0267462803     0.2726936944
    7      H      -0.0000011440    -0.6924137857    -1.3936321143
    8      H       0.0000013407     0.6621090417    -1.4383356365
    9      H      -1.3585091913    -0.8271671178     0.9513960050
   10      H      -2.1379890556    -0.0204509728    -0.3731053991
   11      H      -1.2112586208     0.8297011640     1.0103348927
 ----------------------------------------------------------------
 Nuclear Repulsion Energy =          82.94124079 hartrees
 There are       13 alpha and       13 beta electrons
 Requested basis set is 6-311+G(2df,2pd)
 There are 72 shells and 214 basis functions

 Total QAlloc Memory Limit   2000 MB
 Mega-Array Size       188 MB
 MEM_STATIC part       192 MB

                       Distance Matrix (Angstroms)
             C (  1)   C (  2)   H (  3)   H (  4)   H (  5)   C (  6)
   C (  2)  1.508848
   H (  3)  1.094783  2.191774
   H (  4)  1.091668  2.137339  1.664446
   H (  5)  1.086923  2.145520  1.735718  1.869614
   C (  6)  2.529992  1.508847  2.841224  2.705684  3.464043
   H (  7)  2.212249  1.099752  2.713455  3.092418  2.462526  2.212249
   H (  8)  2.220703  1.100733  3.126386  2.737011  2.484268  2.220704
   H (  9)  2.841228  2.191778  2.717011  3.058174  3.824999  1.094783
   H ( 10)  3.464042  2.145519  3.824989  3.722119  4.275979  1.086922
   H ( 11)  2.705677  2.137335  3.058164  2.422525  3.722111  1.091668
             H (  7)   H (  8)   H (  9)   H ( 10)
   H (  8)  1.355260
   H (  9)  2.713459  3.126390
   H ( 10)  2.462519  2.484272  1.735708
   H ( 11)  3.092416  2.737010  1.664443  1.869624
 
 A cutoff of  1.0D-09 yielded   2534 shell pairs
 There are     22580 function pairs (     27761 Cartesian)
 Smallest overlap matrix eigenvalue = 9.95E-05

 Scale SEOQF with 1.000000e-01/1.000000e-01/1.000000e-01

 Standard Electronic Orientation quadrupole field applied
 Nucleus-field energy     =     0.0000000003 hartrees
 Requested basis set is 6-31G(d)
 There are 28 shells and 58 basis functions
 A cutoff of  1.0D-09 yielded    402 shell pairs
 There are      1773 function pairs (      1968 Cartesian)
 Smallest overlap matrix eigenvalue = 7.24E-03
 Guess from superposition of atomic densities
 Warning:  Energy on first SCF cycle will be non-variational
 SAD guess density has 26.000000 electrons
 Long-range K will be added via erf
 Coulomb attenuation parameter = 0.2 bohr**(-1)
 A restricted hybrid HF-DFT SCF calculation will be
 performed using Relaxed Constraint Minimization + Pulay DIIS
 Exchange:     0.2220 Hartree-Fock + 1.0000 wB97X-D + LR-HF
 Correlation:  1.0000 wB97X-D
 Using Euler-Maclaurin-Lebedev (75,302) quadrature formula
 Dispersion:   Grimme D
 SCF converges when DIIS error is below 1.0E-04
 using 3 threads for integral computing
 -------------------------------------------------------
 OpenMP Integral computing Module                
 Release: version 1.0, May 2013, Q-Chem Inc. Pittsburgh 
 -------------------------------------------------------
 using 3 threads for integral computing
 -------------------------------------------------------
 OpenMP Integral computing Module                
 Release: version 1.0, May 2013, Q-Chem Inc. Pittsburgh 
 -------------------------------------------------------
 ---------------------------------------
  Cycle       Energy         DIIS Error
 ---------------------------------------
    1    -119.6657811808      1.02E-01
    2    -119.0285959669      9.24E-03
    3    -119.0506609165      2.45E-03
    4    -119.0661504220      1.67E-03
    5    -119.0668320895      2.41E-04 Done RCA. Switching to DIIS
    6    -119.0673667454      1.76E-04
    7    -119.0673805894      6.82E-06 Convergence criterion met
 ---------------------------------------
 SCF time:  CPU 20.61 s  wall 7.69 s
 SCF   energy in the small basis set = -119.06738059
 Total energy in the small basis set = -119.06738059
 ----------------------------------------------------
  Cycle       Energy    
 ----------------------------------------------------
    1     -16.5382714689     -1.65E+01
 Long-range K will be added via erf
 Coulomb attenuation parameter = 0.2 bohr**(-1)
 A restricted hybrid HF-DFT SCF calculation will be
 performed using Relaxed Constraint Minimization + Pulay DIIS
 Exchange:     0.2220 Hartree-Fock + 1.0000 wB97X-D + LR-HF
 Correlation:  1.0000 wB97X-D
 Using Euler-Maclaurin-Lebedev (75,302) quadrature formula
 Dispersion:   Grimme D
 SCF converges when DIIS error is below 1.0E-05
 Basis2 calculation detected. Using small basis as guess for larger.
 SCFMinFind is unable to tell whether the solution found is close.
 Resetting ReadMinima to 0 and attempting to follow guess.
 SCFMinFind following SCF Guess.
 using 3 threads for integral computing
 -------------------------------------------------------
 OpenMP Integral computing Module                
 Release: version 1.0, May 2013, Q-Chem Inc. Pittsburgh 
 -------------------------------------------------------
 using 3 threads for integral computing
 -------------------------------------------------------
 OpenMP Integral computing Module                
 Release: version 1.0, May 2013, Q-Chem Inc. Pittsburgh 
 -------------------------------------------------------
 ---------------------------------------
  Cycle       Energy         DIIS Error
 ---------------------------------------
    1    -119.0888796063      4.21E-03
    2    -119.1106936827      6.15E-04 Done RCA. Switching to DIIS
    3    -119.1114935297      4.49E-04
    4    -119.1126021957      5.01E-05
    5    -119.1126193641      1.22E-05
    6    -119.1126203282      4.18E-06 Convergence criterion met
 ---------------------------------------
 SCF time:  CPU 51.78 s  wall 17.51 s
 SCF   energy in the final basis set = -119.11262033
 Total energy in the final basis set = -119.11262033
 
 --------------------------------------------------------------
 
                    Orbital Energies (a.u.)
 --------------------------------------------------------------
 
 Alpha MOs
 -- Occupied --
-10.2739 -10.2676 -10.2675  -0.8850  -0.7799  -0.6992  -0.5443  -0.5107
 -0.5010  -0.4568  -0.4517  -0.4167  -0.3610
 -- Virtual --
  0.0662   0.0846   0.0857   0.1041   0.1216   0.1254   0.1361   0.1457
  0.1505   0.1690   0.1729   0.1950   0.2185   0.2384   0.2389   0.2485
  0.2827   0.2870   0.3086   0.3124   0.3333   0.3560   0.4565   0.4707
  0.4759   0.5108   0.5133   0.5298   0.5392   0.5785   0.5821   0.5873
  0.6160   0.6190   0.6278   0.6515   0.6838   0.6892   0.7029   0.7173
  0.7225   0.7659   0.7933   0.8600   0.8747   0.8919   0.9127   0.9383
  0.9954   1.0488   1.0939   1.1016   1.1272   1.1850   1.1995   1.2240
  1.2257   1.2365   1.2423   1.2424   1.3091   1.3334   1.3543   1.3614
  1.3788   1.3907   1.4101   1.4288   1.4525   1.4838   1.4842   1.5191
  1.5198   1.5740   1.5882   1.6161   1.6237   1.6456   1.6879   1.7350
  1.8258   2.3780   2.4625   2.4753   2.4865   2.5761   2.5982   2.6389
  2.6560   2.7434   2.7714   2.7902   2.8207   2.8874   2.9060   2.9213
  2.9342   2.9710   2.9760   3.0003   3.0244   3.0754   3.0812   3.1060
  3.1222   3.1461   3.1599   3.2001   3.2097   3.2432   3.2698   3.2921
  3.2988   3.3387   3.3534   3.3562   3.3881   3.4184   3.4528   3.4643
  3.4780   3.5156   3.5439   3.5556   3.5636   3.5773   3.6011   3.6042
  3.6185   3.6291   3.6512   3.6583   3.7237   3.7819   3.8271   3.8295
  3.8971   3.9362   3.9398   3.9463   3.9929   4.0238   4.0338   4.0387
  4.0971   4.0982   4.1169   4.1346   4.1759   4.1812   4.1814   4.2423
  4.2425   4.3208   4.3264   4.3500   4.3852   4.3855   4.4162   4.4719
  4.4777   4.5224   4.5393   4.5771   4.6788   4.8008   4.8091   4.8433
  4.8588   4.9135   4.9558   4.9704   4.9773   5.0161   5.0888   5.1850
  5.2209   5.2233   5.2710   5.2951   5.3010   5.3498   5.3836   5.4221
  5.4326   5.4795   5.5021   5.5348   5.6287   5.6361   5.7473   5.8280
  6.0483   6.3136   6.3863   6.4063   6.4274   6.4406  25.1784  25.4366
 25.4650
 --------------------------------------------------------------
 
 -----------------------------------------------------------------
                    Cartesian Multipole Moments
 -----------------------------------------------------------------
    Charge (ESU x 10^10)
                 0.0000
    Dipole Moment (Debye)
         X       0.0000      Y      -0.1193      Z      -0.1853
       Tot       0.2204
    Quadrupole Moments (Debye-Ang)
        XX     -22.0844     XY       0.0000     YY     -22.8957
        XZ      -0.0000     YZ       0.1700     ZZ     -20.2750
    Octopole Moments (Debye-Ang^2)
       XXX       0.0000    XXY      -1.6718    XYY       0.0000
       YYY      -1.0792    XXZ      -2.0076    XYZ      -0.0000
       YYZ       1.0632    XZZ      -0.0000    YZZ      -0.1310
       ZZZ      -2.6258
    Hexadecapole Moments (Debye-Ang^3)
      XXXX    -199.5473   XXXY       0.0002   XXYY     -42.3882
      XYYY       0.0000   YYYY     -43.8263   XXXZ      -0.0000
      XXYZ      -0.3560   XYYZ       0.0000   YYYZ      -0.2698
      XXZZ     -44.6977   XYZZ       0.0000   YYZZ     -18.7566
      XZZZ      -0.0000   YZZZ      -0.0469   ZZZZ     -71.5782
 -----------------------------------------------------------------
Archival summary:
1\1\centos77-c4\SP\ProcedureUnspecified\BasisUnspecified\38\shihchen\TueJul702:09:002020TueJul702:09:002020\0\\#,ProcedureUnspecified,BasisUnspecified,\\0,1\C\H,1,1.09975\H,1,1.10073,2,76.0334\C,1,1.50885,2,115.103,3,112.205,0\H,4,1.08692,1,110.436,2,-41.863,0\H,4,1.09167,1,109.503,2,-173.73,0\H,4,1.09478,1,113.715,2,76.4033,0\C,1,1.50885,2,115.103,3,-112.205,0\H,8,1.08692,1,110.436,2,41.8639,0\H,8,1.09167,1,109.503,2,173.73,0\H,8,1.09478,1,113.715,2,-76.4033,0\\\@

 Total job time:  28.09s(wall), 75.95s(cpu) 
 Tue Jul  7 02:09:00 2020

        *************************************************************
        *                                                           *
        *  Thank you very much for using Q-Chem.  Have a nice day.  *
        *                                                           *
        *************************************************************


