                  Welcome to Q-Chem
     A Quantum Leap Into The Future Of Chemistry


 Q-Chem 5.3 (devel), Q-Chem, Inc., Pleasanton, CA (2020)

 Yihan Shao,  Zhengting Gan,  E. Epifanovsky,  A. T. B. Gilbert,  M. Wormit,  
 J. Kussmann,  A. W. Lange,  A. Behn,  Jia Deng,  Xintian Feng,  D. Ghosh,  
 M. Goldey,  P. R. Horn,  L. D. Jacobson,  I. Kaliman,  T. Kus,  A. Landau,  
 Jie Liu,  E. I. Proynov,  R. M. Richard,  R. P. Steele,  E. J. Sundstrom,  
 H. L. Woodcock III,  P. M. Zimmerman,  D. Zuev,  B. Alam,  B. Albrecht,  
 E. Alguire,  S. A. Baeppler,  D. Barton,  Z. Benda,  Y. A. Bernard,  
 E. J. Berquist,  K. B. Bravaya,  H. Burton,  K. Carter-Fenk,  D. Casanova,  
 Chun-Min Chang,  Yunqing Chen,  A. Chien,  K. D. Closser,  M. P. Coons,  
 S. Coriani,  S. Dasgupta,  A. L. Dempwolff,  M. Diedenhofen,  Hainam Do,  
 R. G. Edgar,  Po-Tung Fang,  S. Faraji,  S. Fatehi,  Qingguo Feng,  
 J. Fosso-Tande,  J. Gayvert,  Qinghui Ge,  A. Ghysels,  G. Gidofalvi,  
 J. Gomes,  J. Gonthier,  A. Gunina,  D. Hait,  M. W. D. Hanson-Heine,  
 P. H. P. Harbach,  A. W. Hauser,  M. F. Herbst,  J. E. Herr,  
 E. G. Hohenstein,  Z. C. Holden,  Kerwin Hui,  B. C. Huynh,  T.-C. Jagau,  
 Hyunjun Ji,  B. Kaduk,  K. Khistyaev,  Jaehoon Kim,  P. Klunzinger,  K. Koh,  
 D. Kosenkov,  L. Koulias,  T. Kowalczyk,  C. M. Krauter,  A. Kunitsa,  
 Ka Un Lao,  A. Laurent,  K. V. Lawler,  Joonho Lee,  D. Lefrancois,  
 S. Lehtola,  D. S. Levine,  Yi-Pei Li,  You-Sheng Lin,  Fenglai Liu,  
 Kuan-Yu Liu,  E. Livshits,  M. Loipersberger,  A. Luenser,  P. Manohar,  
 E. Mansoor,  S. F. Manzer,  Shan-Ping Mao,  Yuezhi Mao,  N. Mardirossian,  
 A. V. Marenich,  T. Markovich,  L. A. Martinez-Martinez,  S. A. Maurer,  
 N. J. Mayhall,  S. C. McKenzie,  J.-M. Mewes,  P. Morgante,  A. F. Morrison,  
 J. W. Mullinax,  K. Nanda,  T. S. Nguyen-Beck,  R. Olivares-Amaya,  
 K. J. Oosterbaan,  J. A. Parkhill,  S. K. Paul,  F. Pavosevic,  Zheng Pei,  
 T. M. Perrine,  F. Plasser,  P. Pokhilko,  S. Prager,  A. Prociuk,  
 E. Ramos,  B. Rana,  D. R. Rehn,  F. Rob,  M. Scheurer,  M. Schneider,  
 N. Sergueev,  S. M. Sharada,  S. Sharma,  D. W. Small,  T. Stauch,  
 C. J. Stein,  T. Stein,  Yu-Chuan Su,  S. P. Veccham,  Zhen Tao,  
 A. J. W. Thom,  A. Tkatchenko,  T. Tsuchimochi,  N. M. Tubman,  L. Vogt,  
 M. L. Vidal,  O. Vydrov,  M. A. Watson,  J. Wenzel,  M. de Wergifosse,  
 T. A. Wesolowski,  A. White,  J. Witte,  A. Yamada,  Jun Yang,  K. Yao,  
 S. Yeganeh,  S. R. Yost,  Zhi-Qiang You,  A. Zech,  Igor Ying Zhang,  
 Xing Zhang,  Yan Zhao,  Ying Zhu,  B. R. Brooks,  G. K. L. Chan,  
 C. J. Cramer,  M. S. Gordon,  W. J. Hehre,  A. Klamt,  M. W. Schmidt,  
 C. D. Sherrill,  D. G. Truhlar,  A. Aspuru-Guzik,  R. Baer,  A. T. Bell,  
 N. A. Besley,  Jeng-Da Chai,  A. E. DePrince, III,  R. A. DiStasio Jr.,  
 A. Dreuw,  B. D. Dunietz,  T. R. Furlani,  Chao-Ping Hsu,  Yousung Jung,  
 Jing Kong,  D. S. Lambrecht,  WanZhen Liang,  C. Ochsenfeld,  
 V. A. Rassolov,  L. V. Slipchenko,  J. E. Subotnik,  T. Van Voorhis,  
 J. M. Herbert,  A. I. Krylov,  P. M. W. Gill,  M. Head-Gordon

 Contributors to earlier versions of Q-Chem not listed above: 
 R. D. Adamson,  B. Austin,  J. Baker,  G. J. O. Beran,  K. Brandhorst,  
 S. T. Brown,  E. F. C. Byrd,  A. K. Chakraborty,  C.-L. Cheng,  
 Siu Hung Chien,  D. M. Chipman,  D. L. Crittenden,  H. Dachsel,  
 R. J. Doerksen,  A. D. Dutoi,  L. Fusti-Molnar,  W. A. Goddard III,  
 A. Golubeva-Zadorozhnaya,  S. R. Gwaltney,  G. Hawkins,  A. Heyden,  
 S. Hirata,  G. Kedziora,  F. J. Keil,  C. Kelley,  Jihan Kim,  R. A. King,  
 R. Z. Khaliullin,  P. P. Korambath,  W. Kurlancheek,  A. M. Lee,  M. S. Lee,  
 S. V. Levchenko,  Ching Yeh Lin,  D. Liotard,  R. C. Lochan,  I. Lotan,  
 P. E. Maslen,  N. Nair,  D. P. O'Neill,  D. Neuhauser,  E. Neuscamman,  
 C. M. Oana,  R. Olson,  B. Peters,  R. Peverati,  P. A. Pieniazek,  
 Y. M. Rhee,  J. Ritchie,  M. A. Rohrdanz,  E. Rosta,  N. J. Russ,  
 H. F. Schaefer III,  N. E. Schultz,  N. Shenvi,  A. C. Simmonett,  A. Sodt,  
 D. Stuck,  K. S. Thanthiriwatte,  V. Vanovschi,  Tao Wang,  A. Warshel,  
 C. F. Williams,  Q. Wu,  X. Xu,  W. Zhang

 Please cite Q-Chem as follows:
 Y. Shao et al., Mol. Phys. 113, 184-215 (2015)
 DOI: 10.1080/00268976.2014.952696

 Q-Chem 5.3.0 for Intel X86 EM64T Linux

 Parts of Q-Chem use Armadillo 9.800.1 (Horizon Scraper).
 http://arma.sourceforge.net/

 Q-Chem begins on Tue Jul  7 02:38:58 2020  

Host: centos77-c4
0

     Scratch files written to /tmp/26964.centos77-h1/qchem113595//
Processing $rem in /opt/qchem-5.3.0-intel2020u1//config/preferences:
Processing $rem in /home/shihchengli/.qchemrc:

Checking the input file for inconsistencies... 	...done.

--------------------------------------------------------------
User input:
--------------------------------------------------------------
$rem
   JOBTYPE  sp
   EXCHANGE   omegaB97X-D
   BASIS   6-311+G(2df,2pd)
   UNRESTRICTED   False
   max_scf_cycles   250
   geom_opt_max_cycles   1500
   basis2 6-31G*
   scf_algorithm rca_diis
   SYM_IGNORE  TRUE
   print_input   true
   geom_opt_dmax   80
   pop_mulliken false
   XC_GRID 000075000302
$end

$molecule
0 1
C       1.2929486607     -0.0010610347     0.2331189572
C       0.0078692350     0.0003226123     -0.5873168803
H       1.3385274110     -0.9313053642     0.9079837649
H       1.3296578611     0.9130412609     0.9231046252
H       2.0770895662     0.0078382064     -0.3175810882
C       -1.2409150101     0.0019242256     0.2852835011
H       -0.0012537315     -0.8736480398     -1.2429612266
H       0.0013083796     0.8740921729     -1.2432288601
H       -1.2718076129     -0.8292459960     0.8988970968
H       -2.2526563173     -0.0100265439     -0.4011789835
H       -1.2807685024     0.8480691665     0.8849241123
$end
--------------------------------------------------------------
 ----------------------------------------------------------------
             Standard Nuclear Orientation (Angstroms)
    I     Atom           X                Y                Z
 ----------------------------------------------------------------
    1      C       1.2929486607    -0.0010610347     0.2331189572
    2      C       0.0078692350     0.0003226123    -0.5873168803
    3      H       1.3385274110    -0.9313053642     0.9079837649
    4      H       1.3296578611     0.9130412609     0.9231046252
    5      H       2.0770895662     0.0078382064    -0.3175810882
    6      C      -1.2409150101     0.0019242256     0.2852835011
    7      H      -0.0012537315    -0.8736480398    -1.2429612266
    8      H       0.0013083796     0.8740921729    -1.2432288601
    9      H      -1.2718076129    -0.8292459960     0.8988970968
   10      H      -2.2526563173    -0.0100265439    -0.4011789835
   11      H      -1.2807685024     0.8480691665     0.8849241123
 ----------------------------------------------------------------
 Nuclear Repulsion Energy =          82.85635914 hartrees
 There are       13 alpha and       13 beta electrons
 Requested basis set is 6-311+G(2df,2pd)
 There are 72 shells and 214 basis functions

 Total QAlloc Memory Limit   2000 MB
 Mega-Array Size       188 MB
 MEM_STATIC part       192 MB

                       Distance Matrix (Angstroms)
             C (  1)   C (  2)   H (  3)   H (  4)   H (  5)   C (  6)
   C (  2)  1.524646
   H (  3)  1.150163  2.207828
   H (  4)  1.145867  2.204893  1.844430
   H (  5)  0.958241  2.086741  1.711571  1.708025
   C (  6)  2.534402  1.523449  2.812863  2.800856  3.372334
   H (  7)  2.148297  1.092601  2.534739  3.107318  2.439848  2.153815
   H (  8)  2.147983  1.092583  3.110519  2.541462  2.432301  2.154100
   H (  9)  2.776171  2.129457  2.612345  3.131098  3.660006  1.033596
   H ( 10)  3.601906  2.268200  3.931827  3.929218  4.330590  1.222699
   H ( 11)  2.787453  2.132312  3.166610  2.611514  3.664317  1.037843
             H (  7)   H (  8)   H (  9)   H ( 10)
   H (  8)  1.747742
   H (  9)  2.490750  3.018425
   H ( 10)  2.554066  2.563410  1.823015
   H ( 11)  3.021484  2.484639  1.677397  1.826186
 
 A cutoff of  1.0D-09 yielded   2532 shell pairs
 There are     22604 function pairs (     27797 Cartesian)
 Smallest overlap matrix eigenvalue = 8.67E-05

 Scale SEOQF with 1.000000e-01/1.000000e-01/1.000000e-01

 Standard Electronic Orientation quadrupole field applied
 Nucleus-field energy     =     0.0000000006 hartrees
 Requested basis set is 6-31G(d)
 There are 28 shells and 58 basis functions
 A cutoff of  1.0D-09 yielded    402 shell pairs
 There are      1773 function pairs (      1968 Cartesian)
 Smallest overlap matrix eigenvalue = 6.73E-03
 Guess from superposition of atomic densities
 Warning:  Energy on first SCF cycle will be non-variational
 SAD guess density has 26.000000 electrons
 Long-range K will be added via erf
 Coulomb attenuation parameter = 0.2 bohr**(-1)
 A restricted hybrid HF-DFT SCF calculation will be
 performed using Relaxed Constraint Minimization + Pulay DIIS
 Exchange:     0.2220 Hartree-Fock + 1.0000 wB97X-D + LR-HF
 Correlation:  1.0000 wB97X-D
 Using Euler-Maclaurin-Lebedev (75,302) quadrature formula
 Dispersion:   Grimme D
 SCF converges when DIIS error is below 1.0E-04
 using 3 threads for integral computing
 -------------------------------------------------------
 OpenMP Integral computing Module                
 Release: version 1.0, May 2013, Q-Chem Inc. Pittsburgh 
 -------------------------------------------------------
 using 3 threads for integral computing
 -------------------------------------------------------
 OpenMP Integral computing Module                
 Release: version 1.0, May 2013, Q-Chem Inc. Pittsburgh 
 -------------------------------------------------------
 ---------------------------------------
  Cycle       Energy         DIIS Error
 ---------------------------------------
    1    -119.6142937336      1.01E-01
    2    -119.0337920936      9.25E-03
    3    -119.0562717646      2.53E-03
    4    -119.0711752656      1.73E-03
    5    -119.0719123281      2.74E-04 Done RCA. Switching to DIIS
    6    -119.0724552607      2.01E-04
    7    -119.0724729352      5.22E-06 Convergence criterion met
 ---------------------------------------
 SCF time:  CPU 22.01 s  wall 8.31 s
 SCF   energy in the small basis set = -119.07247294
 Total energy in the small basis set = -119.07247294
 ----------------------------------------------------
  Cycle       Energy    
 ----------------------------------------------------
    1     -16.5511730815     -1.66E+01
 Long-range K will be added via erf
 Coulomb attenuation parameter = 0.2 bohr**(-1)
 A restricted hybrid HF-DFT SCF calculation will be
 performed using Relaxed Constraint Minimization + Pulay DIIS
 Exchange:     0.2220 Hartree-Fock + 1.0000 wB97X-D + LR-HF
 Correlation:  1.0000 wB97X-D
 Using Euler-Maclaurin-Lebedev (75,302) quadrature formula
 Dispersion:   Grimme D
 SCF converges when DIIS error is below 1.0E-05
 Basis2 calculation detected. Using small basis as guess for larger.
 SCFMinFind is unable to tell whether the solution found is close.
 Resetting ReadMinima to 0 and attempting to follow guess.
 SCFMinFind following SCF Guess.
 using 3 threads for integral computing
 -------------------------------------------------------
 OpenMP Integral computing Module                
 Release: version 1.0, May 2013, Q-Chem Inc. Pittsburgh 
 -------------------------------------------------------
 using 3 threads for integral computing
 -------------------------------------------------------
 OpenMP Integral computing Module                
 Release: version 1.0, May 2013, Q-Chem Inc. Pittsburgh 
 -------------------------------------------------------
 ---------------------------------------
  Cycle       Energy         DIIS Error
 ---------------------------------------
    1    -119.0928973679      4.21E-03
    2    -119.1148862957      5.88E-04 Done RCA. Switching to DIIS
    3    -119.1156943386      4.12E-04
    4    -119.1166290506      4.57E-05
    5    -119.1166439165      9.66E-06 Convergence criterion met
 ---------------------------------------
 SCF time:  CPU 43.99 s  wall 14.87 s
 SCF   energy in the final basis set = -119.11664392
 Total energy in the final basis set = -119.11664392
 
 --------------------------------------------------------------
 
                    Orbital Energies (a.u.)
 --------------------------------------------------------------
 
 Alpha MOs
 -- Occupied --
-10.2750 -10.2658 -10.2629  -0.8831  -0.7820  -0.6807  -0.5476  -0.5293
 -0.4801  -0.4652  -0.4249  -0.4099  -0.4070
 -- Virtual --
  0.0686   0.0854   0.0908   0.0987   0.1247   0.1296   0.1333   0.1422
  0.1430   0.1687   0.1719   0.1910   0.2230   0.2291   0.2527   0.2640
  0.2778   0.2893   0.3104   0.3142   0.3372   0.3522   0.4571   0.4635
  0.4721   0.5094   0.5144   0.5185   0.5454   0.5620   0.5721   0.5942
  0.6088   0.6282   0.6386   0.6436   0.6591   0.6673   0.7117   0.7322
  0.7391   0.7679   0.8209   0.8640   0.8672   0.8722   0.8848   0.9574
  0.9975   1.0527   1.0573   1.1242   1.1484   1.1835   1.1861   1.2131
  1.2321   1.2332   1.2690   1.2760   1.2831   1.2932   1.3240   1.3525
  1.3787   1.3880   1.4230   1.4438   1.4567   1.4722   1.4782   1.4839
  1.5231   1.5630   1.5947   1.6183   1.6458   1.6837   1.6949   1.7191
  1.7480   2.3690   2.3775   2.4850   2.5304   2.5448   2.5845   2.6216
  2.6311   2.7210   2.8190   2.8315   2.8362   2.9063   2.9123   2.9195
  2.9361   2.9429   2.9918   3.0016   3.0474   3.0735   3.0872   3.0975
  3.1348   3.1357   3.1784   3.1986   3.2069   3.2457   3.2730   3.3038
  3.3050   3.3164   3.3419   3.3508   3.3623   3.3745   3.3890   3.4345
  3.4588   3.4785   3.4821   3.4977   3.5529   3.5578   3.6116   3.6117
  3.6345   3.6639   3.6810   3.7478   3.7539   3.7819   3.8658   3.8704
  3.9341   3.9403   3.9479   3.9647   3.9784   4.0121   4.0268   4.0764
  4.0784   4.0975   4.1238   4.1269   4.1606   4.1620   4.2011   4.2040
  4.2270   4.2423   4.2627   4.3557   4.3690   4.4051   4.4156   4.4321
  4.4342   4.5555   4.5757   4.6105   4.6520   4.7779   4.8042   4.8695
  4.8793   4.9032   4.9342   4.9612   5.0114   5.0296   5.0947   5.1135
  5.1553   5.2141   5.2691   5.2819   5.3288   5.3781   5.3981   5.4087
  5.4726   5.4751   5.5626   5.6213   5.6361   5.6972   5.7138   5.7390
  5.9477   6.2492   6.2542   6.4548   6.5151   6.5828  25.2026  25.3998
 25.4130
 --------------------------------------------------------------
 
 -----------------------------------------------------------------
                    Cartesian Multipole Moments
 -----------------------------------------------------------------
    Charge (ESU x 10^10)
                 0.0000
    Dipole Moment (Debye)
         X       0.1644      Y       0.0032      Z      -0.0761
       Tot       0.1812
    Quadrupole Moments (Debye-Ang)
        XX     -22.2917     XY       0.0105     YY     -21.3597
        XZ      -0.2573     YZ       0.0026     ZZ     -21.8095
    Octopole Moments (Debye-Ang^2)
       XXX       0.9096    XXY       0.0048    XYY       0.0726
       YYY      -0.0019    XXZ      -1.5289    XYZ      -0.0137
       YYZ       0.4969    XZZ      -0.2227    YZZ       0.0010
       ZZZ      -0.3704
    Hexadecapole Moments (Debye-Ang^3)
      XXXX    -203.7745   XXXY       0.2340   XXYY     -42.4189
      XYYY       0.0814   YYYY     -44.2267   XXXZ      -1.3374
      XXYZ       0.0095   XYYZ      -0.4517   YYYZ      -0.0120
      XXZZ     -45.4456   XYZZ       0.0780   YYZZ     -17.0720
      XZZZ      -1.7412   YZZZ      -0.0024   ZZZZ     -72.1818
 -----------------------------------------------------------------
Archival summary:
1\1\centos77-c4\SP\ProcedureUnspecified\BasisUnspecified\38\shihchen\TueJul702:39:242020TueJul702:39:242020\0\\#,ProcedureUnspecified,BasisUnspecified,\\0,1\C\H,1,1.09258\H,1,1.0926,2,106.225\C,1,1.52345,2,109.761,3,-118.572,0\H,4,1.0336,1,111.327,2,178.495,0\H,4,1.03784,1,111.301,2,-60.7669,0\H,4,1.2227,1,110.897,2,58.8502,0\C,1,1.52465,2,109.198,3,117.671,0\H,8,0.958241,1,112.363,2,-57.237,0\H,8,1.14587,1,110.506,2,63.7313,0\H,8,1.15016,1,110.48,2,-178.176,0\\\@

 Total job time:  26.19s(wall), 69.85s(cpu) 
 Tue Jul  7 02:39:24 2020

        *************************************************************
        *                                                           *
        *  Thank you very much for using Q-Chem.  Have a nice day.  *
        *                                                           *
        *************************************************************


