                  Welcome to Q-Chem
     A Quantum Leap Into The Future Of Chemistry


 Q-Chem 5.3 (devel), Q-Chem, Inc., Pleasanton, CA (2020)

 Yihan Shao,  Zhengting Gan,  E. Epifanovsky,  A. T. B. Gilbert,  M. Wormit,  
 J. Kussmann,  A. W. Lange,  A. Behn,  Jia Deng,  Xintian Feng,  D. Ghosh,  
 M. Goldey,  P. R. Horn,  L. D. Jacobson,  I. Kaliman,  T. Kus,  A. Landau,  
 Jie Liu,  E. I. Proynov,  R. M. Richard,  R. P. Steele,  E. J. Sundstrom,  
 H. L. Woodcock III,  P. M. Zimmerman,  D. Zuev,  B. Alam,  B. Albrecht,  
 E. Alguire,  S. A. Baeppler,  D. Barton,  Z. Benda,  Y. A. Bernard,  
 E. J. Berquist,  K. B. Bravaya,  H. Burton,  K. Carter-Fenk,  D. Casanova,  
 Chun-Min Chang,  Yunqing Chen,  A. Chien,  K. D. Closser,  M. P. Coons,  
 S. Coriani,  S. Dasgupta,  A. L. Dempwolff,  M. Diedenhofen,  Hainam Do,  
 R. G. Edgar,  Po-Tung Fang,  S. Faraji,  S. Fatehi,  Qingguo Feng,  
 J. Fosso-Tande,  J. Gayvert,  Qinghui Ge,  A. Ghysels,  G. Gidofalvi,  
 J. Gomes,  J. Gonthier,  A. Gunina,  D. Hait,  M. W. D. Hanson-Heine,  
 P. H. P. Harbach,  A. W. Hauser,  M. F. Herbst,  J. E. Herr,  
 E. G. Hohenstein,  Z. C. Holden,  Kerwin Hui,  B. C. Huynh,  T.-C. Jagau,  
 Hyunjun Ji,  B. Kaduk,  K. Khistyaev,  Jaehoon Kim,  P. Klunzinger,  K. Koh,  
 D. Kosenkov,  L. Koulias,  T. Kowalczyk,  C. M. Krauter,  A. Kunitsa,  
 Ka Un Lao,  A. Laurent,  K. V. Lawler,  Joonho Lee,  D. Lefrancois,  
 S. Lehtola,  D. S. Levine,  Yi-Pei Li,  You-Sheng Lin,  Fenglai Liu,  
 Kuan-Yu Liu,  E. Livshits,  M. Loipersberger,  A. Luenser,  P. Manohar,  
 E. Mansoor,  S. F. Manzer,  Shan-Ping Mao,  Yuezhi Mao,  N. Mardirossian,  
 A. V. Marenich,  T. Markovich,  L. A. Martinez-Martinez,  S. A. Maurer,  
 N. J. Mayhall,  S. C. McKenzie,  J.-M. Mewes,  P. Morgante,  A. F. Morrison,  
 J. W. Mullinax,  K. Nanda,  T. S. Nguyen-Beck,  R. Olivares-Amaya,  
 K. J. Oosterbaan,  J. A. Parkhill,  S. K. Paul,  F. Pavosevic,  Zheng Pei,  
 T. M. Perrine,  F. Plasser,  P. Pokhilko,  S. Prager,  A. Prociuk,  
 E. Ramos,  B. Rana,  D. R. Rehn,  F. Rob,  M. Scheurer,  M. Schneider,  
 N. Sergueev,  S. M. Sharada,  S. Sharma,  D. W. Small,  T. Stauch,  
 C. J. Stein,  T. Stein,  Yu-Chuan Su,  S. P. Veccham,  Zhen Tao,  
 A. J. W. Thom,  A. Tkatchenko,  T. Tsuchimochi,  N. M. Tubman,  L. Vogt,  
 M. L. Vidal,  O. Vydrov,  M. A. Watson,  J. Wenzel,  M. de Wergifosse,  
 T. A. Wesolowski,  A. White,  J. Witte,  A. Yamada,  Jun Yang,  K. Yao,  
 S. Yeganeh,  S. R. Yost,  Zhi-Qiang You,  A. Zech,  Igor Ying Zhang,  
 Xing Zhang,  Yan Zhao,  Ying Zhu,  B. R. Brooks,  G. K. L. Chan,  
 C. J. Cramer,  M. S. Gordon,  W. J. Hehre,  A. Klamt,  M. W. Schmidt,  
 C. D. Sherrill,  D. G. Truhlar,  A. Aspuru-Guzik,  R. Baer,  A. T. Bell,  
 N. A. Besley,  Jeng-Da Chai,  A. E. DePrince, III,  R. A. DiStasio Jr.,  
 A. Dreuw,  B. D. Dunietz,  T. R. Furlani,  Chao-Ping Hsu,  Yousung Jung,  
 Jing Kong,  D. S. Lambrecht,  WanZhen Liang,  C. Ochsenfeld,  
 V. A. Rassolov,  L. V. Slipchenko,  J. E. Subotnik,  T. Van Voorhis,  
 J. M. Herbert,  A. I. Krylov,  P. M. W. Gill,  M. Head-Gordon

 Contributors to earlier versions of Q-Chem not listed above: 
 R. D. Adamson,  B. Austin,  J. Baker,  G. J. O. Beran,  K. Brandhorst,  
 S. T. Brown,  E. F. C. Byrd,  A. K. Chakraborty,  C.-L. Cheng,  
 Siu Hung Chien,  D. M. Chipman,  D. L. Crittenden,  H. Dachsel,  
 R. J. Doerksen,  A. D. Dutoi,  L. Fusti-Molnar,  W. A. Goddard III,  
 A. Golubeva-Zadorozhnaya,  S. R. Gwaltney,  G. Hawkins,  A. Heyden,  
 S. Hirata,  G. Kedziora,  F. J. Keil,  C. Kelley,  Jihan Kim,  R. A. King,  
 R. Z. Khaliullin,  P. P. Korambath,  W. Kurlancheek,  A. M. Lee,  M. S. Lee,  
 S. V. Levchenko,  Ching Yeh Lin,  D. Liotard,  R. C. Lochan,  I. Lotan,  
 P. E. Maslen,  N. Nair,  D. P. O'Neill,  D. Neuhauser,  E. Neuscamman,  
 C. M. Oana,  R. Olson,  B. Peters,  R. Peverati,  P. A. Pieniazek,  
 Y. M. Rhee,  J. Ritchie,  M. A. Rohrdanz,  E. Rosta,  N. J. Russ,  
 H. F. Schaefer III,  N. E. Schultz,  N. Shenvi,  A. C. Simmonett,  A. Sodt,  
 D. Stuck,  K. S. Thanthiriwatte,  V. Vanovschi,  Tao Wang,  A. Warshel,  
 C. F. Williams,  Q. Wu,  X. Xu,  W. Zhang

 Please cite Q-Chem as follows:
 Y. Shao et al., Mol. Phys. 113, 184-215 (2015)
 DOI: 10.1080/00268976.2014.952696

 Q-Chem 5.3.0 for Intel X86 EM64T Linux

 Parts of Q-Chem use Armadillo 9.800.1 (Horizon Scraper).
 http://arma.sourceforge.net/

 Q-Chem begins on Tue Jul  7 02:20:21 2020  

Host: centos77-c4
0

     Scratch files written to /tmp/26964.centos77-h1/qchem110779//
Processing $rem in /opt/qchem-5.3.0-intel2020u1//config/preferences:
Processing $rem in /home/shihchengli/.qchemrc:

Checking the input file for inconsistencies... 	...done.

--------------------------------------------------------------
User input:
--------------------------------------------------------------
$rem
   JOBTYPE  sp
   EXCHANGE   omegaB97X-D
   BASIS   6-311+G(2df,2pd)
   UNRESTRICTED   False
   max_scf_cycles   250
   geom_opt_max_cycles   1500
   basis2 6-31G*
   scf_algorithm rca_diis
   SYM_IGNORE  TRUE
   print_input   true
   geom_opt_dmax   80
   pop_mulliken false
   XC_GRID 000075000302
$end

$molecule
0 1
C       1.2735126234     -0.0063318650     0.2286198846
C       0.0000000007     -0.0582118538     -0.6151050514
H       1.3074544954     -0.8483385457     0.9234526642
H       1.2616610535     0.7762458440     0.9948679559
H       2.1167989112     0.2136730273     -0.4218658803
C       -1.2735123898     -0.0063310331     0.2286203479
H       -0.0000005116     -0.9935222449     -1.1799615092
H       0.0000002511     0.7812363349     -1.3140369146
H       -1.3074552811     -0.8483374697     0.9234534507
H       -2.1167994957     0.2136695036     -0.4218659299
H       -1.2616597178     0.7762489684     0.9948660010
$end
--------------------------------------------------------------
 ----------------------------------------------------------------
             Standard Nuclear Orientation (Angstroms)
    I     Atom           X                Y                Z
 ----------------------------------------------------------------
    1      C       1.2735126234    -0.0063318650     0.2286198846
    2      C       0.0000000007    -0.0582118538    -0.6151050514
    3      H       1.3074544954    -0.8483385457     0.9234526642
    4      H       1.2616610535     0.7762458440     0.9948679559
    5      H       2.1167989112     0.2136730273    -0.4218658803
    6      C      -1.2735123898    -0.0063310331     0.2286203479
    7      H      -0.0000005116    -0.9935222449    -1.1799615092
    8      H       0.0000002511     0.7812363349    -1.3140369146
    9      H      -1.3074552811    -0.8483374697     0.9234534507
   10      H      -2.1167994957     0.2136695036    -0.4218659299
   11      H      -1.2616597178     0.7762489684     0.9948660010
 ----------------------------------------------------------------
 Nuclear Repulsion Energy =          82.69342647 hartrees
 There are       13 alpha and       13 beta electrons
 Requested basis set is 6-311+G(2df,2pd)
 There are 72 shells and 214 basis functions

 Total QAlloc Memory Limit   2000 MB
 Mega-Array Size       188 MB
 MEM_STATIC part       192 MB

                       Distance Matrix (Angstroms)
             C (  1)   C (  2)   H (  3)   H (  4)   H (  5)   C (  6)
   C (  2)  1.528528
   H (  3)  1.092209  2.168155
   H (  4)  1.095310  2.209100  1.626798
   H (  5)  1.087504  2.142919  1.895465  1.747823
   C (  6)  2.547025  1.528528  2.802349  2.761642  3.459154
   H (  7)  2.140206  1.092643  2.480901  3.074695  2.552032  2.140206
   H (  8)  2.149858  1.092327  3.061260  2.631132  2.366207  2.149858
   H (  9)  2.802349  2.168156  2.614910  3.040515  3.829265  1.092209
   H ( 10)  3.459154  2.142919  3.829263  3.706430  4.233598  1.087504
   H ( 11)  2.761642  2.209099  3.040515  2.523321  3.706427  1.095310
             H (  7)   H (  8)   H (  9)   H ( 10)
   H (  8)  1.779816
   H (  9)  2.480901  3.061260
   H ( 10)  2.552030  2.366208  1.895463
   H ( 11)  3.074695  2.631130  1.626800  1.747824
 
 A cutoff of  1.0D-09 yielded   2534 shell pairs
 There are     22580 function pairs (     27761 Cartesian)
 Smallest overlap matrix eigenvalue = 8.44E-05

 Scale SEOQF with 1.000000e-01/1.000000e-01/1.000000e-01

 Standard Electronic Orientation quadrupole field applied
 Nucleus-field energy     =     0.0000000005 hartrees
 Requested basis set is 6-31G(d)
 There are 28 shells and 58 basis functions
 A cutoff of  1.0D-09 yielded    402 shell pairs
 There are      1773 function pairs (      1968 Cartesian)
 Smallest overlap matrix eigenvalue = 6.57E-03
 Guess from superposition of atomic densities
 Warning:  Energy on first SCF cycle will be non-variational
 SAD guess density has 26.000000 electrons
 Long-range K will be added via erf
 Coulomb attenuation parameter = 0.2 bohr**(-1)
 A restricted hybrid HF-DFT SCF calculation will be
 performed using Relaxed Constraint Minimization + Pulay DIIS
 Exchange:     0.2220 Hartree-Fock + 1.0000 wB97X-D + LR-HF
 Correlation:  1.0000 wB97X-D
 Using Euler-Maclaurin-Lebedev (75,302) quadrature formula
 Dispersion:   Grimme D
 SCF converges when DIIS error is below 1.0E-04
 using 3 threads for integral computing
 -------------------------------------------------------
 OpenMP Integral computing Module                
 Release: version 1.0, May 2013, Q-Chem Inc. Pittsburgh 
 -------------------------------------------------------
 using 3 threads for integral computing
 -------------------------------------------------------
 OpenMP Integral computing Module                
 Release: version 1.0, May 2013, Q-Chem Inc. Pittsburgh 
 -------------------------------------------------------
 ---------------------------------------
  Cycle       Energy         DIIS Error
 ---------------------------------------
    1    -119.6146332628      1.00E-01
    2    -119.0512050193      9.09E-03
    3    -119.0728858182      2.51E-03
    4    -119.0870271939      1.71E-03
    5    -119.0877542534      2.83E-04 Done RCA. Switching to DIIS
    6    -119.0882791870      2.08E-04
    7    -119.0882979699      4.85E-06 Convergence criterion met
 ---------------------------------------
 SCF time:  CPU 20.31 s  wall 7.41 s
 SCF   energy in the small basis set = -119.08829797
 Total energy in the small basis set = -119.08829797
 ----------------------------------------------------
  Cycle       Energy    
 ----------------------------------------------------
    1     -16.5345616696     -1.65E+01
 Long-range K will be added via erf
 Coulomb attenuation parameter = 0.2 bohr**(-1)
 A restricted hybrid HF-DFT SCF calculation will be
 performed using Relaxed Constraint Minimization + Pulay DIIS
 Exchange:     0.2220 Hartree-Fock + 1.0000 wB97X-D + LR-HF
 Correlation:  1.0000 wB97X-D
 Using Euler-Maclaurin-Lebedev (75,302) quadrature formula
 Dispersion:   Grimme D
 SCF converges when DIIS error is below 1.0E-05
 Basis2 calculation detected. Using small basis as guess for larger.
 SCFMinFind is unable to tell whether the solution found is close.
 Resetting ReadMinima to 0 and attempting to follow guess.
 SCFMinFind following SCF Guess.
 using 3 threads for integral computing
 -------------------------------------------------------
 OpenMP Integral computing Module                
 Release: version 1.0, May 2013, Q-Chem Inc. Pittsburgh 
 -------------------------------------------------------
 using 3 threads for integral computing
 -------------------------------------------------------
 OpenMP Integral computing Module                
 Release: version 1.0, May 2013, Q-Chem Inc. Pittsburgh 
 -------------------------------------------------------
 ---------------------------------------
  Cycle       Energy         DIIS Error
 ---------------------------------------
    1    -119.1080360282      4.21E-03
    2    -119.1300315226      6.10E-04 Done RCA. Switching to DIIS
    3    -119.1309008662      4.28E-04
    4    -119.1319084707      4.41E-05
    5    -119.1319227690      9.82E-06 Convergence criterion met
 ---------------------------------------
 SCF time:  CPU 42.70 s  wall 14.25 s
 SCF   energy in the final basis set = -119.13192277
 Total energy in the final basis set = -119.13192277
 
 --------------------------------------------------------------
 
                    Orbital Energies (a.u.)
 --------------------------------------------------------------
 
 Alpha MOs
 -- Occupied --
-10.2753 -10.2652 -10.2652  -0.8811  -0.7776  -0.6807  -0.5476  -0.5167
 -0.5056  -0.4511  -0.4280  -0.4041  -0.4006
 -- Virtual --
  0.0685   0.0868   0.0891   0.1011   0.1213   0.1247   0.1353   0.1414
  0.1460   0.1706   0.1713   0.1952   0.2139   0.2313   0.2418   0.2763
  0.2828   0.2854   0.3074   0.3076   0.3404   0.3559   0.4605   0.4630
  0.4717   0.5096   0.5174   0.5249   0.5463   0.5649   0.5770   0.5801
  0.6132   0.6270   0.6284   0.6357   0.6569   0.6711   0.7160   0.7221
  0.7239   0.7624   0.8315   0.8642   0.8852   0.8858   0.8920   0.9424
  0.9740   1.0138   1.0831   1.1289   1.1305   1.1806   1.2121   1.2304
  1.2382   1.2443   1.2520   1.2588   1.2847   1.3142   1.3473   1.3655
  1.3827   1.3956   1.4202   1.4389   1.4447   1.4503   1.4720   1.4872
  1.5438   1.5463   1.6055   1.6089   1.6248   1.6462   1.6755   1.6946
  1.7765   2.3989   2.4325   2.4929   2.4965   2.5365   2.5711   2.5927
  2.6462   2.7546   2.7982   2.8002   2.8218   2.8870   2.9423   2.9435
  2.9508   2.9518   2.9925   3.0083   3.0177   3.0591   3.0762   3.1097
  3.1243   3.1416   3.1569   3.1574   3.2416   3.2436   3.2654   3.2988
  3.3253   3.3386   3.3439   3.3670   3.4004   3.4157   3.4578   3.4615
  3.4660   3.4863   3.5140   3.5579   3.5597   3.5727   3.5873   3.5992
  3.6142   3.6276   3.6548   3.6784   3.7555   3.7941   3.8179   3.8619
  3.8672   3.9214   3.9236   3.9651   3.9872   3.9880   4.0135   4.0260
  4.0643   4.0833   4.0975   4.1422   4.1525   4.1702   4.1950   4.2117
  4.2474   4.2838   4.2839   4.3357   4.3750   4.3944   4.4061   4.4296
  4.5059   4.5865   4.5876   4.6032   4.6399   4.7507   4.8165   4.8396
  4.8677   4.9368   4.9383   4.9655   4.9659   5.0831   5.0982   5.1069
  5.1157   5.2113   5.2707   5.2836   5.3002   5.3139   5.3310   5.3862
  5.4311   5.5013   5.5368   5.5564   5.5930   5.6133   5.7144   5.7751
  5.9613   6.2994   6.3686   6.4377   6.4419   6.4546  25.1741  25.4296
 25.4497
 --------------------------------------------------------------
 
 -----------------------------------------------------------------
                    Cartesian Multipole Moments
 -----------------------------------------------------------------
    Charge (ESU x 10^10)
                -0.0000
    Dipole Moment (Debye)
         X      -0.0000      Y       0.0977      Z       0.0241
       Tot       0.1006
    Quadrupole Moments (Debye-Ang)
        XX     -22.6340     XY       0.0000     YY     -21.8732
        XZ       0.0000     YZ      -0.3820     ZZ     -21.1558
    Octopole Moments (Debye-Ang^2)
       XXX      -0.0000    XXY       2.1190    XYY      -0.0000
       YYY       0.5272    XXZ      -1.4138    XYZ      -0.0000
       YYZ       0.3381    XZZ       0.0000    YZZ       0.3692
       ZZZ       1.8938
    Hexadecapole Moments (Debye-Ang^3)
      XXXX    -205.1020   XXXY       0.0001   XXYY     -42.8900
      XYYY       0.0000   YYYY     -44.4100   XXXZ       0.0000
      XXYZ      -1.2379   XYYZ      -0.0000   YYYZ      -0.6908
      XXZZ     -44.0457   XYZZ       0.0000   YYZZ     -17.3415
      XZZZ       0.0000   YZZZ      -1.0554   ZZZZ     -73.0383
 -----------------------------------------------------------------
Archival summary:
1\1\centos77-c4\SP\ProcedureUnspecified\BasisUnspecified\38\shihchen\TueJul702:20:452020TueJul702:20:452020\0\\#,ProcedureUnspecified,BasisUnspecified,\\0,1\C\H,1,1.09233\H,1,1.09264,2,109.09\C,1,1.52853,2,109.093,3,118.156,0\H,4,1.0875,1,108.83,2,-43.9644,0\H,4,1.09221,1,110.541,2,-178.866,0\H,4,1.09531,1,113.665,2,74.4006,0\C,1,1.52853,2,109.093,3,-118.156,0\H,8,1.0875,1,108.83,2,43.9646,0\H,8,1.09221,1,110.541,2,178.866,0\H,8,1.09531,1,113.665,2,-74.4005,0\\\@

 Total job time:  24.66s(wall), 66.68s(cpu) 
 Tue Jul  7 02:20:45 2020

        *************************************************************
        *                                                           *
        *  Thank you very much for using Q-Chem.  Have a nice day.  *
        *                                                           *
        *************************************************************


