                  Welcome to Q-Chem
     A Quantum Leap Into The Future Of Chemistry


 Q-Chem 5.2 (devel), Q-Chem, Inc., Pleasanton, CA (2019)

 Yihan Shao,  Zhengting Gan,  E. Epifanovsky,  A. T. B. Gilbert,  M. Wormit,  
 J. Kussmann,  A. W. Lange,  A. Behn,  Jia Deng,  Xintian Feng,  D. Ghosh,  
 M. Goldey,  P. R. Horn,  L. D. Jacobson,  I. Kaliman,  T. Kus,  A. Landau,  
 Jie Liu,  E. I. Proynov,  R. M. Richard,  R. P. Steele,  E. J. Sundstrom,  
 H. L. Woodcock III,  P. M. Zimmerman,  D. Zuev,  B. Alam,  B. Albrecht,  
 E. Alguire,  S. A. Baeppler,  D. Barton,  Z. Benda,  Y. A. Bernard,  
 E. J. Berquist,  K. B. Bravaya,  H. Burton,  K. Carter-Fenk,  D. Casanova,  
 Chun-Min Chang,  Yunqing Chen,  A. Chien,  K. D. Closser,  M. P. Coons,  
 S. Coriani,  S. Dasgupta,  A. L. Dempwolff,  M. Diedenhofen,  Hainam Do,  
 R. G. Edgar,  Po-Tung Fang,  S. Faraji,  S. Fatehi,  Qingguo Feng,  
 J. Fosso-Tande,  J. Gayvert,  Qinghui Ge,  A. Ghysels,  G. Gidofalvi,  
 J. Gomes,  J. Gonthier,  A. Gunina,  D. Hait,  M. W. D. Hanson-Heine,  
 P. H. P. Harbach,  A. W. Hauser,  M. F. Herbst,  J. E. Herr,  
 E. G. Hohenstein,  Z. C. Holden,  Kerwin Hui,  B. C. Huynh,  T.-C. Jagau,  
 Hyunjun Ji,  B. Kaduk,  K. Khistyaev,  Jaehoon Kim,  P. Klunzinger,  K. Koh,  
 D. Kosenkov,  L. Koulias,  T. Kowalczyk,  C. M. Krauter,  A. Kunitsa,  
 Ka Un Lao,  A. Laurent,  K. V. Lawler,  Joonho Lee,  D. Lefrancois,  
 S. Lehtola,  D. S. Levine,  Yi-Pei Li,  You-Sheng Lin,  Fenglai Liu,  
 Kuan-Yu Liu,  E. Livshits,  M. Loipersberger,  A. Luenser,  P. Manohar,  
 E. Mansoor,  S. F. Manzer,  Shan-Ping Mao,  Yuezhi Mao,  N. Mardirossian,  
 A. V. Marenich,  T. Markovich,  L. A. Martinez-Martinez,  S. A. Maurer,  
 N. J. Mayhall,  S. C. McKenzie,  J.-M. Mewes,  P. Morgante,  A. F. Morrison,  
 J. W. Mullinax,  K. Nanda,  T. S. Nguyen-Beck,  R. Olivares-Amaya,  
 J. A. Parkhill,  S. K. Paul,  Zheng Pei,  T. M. Perrine,  F. Plasser,  
 P. Pokhilko,  S. Prager,  A. Prociuk,  E. Ramos,  B. Rana,  D. R. Rehn,  
 F. Rob,  M. Scheurer,  M. Schneider,  N. Sergueev,  S. M. Sharada,  
 S. Sharma,  D. W. Small,  T. Stauch,  C. J. Stein,  T. Stein,  Yu-Chuan Su,  
 S. P. Veccham,  A. J. W. Thom,  A. Tkatchenko,  T. Tsuchimochi,  
 N. M. Tubman,  L. Vogt,  M. L. Vidal,  O. Vydrov,  M. A. Watson,  J. Wenzel,  
 M. de Wergifosse,  T. A. Wesolowski,  A. White,  J. Witte,  A. Yamada,  
 Jun Yang,  K. Yao,  S. Yeganeh,  S. R. Yost,  Zhi-Qiang You,  A. Zech,  
 Igor Ying Zhang,  Xing Zhang,  Yan Zhao,  Ying Zhu,  B. R. Brooks,  
 G. K. L. Chan,  C. J. Cramer,  M. S. Gordon,  W. J. Hehre,  A. Klamt,  
 M. W. Schmidt,  C. D. Sherrill,  D. G. Truhlar,  A. Aspuru-Guzik,  R. Baer,  
 A. T. Bell,  N. A. Besley,  Jeng-Da Chai,  A. E. DePrince, III,  
 R. A. DiStasio Jr.,  A. Dreuw,  B. D. Dunietz,  T. R. Furlani,  
 Chao-Ping Hsu,  Yousung Jung,  Jing Kong,  D. S. Lambrecht,  WanZhen Liang,  
 C. Ochsenfeld,  V. A. Rassolov,  L. V. Slipchenko,  J. E. Subotnik,  
 T. Van Voorhis,  J. M. Herbert,  A. I. Krylov,  P. M. W. Gill,  M. Head-Gordon

 Contributors to earlier versions of Q-Chem not listed above: 
 R. D. Adamson,  B. Austin,  J. Baker,  G. J. O. Beran,  K. Brandhorst,  
 S. T. Brown,  E. F. C. Byrd,  A. K. Chakraborty,  C.-L. Cheng,  
 Siu Hung Chien,  D. M. Chipman,  D. L. Crittenden,  H. Dachsel,  
 R. J. Doerksen,  A. D. Dutoi,  L. Fusti-Molnar,  W. A. Goddard III,  
 A. Golubeva-Zadorozhnaya,  S. R. Gwaltney,  G. Hawkins,  A. Heyden,  
 S. Hirata,  G. Kedziora,  F. J. Keil,  C. Kelley,  Jihan Kim,  R. A. King,  
 R. Z. Khaliullin,  P. P. Korambath,  W. Kurlancheek,  A. M. Lee,  M. S. Lee,  
 S. V. Levchenko,  Ching Yeh Lin,  D. Liotard,  R. C. Lochan,  I. Lotan,  
 P. E. Maslen,  N. Nair,  D. P. O'Neill,  D. Neuhauser,  E. Neuscamman,  
 C. M. Oana,  R. Olson,  B. Peters,  R. Peverati,  P. A. Pieniazek,  
 Y. M. Rhee,  J. Ritchie,  M. A. Rohrdanz,  E. Rosta,  N. J. Russ,  
 H. F. Schaefer III,  N. E. Schultz,  N. Shenvi,  A. C. Simmonett,  A. Sodt,  
 D. Stuck,  K. S. Thanthiriwatte,  V. Vanovschi,  Tao Wang,  A. Warshel,  
 C. F. Williams,  Q. Wu,  X. Xu,  W. Zhang

 Please cite Q-Chem as follows:
 Y. Shao et al., Mol. Phys. 113, 184-215 (2015)
 DOI: 10.1080/00268976.2014.952696

 Q-Chem 5.2.2 for Intel X86 EM64T Linux

 Parts of Q-Chem use Armadillo 9.800.1 (Horizon Scraper).
 http://arma.sourceforge.net/

 Q-Chem begins on Sun Apr 12 08:15:08 2020  

Host: cn0821
0

     Scratch files written to /tmp/ypli/6721342.srvc1/qchem194487//
Warning:  Did not find "$end" marker in "$molecule" section

Checking the input file for inconsistencies... 	...done.

--------------------------------------------------------------
User input:
--------------------------------------------------------------
$rem
   JOBTYPE  sp
   EXCHANGE   omegaB97X-D
   BASIS   6-311+G(2df,2pd)
   max_scf_cycles   250
   geom_opt_max_cycles   1500
   basis2 6-31G*
   scf_algorithm rca_diis
   SYM_IGNORE  TRUE
   print_input   true
   geom_opt_dmax   80
   pop_mulliken false
   XC_GRID 000075000302
$end

$molecule
0 1
C       1.2669185190     -0.0067464157     0.2592549620
C       -0.0000000496     0.0421894980     -0.5863310561
H       1.3033348334     -0.8330404634     0.8468040659
H       1.3065159583     0.9260078744     0.9617939960
H       2.1652109667     0.0115496999     -0.3606559581
C       -1.2669187157     -0.0067458948     0.2592549393
H       -0.0000001007     -0.9929463570     -1.3718549646
H       -0.0000000560     0.7552160613     -1.1151630835
H       -1.3033352136     -0.8330410051     0.8468047031
H       -2.1652102865     0.0115507756     -0.3606554387
H       -1.3065159158     0.9260068926     0.9617928537
--------------------------------------------------------------
 ----------------------------------------------------------------
             Standard Nuclear Orientation (Angstroms)
    I     Atom           X                Y                Z
 ----------------------------------------------------------------
    1      C       1.2669185190    -0.0067464157     0.2592549620
    2      C      -0.0000000496     0.0421894980    -0.5863310561
    3      H       1.3033348334    -0.8330404634     0.8468040659
    4      H       1.3065159583     0.9260078744     0.9617939960
    5      H       2.1652109667     0.0115496999    -0.3606559581
    6      C      -1.2669187157    -0.0067458948     0.2592549393
    7      H      -0.0000001007    -0.9929463570    -1.3718549646
    8      H      -0.0000000560     0.7552160613    -1.1151630835
    9      H      -1.3033352136    -0.8330410051     0.8468047031
   10      H      -2.1652102865     0.0115507756    -0.3606554387
   11      H      -1.3065159158     0.9260068926     0.9617928537
 ----------------------------------------------------------------
 Nuclear Repulsion Energy =          83.01415093 hartrees
 There are       13 alpha and       13 beta electrons
 Requested basis set is 6-311+G(2df,2pd)
 There are 72 shells and 214 basis functions

 Total QAlloc Memory Limit   2000 MB
 Mega-Array Size       188 MB
 MEM_STATIC part       192 MB

                       Distance Matrix (Angstroms)
             C (  1)   C (  2)   H (  3)   H (  4)   H (  5)   C (  6)
   C (  2)  1.523973
   H (  3)  1.014545  2.125696
   H (  4)  1.168400  2.210161  1.762806
   H (  5)  1.091583  2.177156  1.707080  1.822763
   C (  6)  2.533837  1.523973  2.763002  2.825979  3.487712
   H (  7)  2.288710  1.299444  2.578119  3.291700  2.592234  2.288710
   H (  8)  2.018587  0.887733  2.840872  2.459655  2.410489  2.018587
   H (  9)  2.763002  2.125697  2.606670  3.149412  3.768568  1.014546
   H ( 10)  3.487712  2.177155  3.768567  3.825962  4.330421  1.091582
   H ( 11)  2.825978  2.210159  3.149411  2.613032  3.825963  1.168399
             H (  7)   H (  8)   H (  9)   H ( 10)
   H (  8)  1.766908
   H (  9)  2.578120  2.840873
   H ( 10)  2.592233  2.410489  1.707081
   H ( 11)  3.291698  2.459654  1.762805  1.822760
 
 A cutoff of  1.0D-09 yielded   2532 shell pairs
 There are     22546 function pairs (     27715 Cartesian)
 Smallest overlap matrix eigenvalue = 8.55E-05

 Scale SEOQF with 1.000000e-01/1.000000e-01/1.000000e-01

 Standard Electronic Orientation quadrupole field applied
 Nucleus-field energy     =     0.0000000006 hartrees
 Requested basis set is 6-31G(d)
 There are 28 shells and 58 basis functions
 A cutoff of  1.0D-09 yielded    402 shell pairs
 There are      1773 function pairs (      1968 Cartesian)
 Smallest overlap matrix eigenvalue = 6.64E-03
 Guess from superposition of atomic densities
 Warning:  Energy on first SCF cycle will be non-variational
 SAD guess density has 26.000000 electrons
 Long-range K will be added via erf
 Coulomb attenuation parameter = 0.2 bohr**(-1)
 A restricted hybrid HF-DFT SCF calculation will be
 performed using Relaxed Constraint Minimization + Pulay DIIS
 Exchange:     0.2220 Hartree-Fock + 1.0000 wB97X-D + LR-HF
 Correlation:  1.0000 wB97X-D
 Using Euler-Maclaurin-Lebedev (75,302) quadrature formula
 Dispersion:   Grimme D
 SCF converges when DIIS error is below 1.0E-04
 using 3 threads for integral computing
 -------------------------------------------------------
 OpenMP Integral computing Module                
 Release: version 1.0, May 2013, Q-Chem Inc. Pittsburgh 
 -------------------------------------------------------
 using 3 threads for integral computing
 -------------------------------------------------------
 OpenMP Integral computing Module                
 Release: version 1.0, May 2013, Q-Chem Inc. Pittsburgh 
 -------------------------------------------------------
 ---------------------------------------
  Cycle       Energy         DIIS Error
 ---------------------------------------
    1    -119.6053481861      1.03E-01
    2    -118.9912687404      9.35E-03
    3    -119.0145180666      2.62E-03
    4    -119.0300402722      1.79E-03
    5    -119.0308300285      2.74E-04 Done RCA. Switching to DIIS
    6    -119.0314244443      2.02E-04
    7    -119.0314424459      5.86E-06 Convergence criterion met
 ---------------------------------------
 SCF time:  CPU 32.89 s  wall 11.35 s
 SCF   energy in the small basis set = -119.03144245
 Total energy in the small basis set = -119.03144245
 ----------------------------------------------------
  Cycle       Energy    
 ----------------------------------------------------
    1     -16.5648944340     -1.66E+01
 Long-range K will be added via erf
 Coulomb attenuation parameter = 0.2 bohr**(-1)
 A restricted hybrid HF-DFT SCF calculation will be
 performed using Relaxed Constraint Minimization + Pulay DIIS
 Exchange:     0.2220 Hartree-Fock + 1.0000 wB97X-D + LR-HF
 Correlation:  1.0000 wB97X-D
 Using Euler-Maclaurin-Lebedev (75,302) quadrature formula
 Dispersion:   Grimme D
 SCF converges when DIIS error is below 1.0E-05
 Basis2 calculation detected. Using small basis as guess for larger.
 SCFMinFind is unable to tell whether the solution found is close.
 Resetting ReadMinima to 0 and attempting to follow guess.
 SCFMinFind following SCF Guess.
 using 3 threads for integral computing
 -------------------------------------------------------
 OpenMP Integral computing Module                
 Release: version 1.0, May 2013, Q-Chem Inc. Pittsburgh 
 -------------------------------------------------------
 using 3 threads for integral computing
 -------------------------------------------------------
 OpenMP Integral computing Module                
 Release: version 1.0, May 2013, Q-Chem Inc. Pittsburgh 
 -------------------------------------------------------
 ---------------------------------------
  Cycle       Energy         DIIS Error
 ---------------------------------------
    1    -119.0537009304      4.21E-03
    2    -119.0756776842      5.73E-04 Done RCA. Switching to DIIS
    3    -119.0764664647      3.99E-04
    4    -119.0773422866      4.65E-05
    5    -119.0773576198      1.12E-05
    6    -119.0773584270      4.21E-06 Convergence criterion met
 ---------------------------------------
 SCF time:  CPU 98.45 s  wall 33.34 s
 SCF   energy in the final basis set = -119.07735843
 Total energy in the final basis set = -119.07735843
 
 --------------------------------------------------------------
 
                    Orbital Energies (a.u.)
 --------------------------------------------------------------
 
 Alpha MOs
 -- Occupied --
-10.2723 -10.2661 -10.2661  -0.8876  -0.7802  -0.6958  -0.5442  -0.5216
 -0.4933  -0.4562  -0.4411  -0.4204  -0.3877
 -- Virtual --
  0.0690   0.0856   0.0888   0.0971   0.1246   0.1294   0.1333   0.1409
  0.1429   0.1671   0.1712   0.1898   0.2104   0.2396   0.2419   0.2630
  0.2837   0.2877   0.3130   0.3148   0.3387   0.3504   0.4586   0.4688
  0.4706   0.5028   0.5140   0.5159   0.5442   0.5622   0.5815   0.5826
  0.6180   0.6240   0.6326   0.6384   0.6608   0.6622   0.7162   0.7323
  0.7489   0.7693   0.8381   0.8531   0.8729   0.8824   0.8931   0.9559
  0.9998   1.0418   1.0647   1.1357   1.1404   1.1620   1.1848   1.1853
  1.2137   1.2390   1.2743   1.2773   1.2935   1.2993   1.3264   1.3759
  1.3812   1.3927   1.3966   1.4285   1.4587   1.4638   1.4790   1.4796
  1.5303   1.5853   1.6108   1.6186   1.6523   1.6692   1.6884   1.6979
  1.8199   2.3322   2.3492   2.4766   2.5066   2.5737   2.6018   2.6303
  2.6725   2.7156   2.7988   2.8294   2.8353   2.8426   2.9169   2.9205
  2.9304   2.9404   2.9849   3.0209   3.0325   3.0587   3.0853   3.1233
  3.1494   3.1495   3.1554   3.1787   3.1971   3.2257   3.2390   3.2835
  3.3306   3.3346   3.3447   3.3460   3.3684   3.3724   3.4236   3.4413
  3.4478   3.4773   3.4901   3.4999   3.5585   3.5669   3.5876   3.6144
  3.6269   3.6766   3.6883   3.7179   3.7455   3.7510   3.8205   3.8867
  3.8976   3.9099   3.9284   3.9698   3.9812   3.9875   4.0595   4.0659
  4.0827   4.0883   4.1165   4.1204   4.1585   4.1688   4.1935   4.2059
  4.2316   4.2696   4.2743   4.3506   4.3719   4.3955   4.4040   4.4288
  4.4430   4.4708   4.5539   4.5933   4.7610   4.7996   4.8122   4.8569
  4.8597   4.8784   4.9339   4.9340   4.9768   4.9903   5.0603   5.1829
  5.2081   5.2281   5.2395   5.2612   5.3666   5.3830   5.3957   5.4075
  5.4434   5.4591   5.5162   5.5843   5.7219   5.7255   5.8732   5.9799
  6.0318   6.2875   6.3006   6.4855   6.5215   6.7295  25.0315  25.4173
 25.4309
 --------------------------------------------------------------
 
 -----------------------------------------------------------------
                    Cartesian Multipole Moments
 -----------------------------------------------------------------
    Charge (ESU x 10^10)
                -0.0000
    Dipole Moment (Debye)
         X      -0.0000      Y       0.0694      Z       0.0010
       Tot       0.0694
    Quadrupole Moments (Debye-Ang)
        XX     -22.0559     XY      -0.0000     YY     -21.4024
        XZ      -0.0000     YZ      -0.3814     ZZ     -22.0140
    Octopole Moments (Debye-Ang^2)
       XXX      -0.0000    XXY      -0.5467    XYY      -0.0000
       YYY      -0.1207    XXZ      -1.5039    XYZ      -0.0000
       YYZ       0.6115    XZZ      -0.0000    YZZ       0.2056
       ZZZ       0.0506
    Hexadecapole Moments (Debye-Ang^3)
      XXXX    -201.5842   XXXY      -0.0000   XXYY     -42.3030
      XYYY      -0.0000   YYYY     -44.9126   XXXZ      -0.0000
      XXYZ      -1.7108   XYYZ       0.0000   YYYZ      -3.5788
      XXZZ     -45.5212   XYZZ      -0.0000   YYZZ     -17.4496
      XZZZ      -0.0000   YZZZ      -3.9448   ZZZZ     -74.0603
 -----------------------------------------------------------------
Archival summary:
1\1\cn0821\SP\ProcedureUnspecified\BasisUnspecified\38\r0852400\SunApr1208:15:572020SunApr1208:15:572020\0\\#,ProcedureUnspecified,BasisUnspecified,\\0,1\C\H,1,0.887733\H,1,1.29944,2,106.243\C,1,1.52397,2,110.875,3,117.161,0\H,4,1.01455,1,112.168,2,-177.884,0\H,4,1.09158,1,111.622,2,-56.2113,0\H,4,1.1684,1,109.643,2,62.7589,0\C,1,1.52397,2,110.875,3,-117.161,0\H,8,1.01455,1,112.168,2,177.884,0\H,8,1.09158,1,111.622,2,56.2113,0\H,8,1.1684,1,109.643,2,-62.7589,0\\\@

 Total job time:  48.99s(wall), 136.60s(cpu) 
 Sun Apr 12 08:15:57 2020

        *************************************************************
        *                                                           *
        *  Thank you very much for using Q-Chem.  Have a nice day.  *
        *                                                           *
        *************************************************************


