                  Welcome to Q-Chem
     A Quantum Leap Into The Future Of Chemistry


 Q-Chem 5.3 (devel), Q-Chem, Inc., Pleasanton, CA (2020)

 Yihan Shao,  Zhengting Gan,  E. Epifanovsky,  A. T. B. Gilbert,  M. Wormit,  
 J. Kussmann,  A. W. Lange,  A. Behn,  Jia Deng,  Xintian Feng,  D. Ghosh,  
 M. Goldey,  P. R. Horn,  L. D. Jacobson,  I. Kaliman,  T. Kus,  A. Landau,  
 Jie Liu,  E. I. Proynov,  R. M. Richard,  R. P. Steele,  E. J. Sundstrom,  
 H. L. Woodcock III,  P. M. Zimmerman,  D. Zuev,  B. Alam,  B. Albrecht,  
 E. Alguire,  S. A. Baeppler,  D. Barton,  Z. Benda,  Y. A. Bernard,  
 E. J. Berquist,  K. B. Bravaya,  H. Burton,  K. Carter-Fenk,  D. Casanova,  
 Chun-Min Chang,  Yunqing Chen,  A. Chien,  K. D. Closser,  M. P. Coons,  
 S. Coriani,  S. Dasgupta,  A. L. Dempwolff,  M. Diedenhofen,  Hainam Do,  
 R. G. Edgar,  Po-Tung Fang,  S. Faraji,  S. Fatehi,  Qingguo Feng,  
 J. Fosso-Tande,  J. Gayvert,  Qinghui Ge,  A. Ghysels,  G. Gidofalvi,  
 J. Gomes,  J. Gonthier,  A. Gunina,  D. Hait,  M. W. D. Hanson-Heine,  
 P. H. P. Harbach,  A. W. Hauser,  M. F. Herbst,  J. E. Herr,  
 E. G. Hohenstein,  Z. C. Holden,  Kerwin Hui,  B. C. Huynh,  T.-C. Jagau,  
 Hyunjun Ji,  B. Kaduk,  K. Khistyaev,  Jaehoon Kim,  P. Klunzinger,  K. Koh,  
 D. Kosenkov,  L. Koulias,  T. Kowalczyk,  C. M. Krauter,  A. Kunitsa,  
 Ka Un Lao,  A. Laurent,  K. V. Lawler,  Joonho Lee,  D. Lefrancois,  
 S. Lehtola,  D. S. Levine,  Yi-Pei Li,  You-Sheng Lin,  Fenglai Liu,  
 Kuan-Yu Liu,  E. Livshits,  M. Loipersberger,  A. Luenser,  P. Manohar,  
 E. Mansoor,  S. F. Manzer,  Shan-Ping Mao,  Yuezhi Mao,  N. Mardirossian,  
 A. V. Marenich,  T. Markovich,  L. A. Martinez-Martinez,  S. A. Maurer,  
 N. J. Mayhall,  S. C. McKenzie,  J.-M. Mewes,  P. Morgante,  A. F. Morrison,  
 J. W. Mullinax,  K. Nanda,  T. S. Nguyen-Beck,  R. Olivares-Amaya,  
 K. J. Oosterbaan,  J. A. Parkhill,  S. K. Paul,  F. Pavosevic,  Zheng Pei,  
 T. M. Perrine,  F. Plasser,  P. Pokhilko,  S. Prager,  A. Prociuk,  
 E. Ramos,  B. Rana,  D. R. Rehn,  F. Rob,  M. Scheurer,  M. Schneider,  
 N. Sergueev,  S. M. Sharada,  S. Sharma,  D. W. Small,  T. Stauch,  
 C. J. Stein,  T. Stein,  Yu-Chuan Su,  S. P. Veccham,  Zhen Tao,  
 A. J. W. Thom,  A. Tkatchenko,  T. Tsuchimochi,  N. M. Tubman,  L. Vogt,  
 M. L. Vidal,  O. Vydrov,  M. A. Watson,  J. Wenzel,  M. de Wergifosse,  
 T. A. Wesolowski,  A. White,  J. Witte,  A. Yamada,  Jun Yang,  K. Yao,  
 S. Yeganeh,  S. R. Yost,  Zhi-Qiang You,  A. Zech,  Igor Ying Zhang,  
 Xing Zhang,  Yan Zhao,  Ying Zhu,  B. R. Brooks,  G. K. L. Chan,  
 C. J. Cramer,  M. S. Gordon,  W. J. Hehre,  A. Klamt,  M. W. Schmidt,  
 C. D. Sherrill,  D. G. Truhlar,  A. Aspuru-Guzik,  R. Baer,  A. T. Bell,  
 N. A. Besley,  Jeng-Da Chai,  A. E. DePrince, III,  R. A. DiStasio Jr.,  
 A. Dreuw,  B. D. Dunietz,  T. R. Furlani,  Chao-Ping Hsu,  Yousung Jung,  
 Jing Kong,  D. S. Lambrecht,  WanZhen Liang,  C. Ochsenfeld,  
 V. A. Rassolov,  L. V. Slipchenko,  J. E. Subotnik,  T. Van Voorhis,  
 J. M. Herbert,  A. I. Krylov,  P. M. W. Gill,  M. Head-Gordon

 Contributors to earlier versions of Q-Chem not listed above: 
 R. D. Adamson,  B. Austin,  J. Baker,  G. J. O. Beran,  K. Brandhorst,  
 S. T. Brown,  E. F. C. Byrd,  A. K. Chakraborty,  C.-L. Cheng,  
 Siu Hung Chien,  D. M. Chipman,  D. L. Crittenden,  H. Dachsel,  
 R. J. Doerksen,  A. D. Dutoi,  L. Fusti-Molnar,  W. A. Goddard III,  
 A. Golubeva-Zadorozhnaya,  S. R. Gwaltney,  G. Hawkins,  A. Heyden,  
 S. Hirata,  G. Kedziora,  F. J. Keil,  C. Kelley,  Jihan Kim,  R. A. King,  
 R. Z. Khaliullin,  P. P. Korambath,  W. Kurlancheek,  A. M. Lee,  M. S. Lee,  
 S. V. Levchenko,  Ching Yeh Lin,  D. Liotard,  R. C. Lochan,  I. Lotan,  
 P. E. Maslen,  N. Nair,  D. P. O'Neill,  D. Neuhauser,  E. Neuscamman,  
 C. M. Oana,  R. Olson,  B. Peters,  R. Peverati,  P. A. Pieniazek,  
 Y. M. Rhee,  J. Ritchie,  M. A. Rohrdanz,  E. Rosta,  N. J. Russ,  
 H. F. Schaefer III,  N. E. Schultz,  N. Shenvi,  A. C. Simmonett,  A. Sodt,  
 D. Stuck,  K. S. Thanthiriwatte,  V. Vanovschi,  Tao Wang,  A. Warshel,  
 C. F. Williams,  Q. Wu,  X. Xu,  W. Zhang

 Please cite Q-Chem as follows:
 Y. Shao et al., Mol. Phys. 113, 184-215 (2015)
 DOI: 10.1080/00268976.2014.952696

 Q-Chem 5.3.0 for Intel X86 EM64T Linux

 Parts of Q-Chem use Armadillo 9.800.1 (Horizon Scraper).
 http://arma.sourceforge.net/

 Q-Chem begins on Tue Jul  7 01:40:16 2020  

Host: centos77-c4
0

     Scratch files written to /tmp/26964.centos77-h1/qchem102805//
Processing $rem in /opt/qchem-5.3.0-intel2020u1//config/preferences:
Processing $rem in /home/shihchengli/.qchemrc:

Checking the input file for inconsistencies... 	...done.

--------------------------------------------------------------
User input:
--------------------------------------------------------------
$rem
   JOBTYPE  sp
   EXCHANGE   omegaB97X-D
   BASIS   6-311+G(2df,2pd)
   UNRESTRICTED   False
   max_scf_cycles   250
   geom_opt_max_cycles   1500
   basis2 6-31G*
   scf_algorithm rca_diis
   SYM_IGNORE  TRUE
   print_input   true
   geom_opt_dmax   80
   pop_mulliken false
   XC_GRID 000075000302
$end

$molecule
0 1
C       1.2489410144     0.0911066448     0.2638411568
C       -0.0000002329     -0.0748927811     -0.6362711701
H       1.0230700923     -0.7406160664     0.9420404870
H       1.5869751858     0.9004453760     0.9057529986
H       2.0515327756     -0.3235155079     -0.3480953229
C       -1.2489415586     0.0911066645     0.2638409977
H       -0.0000009956     -0.7246317503     -1.5143141012
H       0.0000012513     0.9446851334     -1.0354481921
H       -1.0230704632     -0.7406161017     0.9420401842
H       -2.0515329118     -0.3235164055     -0.3480953600
H       -1.5869742179     0.9004454604     0.9057533410
$end
--------------------------------------------------------------
 ----------------------------------------------------------------
             Standard Nuclear Orientation (Angstroms)
    I     Atom           X                Y                Z
 ----------------------------------------------------------------
    1      C       1.2489410144     0.0911066448     0.2638411568
    2      C      -0.0000002329    -0.0748927811    -0.6362711701
    3      H       1.0230700923    -0.7406160664     0.9420404870
    4      H       1.5869751858     0.9004453760     0.9057529986
    5      H       2.0515327756    -0.3235155079    -0.3480953229
    6      C      -1.2489415586     0.0911066645     0.2638409977
    7      H      -0.0000009956    -0.7246317503    -1.5143141012
    8      H       0.0000012513     0.9446851334    -1.0354481921
    9      H      -1.0230704632    -0.7406161017     0.9420401842
   10      H      -2.0515329118    -0.3235164055    -0.3480953600
   11      H      -1.5869742179     0.9004454604     0.9057533410
 ----------------------------------------------------------------
 Nuclear Repulsion Energy =          82.74558193 hartrees
 There are       13 alpha and       13 beta electrons
 Requested basis set is 6-311+G(2df,2pd)
 There are 72 shells and 214 basis functions

 Total QAlloc Memory Limit   2000 MB
 Mega-Array Size       188 MB
 MEM_STATIC part       192 MB

                       Distance Matrix (Angstroms)
             C (  1)   C (  2)   H (  3)   H (  4)   H (  5)   C (  6)
   C (  2)  1.548423
   H (  3)  1.096693  1.995226
   H (  4)  1.086898  2.418184  1.735623
   H (  5)  1.091115  2.086539  1.701810  1.812741
   C (  6)  2.497883  1.548422  2.512718  3.018195  3.382234
   H (  7)  2.321017  1.092300  2.660941  3.319050  2.393690  2.321016
   H (  8)  1.994141  1.094934  2.792377  2.507729  2.507901  1.994143
   H (  9)  2.512718  1.995226  2.046141  3.083300  3.360299  1.096693
   H ( 10)  3.382234  2.086539  3.360299  4.038435  4.103066  1.091115
   H ( 11)  3.018194  2.418183  3.083299  3.173949  4.038434  1.086898
             H (  7)   H (  8)   H (  9)   H ( 10)
   H (  8)  1.736644
   H (  9)  2.660940  2.792378
   H ( 10)  2.393688  2.507904  1.701810
   H ( 11)  3.319049  2.507730  1.735623  1.812742
 
 A cutoff of  1.0D-09 yielded   2530 shell pairs
 There are     22584 function pairs (     27793 Cartesian)
 Smallest overlap matrix eigenvalue = 1.03E-04

 Scale SEOQF with 1.000000e-01/1.000000e-01/1.000000e-01

 Standard Electronic Orientation quadrupole field applied
 Nucleus-field energy     =     0.0000000004 hartrees
 Requested basis set is 6-31G(d)
 There are 28 shells and 58 basis functions
 A cutoff of  1.0D-09 yielded    402 shell pairs
 There are      1773 function pairs (      1968 Cartesian)
 Smallest overlap matrix eigenvalue = 6.11E-03
 Guess from superposition of atomic densities
 Warning:  Energy on first SCF cycle will be non-variational
 SAD guess density has 26.000000 electrons
 Long-range K will be added via erf
 Coulomb attenuation parameter = 0.2 bohr**(-1)
 A restricted hybrid HF-DFT SCF calculation will be
 performed using Relaxed Constraint Minimization + Pulay DIIS
 Exchange:     0.2220 Hartree-Fock + 1.0000 wB97X-D + LR-HF
 Correlation:  1.0000 wB97X-D
 Using Euler-Maclaurin-Lebedev (75,302) quadrature formula
 Dispersion:   Grimme D
 SCF converges when DIIS error is below 1.0E-04
 using 3 threads for integral computing
 -------------------------------------------------------
 OpenMP Integral computing Module                
 Release: version 1.0, May 2013, Q-Chem Inc. Pittsburgh 
 -------------------------------------------------------
 using 3 threads for integral computing
 -------------------------------------------------------
 OpenMP Integral computing Module                
 Release: version 1.0, May 2013, Q-Chem Inc. Pittsburgh 
 -------------------------------------------------------
 ---------------------------------------
  Cycle       Energy         DIIS Error
 ---------------------------------------
    1    -119.6132225289      9.99E-02
    2    -119.0011708837      8.95E-03
    3    -119.0221032331      2.56E-03
    4    -119.0356885205      1.77E-03
    5    -119.0364553664      2.82E-04 Done RCA. Switching to DIIS
    6    -119.0370153430      2.07E-04
    7    -119.0370340116      5.84E-06 Convergence criterion met
 ---------------------------------------
 SCF time:  CPU 19.56 s  wall 7.18 s
 SCF   energy in the small basis set = -119.03703401
 Total energy in the small basis set = -119.03703401
 ----------------------------------------------------
  Cycle       Energy    
 ----------------------------------------------------
    1     -16.5227199468     -1.65E+01
 Long-range K will be added via erf
 Coulomb attenuation parameter = 0.2 bohr**(-1)
 A restricted hybrid HF-DFT SCF calculation will be
 performed using Relaxed Constraint Minimization + Pulay DIIS
 Exchange:     0.2220 Hartree-Fock + 1.0000 wB97X-D + LR-HF
 Correlation:  1.0000 wB97X-D
 Using Euler-Maclaurin-Lebedev (75,302) quadrature formula
 Dispersion:   Grimme D
 SCF converges when DIIS error is below 1.0E-05
 Basis2 calculation detected. Using small basis as guess for larger.
 SCFMinFind is unable to tell whether the solution found is close.
 Resetting ReadMinima to 0 and attempting to follow guess.
 SCFMinFind following SCF Guess.
 using 3 threads for integral computing
 -------------------------------------------------------
 OpenMP Integral computing Module                
 Release: version 1.0, May 2013, Q-Chem Inc. Pittsburgh 
 -------------------------------------------------------
 using 3 threads for integral computing
 -------------------------------------------------------
 OpenMP Integral computing Module                
 Release: version 1.0, May 2013, Q-Chem Inc. Pittsburgh 
 -------------------------------------------------------
 ---------------------------------------
  Cycle       Energy         DIIS Error
 ---------------------------------------
    1    -119.0580010194      4.21E-03
    2    -119.0801506125      6.34E-04 Done RCA. Switching to DIIS
    3    -119.0810554825      4.52E-04
    4    -119.0821842721      4.58E-05
    5    -119.0821998657      9.38E-06 Convergence criterion met
 ---------------------------------------
 SCF time:  CPU 46.08 s  wall 15.64 s
 SCF   energy in the final basis set = -119.08219987
 Total energy in the final basis set = -119.08219987
 
 --------------------------------------------------------------
 
                    Orbital Energies (a.u.)
 --------------------------------------------------------------
 
 Alpha MOs
 -- Occupied --
-10.2829 -10.2666 -10.2666  -0.8852  -0.7758  -0.6840  -0.5438  -0.5283
 -0.5059  -0.4571  -0.4384  -0.3946  -0.3622
 -- Virtual --
  0.0684   0.0859   0.0861   0.0978   0.1232   0.1260   0.1336   0.1345
  0.1425   0.1695   0.1697   0.1932   0.2098   0.2138   0.2340   0.2699
  0.2845   0.3017   0.3076   0.3122   0.3308   0.3489   0.4512   0.4638
  0.4788   0.4983   0.5055   0.5157   0.5447   0.5714   0.5928   0.5959
  0.6065   0.6193   0.6364   0.6551   0.6585   0.6844   0.6966   0.7119
  0.7283   0.7379   0.8157   0.8642   0.8791   0.8934   0.9360   0.9601
  1.0028   1.0039   1.0521   1.1302   1.1428   1.1686   1.1689   1.2119
  1.2390   1.2420   1.2728   1.2904   1.2944   1.3401   1.3403   1.3902
  1.4030   1.4081   1.4359   1.4423   1.4525   1.4619   1.4832   1.5009
  1.5283   1.5644   1.5657   1.5945   1.6169   1.6627   1.6887   1.7160
  1.7383   2.3756   2.4130   2.4519   2.4557   2.5269   2.5633   2.5683
  2.5944   2.6846   2.8042   2.8226   2.8760   2.8816   2.9093   2.9115
  2.9681   2.9970   3.0054   3.0516   3.0651   3.0784   3.0848   3.1155
  3.1683   3.1746   3.1883   3.2030   3.2079   3.2808   3.2912   3.3031
  3.3230   3.3379   3.3591   3.3870   3.3906   3.4041   3.4044   3.4513
  3.4559   3.4757   3.4976   3.5254   3.5552   3.5565   3.5942   3.6233
  3.6386   3.6432   3.6623   3.6671   3.6889   3.7243   3.7359   3.7867
  3.8205   3.8685   3.9443   3.9759   3.9858   4.0276   4.0474   4.0657
  4.0919   4.1209   4.1343   4.1532   4.1889   4.2069   4.2119   4.2357
  4.2647   4.3117   4.3293   4.3506   4.3833   4.3933   4.4369   4.4716
  4.4826   4.5458   4.5806   4.6056   4.6820   4.8047   4.8328   4.8756
  4.8791   4.9189   4.9527   5.0029   5.0123   5.0699   5.0854   5.1646
  5.1711   5.1947   5.2093   5.2106   5.2526   5.2847   5.3673   5.3853
  5.4474   5.4694   5.4916   5.5022   5.5405   5.6469   5.6645   5.7829
  6.0018   6.3825   6.4040   6.4295   6.4754   6.5048  25.1274  25.3788
 25.4325
 --------------------------------------------------------------
 
 -----------------------------------------------------------------
                    Cartesian Multipole Moments
 -----------------------------------------------------------------
    Charge (ESU x 10^10)
                -0.0000
    Dipole Moment (Debye)
         X       0.0000      Y       0.0232      Z      -0.1464
       Tot       0.1483
    Quadrupole Moments (Debye-Ang)
        XX     -22.6877     XY       0.0000     YY     -21.6254
        XZ       0.0000     YZ       1.5011     ZZ     -21.4677
    Octopole Moments (Debye-Ang^2)
       XXX       0.0000    XXY       0.7746    XYY       0.0000
       YYY      -0.6361    XXZ      -0.0069    XYZ      -0.0000
       YYZ       0.4955    XZZ       0.0000    YZZ      -0.8635
       ZZZ      -0.7671
    Hexadecapole Moments (Debye-Ang^3)
      XXXX    -202.8751   XXXY       0.0000   XXYY     -40.2584
      XYYY      -0.0000   YYYY     -44.6587   XXXZ       0.0000
      XXYZ       3.9208   XYYZ      -0.0000   YYYZ      -1.0732
      XXZZ     -44.1104   XYZZ       0.0000   YYZZ     -18.1323
      XZZZ      -0.0000   YZZZ       2.0444   ZZZZ     -73.9072
 -----------------------------------------------------------------
Archival summary:
1\1\centos77-c4\SP\ProcedureUnspecified\BasisUnspecified\38\shihchen\TueJul701:40:422020TueJul701:40:422020\0\\#,ProcedureUnspecified,BasisUnspecified,\\0,1\C\H,1,1.0923\H,1,1.09493,2,105.12\C,1,1.54842,2,122.077,3,107.841,0\H,4,1.0869,1,132.377,2,-153.41,0\H,4,1.09111,1,103.094,2,-15.0038,0\H,4,1.09669,1,96.4339,2,89.0797,0\C,1,1.54842,2,122.077,3,-107.841,0\H,8,1.0869,1,132.377,2,153.41,0\H,8,1.09111,1,103.094,2,15.0039,0\H,8,1.09669,1,96.434,2,-89.0796,0\\\@

 Total job time:  25.77s(wall), 69.36s(cpu) 
 Tue Jul  7 01:40:42 2020

        *************************************************************
        *                                                           *
        *  Thank you very much for using Q-Chem.  Have a nice day.  *
        *                                                           *
        *************************************************************


