                  Welcome to Q-Chem
     A Quantum Leap Into The Future Of Chemistry


 Q-Chem 5.3 (devel), Q-Chem, Inc., Pleasanton, CA (2020)

 Yihan Shao,  Zhengting Gan,  E. Epifanovsky,  A. T. B. Gilbert,  M. Wormit,  
 J. Kussmann,  A. W. Lange,  A. Behn,  Jia Deng,  Xintian Feng,  D. Ghosh,  
 M. Goldey,  P. R. Horn,  L. D. Jacobson,  I. Kaliman,  T. Kus,  A. Landau,  
 Jie Liu,  E. I. Proynov,  R. M. Richard,  R. P. Steele,  E. J. Sundstrom,  
 H. L. Woodcock III,  P. M. Zimmerman,  D. Zuev,  B. Alam,  B. Albrecht,  
 E. Alguire,  S. A. Baeppler,  D. Barton,  Z. Benda,  Y. A. Bernard,  
 E. J. Berquist,  K. B. Bravaya,  H. Burton,  K. Carter-Fenk,  D. Casanova,  
 Chun-Min Chang,  Yunqing Chen,  A. Chien,  K. D. Closser,  M. P. Coons,  
 S. Coriani,  S. Dasgupta,  A. L. Dempwolff,  M. Diedenhofen,  Hainam Do,  
 R. G. Edgar,  Po-Tung Fang,  S. Faraji,  S. Fatehi,  Qingguo Feng,  
 J. Fosso-Tande,  J. Gayvert,  Qinghui Ge,  A. Ghysels,  G. Gidofalvi,  
 J. Gomes,  J. Gonthier,  A. Gunina,  D. Hait,  M. W. D. Hanson-Heine,  
 P. H. P. Harbach,  A. W. Hauser,  M. F. Herbst,  J. E. Herr,  
 E. G. Hohenstein,  Z. C. Holden,  Kerwin Hui,  B. C. Huynh,  T.-C. Jagau,  
 Hyunjun Ji,  B. Kaduk,  K. Khistyaev,  Jaehoon Kim,  P. Klunzinger,  K. Koh,  
 D. Kosenkov,  L. Koulias,  T. Kowalczyk,  C. M. Krauter,  A. Kunitsa,  
 Ka Un Lao,  A. Laurent,  K. V. Lawler,  Joonho Lee,  D. Lefrancois,  
 S. Lehtola,  D. S. Levine,  Yi-Pei Li,  You-Sheng Lin,  Fenglai Liu,  
 Kuan-Yu Liu,  E. Livshits,  M. Loipersberger,  A. Luenser,  P. Manohar,  
 E. Mansoor,  S. F. Manzer,  Shan-Ping Mao,  Yuezhi Mao,  N. Mardirossian,  
 A. V. Marenich,  T. Markovich,  L. A. Martinez-Martinez,  S. A. Maurer,  
 N. J. Mayhall,  S. C. McKenzie,  J.-M. Mewes,  P. Morgante,  A. F. Morrison,  
 J. W. Mullinax,  K. Nanda,  T. S. Nguyen-Beck,  R. Olivares-Amaya,  
 K. J. Oosterbaan,  J. A. Parkhill,  S. K. Paul,  F. Pavosevic,  Zheng Pei,  
 T. M. Perrine,  F. Plasser,  P. Pokhilko,  S. Prager,  A. Prociuk,  
 E. Ramos,  B. Rana,  D. R. Rehn,  F. Rob,  M. Scheurer,  M. Schneider,  
 N. Sergueev,  S. M. Sharada,  S. Sharma,  D. W. Small,  T. Stauch,  
 C. J. Stein,  T. Stein,  Yu-Chuan Su,  S. P. Veccham,  Zhen Tao,  
 A. J. W. Thom,  A. Tkatchenko,  T. Tsuchimochi,  N. M. Tubman,  L. Vogt,  
 M. L. Vidal,  O. Vydrov,  M. A. Watson,  J. Wenzel,  M. de Wergifosse,  
 T. A. Wesolowski,  A. White,  J. Witte,  A. Yamada,  Jun Yang,  K. Yao,  
 S. Yeganeh,  S. R. Yost,  Zhi-Qiang You,  A. Zech,  Igor Ying Zhang,  
 Xing Zhang,  Yan Zhao,  Ying Zhu,  B. R. Brooks,  G. K. L. Chan,  
 C. J. Cramer,  M. S. Gordon,  W. J. Hehre,  A. Klamt,  M. W. Schmidt,  
 C. D. Sherrill,  D. G. Truhlar,  A. Aspuru-Guzik,  R. Baer,  A. T. Bell,  
 N. A. Besley,  Jeng-Da Chai,  A. E. DePrince, III,  R. A. DiStasio Jr.,  
 A. Dreuw,  B. D. Dunietz,  T. R. Furlani,  Chao-Ping Hsu,  Yousung Jung,  
 Jing Kong,  D. S. Lambrecht,  WanZhen Liang,  C. Ochsenfeld,  
 V. A. Rassolov,  L. V. Slipchenko,  J. E. Subotnik,  T. Van Voorhis,  
 J. M. Herbert,  A. I. Krylov,  P. M. W. Gill,  M. Head-Gordon

 Contributors to earlier versions of Q-Chem not listed above: 
 R. D. Adamson,  B. Austin,  J. Baker,  G. J. O. Beran,  K. Brandhorst,  
 S. T. Brown,  E. F. C. Byrd,  A. K. Chakraborty,  C.-L. Cheng,  
 Siu Hung Chien,  D. M. Chipman,  D. L. Crittenden,  H. Dachsel,  
 R. J. Doerksen,  A. D. Dutoi,  L. Fusti-Molnar,  W. A. Goddard III,  
 A. Golubeva-Zadorozhnaya,  S. R. Gwaltney,  G. Hawkins,  A. Heyden,  
 S. Hirata,  G. Kedziora,  F. J. Keil,  C. Kelley,  Jihan Kim,  R. A. King,  
 R. Z. Khaliullin,  P. P. Korambath,  W. Kurlancheek,  A. M. Lee,  M. S. Lee,  
 S. V. Levchenko,  Ching Yeh Lin,  D. Liotard,  R. C. Lochan,  I. Lotan,  
 P. E. Maslen,  N. Nair,  D. P. O'Neill,  D. Neuhauser,  E. Neuscamman,  
 C. M. Oana,  R. Olson,  B. Peters,  R. Peverati,  P. A. Pieniazek,  
 Y. M. Rhee,  J. Ritchie,  M. A. Rohrdanz,  E. Rosta,  N. J. Russ,  
 H. F. Schaefer III,  N. E. Schultz,  N. Shenvi,  A. C. Simmonett,  A. Sodt,  
 D. Stuck,  K. S. Thanthiriwatte,  V. Vanovschi,  Tao Wang,  A. Warshel,  
 C. F. Williams,  Q. Wu,  X. Xu,  W. Zhang

 Please cite Q-Chem as follows:
 Y. Shao et al., Mol. Phys. 113, 184-215 (2015)
 DOI: 10.1080/00268976.2014.952696

 Q-Chem 5.3.0 for Intel X86 EM64T Linux

 Parts of Q-Chem use Armadillo 9.800.1 (Horizon Scraper).
 http://arma.sourceforge.net/

 Q-Chem begins on Tue Jul  7 01:57:05 2020  

Host: centos77-c4
0

     Scratch files written to /tmp/26964.centos77-h1/qchem106205//
Processing $rem in /opt/qchem-5.3.0-intel2020u1//config/preferences:
Processing $rem in /home/shihchengli/.qchemrc:

Checking the input file for inconsistencies... 	...done.

--------------------------------------------------------------
User input:
--------------------------------------------------------------
$rem
   JOBTYPE  sp
   EXCHANGE   omegaB97X-D
   BASIS   6-311+G(2df,2pd)
   UNRESTRICTED   False
   max_scf_cycles   250
   geom_opt_max_cycles   1500
   basis2 6-31G*
   scf_algorithm rca_diis
   SYM_IGNORE  TRUE
   print_input   true
   geom_opt_dmax   80
   pop_mulliken false
   XC_GRID 000075000302
$end

$molecule
0 1
C       1.2443548442     0.0005663710     0.2158045457
C       -0.0000003299     -0.0009474231     -0.6120814188
H       1.3972873051     -0.8348449166     0.9062798142
H       1.3901120139     0.8337037739     0.9104954130
H       2.2120958008     0.0038574269     -0.2927196514
C       -1.2443555476     0.0005661977     0.2158047382
H       0.0000002356     -0.8784225471     -1.2607729823
H       -0.0000004590     0.8728050648     -1.2658209289
H       -1.3972867411     -0.8348455795     0.9062796302
H       -2.2120955699     0.0038595722     -0.2927209699
H       -1.3901116126     0.8337027258     0.9104968290
$end
--------------------------------------------------------------
 ----------------------------------------------------------------
             Standard Nuclear Orientation (Angstroms)
    I     Atom           X                Y                Z
 ----------------------------------------------------------------
    1      C       1.2443548442     0.0005663710     0.2158045457
    2      C      -0.0000003299    -0.0009474231    -0.6120814188
    3      H       1.3972873051    -0.8348449166     0.9062798142
    4      H       1.3901120139     0.8337037739     0.9104954130
    5      H       2.2120958008     0.0038574269    -0.2927196514
    6      C      -1.2443555476     0.0005661977     0.2158047382
    7      H       0.0000002356    -0.8784225471    -1.2607729823
    8      H      -0.0000004590     0.8728050648    -1.2658209289
    9      H      -1.3972867411    -0.8348455795     0.9062796302
   10      H      -2.2120955699     0.0038595722    -0.2927209699
   11      H      -1.3901116126     0.8337027258     0.9104968290
 ----------------------------------------------------------------
 Nuclear Repulsion Energy =          83.07571745 hartrees
 There are       13 alpha and       13 beta electrons
 Requested basis set is 6-311+G(2df,2pd)
 There are 72 shells and 214 basis functions

 Total QAlloc Memory Limit   2000 MB
 Mega-Array Size       188 MB
 MEM_STATIC part       192 MB

                       Distance Matrix (Angstroms)
             C (  1)   C (  2)   H (  3)   H (  4)   H (  5)   C (  6)
   C (  2)  1.494596
   H (  3)  1.094558  2.225583
   H (  4)  1.094513  2.224252  1.668569
   H (  5)  1.093220  2.235036  1.674794  1.676910
   C (  6)  2.488710  1.494596  2.855336  2.849058  3.493661
   H (  7)  2.121632  1.091221  2.578842  3.094866  2.570780  2.121632
   H (  8)  2.122365  1.091246  3.096208  2.582691  2.568144  2.122365
   H (  9)  2.855335  2.225582  2.794574  3.248641  3.894697  1.094558
   H ( 10)  3.493660  2.235035  3.894698  3.887450  4.424191  1.093220
   H ( 11)  2.849057  2.224252  3.248640  2.780224  3.887450  1.094513
             H (  7)   H (  8)   H (  9)   H ( 10)
   H (  8)  1.751235
   H (  9)  2.578842  3.096207
   H ( 10)  2.570781  2.568142  1.674796
   H ( 11)  3.094866  2.582692  1.668569  1.676911
 
 A cutoff of  1.0D-09 yielded   2524 shell pairs
 There are     22494 function pairs (     27663 Cartesian)
 Smallest overlap matrix eigenvalue = 8.30E-05

 Scale SEOQF with 1.000000e-01/1.000000e-01/1.000000e-01

 Standard Electronic Orientation quadrupole field applied
 Nucleus-field energy     =     0.0000000006 hartrees
 Requested basis set is 6-31G(d)
 There are 28 shells and 58 basis functions
 A cutoff of  1.0D-09 yielded    402 shell pairs
 There are      1773 function pairs (      1968 Cartesian)
 Smallest overlap matrix eigenvalue = 6.98E-03
 Guess from superposition of atomic densities
 Warning:  Energy on first SCF cycle will be non-variational
 SAD guess density has 26.000000 electrons
 Long-range K will be added via erf
 Coulomb attenuation parameter = 0.2 bohr**(-1)
 A restricted hybrid HF-DFT SCF calculation will be
 performed using Relaxed Constraint Minimization + Pulay DIIS
 Exchange:     0.2220 Hartree-Fock + 1.0000 wB97X-D + LR-HF
 Correlation:  1.0000 wB97X-D
 Using Euler-Maclaurin-Lebedev (75,302) quadrature formula
 Dispersion:   Grimme D
 SCF converges when DIIS error is below 1.0E-04
 using 3 threads for integral computing
 -------------------------------------------------------
 OpenMP Integral computing Module                
 Release: version 1.0, May 2013, Q-Chem Inc. Pittsburgh 
 -------------------------------------------------------
 using 3 threads for integral computing
 -------------------------------------------------------
 OpenMP Integral computing Module                
 Release: version 1.0, May 2013, Q-Chem Inc. Pittsburgh 
 -------------------------------------------------------
 ---------------------------------------
  Cycle       Energy         DIIS Error
 ---------------------------------------
    1    -119.6869882373      1.03E-01
    2    -119.0527668646      9.13E-03
    3    -119.0738903892      2.37E-03
    4    -119.0887751423      1.61E-03
    5    -119.0893993105      2.26E-04 Done RCA. Switching to DIIS
    6    -119.0898853545      1.66E-04
    7    -119.0898974704      4.53E-06 Convergence criterion met
 ---------------------------------------
 SCF time:  CPU 19.41 s  wall 7.11 s
 SCF   energy in the small basis set = -119.08989747
 Total energy in the small basis set = -119.08989747
 ----------------------------------------------------
  Cycle       Energy    
 ----------------------------------------------------
    1     -16.5515180412     -1.66E+01
 Long-range K will be added via erf
 Coulomb attenuation parameter = 0.2 bohr**(-1)
 A restricted hybrid HF-DFT SCF calculation will be
 performed using Relaxed Constraint Minimization + Pulay DIIS
 Exchange:     0.2220 Hartree-Fock + 1.0000 wB97X-D + LR-HF
 Correlation:  1.0000 wB97X-D
 Using Euler-Maclaurin-Lebedev (75,302) quadrature formula
 Dispersion:   Grimme D
 SCF converges when DIIS error is below 1.0E-05
 Basis2 calculation detected. Using small basis as guess for larger.
 SCFMinFind is unable to tell whether the solution found is close.
 Resetting ReadMinima to 0 and attempting to follow guess.
 SCFMinFind following SCF Guess.
 using 3 threads for integral computing
 -------------------------------------------------------
 OpenMP Integral computing Module                
 Release: version 1.0, May 2013, Q-Chem Inc. Pittsburgh 
 -------------------------------------------------------
 using 3 threads for integral computing
 -------------------------------------------------------
 OpenMP Integral computing Module                
 Release: version 1.0, May 2013, Q-Chem Inc. Pittsburgh 
 -------------------------------------------------------
 ---------------------------------------
  Cycle       Energy         DIIS Error
 ---------------------------------------
    1    -119.1100939451      4.21E-03
    2    -119.1321012542      5.82E-04 Done RCA. Switching to DIIS
    3    -119.1328708669      4.11E-04
    4    -119.1337890911      4.94E-05
    5    -119.1338058880      9.88E-06 Convergence criterion met
 ---------------------------------------
 SCF time:  CPU 45.40 s  wall 15.42 s
 SCF   energy in the final basis set = -119.13380589
 Total energy in the final basis set = -119.13380589
 
 --------------------------------------------------------------
 
                    Orbital Energies (a.u.)
 --------------------------------------------------------------
 
 Alpha MOs
 -- Occupied --
-10.2791 -10.2638 -10.2638  -0.8871  -0.7821  -0.6909  -0.5423  -0.5263
 -0.4918  -0.4498  -0.4237  -0.4198  -0.4012
 -- Virtual --
  0.0674   0.0829   0.0907   0.1013   0.1265   0.1281   0.1352   0.1421
  0.1471   0.1718   0.1720   0.1938   0.2359   0.2372   0.2375   0.2695
  0.2821   0.2862   0.3021   0.3168   0.3316   0.3710   0.4590   0.4643
  0.4796   0.5151   0.5156   0.5301   0.5653   0.5661   0.5743   0.5773
  0.6315   0.6335   0.6481   0.6523   0.6533   0.6543   0.7125   0.7255
  0.7314   0.7680   0.8235   0.8419   0.8527   0.8800   0.8958   0.9845
  1.0164   1.0386   1.0544   1.1258   1.1346   1.1907   1.2170   1.2204
  1.2414   1.2518   1.2541   1.2847   1.2896   1.3286   1.3345   1.3398
  1.3646   1.3993   1.4048   1.4546   1.4658   1.4741   1.4795   1.5028
  1.5364   1.5902   1.6138   1.6283   1.6558   1.6859   1.7072   1.7560
  1.7984   2.3711   2.4156   2.4608   2.4649   2.5316   2.5432   2.5802
  2.5831   2.7202   2.7991   2.8127   2.8199   2.8781   2.8837   2.9263
  2.9343   2.9352   2.9812   3.0391   3.0943   3.1045   3.1349   3.1449
  3.1452   3.1504   3.1897   3.2188   3.2377   3.2537   3.2578   3.3034
  3.3419   3.3554   3.3999   3.4003   3.4182   3.4211   3.4341   3.4344
  3.4745   3.4763   3.5024   3.5440   3.5526   3.5729   3.5774   3.5992
  3.6122   3.6242   3.6406   3.6432   3.7461   3.7498   3.8012   3.8521
  3.8846   3.9014   3.9116   3.9596   3.9817   4.0333   4.0728   4.0778
  4.0895   4.0977   4.1798   4.1903   4.1968   4.2186   4.2321   4.2591
  4.2712   4.3062   4.3466   4.3721   4.4045   4.4194   4.4230   4.4233
  4.5170   4.5722   4.5813   4.6089   4.6556   4.7335   4.7668   4.8222
  4.8417   4.9211   4.9709   4.9979   5.0017   5.0421   5.0605   5.0660
  5.1639   5.1746   5.2110   5.2610   5.2926   5.3014   5.3947   5.4890
  5.4920   5.5067   5.5363   5.5428   5.5631   5.6466   5.6715   5.7918
  5.9788   6.4164   6.4463   6.4478   6.4724   6.4748  25.2401  25.4423
 25.4576
 --------------------------------------------------------------
 
 -----------------------------------------------------------------
                    Cartesian Multipole Moments
 -----------------------------------------------------------------
    Charge (ESU x 10^10)
                 0.0000
    Dipole Moment (Debye)
         X       0.0000      Y      -0.0016      Z      -0.0117
       Tot       0.0118
    Quadrupole Moments (Debye-Ang)
        XX     -21.3607     XY      -0.0000     YY     -21.7784
        XZ       0.0000     YZ       0.0007     ZZ     -21.7102
    Octopole Moments (Debye-Ang^2)
       XXX       0.0000    XXY      -0.0198    XYY       0.0000
       YYY      -0.0164    XXZ       1.0423    XYZ       0.0000
       YYZ       0.4399    XZZ      -0.0000    YZZ       0.0123
       ZZZ       1.1339
    Hexadecapole Moments (Debye-Ang^3)
      XXXX    -198.4453   XXXY      -0.0000   XXYY     -42.7190
      XYYY       0.0000   YYYY     -43.9203   XXXZ       0.0000
      XXYZ      -0.0305   XYYZ       0.0000   YYYZ      -0.0196
      XXZZ     -45.0930   XYZZ      -0.0000   YYZZ     -16.9538
      XZZZ      -0.0000   YZZZ      -0.0270   ZZZZ     -71.2398
 -----------------------------------------------------------------
Archival summary:
1\1\centos77-c4\SP\ProcedureUnspecified\BasisUnspecified\38\shihchen\TueJul701:57:312020TueJul701:57:312020\0\\#,ProcedureUnspecified,BasisUnspecified,\\0,1\C\H,1,1.09122\H,1,1.09125,2,106.722\C,1,1.4946,2,109.275,3,-118.114,0\H,4,1.09322,1,118.643,2,58.5421,0\H,4,1.09451,1,117.595,2,179.243,0\H,4,1.09456,1,117.709,2,-62.0085,0\C,1,1.4946,2,109.275,3,118.114,0\H,8,1.09322,1,118.643,2,-58.5423,0\H,8,1.09451,1,117.595,2,-179.243,0\H,8,1.09456,1,117.709,2,62.0085,0\\\@

 Total job time:  25.45s(wall), 68.49s(cpu) 
 Tue Jul  7 01:57:31 2020

        *************************************************************
        *                                                           *
        *  Thank you very much for using Q-Chem.  Have a nice day.  *
        *                                                           *
        *************************************************************


