                  Welcome to Q-Chem
     A Quantum Leap Into The Future Of Chemistry


 Q-Chem 5.3 (devel), Q-Chem, Inc., Pleasanton, CA (2020)

 Yihan Shao,  Zhengting Gan,  E. Epifanovsky,  A. T. B. Gilbert,  M. Wormit,  
 J. Kussmann,  A. W. Lange,  A. Behn,  Jia Deng,  Xintian Feng,  D. Ghosh,  
 M. Goldey,  P. R. Horn,  L. D. Jacobson,  I. Kaliman,  T. Kus,  A. Landau,  
 Jie Liu,  E. I. Proynov,  R. M. Richard,  R. P. Steele,  E. J. Sundstrom,  
 H. L. Woodcock III,  P. M. Zimmerman,  D. Zuev,  B. Alam,  B. Albrecht,  
 E. Alguire,  S. A. Baeppler,  D. Barton,  Z. Benda,  Y. A. Bernard,  
 E. J. Berquist,  K. B. Bravaya,  H. Burton,  K. Carter-Fenk,  D. Casanova,  
 Chun-Min Chang,  Yunqing Chen,  A. Chien,  K. D. Closser,  M. P. Coons,  
 S. Coriani,  S. Dasgupta,  A. L. Dempwolff,  M. Diedenhofen,  Hainam Do,  
 R. G. Edgar,  Po-Tung Fang,  S. Faraji,  S. Fatehi,  Qingguo Feng,  
 J. Fosso-Tande,  J. Gayvert,  Qinghui Ge,  A. Ghysels,  G. Gidofalvi,  
 J. Gomes,  J. Gonthier,  A. Gunina,  D. Hait,  M. W. D. Hanson-Heine,  
 P. H. P. Harbach,  A. W. Hauser,  M. F. Herbst,  J. E. Herr,  
 E. G. Hohenstein,  Z. C. Holden,  Kerwin Hui,  B. C. Huynh,  T.-C. Jagau,  
 Hyunjun Ji,  B. Kaduk,  K. Khistyaev,  Jaehoon Kim,  P. Klunzinger,  K. Koh,  
 D. Kosenkov,  L. Koulias,  T. Kowalczyk,  C. M. Krauter,  A. Kunitsa,  
 Ka Un Lao,  A. Laurent,  K. V. Lawler,  Joonho Lee,  D. Lefrancois,  
 S. Lehtola,  D. S. Levine,  Yi-Pei Li,  You-Sheng Lin,  Fenglai Liu,  
 Kuan-Yu Liu,  E. Livshits,  M. Loipersberger,  A. Luenser,  P. Manohar,  
 E. Mansoor,  S. F. Manzer,  Shan-Ping Mao,  Yuezhi Mao,  N. Mardirossian,  
 A. V. Marenich,  T. Markovich,  L. A. Martinez-Martinez,  S. A. Maurer,  
 N. J. Mayhall,  S. C. McKenzie,  J.-M. Mewes,  P. Morgante,  A. F. Morrison,  
 J. W. Mullinax,  K. Nanda,  T. S. Nguyen-Beck,  R. Olivares-Amaya,  
 K. J. Oosterbaan,  J. A. Parkhill,  S. K. Paul,  F. Pavosevic,  Zheng Pei,  
 T. M. Perrine,  F. Plasser,  P. Pokhilko,  S. Prager,  A. Prociuk,  
 E. Ramos,  B. Rana,  D. R. Rehn,  F. Rob,  M. Scheurer,  M. Schneider,  
 N. Sergueev,  S. M. Sharada,  S. Sharma,  D. W. Small,  T. Stauch,  
 C. J. Stein,  T. Stein,  Yu-Chuan Su,  S. P. Veccham,  Zhen Tao,  
 A. J. W. Thom,  A. Tkatchenko,  T. Tsuchimochi,  N. M. Tubman,  L. Vogt,  
 M. L. Vidal,  O. Vydrov,  M. A. Watson,  J. Wenzel,  M. de Wergifosse,  
 T. A. Wesolowski,  A. White,  J. Witte,  A. Yamada,  Jun Yang,  K. Yao,  
 S. Yeganeh,  S. R. Yost,  Zhi-Qiang You,  A. Zech,  Igor Ying Zhang,  
 Xing Zhang,  Yan Zhao,  Ying Zhu,  B. R. Brooks,  G. K. L. Chan,  
 C. J. Cramer,  M. S. Gordon,  W. J. Hehre,  A. Klamt,  M. W. Schmidt,  
 C. D. Sherrill,  D. G. Truhlar,  A. Aspuru-Guzik,  R. Baer,  A. T. Bell,  
 N. A. Besley,  Jeng-Da Chai,  A. E. DePrince, III,  R. A. DiStasio Jr.,  
 A. Dreuw,  B. D. Dunietz,  T. R. Furlani,  Chao-Ping Hsu,  Yousung Jung,  
 Jing Kong,  D. S. Lambrecht,  WanZhen Liang,  C. Ochsenfeld,  
 V. A. Rassolov,  L. V. Slipchenko,  J. E. Subotnik,  T. Van Voorhis,  
 J. M. Herbert,  A. I. Krylov,  P. M. W. Gill,  M. Head-Gordon

 Contributors to earlier versions of Q-Chem not listed above: 
 R. D. Adamson,  B. Austin,  J. Baker,  G. J. O. Beran,  K. Brandhorst,  
 S. T. Brown,  E. F. C. Byrd,  A. K. Chakraborty,  C.-L. Cheng,  
 Siu Hung Chien,  D. M. Chipman,  D. L. Crittenden,  H. Dachsel,  
 R. J. Doerksen,  A. D. Dutoi,  L. Fusti-Molnar,  W. A. Goddard III,  
 A. Golubeva-Zadorozhnaya,  S. R. Gwaltney,  G. Hawkins,  A. Heyden,  
 S. Hirata,  G. Kedziora,  F. J. Keil,  C. Kelley,  Jihan Kim,  R. A. King,  
 R. Z. Khaliullin,  P. P. Korambath,  W. Kurlancheek,  A. M. Lee,  M. S. Lee,  
 S. V. Levchenko,  Ching Yeh Lin,  D. Liotard,  R. C. Lochan,  I. Lotan,  
 P. E. Maslen,  N. Nair,  D. P. O'Neill,  D. Neuhauser,  E. Neuscamman,  
 C. M. Oana,  R. Olson,  B. Peters,  R. Peverati,  P. A. Pieniazek,  
 Y. M. Rhee,  J. Ritchie,  M. A. Rohrdanz,  E. Rosta,  N. J. Russ,  
 H. F. Schaefer III,  N. E. Schultz,  N. Shenvi,  A. C. Simmonett,  A. Sodt,  
 D. Stuck,  K. S. Thanthiriwatte,  V. Vanovschi,  Tao Wang,  A. Warshel,  
 C. F. Williams,  Q. Wu,  X. Xu,  W. Zhang

 Please cite Q-Chem as follows:
 Y. Shao et al., Mol. Phys. 113, 184-215 (2015)
 DOI: 10.1080/00268976.2014.952696

 Q-Chem 5.3.0 for Intel X86 EM64T Linux

 Parts of Q-Chem use Armadillo 9.800.1 (Horizon Scraper).
 http://arma.sourceforge.net/

 Q-Chem begins on Tue Jul  7 01:39:53 2020  

Host: centos77-c4
0

     Scratch files written to /tmp/26964.centos77-h1/qchem102660//
Processing $rem in /opt/qchem-5.3.0-intel2020u1//config/preferences:
Processing $rem in /home/shihchengli/.qchemrc:

Checking the input file for inconsistencies... 	...done.

--------------------------------------------------------------
User input:
--------------------------------------------------------------
$rem
   JOBTYPE  sp
   EXCHANGE   omegaB97X-D
   BASIS   6-311+G(2df,2pd)
   UNRESTRICTED   False
   max_scf_cycles   250
   geom_opt_max_cycles   1500
   basis2 6-31G*
   scf_algorithm rca_diis
   SYM_IGNORE  TRUE
   print_input   true
   geom_opt_dmax   80
   pop_mulliken false
   XC_GRID 000075000302
$end

$molecule
0 1
C       1.2547308321     0.0718648076     0.2663682892
C       -0.0000001795     -0.0565324131     -0.6234087215
H       1.0830000225     -0.7736105016     0.9418674461
H       1.5470161844     0.9050700228     0.9018579688
H       2.0798906484     -0.2699218099     -0.3601639541
C       -1.2547312412     0.0718648417     0.2663681760
H       -0.0000008110     -0.7528086546     -1.4651015478
H       0.0000009849     0.9425372255     -1.0703040697
H       -1.0830003108     -0.7736105108     0.9418672284
H       -2.0798908026     -0.2699224033     -0.3601640329
H       -1.5470153877     0.9050700618     0.9018582364
$end
--------------------------------------------------------------
 ----------------------------------------------------------------
             Standard Nuclear Orientation (Angstroms)
    I     Atom           X                Y                Z
 ----------------------------------------------------------------
    1      C       1.2547308321     0.0718648076     0.2663682892
    2      C      -0.0000001795    -0.0565324131    -0.6234087215
    3      H       1.0830000225    -0.7736105016     0.9418674461
    4      H       1.5470161844     0.9050700228     0.9018579688
    5      H       2.0798906484    -0.2699218099    -0.3601639541
    6      C      -1.2547312412     0.0718648417     0.2663681760
    7      H      -0.0000008110    -0.7528086546    -1.4651015478
    8      H       0.0000009849     0.9425372255    -1.0703040697
    9      H      -1.0830003108    -0.7736105108     0.9418672284
   10      H      -2.0798908026    -0.2699224033    -0.3601640329
   11      H      -1.5470153877     0.9050700618     0.9018582364
 ----------------------------------------------------------------
 Nuclear Repulsion Energy =          82.63436650 hartrees
 There are       13 alpha and       13 beta electrons
 Requested basis set is 6-311+G(2df,2pd)
 There are 72 shells and 214 basis functions

 Total QAlloc Memory Limit   2000 MB
 Mega-Array Size       188 MB
 MEM_STATIC part       192 MB

                       Distance Matrix (Angstroms)
             C (  1)   C (  2)   H (  3)   H (  4)   H (  5)   C (  6)
   C (  2)  1.543548
   H (  3)  1.095728  2.034006
   H (  4)  1.087892  2.375790  1.742091
   H (  5)  1.090986  2.107316  1.715453  1.804788
   C (  6)  2.509462  1.543547  2.576066  2.991299  3.410141
   H (  7)  2.291817  1.092359  2.639474  3.277853  2.404166  2.291816
   H (  8)  2.029559  1.094466  2.857776  2.506807  2.510039  2.029561
   H (  9)  2.576066  2.034006  2.166000  3.120345  3.457292  1.095728
   H ( 10)  3.410141  2.107315  3.457292  4.015938  4.159781  1.090986
   H ( 11)  2.991297  2.375789  3.120345  3.094032  4.015937  1.087892
             H (  7)   H (  8)   H (  9)   H ( 10)
   H (  8)  1.740708
   H (  9)  2.639473  2.857777
   H ( 10)  2.404165  2.510041  1.715453
   H ( 11)  3.277852  2.506808  1.742090  1.804789
 
 A cutoff of  1.0D-09 yielded   2533 shell pairs
 There are     22569 function pairs (     27764 Cartesian)
 Smallest overlap matrix eigenvalue = 9.85E-05

 Scale SEOQF with 1.000000e-01/1.000000e-01/1.000000e-01

 Standard Electronic Orientation quadrupole field applied
 Nucleus-field energy     =     0.0000000005 hartrees
 Requested basis set is 6-31G(d)
 There are 28 shells and 58 basis functions
 A cutoff of  1.0D-09 yielded    402 shell pairs
 There are      1773 function pairs (      1968 Cartesian)
 Smallest overlap matrix eigenvalue = 6.37E-03
 Guess from superposition of atomic densities
 Warning:  Energy on first SCF cycle will be non-variational
 SAD guess density has 26.000000 electrons
 Long-range K will be added via erf
 Coulomb attenuation parameter = 0.2 bohr**(-1)
 A restricted hybrid HF-DFT SCF calculation will be
 performed using Relaxed Constraint Minimization + Pulay DIIS
 Exchange:     0.2220 Hartree-Fock + 1.0000 wB97X-D + LR-HF
 Correlation:  1.0000 wB97X-D
 Using Euler-Maclaurin-Lebedev (75,302) quadrature formula
 Dispersion:   Grimme D
 SCF converges when DIIS error is below 1.0E-04
 using 3 threads for integral computing
 -------------------------------------------------------
 OpenMP Integral computing Module                
 Release: version 1.0, May 2013, Q-Chem Inc. Pittsburgh 
 -------------------------------------------------------
 using 3 threads for integral computing
 -------------------------------------------------------
 OpenMP Integral computing Module                
 Release: version 1.0, May 2013, Q-Chem Inc. Pittsburgh 
 -------------------------------------------------------
 ---------------------------------------
  Cycle       Energy         DIIS Error
 ---------------------------------------
    1    -119.6035585055      9.97E-02
    2    -119.0244737921      8.95E-03
    3    -119.0453611763      2.52E-03
    4    -119.0589661669      1.73E-03
    5    -119.0597057217      2.79E-04 Done RCA. Switching to DIIS
    6    -119.0602440839      2.04E-04
    7    -119.0602622172      6.27E-06 Convergence criterion met
 ---------------------------------------
 SCF time:  CPU 16.80 s  wall 5.63 s
 SCF   energy in the small basis set = -119.06026222
 Total energy in the small basis set = -119.06026222
 ----------------------------------------------------
  Cycle       Energy    
 ----------------------------------------------------
    1     -16.5254246751     -1.65E+01
 Long-range K will be added via erf
 Coulomb attenuation parameter = 0.2 bohr**(-1)
 A restricted hybrid HF-DFT SCF calculation will be
 performed using Relaxed Constraint Minimization + Pulay DIIS
 Exchange:     0.2220 Hartree-Fock + 1.0000 wB97X-D + LR-HF
 Correlation:  1.0000 wB97X-D
 Using Euler-Maclaurin-Lebedev (75,302) quadrature formula
 Dispersion:   Grimme D
 SCF converges when DIIS error is below 1.0E-05
 Basis2 calculation detected. Using small basis as guess for larger.
 SCFMinFind is unable to tell whether the solution found is close.
 Resetting ReadMinima to 0 and attempting to follow guess.
 SCFMinFind following SCF Guess.
 using 3 threads for integral computing
 -------------------------------------------------------
 OpenMP Integral computing Module                
 Release: version 1.0, May 2013, Q-Chem Inc. Pittsburgh 
 -------------------------------------------------------
 using 3 threads for integral computing
 -------------------------------------------------------
 OpenMP Integral computing Module                
 Release: version 1.0, May 2013, Q-Chem Inc. Pittsburgh 
 -------------------------------------------------------
 ---------------------------------------
  Cycle       Energy         DIIS Error
 ---------------------------------------
    1    -119.0804797308      4.21E-03
    2    -119.1026013651      6.21E-04 Done RCA. Switching to DIIS
    3    -119.1034808575      4.40E-04
    4    -119.1045465858      4.55E-05
    5    -119.1045618114      9.39E-06 Convergence criterion met
 ---------------------------------------
 SCF time:  CPU 42.86 s  wall 14.31 s
 SCF   energy in the final basis set = -119.10456181
 Total energy in the final basis set = -119.10456181
 
 --------------------------------------------------------------
 
                    Orbital Energies (a.u.)
 --------------------------------------------------------------
 
 Alpha MOs
 -- Occupied --
-10.2807 -10.2660 -10.2660  -0.8826  -0.7758  -0.6822  -0.5434  -0.5252
 -0.5010  -0.4512  -0.4451  -0.3995  -0.3731
 -- Virtual --
  0.0688   0.0862   0.0876   0.0984   0.1238   0.1271   0.1344   0.1358
  0.1431   0.1702   0.1708   0.1926   0.2163   0.2193   0.2367   0.2714
  0.2868   0.3005   0.3050   0.3131   0.3311   0.3483   0.4509   0.4662
  0.4775   0.5038   0.5072   0.5162   0.5431   0.5699   0.5898   0.5937
  0.6118   0.6185   0.6362   0.6519   0.6572   0.6774   0.6975   0.7136
  0.7269   0.7453   0.8258   0.8515   0.8790   0.8901   0.9446   0.9447
  0.9957   1.0098   1.0629   1.1356   1.1458   1.1585   1.1664   1.2135
  1.2312   1.2397   1.2772   1.2844   1.3056   1.3393   1.3524   1.3765
  1.3778   1.4005   1.4262   1.4438   1.4497   1.4547   1.4897   1.4914
  1.5246   1.5633   1.5714   1.5969   1.6193   1.6637   1.6913   1.7126
  1.7297   2.3718   2.4408   2.4531   2.4761   2.5057   2.5718   2.5746
  2.6050   2.7060   2.8053   2.8061   2.8553   2.8839   2.9094   2.9125
  2.9594   2.9891   3.0197   3.0380   3.0614   3.0877   3.0980   3.1001
  3.1546   3.1702   3.1803   3.1871   3.1921   3.2614   3.2898   3.3060
  3.3360   3.3513   3.3756   3.3814   3.3918   3.3991   3.4100   3.4367
  3.4542   3.4710   3.5006   3.5040   3.5574   3.5677   3.5746   3.6245
  3.6290   3.6578   3.6785   3.6948   3.7028   3.7358   3.7372   3.7891
  3.8345   3.8955   3.9495   3.9772   3.9777   4.0130   4.0439   4.0528
  4.0693   4.1158   4.1386   4.1657   4.1714   4.1918   4.2091   4.2299
  4.2517   4.2944   4.3327   4.3482   4.3834   4.3842   4.4440   4.4664
  4.5237   4.5242   4.5511   4.5689   4.6818   4.8337   4.8488   4.8561
  4.8840   4.8941   4.9143   5.0078   5.0159   5.0581   5.0749   5.1626
  5.1721   5.1762   5.1981   5.2225   5.2746   5.2894   5.3552   5.3732
  5.4442   5.4660   5.4886   5.5153   5.5296   5.6233   5.6394   5.7417
  5.9874   6.3713   6.3993   6.4166   6.4533   6.4872  25.1336  25.3944
 25.4348
 --------------------------------------------------------------
 
 -----------------------------------------------------------------
                    Cartesian Multipole Moments
 -----------------------------------------------------------------
    Charge (ESU x 10^10)
                -0.0000
    Dipole Moment (Debye)
         X       0.0000      Y       0.0136      Z      -0.1298
       Tot       0.1305
    Quadrupole Moments (Debye-Ang)
        XX     -22.5786     XY       0.0000     YY     -21.5447
        XZ       0.0000     YZ       1.2440     ZZ     -21.5159
    Octopole Moments (Debye-Ang^2)
       XXX       0.0000    XXY       0.6308    XYY       0.0000
       YYY      -0.4260    XXZ      -0.4492    XYZ      -0.0000
       YYZ       0.4692    XZZ       0.0000    YZZ      -0.7505
       ZZZ      -0.7134
    Hexadecapole Moments (Debye-Ang^3)
      XXXX    -203.8572   XXXY       0.0000   XXYY     -40.7918
      XYYY      -0.0000   YYYY     -44.4394   XXXZ       0.0000
      XXYZ       3.3646   XYYZ      -0.0000   YYYZ      -0.7289
      XXZZ     -44.4540   XYZZ       0.0000   YYZZ     -17.8113
      XZZZ      -0.0000   YZZZ       1.7688   ZZZZ     -73.6487
 -----------------------------------------------------------------
Archival summary:
1\1\centos77-c4\SP\ProcedureUnspecified\BasisUnspecified\38\shihchen\TueJul701:40:162020TueJul701:40:162020\0\\#,ProcedureUnspecified,BasisUnspecified,\\0,1\C\H,1,1.09236\H,1,1.09447,2,105.499\C,1,1.54355,2,119.814,3,110.464,0\H,4,1.08789,1,128.231,2,-157.707,0\H,4,1.09099,1,104.935,2,-23.2376,0\H,4,1.09573,1,99.4267,2,83.409,0\C,1,1.54355,2,119.814,3,-110.464,0\H,8,1.08789,1,128.232,2,157.707,0\H,8,1.09099,1,104.935,2,23.2376,0\H,8,1.09573,1,99.4267,2,-83.409,0\\\@

 Total job time:  22.88s(wall), 63.35s(cpu) 
 Tue Jul  7 01:40:16 2020

        *************************************************************
        *                                                           *
        *  Thank you very much for using Q-Chem.  Have a nice day.  *
        *                                                           *
        *************************************************************


