                  Welcome to Q-Chem
     A Quantum Leap Into The Future Of Chemistry


 Q-Chem 5.3 (devel), Q-Chem, Inc., Pleasanton, CA (2020)

 Yihan Shao,  Zhengting Gan,  E. Epifanovsky,  A. T. B. Gilbert,  M. Wormit,  
 J. Kussmann,  A. W. Lange,  A. Behn,  Jia Deng,  Xintian Feng,  D. Ghosh,  
 M. Goldey,  P. R. Horn,  L. D. Jacobson,  I. Kaliman,  T. Kus,  A. Landau,  
 Jie Liu,  E. I. Proynov,  R. M. Richard,  R. P. Steele,  E. J. Sundstrom,  
 H. L. Woodcock III,  P. M. Zimmerman,  D. Zuev,  B. Alam,  B. Albrecht,  
 E. Alguire,  S. A. Baeppler,  D. Barton,  Z. Benda,  Y. A. Bernard,  
 E. J. Berquist,  K. B. Bravaya,  H. Burton,  K. Carter-Fenk,  D. Casanova,  
 Chun-Min Chang,  Yunqing Chen,  A. Chien,  K. D. Closser,  M. P. Coons,  
 S. Coriani,  S. Dasgupta,  A. L. Dempwolff,  M. Diedenhofen,  Hainam Do,  
 R. G. Edgar,  Po-Tung Fang,  S. Faraji,  S. Fatehi,  Qingguo Feng,  
 J. Fosso-Tande,  J. Gayvert,  Qinghui Ge,  A. Ghysels,  G. Gidofalvi,  
 J. Gomes,  J. Gonthier,  A. Gunina,  D. Hait,  M. W. D. Hanson-Heine,  
 P. H. P. Harbach,  A. W. Hauser,  M. F. Herbst,  J. E. Herr,  
 E. G. Hohenstein,  Z. C. Holden,  Kerwin Hui,  B. C. Huynh,  T.-C. Jagau,  
 Hyunjun Ji,  B. Kaduk,  K. Khistyaev,  Jaehoon Kim,  P. Klunzinger,  K. Koh,  
 D. Kosenkov,  L. Koulias,  T. Kowalczyk,  C. M. Krauter,  A. Kunitsa,  
 Ka Un Lao,  A. Laurent,  K. V. Lawler,  Joonho Lee,  D. Lefrancois,  
 S. Lehtola,  D. S. Levine,  Yi-Pei Li,  You-Sheng Lin,  Fenglai Liu,  
 Kuan-Yu Liu,  E. Livshits,  M. Loipersberger,  A. Luenser,  P. Manohar,  
 E. Mansoor,  S. F. Manzer,  Shan-Ping Mao,  Yuezhi Mao,  N. Mardirossian,  
 A. V. Marenich,  T. Markovich,  L. A. Martinez-Martinez,  S. A. Maurer,  
 N. J. Mayhall,  S. C. McKenzie,  J.-M. Mewes,  P. Morgante,  A. F. Morrison,  
 J. W. Mullinax,  K. Nanda,  T. S. Nguyen-Beck,  R. Olivares-Amaya,  
 K. J. Oosterbaan,  J. A. Parkhill,  S. K. Paul,  F. Pavosevic,  Zheng Pei,  
 T. M. Perrine,  F. Plasser,  P. Pokhilko,  S. Prager,  A. Prociuk,  
 E. Ramos,  B. Rana,  D. R. Rehn,  F. Rob,  M. Scheurer,  M. Schneider,  
 N. Sergueev,  S. M. Sharada,  S. Sharma,  D. W. Small,  T. Stauch,  
 C. J. Stein,  T. Stein,  Yu-Chuan Su,  S. P. Veccham,  Zhen Tao,  
 A. J. W. Thom,  A. Tkatchenko,  T. Tsuchimochi,  N. M. Tubman,  L. Vogt,  
 M. L. Vidal,  O. Vydrov,  M. A. Watson,  J. Wenzel,  M. de Wergifosse,  
 T. A. Wesolowski,  A. White,  J. Witte,  A. Yamada,  Jun Yang,  K. Yao,  
 S. Yeganeh,  S. R. Yost,  Zhi-Qiang You,  A. Zech,  Igor Ying Zhang,  
 Xing Zhang,  Yan Zhao,  Ying Zhu,  B. R. Brooks,  G. K. L. Chan,  
 C. J. Cramer,  M. S. Gordon,  W. J. Hehre,  A. Klamt,  M. W. Schmidt,  
 C. D. Sherrill,  D. G. Truhlar,  A. Aspuru-Guzik,  R. Baer,  A. T. Bell,  
 N. A. Besley,  Jeng-Da Chai,  A. E. DePrince, III,  R. A. DiStasio Jr.,  
 A. Dreuw,  B. D. Dunietz,  T. R. Furlani,  Chao-Ping Hsu,  Yousung Jung,  
 Jing Kong,  D. S. Lambrecht,  WanZhen Liang,  C. Ochsenfeld,  
 V. A. Rassolov,  L. V. Slipchenko,  J. E. Subotnik,  T. Van Voorhis,  
 J. M. Herbert,  A. I. Krylov,  P. M. W. Gill,  M. Head-Gordon

 Contributors to earlier versions of Q-Chem not listed above: 
 R. D. Adamson,  B. Austin,  J. Baker,  G. J. O. Beran,  K. Brandhorst,  
 S. T. Brown,  E. F. C. Byrd,  A. K. Chakraborty,  C.-L. Cheng,  
 Siu Hung Chien,  D. M. Chipman,  D. L. Crittenden,  H. Dachsel,  
 R. J. Doerksen,  A. D. Dutoi,  L. Fusti-Molnar,  W. A. Goddard III,  
 A. Golubeva-Zadorozhnaya,  S. R. Gwaltney,  G. Hawkins,  A. Heyden,  
 S. Hirata,  G. Kedziora,  F. J. Keil,  C. Kelley,  Jihan Kim,  R. A. King,  
 R. Z. Khaliullin,  P. P. Korambath,  W. Kurlancheek,  A. M. Lee,  M. S. Lee,  
 S. V. Levchenko,  Ching Yeh Lin,  D. Liotard,  R. C. Lochan,  I. Lotan,  
 P. E. Maslen,  N. Nair,  D. P. O'Neill,  D. Neuhauser,  E. Neuscamman,  
 C. M. Oana,  R. Olson,  B. Peters,  R. Peverati,  P. A. Pieniazek,  
 Y. M. Rhee,  J. Ritchie,  M. A. Rohrdanz,  E. Rosta,  N. J. Russ,  
 H. F. Schaefer III,  N. E. Schultz,  N. Shenvi,  A. C. Simmonett,  A. Sodt,  
 D. Stuck,  K. S. Thanthiriwatte,  V. Vanovschi,  Tao Wang,  A. Warshel,  
 C. F. Williams,  Q. Wu,  X. Xu,  W. Zhang

 Please cite Q-Chem as follows:
 Y. Shao et al., Mol. Phys. 113, 184-215 (2015)
 DOI: 10.1080/00268976.2014.952696

 Q-Chem 5.3.0 for Intel X86 EM64T Linux

 Parts of Q-Chem use Armadillo 9.800.1 (Horizon Scraper).
 http://arma.sourceforge.net/

 Q-Chem begins on Tue Jul  7 01:19:46 2020  

Host: centos77-c4
0

     Scratch files written to /tmp/26964.centos77-h1/qchem99123//
Processing $rem in /opt/qchem-5.3.0-intel2020u1//config/preferences:
Processing $rem in /home/shihchengli/.qchemrc:

Checking the input file for inconsistencies... 	...done.

--------------------------------------------------------------
User input:
--------------------------------------------------------------
$rem
   JOBTYPE  sp
   EXCHANGE   omegaB97X-D
   BASIS   6-311+G(2df,2pd)
   UNRESTRICTED   False
   max_scf_cycles   250
   geom_opt_max_cycles   1500
   basis2 6-31G*
   scf_algorithm rca_diis
   SYM_IGNORE  TRUE
   print_input   true
   geom_opt_dmax   80
   pop_mulliken false
   XC_GRID 000075000302
$end

$molecule
0 1
C       1.2370440092     -0.1079643844     0.2977614581
C       -0.0141218051     -0.0017315956     -0.5850332497
H       1.4989291492     -0.8475879858     1.0512828581
H       1.1345319377     0.8684005322     0.7819188318
H       2.0778110708     0.0440741266     -0.3819080532
C       -1.2884278025     0.1248439775     0.2210522691
H       -0.2491715175     -0.8464039732     -1.2369818333
H       0.3308173664     0.8044268216     -1.2368631174
H       -1.0894896455     -0.8386137399     0.7038920536
H       -2.2232914144     -0.0283955724     -0.3163862681
H       -1.4146314089     0.8289524594     1.0423100700
$end
--------------------------------------------------------------
 ----------------------------------------------------------------
             Standard Nuclear Orientation (Angstroms)
    I     Atom           X                Y                Z
 ----------------------------------------------------------------
    1      C       1.2370440092    -0.1079643844     0.2977614581
    2      C      -0.0141218051    -0.0017315956    -0.5850332497
    3      H       1.4989291492    -0.8475879858     1.0512828581
    4      H       1.1345319377     0.8684005322     0.7819188318
    5      H       2.0778110708     0.0440741266    -0.3819080532
    6      C      -1.2884278025     0.1248439775     0.2210522691
    7      H      -0.2491715175    -0.8464039732    -1.2369818333
    8      H       0.3308173664     0.8044268216    -1.2368631174
    9      H      -1.0894896455    -0.8386137399     0.7038920536
   10      H      -2.2232914144    -0.0283955724    -0.3163862681
   11      H      -1.4146314089     0.8289524594     1.0423100700
 ----------------------------------------------------------------
 Nuclear Repulsion Energy =          83.10925030 hartrees
 There are       13 alpha and       13 beta electrons
 Requested basis set is 6-311+G(2df,2pd)
 There are 72 shells and 214 basis functions

 Total QAlloc Memory Limit   2000 MB
 Mega-Array Size       188 MB
 MEM_STATIC part       192 MB

                       Distance Matrix (Angstroms)
             C (  1)   C (  2)   H (  3)   H (  4)   H (  5)   C (  6)
   C (  2)  1.534936
   H (  3)  1.087852  2.383763
   H (  4)  1.094626  1.986226  1.774812
   H (  5)  1.091767  2.102270  1.784433  1.709907
   C (  6)  2.537340  1.513159  3.066637  2.595801  3.420767
   H (  7)  2.260435  1.092592  2.879585  2.988503  2.634189  2.036968
   H (  8)  2.002193  1.092592  3.054382  2.173828  2.088318  2.282390
   H (  9)  2.472155  1.875664  2.611642  2.804685  3.462643  1.095884
   H ( 10)  3.515314  2.225604  4.049262  3.644927  4.302212  1.089171
   H ( 11)  2.909218  2.302110  3.361503  2.562732  3.852478  1.089110
             H (  7)   H (  8)   H (  9)   H ( 10)
   H (  8)  1.749751
   H (  9)  2.114991  2.912625
   H ( 10)  2.326754  2.839779  1.727115
   H ( 11)  3.059459  2.870858  1.732346  1.798620
 
 A cutoff of  1.0D-09 yielded   2537 shell pairs
 There are     22558 function pairs (     27741 Cartesian)
 Smallest overlap matrix eigenvalue = 9.69E-05

 Scale SEOQF with 1.000000e-01/1.000000e-01/1.000000e-01

 Standard Electronic Orientation quadrupole field applied
 Nucleus-field energy     =     0.0000000006 hartrees
 Requested basis set is 6-31G(d)
 There are 28 shells and 58 basis functions
 A cutoff of  1.0D-09 yielded    402 shell pairs
 There are      1773 function pairs (      1968 Cartesian)
 Smallest overlap matrix eigenvalue = 7.09E-03
 Guess from superposition of atomic densities
 Warning:  Energy on first SCF cycle will be non-variational
 SAD guess density has 26.000000 electrons
 Long-range K will be added via erf
 Coulomb attenuation parameter = 0.2 bohr**(-1)
 A restricted hybrid HF-DFT SCF calculation will be
 performed using Relaxed Constraint Minimization + Pulay DIIS
 Exchange:     0.2220 Hartree-Fock + 1.0000 wB97X-D + LR-HF
 Correlation:  1.0000 wB97X-D
 Using Euler-Maclaurin-Lebedev (75,302) quadrature formula
 Dispersion:   Grimme D
 SCF converges when DIIS error is below 1.0E-04
 using 3 threads for integral computing
 -------------------------------------------------------
 OpenMP Integral computing Module                
 Release: version 1.0, May 2013, Q-Chem Inc. Pittsburgh 
 -------------------------------------------------------
 using 3 threads for integral computing
 -------------------------------------------------------
 OpenMP Integral computing Module                
 Release: version 1.0, May 2013, Q-Chem Inc. Pittsburgh 
 -------------------------------------------------------
 ---------------------------------------
  Cycle       Energy         DIIS Error
 ---------------------------------------
    1    -119.6704664234      1.02E-01
    2    -119.0312666207      8.93E-03
    3    -119.0522856766      2.59E-03
    4    -119.0657401745      1.78E-03
    5    -119.0665224216      2.87E-04 Done RCA. Switching to DIIS
    6    -119.0670917066      2.13E-04
    7    -119.0671113785      5.09E-06 Convergence criterion met
 ---------------------------------------
 SCF time:  CPU 20.54 s  wall 7.63 s
 SCF   energy in the small basis set = -119.06711138
 Total energy in the small basis set = -119.06711138
 ----------------------------------------------------
  Cycle       Energy    
 ----------------------------------------------------
    1     -16.5430033962     -1.65E+01
 Long-range K will be added via erf
 Coulomb attenuation parameter = 0.2 bohr**(-1)
 A restricted hybrid HF-DFT SCF calculation will be
 performed using Relaxed Constraint Minimization + Pulay DIIS
 Exchange:     0.2220 Hartree-Fock + 1.0000 wB97X-D + LR-HF
 Correlation:  1.0000 wB97X-D
 Using Euler-Maclaurin-Lebedev (75,302) quadrature formula
 Dispersion:   Grimme D
 SCF converges when DIIS error is below 1.0E-05
 Basis2 calculation detected. Using small basis as guess for larger.
 SCFMinFind is unable to tell whether the solution found is close.
 Resetting ReadMinima to 0 and attempting to follow guess.
 SCFMinFind following SCF Guess.
 using 3 threads for integral computing
 -------------------------------------------------------
 OpenMP Integral computing Module                
 Release: version 1.0, May 2013, Q-Chem Inc. Pittsburgh 
 -------------------------------------------------------
 using 3 threads for integral computing
 -------------------------------------------------------
 OpenMP Integral computing Module                
 Release: version 1.0, May 2013, Q-Chem Inc. Pittsburgh 
 -------------------------------------------------------
 ---------------------------------------
  Cycle       Energy         DIIS Error
 ---------------------------------------
    1    -119.0873969759      4.21E-03
    2    -119.1094226038      6.07E-04 Done RCA. Switching to DIIS
    3    -119.1102852555      4.27E-04
    4    -119.1112839879      4.63E-05
    5    -119.1112992978      1.14E-05
    6    -119.1113001419      4.35E-06 Convergence criterion met
 ---------------------------------------
 SCF time:  CPU 51.15 s  wall 17.27 s
 SCF   energy in the final basis set = -119.11130014
 Total energy in the final basis set = -119.11130014
 
 --------------------------------------------------------------
 
                    Orbital Energies (a.u.)
 --------------------------------------------------------------
 
 Alpha MOs
 -- Occupied --
-10.2812 -10.2675 -10.2657  -0.8906  -0.7828  -0.6778  -0.5556  -0.5317
 -0.4791  -0.4665  -0.4211  -0.4070  -0.3958
 -- Virtual --
  0.0698   0.0853   0.0896   0.0974   0.1231   0.1287   0.1319   0.1395
  0.1416   0.1724   0.1729   0.1968   0.2237   0.2313   0.2463   0.2547
  0.2824   0.2905   0.2962   0.3196   0.3299   0.3497   0.4570   0.4671
  0.4757   0.5003   0.5105   0.5153   0.5502   0.5664   0.5897   0.5984
  0.6072   0.6205   0.6443   0.6603   0.6628   0.6772   0.7078   0.7129
  0.7187   0.7655   0.7934   0.8311   0.8521   0.9176   0.9326   0.9662
  0.9940   1.0526   1.0631   1.1069   1.1308   1.1472   1.1602   1.1987
  1.2349   1.2635   1.2778   1.2962   1.3162   1.3233   1.3468   1.3579
  1.3736   1.4119   1.4426   1.4437   1.4796   1.4945   1.4986   1.5060
  1.5486   1.5577   1.5715   1.6141   1.6304   1.6495   1.6775   1.6823
  1.7287   2.3625   2.4504   2.5003   2.5412   2.5947   2.6064   2.6224
  2.6512   2.6926   2.7237   2.8306   2.8651   2.8980   2.9074   2.9444
  2.9697   2.9875   3.0017   3.0292   3.0528   3.0616   3.0810   3.1059
  3.1259   3.1619   3.1764   3.1821   3.2312   3.2566   3.2896   3.2950
  3.3096   3.3171   3.3237   3.3542   3.3755   3.4132   3.4306   3.4419
  3.4825   3.5076   3.5274   3.5440   3.5672   3.5781   3.5967   3.6099
  3.6211   3.6381   3.6434   3.7039   3.7448   3.7557   3.7820   3.8098
  3.8953   3.9303   3.9377   3.9788   4.0047   4.0134   4.0459   4.0720
  4.0925   4.1283   4.1376   4.1643   4.1815   4.1969   4.2084   4.2390
  4.2498   4.2900   4.3417   4.3637   4.4005   4.4306   4.4330   4.5044
  4.5521   4.5805   4.6251   4.6516   4.6924   4.7413   4.7913   4.8638
  4.9069   4.9280   4.9628   5.0118   5.0179   5.0702   5.0950   5.1239
  5.1756   5.1966   5.2356   5.2675   5.2800   5.3253   5.3383   5.3678
  5.3959   5.4268   5.4807   5.5337   5.5806   5.6987   5.7429   5.8339
  6.1126   6.4007   6.4162   6.4286   6.4642   6.5235  25.1631  25.4316
 25.4551
 --------------------------------------------------------------
 
 -----------------------------------------------------------------
                    Cartesian Multipole Moments
 -----------------------------------------------------------------
    Charge (ESU x 10^10)
                 0.0000
    Dipole Moment (Debye)
         X       0.0401      Y      -0.0594      Z      -0.0253
       Tot       0.0760
    Quadrupole Moments (Debye-Ang)
        XX     -21.9443     XY       0.1662     YY     -21.8096
        XZ       0.0319     YZ       0.0882     ZZ     -21.8359
    Octopole Moments (Debye-Ang^2)
       XXX      -0.1139    XXY      -0.3043    XYY       0.6077
       YYY      -0.3264    XXZ      -1.1910    XYZ      -1.6198
       YYZ       0.4660    XZZ       0.6193    YZZ      -0.1178
       ZZZ      -0.0452
    Hexadecapole Moments (Debye-Ang^3)
      XXXX    -199.9008   XXXY       3.5416   XXYY     -42.2350
      XYYY       4.6658   YYYY     -44.4068   XXXZ      -0.6921
      XXYZ      -0.2627   XYYZ      -0.2214   YYYZ       0.0015
      XXZZ     -44.1632   XYZZ       0.4349   YYZZ     -17.5675
      XZZZ      -1.5246   YZZZ       0.0676   ZZZZ     -71.7443
 -----------------------------------------------------------------
Archival summary:
1\1\centos77-c4\SP\ProcedureUnspecified\BasisUnspecified\38\shihchen\TueJul701:20:142020TueJul701:20:142020\0\\#,ProcedureUnspecified,BasisUnspecified,\\0,1\C\H,1,1.09259\H,1,1.09259,2,106.401\C,1,1.51316,2,121.464,3,-115.227,0\H,4,1.08911,1,123.598,2,-66.8421,0\H,4,1.08917,1,116.629,2,78.3831,0\H,4,1.09588,1,90.4752,2,-175.159,0\C,1,1.53494,2,97.8653,3,122.007,0\H,8,1.08785,1,129.916,2,-171.327,0\H,8,1.09177,1,105.073,2,-38.0854,0\H,8,1.09463,1,96.6795,2,67.2418,0\\\@

 Total job time:  27.90s(wall), 75.43s(cpu) 
 Tue Jul  7 01:20:14 2020

        *************************************************************
        *                                                           *
        *  Thank you very much for using Q-Chem.  Have a nice day.  *
        *                                                           *
        *************************************************************


