                  Welcome to Q-Chem
     A Quantum Leap Into The Future Of Chemistry


 Q-Chem 5.3 (devel), Q-Chem, Inc., Pleasanton, CA (2020)

 Yihan Shao,  Zhengting Gan,  E. Epifanovsky,  A. T. B. Gilbert,  M. Wormit,  
 J. Kussmann,  A. W. Lange,  A. Behn,  Jia Deng,  Xintian Feng,  D. Ghosh,  
 M. Goldey,  P. R. Horn,  L. D. Jacobson,  I. Kaliman,  T. Kus,  A. Landau,  
 Jie Liu,  E. I. Proynov,  R. M. Richard,  R. P. Steele,  E. J. Sundstrom,  
 H. L. Woodcock III,  P. M. Zimmerman,  D. Zuev,  B. Alam,  B. Albrecht,  
 E. Alguire,  S. A. Baeppler,  D. Barton,  Z. Benda,  Y. A. Bernard,  
 E. J. Berquist,  K. B. Bravaya,  H. Burton,  K. Carter-Fenk,  D. Casanova,  
 Chun-Min Chang,  Yunqing Chen,  A. Chien,  K. D. Closser,  M. P. Coons,  
 S. Coriani,  S. Dasgupta,  A. L. Dempwolff,  M. Diedenhofen,  Hainam Do,  
 R. G. Edgar,  Po-Tung Fang,  S. Faraji,  S. Fatehi,  Qingguo Feng,  
 J. Fosso-Tande,  J. Gayvert,  Qinghui Ge,  A. Ghysels,  G. Gidofalvi,  
 J. Gomes,  J. Gonthier,  A. Gunina,  D. Hait,  M. W. D. Hanson-Heine,  
 P. H. P. Harbach,  A. W. Hauser,  M. F. Herbst,  J. E. Herr,  
 E. G. Hohenstein,  Z. C. Holden,  Kerwin Hui,  B. C. Huynh,  T.-C. Jagau,  
 Hyunjun Ji,  B. Kaduk,  K. Khistyaev,  Jaehoon Kim,  P. Klunzinger,  K. Koh,  
 D. Kosenkov,  L. Koulias,  T. Kowalczyk,  C. M. Krauter,  A. Kunitsa,  
 Ka Un Lao,  A. Laurent,  K. V. Lawler,  Joonho Lee,  D. Lefrancois,  
 S. Lehtola,  D. S. Levine,  Yi-Pei Li,  You-Sheng Lin,  Fenglai Liu,  
 Kuan-Yu Liu,  E. Livshits,  M. Loipersberger,  A. Luenser,  P. Manohar,  
 E. Mansoor,  S. F. Manzer,  Shan-Ping Mao,  Yuezhi Mao,  N. Mardirossian,  
 A. V. Marenich,  T. Markovich,  L. A. Martinez-Martinez,  S. A. Maurer,  
 N. J. Mayhall,  S. C. McKenzie,  J.-M. Mewes,  P. Morgante,  A. F. Morrison,  
 J. W. Mullinax,  K. Nanda,  T. S. Nguyen-Beck,  R. Olivares-Amaya,  
 K. J. Oosterbaan,  J. A. Parkhill,  S. K. Paul,  F. Pavosevic,  Zheng Pei,  
 T. M. Perrine,  F. Plasser,  P. Pokhilko,  S. Prager,  A. Prociuk,  
 E. Ramos,  B. Rana,  D. R. Rehn,  F. Rob,  M. Scheurer,  M. Schneider,  
 N. Sergueev,  S. M. Sharada,  S. Sharma,  D. W. Small,  T. Stauch,  
 C. J. Stein,  T. Stein,  Yu-Chuan Su,  S. P. Veccham,  Zhen Tao,  
 A. J. W. Thom,  A. Tkatchenko,  T. Tsuchimochi,  N. M. Tubman,  L. Vogt,  
 M. L. Vidal,  O. Vydrov,  M. A. Watson,  J. Wenzel,  M. de Wergifosse,  
 T. A. Wesolowski,  A. White,  J. Witte,  A. Yamada,  Jun Yang,  K. Yao,  
 S. Yeganeh,  S. R. Yost,  Zhi-Qiang You,  A. Zech,  Igor Ying Zhang,  
 Xing Zhang,  Yan Zhao,  Ying Zhu,  B. R. Brooks,  G. K. L. Chan,  
 C. J. Cramer,  M. S. Gordon,  W. J. Hehre,  A. Klamt,  M. W. Schmidt,  
 C. D. Sherrill,  D. G. Truhlar,  A. Aspuru-Guzik,  R. Baer,  A. T. Bell,  
 N. A. Besley,  Jeng-Da Chai,  A. E. DePrince, III,  R. A. DiStasio Jr.,  
 A. Dreuw,  B. D. Dunietz,  T. R. Furlani,  Chao-Ping Hsu,  Yousung Jung,  
 Jing Kong,  D. S. Lambrecht,  WanZhen Liang,  C. Ochsenfeld,  
 V. A. Rassolov,  L. V. Slipchenko,  J. E. Subotnik,  T. Van Voorhis,  
 J. M. Herbert,  A. I. Krylov,  P. M. W. Gill,  M. Head-Gordon

 Contributors to earlier versions of Q-Chem not listed above: 
 R. D. Adamson,  B. Austin,  J. Baker,  G. J. O. Beran,  K. Brandhorst,  
 S. T. Brown,  E. F. C. Byrd,  A. K. Chakraborty,  C.-L. Cheng,  
 Siu Hung Chien,  D. M. Chipman,  D. L. Crittenden,  H. Dachsel,  
 R. J. Doerksen,  A. D. Dutoi,  L. Fusti-Molnar,  W. A. Goddard III,  
 A. Golubeva-Zadorozhnaya,  S. R. Gwaltney,  G. Hawkins,  A. Heyden,  
 S. Hirata,  G. Kedziora,  F. J. Keil,  C. Kelley,  Jihan Kim,  R. A. King,  
 R. Z. Khaliullin,  P. P. Korambath,  W. Kurlancheek,  A. M. Lee,  M. S. Lee,  
 S. V. Levchenko,  Ching Yeh Lin,  D. Liotard,  R. C. Lochan,  I. Lotan,  
 P. E. Maslen,  N. Nair,  D. P. O'Neill,  D. Neuhauser,  E. Neuscamman,  
 C. M. Oana,  R. Olson,  B. Peters,  R. Peverati,  P. A. Pieniazek,  
 Y. M. Rhee,  J. Ritchie,  M. A. Rohrdanz,  E. Rosta,  N. J. Russ,  
 H. F. Schaefer III,  N. E. Schultz,  N. Shenvi,  A. C. Simmonett,  A. Sodt,  
 D. Stuck,  K. S. Thanthiriwatte,  V. Vanovschi,  Tao Wang,  A. Warshel,  
 C. F. Williams,  Q. Wu,  X. Xu,  W. Zhang

 Please cite Q-Chem as follows:
 Y. Shao et al., Mol. Phys. 113, 184-215 (2015)
 DOI: 10.1080/00268976.2014.952696

 Q-Chem 5.3.0 for Intel X86 EM64T Linux

 Parts of Q-Chem use Armadillo 9.800.1 (Horizon Scraper).
 http://arma.sourceforge.net/

 Q-Chem begins on Tue Jul  7 02:03:34 2020  

Host: centos77-c4
0

     Scratch files written to /tmp/26964.centos77-h1/qchem107515//
Processing $rem in /opt/qchem-5.3.0-intel2020u1//config/preferences:
Processing $rem in /home/shihchengli/.qchemrc:

Checking the input file for inconsistencies... 	...done.

--------------------------------------------------------------
User input:
--------------------------------------------------------------
$rem
   JOBTYPE  sp
   EXCHANGE   omegaB97X-D
   BASIS   6-311+G(2df,2pd)
   UNRESTRICTED   False
   max_scf_cycles   250
   geom_opt_max_cycles   1500
   basis2 6-31G*
   scf_algorithm rca_diis
   SYM_IGNORE  TRUE
   print_input   true
   geom_opt_dmax   80
   pop_mulliken false
   XC_GRID 000075000302
$end

$molecule
0 1
C       1.2774700293     0.0268798943     0.2491185178
C       0.0112409138     0.0013717721     -0.5886823280
H       1.4017409348     -0.8292670127     0.9227955035
H       1.2138876339     0.8457767169     0.9646674376
H       2.1484212824     -0.1143686386     -0.3885291330
C       -1.2563484611     -0.0226847815     0.2670296465
H       0.0157458242     -0.8732106929     -1.2435427325
H       -0.0342446305     0.8737804688     -1.2448767477
H       -1.2074878935     -0.9194741055     0.8798131242
H       -2.1714528084     0.1108808939     -0.3142567265
H       -1.3989728855     0.9003161512     0.8375084569
$end
--------------------------------------------------------------
 ----------------------------------------------------------------
             Standard Nuclear Orientation (Angstroms)
    I     Atom           X                Y                Z
 ----------------------------------------------------------------
    1      C       1.2774700293     0.0268798943     0.2491185178
    2      C       0.0112409138     0.0013717721    -0.5886823280
    3      H       1.4017409348    -0.8292670127     0.9227955035
    4      H       1.2138876339     0.8457767169     0.9646674376
    5      H       2.1484212824    -0.1143686386    -0.3885291330
    6      C      -1.2563484611    -0.0226847815     0.2670296465
    7      H       0.0157458242    -0.8732106929    -1.2435427325
    8      H      -0.0342446305     0.8737804688    -1.2448767477
    9      H      -1.2074878935    -0.9194741055     0.8798131242
   10      H      -2.1714528084     0.1108808939    -0.3142567265
   11      H      -1.3989728855     0.9003161512     0.8375084569
 ----------------------------------------------------------------
 Nuclear Repulsion Energy =          82.76190927 hartrees
 There are       13 alpha and       13 beta electrons
 Requested basis set is 6-311+G(2df,2pd)
 There are 72 shells and 214 basis functions

 Total QAlloc Memory Limit   2000 MB
 Mega-Array Size       188 MB
 MEM_STATIC part       192 MB

                       Distance Matrix (Angstroms)
             C (  1)   C (  2)   H (  3)   H (  4)   H (  5)   C (  6)
   C (  2)  1.518518
   H (  3)  1.096481  2.215404
   H (  4)  1.089332  2.138288  1.686065
   H (  5)  1.088624  2.149650  1.669785  1.904304
   C (  6)  2.534367  1.529577  2.854127  2.709795  3.468518
   H (  7)  2.151778  1.092592  2.572146  3.044118  2.419751  2.150220
   H (  8)  2.160985  1.092592  3.108252  2.537854  2.544366  2.140806
   H (  9)  2.732833  2.118900  2.611141  2.997728  3.676821  1.087254
   H ( 10)  3.495643  2.202602  3.896394  3.692729  4.326380  1.092314
   H ( 11)  2.876185  2.197914  3.292830  2.616521  3.888028  1.094403
             H (  7)   H (  8)   H (  9)   H ( 10)
   H (  8)  1.747707
   H (  9)  2.450935  3.017709
   H ( 10)  2.572129  2.452698  1.848422
   H ( 11)  3.078571  2.489883  1.830326  1.595775
 
 A cutoff of  1.0D-09 yielded   2534 shell pairs
 There are     22556 function pairs (     27731 Cartesian)
 Smallest overlap matrix eigenvalue = 8.73E-05

 Scale SEOQF with 1.000000e-01/1.000000e-01/1.000000e-01

 Standard Electronic Orientation quadrupole field applied
 Nucleus-field energy     =     0.0000000006 hartrees
 Requested basis set is 6-31G(d)
 There are 28 shells and 58 basis functions
 A cutoff of  1.0D-09 yielded    402 shell pairs
 There are      1773 function pairs (      1968 Cartesian)
 Smallest overlap matrix eigenvalue = 6.82E-03
 Guess from superposition of atomic densities
 Warning:  Energy on first SCF cycle will be non-variational
 SAD guess density has 26.000000 electrons
 Long-range K will be added via erf
 Coulomb attenuation parameter = 0.2 bohr**(-1)
 A restricted hybrid HF-DFT SCF calculation will be
 performed using Relaxed Constraint Minimization + Pulay DIIS
 Exchange:     0.2220 Hartree-Fock + 1.0000 wB97X-D + LR-HF
 Correlation:  1.0000 wB97X-D
 Using Euler-Maclaurin-Lebedev (75,302) quadrature formula
 Dispersion:   Grimme D
 SCF converges when DIIS error is below 1.0E-04
 using 3 threads for integral computing
 -------------------------------------------------------
 OpenMP Integral computing Module                
 Release: version 1.0, May 2013, Q-Chem Inc. Pittsburgh 
 -------------------------------------------------------
 using 3 threads for integral computing
 -------------------------------------------------------
 OpenMP Integral computing Module                
 Release: version 1.0, May 2013, Q-Chem Inc. Pittsburgh 
 -------------------------------------------------------
 ---------------------------------------
  Cycle       Energy         DIIS Error
 ---------------------------------------
    1    -119.6258955195      1.01E-01
    2    -119.0514541050      9.11E-03
    3    -119.0730782923      2.49E-03
    4    -119.0874234430      1.70E-03
    5    -119.0881362674      2.70E-04 Done RCA. Switching to DIIS
    6    -119.0886616147      1.99E-04
    7    -119.0886788161      5.28E-06 Convergence criterion met
 ---------------------------------------
 SCF time:  CPU 19.48 s  wall 7.19 s
 SCF   energy in the small basis set = -119.08867882
 Total energy in the small basis set = -119.08867882
 ----------------------------------------------------
  Cycle       Energy    
 ----------------------------------------------------
    1     -16.5374880868     -1.65E+01
 Long-range K will be added via erf
 Coulomb attenuation parameter = 0.2 bohr**(-1)
 A restricted hybrid HF-DFT SCF calculation will be
 performed using Relaxed Constraint Minimization + Pulay DIIS
 Exchange:     0.2220 Hartree-Fock + 1.0000 wB97X-D + LR-HF
 Correlation:  1.0000 wB97X-D
 Using Euler-Maclaurin-Lebedev (75,302) quadrature formula
 Dispersion:   Grimme D
 SCF converges when DIIS error is below 1.0E-05
 Basis2 calculation detected. Using small basis as guess for larger.
 SCFMinFind is unable to tell whether the solution found is close.
 Resetting ReadMinima to 0 and attempting to follow guess.
 SCFMinFind following SCF Guess.
 using 3 threads for integral computing
 -------------------------------------------------------
 OpenMP Integral computing Module                
 Release: version 1.0, May 2013, Q-Chem Inc. Pittsburgh 
 -------------------------------------------------------
 using 3 threads for integral computing
 -------------------------------------------------------
 OpenMP Integral computing Module                
 Release: version 1.0, May 2013, Q-Chem Inc. Pittsburgh 
 -------------------------------------------------------
 ---------------------------------------
  Cycle       Energy         DIIS Error
 ---------------------------------------
    1    -119.1084760834      4.21E-03
    2    -119.1304894832      6.07E-04 Done RCA. Switching to DIIS
    3    -119.1313392122      4.29E-04
    4    -119.1323470572      4.59E-05
    5    -119.1323622240      1.02E-05
    6    -119.1323629476      3.95E-06 Convergence criterion met
 ---------------------------------------
 SCF time:  CPU 52.68 s  wall 17.91 s
 SCF   energy in the final basis set = -119.13236295
 Total energy in the final basis set = -119.13236295
 
 --------------------------------------------------------------
 
                    Orbital Energies (a.u.)
 --------------------------------------------------------------
 
 Alpha MOs
 -- Occupied --
-10.2742 -10.2655 -10.2654  -0.8819  -0.7788  -0.6792  -0.5493  -0.5329
 -0.4823  -0.4555  -0.4281  -0.4141  -0.3940
 -- Virtual --
  0.0689   0.0851   0.0908   0.0992   0.1237   0.1304   0.1331   0.1423
  0.1427   0.1696   0.1731   0.1925   0.2228   0.2324   0.2564   0.2605
  0.2795   0.2886   0.3087   0.3144   0.3339   0.3487   0.4599   0.4645
  0.4724   0.5078   0.5176   0.5194   0.5457   0.5599   0.5795   0.5919
  0.6160   0.6289   0.6375   0.6399   0.6601   0.6669   0.7121   0.7234
  0.7308   0.7683   0.8084   0.8621   0.8699   0.8729   0.8903   0.9464
  0.9873   1.0484   1.0549   1.1344   1.1413   1.1697   1.1955   1.2137
  1.2380   1.2426   1.2644   1.2686   1.2893   1.3112   1.3343   1.3529
  1.3767   1.3905   1.4290   1.4466   1.4599   1.4707   1.4763   1.4906
  1.5139   1.5725   1.6122   1.6236   1.6307   1.6502   1.6852   1.6986
  1.7595   2.3897   2.4704   2.4770   2.5056   2.5463   2.5564   2.5998
  2.6340   2.7091   2.8114   2.8202   2.8340   2.8928   2.9001   2.9249
  2.9509   2.9576   2.9991   3.0187   3.0288   3.0605   3.0701   3.1088
  3.1436   3.1475   3.1696   3.1862   3.2016   3.2223   3.2673   3.2910
  3.3044   3.3444   3.3495   3.3718   3.3854   3.4089   3.4294   3.4610
  3.4831   3.5102   3.5231   3.5372   3.5570   3.5654   3.5849   3.6121
  3.6256   3.6416   3.6540   3.7001   3.7455   3.7651   3.8481   3.8595
  3.8830   3.9190   3.9404   3.9431   3.9553   3.9767   3.9911   4.0331
  4.0649   4.0989   4.1197   4.1374   4.1729   4.1854   4.2122   4.2162
  4.2306   4.2393   4.2870   4.3597   4.3870   4.4031   4.4289   4.4411
  4.4740   4.5796   4.6093   4.6198   4.6774   4.7586   4.7726   4.8582
  4.9080   4.9469   4.9573   4.9917   5.0141   5.0233   5.0435   5.0930
  5.1385   5.2207   5.2406   5.2758   5.3046   5.3211   5.3852   5.4064
  5.4510   5.4565   5.5036   5.5794   5.6154   5.6336   5.7115   5.7621
  5.9606   6.3259   6.3342   6.4121   6.4581   6.4715  25.2045  25.4396
 25.4553
 --------------------------------------------------------------
 
 -----------------------------------------------------------------
                    Cartesian Multipole Moments
 -----------------------------------------------------------------
    Charge (ESU x 10^10)
                 0.0000
    Dipole Moment (Debye)
         X      -0.0372      Y      -0.0084      Z      -0.0729
       Tot       0.0822
    Quadrupole Moments (Debye-Ang)
        XX     -22.1483     XY      -0.9642     YY     -21.4047
        XZ       0.0356     YZ      -0.0024     ZZ     -21.9007
    Octopole Moments (Debye-Ang^2)
       XXX      -0.8272    XXY       0.0420    XYY      -0.7273
       YYY      -0.1385    XXZ      -1.3338    XYZ       0.2787
       YYZ       0.3900    XZZ       0.4722    YZZ      -0.0428
       ZZZ      -0.3532
    Hexadecapole Moments (Debye-Ang^3)
      XXXX    -202.4923   XXXY      -5.1589   XXYY     -42.1383
      XYYY       0.0748   YYYY     -44.3076   XXXZ      -0.5123
      XXYZ       0.0572   XYYZ      -0.1641   YYYZ      -0.0749
      XXZZ     -45.5265   XYZZ       0.0916   YYZZ     -17.2142
      XZZZ       0.8998   YZZZ       0.0047   ZZZZ     -72.3140
 -----------------------------------------------------------------
Archival summary:
1\1\centos77-c4\SP\ProcedureUnspecified\BasisUnspecified\38\shihchen\TueJul702:04:022020TueJul702:04:022020\0\\#,ProcedureUnspecified,BasisUnspecified,\\0,1\C\H,1,1.09259\H,1,1.09259,2,106.222\C,1,1.51852,2,109.919,3,-119.741,0\H,4,1.08862,1,109.986,2,49.4278,0\H,4,1.08933,1,109.048,2,-174.43,0\H,4,1.09648,1,114.858,2,-62.0034,0\C,1,1.52958,2,109.035,3,116.511,0\H,8,1.08725,1,106.92,2,62.5048,0\H,8,1.09231,1,113.243,2,-66.5016,0\H,8,1.0944,1,112.728,2,-171.377,0\\\@

 Total job time:  27.98s(wall), 75.71s(cpu) 
 Tue Jul  7 02:04:02 2020

        *************************************************************
        *                                                           *
        *  Thank you very much for using Q-Chem.  Have a nice day.  *
        *                                                           *
        *************************************************************


