                  Welcome to Q-Chem
     A Quantum Leap Into The Future Of Chemistry


 Q-Chem 5.3 (devel), Q-Chem, Inc., Pleasanton, CA (2020)

 Yihan Shao,  Zhengting Gan,  E. Epifanovsky,  A. T. B. Gilbert,  M. Wormit,  
 J. Kussmann,  A. W. Lange,  A. Behn,  Jia Deng,  Xintian Feng,  D. Ghosh,  
 M. Goldey,  P. R. Horn,  L. D. Jacobson,  I. Kaliman,  T. Kus,  A. Landau,  
 Jie Liu,  E. I. Proynov,  R. M. Richard,  R. P. Steele,  E. J. Sundstrom,  
 H. L. Woodcock III,  P. M. Zimmerman,  D. Zuev,  B. Alam,  B. Albrecht,  
 E. Alguire,  S. A. Baeppler,  D. Barton,  Z. Benda,  Y. A. Bernard,  
 E. J. Berquist,  K. B. Bravaya,  H. Burton,  K. Carter-Fenk,  D. Casanova,  
 Chun-Min Chang,  Yunqing Chen,  A. Chien,  K. D. Closser,  M. P. Coons,  
 S. Coriani,  S. Dasgupta,  A. L. Dempwolff,  M. Diedenhofen,  Hainam Do,  
 R. G. Edgar,  Po-Tung Fang,  S. Faraji,  S. Fatehi,  Qingguo Feng,  
 J. Fosso-Tande,  J. Gayvert,  Qinghui Ge,  A. Ghysels,  G. Gidofalvi,  
 J. Gomes,  J. Gonthier,  A. Gunina,  D. Hait,  M. W. D. Hanson-Heine,  
 P. H. P. Harbach,  A. W. Hauser,  M. F. Herbst,  J. E. Herr,  
 E. G. Hohenstein,  Z. C. Holden,  Kerwin Hui,  B. C. Huynh,  T.-C. Jagau,  
 Hyunjun Ji,  B. Kaduk,  K. Khistyaev,  Jaehoon Kim,  P. Klunzinger,  K. Koh,  
 D. Kosenkov,  L. Koulias,  T. Kowalczyk,  C. M. Krauter,  A. Kunitsa,  
 Ka Un Lao,  A. Laurent,  K. V. Lawler,  Joonho Lee,  D. Lefrancois,  
 S. Lehtola,  D. S. Levine,  Yi-Pei Li,  You-Sheng Lin,  Fenglai Liu,  
 Kuan-Yu Liu,  E. Livshits,  M. Loipersberger,  A. Luenser,  P. Manohar,  
 E. Mansoor,  S. F. Manzer,  Shan-Ping Mao,  Yuezhi Mao,  N. Mardirossian,  
 A. V. Marenich,  T. Markovich,  L. A. Martinez-Martinez,  S. A. Maurer,  
 N. J. Mayhall,  S. C. McKenzie,  J.-M. Mewes,  P. Morgante,  A. F. Morrison,  
 J. W. Mullinax,  K. Nanda,  T. S. Nguyen-Beck,  R. Olivares-Amaya,  
 K. J. Oosterbaan,  J. A. Parkhill,  S. K. Paul,  F. Pavosevic,  Zheng Pei,  
 T. M. Perrine,  F. Plasser,  P. Pokhilko,  S. Prager,  A. Prociuk,  
 E. Ramos,  B. Rana,  D. R. Rehn,  F. Rob,  M. Scheurer,  M. Schneider,  
 N. Sergueev,  S. M. Sharada,  S. Sharma,  D. W. Small,  T. Stauch,  
 C. J. Stein,  T. Stein,  Yu-Chuan Su,  S. P. Veccham,  Zhen Tao,  
 A. J. W. Thom,  A. Tkatchenko,  T. Tsuchimochi,  N. M. Tubman,  L. Vogt,  
 M. L. Vidal,  O. Vydrov,  M. A. Watson,  J. Wenzel,  M. de Wergifosse,  
 T. A. Wesolowski,  A. White,  J. Witte,  A. Yamada,  Jun Yang,  K. Yao,  
 S. Yeganeh,  S. R. Yost,  Zhi-Qiang You,  A. Zech,  Igor Ying Zhang,  
 Xing Zhang,  Yan Zhao,  Ying Zhu,  B. R. Brooks,  G. K. L. Chan,  
 C. J. Cramer,  M. S. Gordon,  W. J. Hehre,  A. Klamt,  M. W. Schmidt,  
 C. D. Sherrill,  D. G. Truhlar,  A. Aspuru-Guzik,  R. Baer,  A. T. Bell,  
 N. A. Besley,  Jeng-Da Chai,  A. E. DePrince, III,  R. A. DiStasio Jr.,  
 A. Dreuw,  B. D. Dunietz,  T. R. Furlani,  Chao-Ping Hsu,  Yousung Jung,  
 Jing Kong,  D. S. Lambrecht,  WanZhen Liang,  C. Ochsenfeld,  
 V. A. Rassolov,  L. V. Slipchenko,  J. E. Subotnik,  T. Van Voorhis,  
 J. M. Herbert,  A. I. Krylov,  P. M. W. Gill,  M. Head-Gordon

 Contributors to earlier versions of Q-Chem not listed above: 
 R. D. Adamson,  B. Austin,  J. Baker,  G. J. O. Beran,  K. Brandhorst,  
 S. T. Brown,  E. F. C. Byrd,  A. K. Chakraborty,  C.-L. Cheng,  
 Siu Hung Chien,  D. M. Chipman,  D. L. Crittenden,  H. Dachsel,  
 R. J. Doerksen,  A. D. Dutoi,  L. Fusti-Molnar,  W. A. Goddard III,  
 A. Golubeva-Zadorozhnaya,  S. R. Gwaltney,  G. Hawkins,  A. Heyden,  
 S. Hirata,  G. Kedziora,  F. J. Keil,  C. Kelley,  Jihan Kim,  R. A. King,  
 R. Z. Khaliullin,  P. P. Korambath,  W. Kurlancheek,  A. M. Lee,  M. S. Lee,  
 S. V. Levchenko,  Ching Yeh Lin,  D. Liotard,  R. C. Lochan,  I. Lotan,  
 P. E. Maslen,  N. Nair,  D. P. O'Neill,  D. Neuhauser,  E. Neuscamman,  
 C. M. Oana,  R. Olson,  B. Peters,  R. Peverati,  P. A. Pieniazek,  
 Y. M. Rhee,  J. Ritchie,  M. A. Rohrdanz,  E. Rosta,  N. J. Russ,  
 H. F. Schaefer III,  N. E. Schultz,  N. Shenvi,  A. C. Simmonett,  A. Sodt,  
 D. Stuck,  K. S. Thanthiriwatte,  V. Vanovschi,  Tao Wang,  A. Warshel,  
 C. F. Williams,  Q. Wu,  X. Xu,  W. Zhang

 Please cite Q-Chem as follows:
 Y. Shao et al., Mol. Phys. 113, 184-215 (2015)
 DOI: 10.1080/00268976.2014.952696

 Q-Chem 5.3.0 for Intel X86 EM64T Linux

 Parts of Q-Chem use Armadillo 9.800.1 (Horizon Scraper).
 http://arma.sourceforge.net/

 Q-Chem begins on Tue Jul  7 01:36:15 2020  

Host: centos77-c4
0

     Scratch files written to /tmp/26964.centos77-h1/qchem101939//
Processing $rem in /opt/qchem-5.3.0-intel2020u1//config/preferences:
Processing $rem in /home/shihchengli/.qchemrc:

Checking the input file for inconsistencies... 	...done.

--------------------------------------------------------------
User input:
--------------------------------------------------------------
$rem
   JOBTYPE  sp
   EXCHANGE   omegaB97X-D
   BASIS   6-311+G(2df,2pd)
   UNRESTRICTED   False
   max_scf_cycles   250
   geom_opt_max_cycles   1500
   basis2 6-31G*
   scf_algorithm rca_diis
   SYM_IGNORE  TRUE
   print_input   true
   geom_opt_dmax   80
   pop_mulliken false
   XC_GRID 000075000302
$end

$molecule
0 1
C       1.2738590867     0.0215674526     0.2138272637
C       -0.0000000444     -0.0223769537     -0.5575836528
H       1.2150508946     -0.8614731915     0.8569130155
H       1.2266108248     0.8697750195     0.9001472814
H       2.2296587896     -0.0004281261     -0.3049982090
C       -1.2738590425     0.0215674606     0.2138271979
H       0.0000002058     -0.8887168035     -1.2214449077
H       -0.0000001744     0.8522113051     -1.2117050527
H       -1.2150509718     -0.8614731489     0.8569130018
H       -2.2296588966     -0.0004274541     -0.3049980788
H       -1.2266107325     0.8697751061     0.9001471594
$end
--------------------------------------------------------------
 ----------------------------------------------------------------
             Standard Nuclear Orientation (Angstroms)
    I     Atom           X                Y                Z
 ----------------------------------------------------------------
    1      C       1.2738590867     0.0215674526     0.2138272637
    2      C      -0.0000000444    -0.0223769537    -0.5575836528
    3      H       1.2150508946    -0.8614731915     0.8569130155
    4      H       1.2266108248     0.8697750195     0.9001472814
    5      H       2.2296587896    -0.0004281261    -0.3049982090
    6      C      -1.2738590425     0.0215674606     0.2138271979
    7      H       0.0000002058    -0.8887168035    -1.2214449077
    8      H      -0.0000001744     0.8522113051    -1.2117050527
    9      H      -1.2150509718    -0.8614731489     0.8569130018
   10      H      -2.2296588966    -0.0004274541    -0.3049980788
   11      H      -1.2266107325     0.8697751061     0.9001471594
 ----------------------------------------------------------------
 Nuclear Repulsion Energy =          83.75037357 hartrees
 There are       13 alpha and       13 beta electrons
 Requested basis set is 6-311+G(2df,2pd)
 There are 72 shells and 214 basis functions

 Total QAlloc Memory Limit   2000 MB
 Mega-Array Size       188 MB
 MEM_STATIC part       192 MB

                       Distance Matrix (Angstroms)
             C (  1)   C (  2)   H (  3)   H (  4)   H (  5)   C (  6)
   C (  2)  1.489873
   H (  3)  1.093974  2.044806
   H (  4)  1.092119  2.103685  1.731827
   H (  5)  1.087758  2.244028  1.766597  1.793247
   C (  6)  2.547718  1.489873  2.718086  2.728157  3.541793
   H (  7)  2.123992  1.091447  2.407626  3.016293  2.569107  2.123992
   H (  8)  2.084425  1.092144  2.948261  2.442295  2.553525  2.084425
   H (  9)  2.718086  2.044806  2.430102  2.993460  3.735969  1.093974
   H ( 10)  3.541794  2.244028  3.735969  3.762370  4.459318  1.087758
   H ( 11)  2.728157  2.103684  2.993460  2.453222  3.762370  1.092119
             H (  7)   H (  8)   H (  9)   H ( 10)
   H (  8)  1.740955
   H (  9)  2.407626  2.948261
   H ( 10)  2.569107  2.553525  1.766597
   H ( 11)  3.016293  2.442294  1.731827  1.793247
 
 A cutoff of  1.0D-09 yielded   2542 shell pairs
 There are     22584 function pairs (     27765 Cartesian)
 Smallest overlap matrix eigenvalue = 8.29E-05

 Scale SEOQF with 1.000000e-01/1.000000e-01/1.000000e-01

 Standard Electronic Orientation quadrupole field applied
 Nucleus-field energy     =     0.0000000007 hartrees
 Requested basis set is 6-31G(d)
 There are 28 shells and 58 basis functions
 A cutoff of  1.0D-09 yielded    402 shell pairs
 There are      1773 function pairs (      1968 Cartesian)
 Smallest overlap matrix eigenvalue = 6.33E-03
 Guess from superposition of atomic densities
 Warning:  Energy on first SCF cycle will be non-variational
 SAD guess density has 26.000000 electrons
 Long-range K will be added via erf
 Coulomb attenuation parameter = 0.2 bohr**(-1)
 A restricted hybrid HF-DFT SCF calculation will be
 performed using Relaxed Constraint Minimization + Pulay DIIS
 Exchange:     0.2220 Hartree-Fock + 1.0000 wB97X-D + LR-HF
 Correlation:  1.0000 wB97X-D
 Using Euler-Maclaurin-Lebedev (75,302) quadrature formula
 Dispersion:   Grimme D
 SCF converges when DIIS error is below 1.0E-04
 using 3 threads for integral computing
 -------------------------------------------------------
 OpenMP Integral computing Module                
 Release: version 1.0, May 2013, Q-Chem Inc. Pittsburgh 
 -------------------------------------------------------
 using 3 threads for integral computing
 -------------------------------------------------------
 OpenMP Integral computing Module                
 Release: version 1.0, May 2013, Q-Chem Inc. Pittsburgh 
 -------------------------------------------------------
 ---------------------------------------
  Cycle       Energy         DIIS Error
 ---------------------------------------
    1    -119.7285171450      1.04E-01
    2    -119.0532224159      9.24E-03
    3    -119.0754105838      2.51E-03
    4    -119.0901068386      1.73E-03
    5    -119.0908361903      2.67E-04 Done RCA. Switching to DIIS
    6    -119.0913783682      2.00E-04
    7    -119.0913955812      4.58E-06 Convergence criterion met
 ---------------------------------------
 SCF time:  CPU 18.81 s  wall 6.69 s
 SCF   energy in the small basis set = -119.09139558
 Total energy in the small basis set = -119.09139558
 ----------------------------------------------------
  Cycle       Energy    
 ----------------------------------------------------
    1     -16.5675128047     -1.66E+01
 Long-range K will be added via erf
 Coulomb attenuation parameter = 0.2 bohr**(-1)
 A restricted hybrid HF-DFT SCF calculation will be
 performed using Relaxed Constraint Minimization + Pulay DIIS
 Exchange:     0.2220 Hartree-Fock + 1.0000 wB97X-D + LR-HF
 Correlation:  1.0000 wB97X-D
 Using Euler-Maclaurin-Lebedev (75,302) quadrature formula
 Dispersion:   Grimme D
 SCF converges when DIIS error is below 1.0E-05
 Basis2 calculation detected. Using small basis as guess for larger.
 SCFMinFind is unable to tell whether the solution found is close.
 Resetting ReadMinima to 0 and attempting to follow guess.
 SCFMinFind following SCF Guess.
 using 3 threads for integral computing
 -------------------------------------------------------
 OpenMP Integral computing Module                
 Release: version 1.0, May 2013, Q-Chem Inc. Pittsburgh 
 -------------------------------------------------------
 using 3 threads for integral computing
 -------------------------------------------------------
 OpenMP Integral computing Module                
 Release: version 1.0, May 2013, Q-Chem Inc. Pittsburgh 
 -------------------------------------------------------
 ---------------------------------------
  Cycle       Energy         DIIS Error
 ---------------------------------------
    1    -119.1112067840      4.21E-03
    2    -119.1333070352      6.06E-04 Done RCA. Switching to DIIS
    3    -119.1341525342      4.28E-04
    4    -119.1351512688      4.64E-05
    5    -119.1351664227      1.19E-05
    6    -119.1351673125      4.14E-06 Convergence criterion met
 ---------------------------------------
 SCF time:  CPU 49.87 s  wall 16.65 s
 SCF   energy in the final basis set = -119.13516731
 Total energy in the final basis set = -119.13516731
 
 --------------------------------------------------------------
 
                    Orbital Energies (a.u.)
 --------------------------------------------------------------
 
 Alpha MOs
 -- Occupied --
-10.2686 -10.2652 -10.2652  -0.8930  -0.7824  -0.6752  -0.5525  -0.5383
 -0.4790  -0.4586  -0.4478  -0.4082  -0.3909
 -- Virtual --
  0.0699   0.0853   0.0920   0.0978   0.1216   0.1297   0.1336   0.1414
  0.1466   0.1718   0.1729   0.1930   0.2195   0.2381   0.2467   0.2656
  0.2746   0.2849   0.3133   0.3275   0.3288   0.3626   0.4544   0.4661
  0.4768   0.5026   0.5037   0.5139   0.5601   0.5663   0.5802   0.5848
  0.6254   0.6331   0.6477   0.6522   0.6546   0.6599   0.7180   0.7243
  0.7259   0.7641   0.8290   0.8406   0.8776   0.8842   0.8985   0.9702
  1.0220   1.0268   1.0559   1.1060   1.1323   1.1564   1.2072   1.2270
  1.2412   1.2726   1.2897   1.2975   1.3063   1.3106   1.3338   1.3529
  1.3579   1.4224   1.4277   1.4315   1.4625   1.4680   1.4760   1.4780
  1.5347   1.5771   1.6002   1.6172   1.6447   1.6469   1.6659   1.6910
  1.8267   2.4148   2.4287   2.5111   2.5165   2.5702   2.5899   2.6140
  2.6221   2.7245   2.7640   2.8308   2.8631   2.9168   2.9376   2.9500
  2.9731   2.9834   2.9938   3.0190   3.0426   3.0746   3.0900   3.1135
  3.1528   3.1553   3.1721   3.1907   3.2070   3.2501   3.2651   3.2855
  3.3356   3.3539   3.3654   3.3859   3.3909   3.3910   3.4005   3.4229
  3.4662   3.4835   3.5263   3.5265   3.5618   3.5772   3.5822   3.6035
  3.6167   3.6755   3.6971   3.7397   3.7453   3.7800   3.8002   3.8942
  3.9104   3.9165   3.9936   3.9954   4.0214   4.0302   4.0362   4.0783
  4.1136   4.1156   4.1449   4.1727   4.1853   4.2251   4.2305   4.2365
  4.2476   4.2733   4.2985   4.3923   4.4053   4.4321   4.4521   4.4580
  4.5449   4.6310   4.6482   4.6624   4.7154   4.7334   4.7848   4.8407
  4.8832   4.9342   4.9486   4.9808   5.0380   5.0683   5.1013   5.1242
  5.1977   5.2151   5.2887   5.3015   5.3102   5.3508   5.3731   5.3980
  5.4264   5.4501   5.4980   5.5060   5.5906   5.6989   5.7116   5.8667
  6.0232   6.3785   6.4018   6.4101   6.4212   6.4864  25.2557  25.4412
 25.5120
 --------------------------------------------------------------
 
 -----------------------------------------------------------------
                    Cartesian Multipole Moments
 -----------------------------------------------------------------
    Charge (ESU x 10^10)
                 0.0000
    Dipole Moment (Debye)
         X      -0.0000      Y      -0.0189      Z      -0.0524
       Tot       0.0557
    Quadrupole Moments (Debye-Ang)
        XX     -21.4999     XY      -0.0000     YY     -21.5779
        XZ      -0.0000     YZ       0.2280     ZZ     -22.3332
    Octopole Moments (Debye-Ang^2)
       XXX      -0.0000    XXY      -0.0629    XYY      -0.0000
       YYY      -0.3039    XXZ      -2.0264    XYZ       0.0000
       YYZ       0.6017    XZZ       0.0000    YZZ      -0.0130
       ZZZ       0.5405
    Hexadecapole Moments (Debye-Ang^3)
      XXXX    -191.6270   XXXY      -0.0000   XXYY     -42.8390
      XYYY       0.0000   YYYY     -44.4315   XXXZ      -0.0000
      XXYZ       0.2171   XYYZ      -0.0000   YYYZ      -0.3265
      XXZZ     -45.6876   XYZZ       0.0000   YYZZ     -16.9951
      XZZZ      -0.0000   YZZZ       0.0589   ZZZZ     -69.5961
 -----------------------------------------------------------------
Archival summary:
1\1\centos77-c4\SP\ProcedureUnspecified\BasisUnspecified\38\shihchen\TueJul701:36:412020TueJul701:36:412020\0\\#,ProcedureUnspecified,BasisUnspecified,\\0,1\C\H,1,1.09145\H,1,1.09214,2,105.744\C,1,1.48987,2,109.776,3,114.688,0\H,4,1.08776,1,120.247,2,-54.1066,0\H,4,1.09212,1,108.138,2,177.462,0\H,4,1.09397,1,103.568,2,66.6522,0\C,1,1.48987,2,109.776,3,-114.688,0\H,8,1.08776,1,120.247,2,54.1065,0\H,8,1.09212,1,108.138,2,-177.462,0\H,8,1.09397,1,103.568,2,-66.6522,0\\\@

 Total job time:  26.32s(wall), 72.40s(cpu) 
 Tue Jul  7 01:36:41 2020

        *************************************************************
        *                                                           *
        *  Thank you very much for using Q-Chem.  Have a nice day.  *
        *                                                           *
        *************************************************************


