                  Welcome to Q-Chem
     A Quantum Leap Into The Future Of Chemistry


 Q-Chem 5.3 (devel), Q-Chem, Inc., Pleasanton, CA (2020)

 Yihan Shao,  Zhengting Gan,  E. Epifanovsky,  A. T. B. Gilbert,  M. Wormit,  
 J. Kussmann,  A. W. Lange,  A. Behn,  Jia Deng,  Xintian Feng,  D. Ghosh,  
 M. Goldey,  P. R. Horn,  L. D. Jacobson,  I. Kaliman,  T. Kus,  A. Landau,  
 Jie Liu,  E. I. Proynov,  R. M. Richard,  R. P. Steele,  E. J. Sundstrom,  
 H. L. Woodcock III,  P. M. Zimmerman,  D. Zuev,  B. Alam,  B. Albrecht,  
 E. Alguire,  S. A. Baeppler,  D. Barton,  Z. Benda,  Y. A. Bernard,  
 E. J. Berquist,  K. B. Bravaya,  H. Burton,  K. Carter-Fenk,  D. Casanova,  
 Chun-Min Chang,  Yunqing Chen,  A. Chien,  K. D. Closser,  M. P. Coons,  
 S. Coriani,  S. Dasgupta,  A. L. Dempwolff,  M. Diedenhofen,  Hainam Do,  
 R. G. Edgar,  Po-Tung Fang,  S. Faraji,  S. Fatehi,  Qingguo Feng,  
 J. Fosso-Tande,  J. Gayvert,  Qinghui Ge,  A. Ghysels,  G. Gidofalvi,  
 J. Gomes,  J. Gonthier,  A. Gunina,  D. Hait,  M. W. D. Hanson-Heine,  
 P. H. P. Harbach,  A. W. Hauser,  M. F. Herbst,  J. E. Herr,  
 E. G. Hohenstein,  Z. C. Holden,  Kerwin Hui,  B. C. Huynh,  T.-C. Jagau,  
 Hyunjun Ji,  B. Kaduk,  K. Khistyaev,  Jaehoon Kim,  P. Klunzinger,  K. Koh,  
 D. Kosenkov,  L. Koulias,  T. Kowalczyk,  C. M. Krauter,  A. Kunitsa,  
 Ka Un Lao,  A. Laurent,  K. V. Lawler,  Joonho Lee,  D. Lefrancois,  
 S. Lehtola,  D. S. Levine,  Yi-Pei Li,  You-Sheng Lin,  Fenglai Liu,  
 Kuan-Yu Liu,  E. Livshits,  M. Loipersberger,  A. Luenser,  P. Manohar,  
 E. Mansoor,  S. F. Manzer,  Shan-Ping Mao,  Yuezhi Mao,  N. Mardirossian,  
 A. V. Marenich,  T. Markovich,  L. A. Martinez-Martinez,  S. A. Maurer,  
 N. J. Mayhall,  S. C. McKenzie,  J.-M. Mewes,  P. Morgante,  A. F. Morrison,  
 J. W. Mullinax,  K. Nanda,  T. S. Nguyen-Beck,  R. Olivares-Amaya,  
 K. J. Oosterbaan,  J. A. Parkhill,  S. K. Paul,  F. Pavosevic,  Zheng Pei,  
 T. M. Perrine,  F. Plasser,  P. Pokhilko,  S. Prager,  A. Prociuk,  
 E. Ramos,  B. Rana,  D. R. Rehn,  F. Rob,  M. Scheurer,  M. Schneider,  
 N. Sergueev,  S. M. Sharada,  S. Sharma,  D. W. Small,  T. Stauch,  
 C. J. Stein,  T. Stein,  Yu-Chuan Su,  S. P. Veccham,  Zhen Tao,  
 A. J. W. Thom,  A. Tkatchenko,  T. Tsuchimochi,  N. M. Tubman,  L. Vogt,  
 M. L. Vidal,  O. Vydrov,  M. A. Watson,  J. Wenzel,  M. de Wergifosse,  
 T. A. Wesolowski,  A. White,  J. Witte,  A. Yamada,  Jun Yang,  K. Yao,  
 S. Yeganeh,  S. R. Yost,  Zhi-Qiang You,  A. Zech,  Igor Ying Zhang,  
 Xing Zhang,  Yan Zhao,  Ying Zhu,  B. R. Brooks,  G. K. L. Chan,  
 C. J. Cramer,  M. S. Gordon,  W. J. Hehre,  A. Klamt,  M. W. Schmidt,  
 C. D. Sherrill,  D. G. Truhlar,  A. Aspuru-Guzik,  R. Baer,  A. T. Bell,  
 N. A. Besley,  Jeng-Da Chai,  A. E. DePrince, III,  R. A. DiStasio Jr.,  
 A. Dreuw,  B. D. Dunietz,  T. R. Furlani,  Chao-Ping Hsu,  Yousung Jung,  
 Jing Kong,  D. S. Lambrecht,  WanZhen Liang,  C. Ochsenfeld,  
 V. A. Rassolov,  L. V. Slipchenko,  J. E. Subotnik,  T. Van Voorhis,  
 J. M. Herbert,  A. I. Krylov,  P. M. W. Gill,  M. Head-Gordon

 Contributors to earlier versions of Q-Chem not listed above: 
 R. D. Adamson,  B. Austin,  J. Baker,  G. J. O. Beran,  K. Brandhorst,  
 S. T. Brown,  E. F. C. Byrd,  A. K. Chakraborty,  C.-L. Cheng,  
 Siu Hung Chien,  D. M. Chipman,  D. L. Crittenden,  H. Dachsel,  
 R. J. Doerksen,  A. D. Dutoi,  L. Fusti-Molnar,  W. A. Goddard III,  
 A. Golubeva-Zadorozhnaya,  S. R. Gwaltney,  G. Hawkins,  A. Heyden,  
 S. Hirata,  G. Kedziora,  F. J. Keil,  C. Kelley,  Jihan Kim,  R. A. King,  
 R. Z. Khaliullin,  P. P. Korambath,  W. Kurlancheek,  A. M. Lee,  M. S. Lee,  
 S. V. Levchenko,  Ching Yeh Lin,  D. Liotard,  R. C. Lochan,  I. Lotan,  
 P. E. Maslen,  N. Nair,  D. P. O'Neill,  D. Neuhauser,  E. Neuscamman,  
 C. M. Oana,  R. Olson,  B. Peters,  R. Peverati,  P. A. Pieniazek,  
 Y. M. Rhee,  J. Ritchie,  M. A. Rohrdanz,  E. Rosta,  N. J. Russ,  
 H. F. Schaefer III,  N. E. Schultz,  N. Shenvi,  A. C. Simmonett,  A. Sodt,  
 D. Stuck,  K. S. Thanthiriwatte,  V. Vanovschi,  Tao Wang,  A. Warshel,  
 C. F. Williams,  Q. Wu,  X. Xu,  W. Zhang

 Please cite Q-Chem as follows:
 Y. Shao et al., Mol. Phys. 113, 184-215 (2015)
 DOI: 10.1080/00268976.2014.952696

 Q-Chem 5.3.0 for Intel X86 EM64T Linux

 Parts of Q-Chem use Armadillo 9.800.1 (Horizon Scraper).
 http://arma.sourceforge.net/

 Q-Chem begins on Tue Jul  7 01:43:58 2020  

Host: centos77-c4
0

     Scratch files written to /tmp/26964.centos77-h1/qchem103558//
Processing $rem in /opt/qchem-5.3.0-intel2020u1//config/preferences:
Processing $rem in /home/shihchengli/.qchemrc:

Checking the input file for inconsistencies... 	...done.

--------------------------------------------------------------
User input:
--------------------------------------------------------------
$rem
   JOBTYPE  sp
   EXCHANGE   omegaB97X-D
   BASIS   6-311+G(2df,2pd)
   UNRESTRICTED   False
   max_scf_cycles   250
   geom_opt_max_cycles   1500
   basis2 6-31G*
   scf_algorithm rca_diis
   SYM_IGNORE  TRUE
   print_input   true
   geom_opt_dmax   80
   pop_mulliken false
   XC_GRID 000075000302
$end

$molecule
0 1
C       1.2673129772     -0.0591234874     0.2566904369
C       -0.0024235911     -0.0010651497     -0.5861956774
H       1.3287441747     -0.9190880932     0.9262278439
H       1.2805592209     0.8349349261     0.8842408485
H       2.1621847104     0.0012976742     -0.3632892296
C       -1.2673215967     0.0592709709     0.2598410351
H       0.1701771321     -0.8599719433     -1.2390699294
H       -0.1631906193     0.8577849541     -1.2421584569
H       -1.2841577028     -0.8411844080     0.8776226655
H       -2.1656521597     0.0032617804     -0.3560233849
H       -1.3262326063     0.9238834420     0.9231588673
$end
--------------------------------------------------------------
 ----------------------------------------------------------------
             Standard Nuclear Orientation (Angstroms)
    I     Atom           X                Y                Z
 ----------------------------------------------------------------
    1      C       1.2673129772    -0.0591234874     0.2566904369
    2      C      -0.0024235911    -0.0010651497    -0.5861956774
    3      H       1.3287441747    -0.9190880932     0.9262278439
    4      H       1.2805592209     0.8349349261     0.8842408485
    5      H       2.1621847104     0.0012976742    -0.3632892296
    6      C      -1.2673215967     0.0592709709     0.2598410351
    7      H       0.1701771321    -0.8599719433    -1.2390699294
    8      H      -0.1631906193     0.8577849541    -1.2421584569
    9      H      -1.2841577028    -0.8411844080     0.8776226655
   10      H      -2.1656521597     0.0032617804    -0.3560233849
   11      H      -1.3262326063     0.9238834420     0.9231588673
 ----------------------------------------------------------------
 Nuclear Repulsion Energy =          82.77127007 hartrees
 There are       13 alpha and       13 beta electrons
 Requested basis set is 6-311+G(2df,2pd)
 There are 72 shells and 214 basis functions

 Total QAlloc Memory Limit   2000 MB
 Mega-Array Size       188 MB
 MEM_STATIC part       192 MB

                       Distance Matrix (Angstroms)
             C (  1)   C (  2)   H (  3)   H (  4)   H (  5)   C (  6)
   C (  2)  1.525142
   H (  3)  1.091601  2.214091
   H (  4)  1.092399  2.122999  1.755187
   H (  5)  1.090331  2.176057  1.790136  1.740272
   C (  6)  2.537400  1.522953  2.853211  2.735549  3.486139
   H (  7)  2.020486  1.092592  2.456479  2.934980  2.340272  2.271155
   H (  8)  2.265747  1.092592  3.175696  2.570313  2.629325  2.027987
   H (  9)  2.739923  2.119294  2.614515  3.063853  3.758579  1.092134
   H ( 10)  3.487773  2.175444  3.834802  3.755837  4.327843  1.090607
   H ( 11)  2.852536  2.210464  3.231943  2.608599  3.830818  1.091337
             H (  7)   H (  8)   H (  9)   H ( 10)
   H (  8)  1.749809
   H (  9)  2.568235  2.938798
   H ( 10)  2.642166  2.350595  1.735513
   H ( 11)  3.177517  2.458787  1.766156  1.785631
 
 A cutoff of  1.0D-09 yielded   2533 shell pairs
 There are     22559 function pairs (     27734 Cartesian)
 Smallest overlap matrix eigenvalue = 9.68E-05

 Scale SEOQF with 1.000000e-01/1.000000e-01/1.000000e-01

 Standard Electronic Orientation quadrupole field applied
 Nucleus-field energy     =     0.0000000006 hartrees
 Requested basis set is 6-31G(d)
 There are 28 shells and 58 basis functions
 A cutoff of  1.0D-09 yielded    402 shell pairs
 There are      1773 function pairs (      1968 Cartesian)
 Smallest overlap matrix eigenvalue = 6.99E-03
 Guess from superposition of atomic densities
 Warning:  Energy on first SCF cycle will be non-variational
 SAD guess density has 26.000000 electrons
 Long-range K will be added via erf
 Coulomb attenuation parameter = 0.2 bohr**(-1)
 A restricted hybrid HF-DFT SCF calculation will be
 performed using Relaxed Constraint Minimization + Pulay DIIS
 Exchange:     0.2220 Hartree-Fock + 1.0000 wB97X-D + LR-HF
 Correlation:  1.0000 wB97X-D
 Using Euler-Maclaurin-Lebedev (75,302) quadrature formula
 Dispersion:   Grimme D
 SCF converges when DIIS error is below 1.0E-04
 using 3 threads for integral computing
 -------------------------------------------------------
 OpenMP Integral computing Module                
 Release: version 1.0, May 2013, Q-Chem Inc. Pittsburgh 
 -------------------------------------------------------
 using 3 threads for integral computing
 -------------------------------------------------------
 OpenMP Integral computing Module                
 Release: version 1.0, May 2013, Q-Chem Inc. Pittsburgh 
 -------------------------------------------------------
 ---------------------------------------
  Cycle       Energy         DIIS Error
 ---------------------------------------
    1    -119.6272489966      1.01E-01
    2    -119.0544018938      9.00E-03
    3    -119.0755363082      2.49E-03
    4    -119.0894030741      1.71E-03
    5    -119.0901192635      2.71E-04 Done RCA. Switching to DIIS
    6    -119.0906443609      2.00E-04
    7    -119.0906618220      4.96E-06 Convergence criterion met
 ---------------------------------------
 SCF time:  CPU 19.46 s  wall 7.14 s
 SCF   energy in the small basis set = -119.09066182
 Total energy in the small basis set = -119.09066182
 ----------------------------------------------------
  Cycle       Energy    
 ----------------------------------------------------
    1     -16.5392011166     -1.65E+01
 Long-range K will be added via erf
 Coulomb attenuation parameter = 0.2 bohr**(-1)
 A restricted hybrid HF-DFT SCF calculation will be
 performed using Relaxed Constraint Minimization + Pulay DIIS
 Exchange:     0.2220 Hartree-Fock + 1.0000 wB97X-D + LR-HF
 Correlation:  1.0000 wB97X-D
 Using Euler-Maclaurin-Lebedev (75,302) quadrature formula
 Dispersion:   Grimme D
 SCF converges when DIIS error is below 1.0E-05
 Basis2 calculation detected. Using small basis as guess for larger.
 SCFMinFind is unable to tell whether the solution found is close.
 Resetting ReadMinima to 0 and attempting to follow guess.
 SCFMinFind following SCF Guess.
 using 3 threads for integral computing
 -------------------------------------------------------
 OpenMP Integral computing Module                
 Release: version 1.0, May 2013, Q-Chem Inc. Pittsburgh 
 -------------------------------------------------------
 using 3 threads for integral computing
 -------------------------------------------------------
 OpenMP Integral computing Module                
 Release: version 1.0, May 2013, Q-Chem Inc. Pittsburgh 
 -------------------------------------------------------
 ---------------------------------------
  Cycle       Energy         DIIS Error
 ---------------------------------------
    1    -119.1100855788      4.21E-03
    2    -119.1321608515      6.04E-04 Done RCA. Switching to DIIS
    3    -119.1330091269      4.25E-04
    4    -119.1340003975      4.59E-05
    5    -119.1340154366      1.05E-05
    6    -119.1340161717      4.03E-06 Convergence criterion met
 ---------------------------------------
 SCF time:  CPU 50.90 s  wall 17.18 s
 SCF   energy in the final basis set = -119.13401617
 Total energy in the final basis set = -119.13401617
 
 --------------------------------------------------------------
 
                    Orbital Energies (a.u.)
 --------------------------------------------------------------
 
 Alpha MOs
 -- Occupied --
-10.2739 -10.2660 -10.2658  -0.8825  -0.7788  -0.6778  -0.5467  -0.5251
 -0.4888  -0.4663  -0.4275  -0.4139  -0.3892
 -- Virtual --
  0.0690   0.0854   0.0908   0.0991   0.1249   0.1286   0.1323   0.1430
  0.1448   0.1703   0.1735   0.1914   0.2317   0.2362   0.2435   0.2528
  0.2821   0.2860   0.3122   0.3164   0.3312   0.3478   0.4584   0.4707
  0.4709   0.5082   0.5159   0.5199   0.5482   0.5590   0.5836   0.5911
  0.6197   0.6206   0.6414   0.6433   0.6483   0.6831   0.7088   0.7170
  0.7256   0.7694   0.8083   0.8413   0.8596   0.8881   0.8987   0.9623
  1.0029   1.0513   1.0553   1.1310   1.1354   1.1544   1.1949   1.2077
  1.2191   1.2396   1.2692   1.2839   1.3076   1.3181   1.3322   1.3773
  1.3824   1.3933   1.4083   1.4407   1.4443   1.4716   1.4762   1.4883
  1.5236   1.5737   1.6052   1.6173   1.6416   1.6459   1.6847   1.7062
  1.7358   2.3845   2.4590   2.4849   2.5001   2.5295   2.5602   2.6024
  2.6511   2.7103   2.7942   2.8224   2.8383   2.8859   2.9224   2.9281
  2.9316   2.9958   2.9970   3.0321   3.0451   3.0653   3.0815   3.0983
  3.1198   3.1226   3.1747   3.1905   3.2414   3.2693   3.2873   3.3107
  3.3191   3.3245   3.3313   3.3498   3.3840   3.4050   3.4063   3.4298
  3.4665   3.4945   3.5357   3.5377   3.5588   3.5772   3.6166   3.6235
  3.6250   3.6597   3.6785   3.6994   3.7509   3.7671   3.8007   3.8670
  3.8857   3.9193   3.9399   3.9471   3.9878   4.0239   4.0253   4.0642
  4.0828   4.1032   4.1194   4.1529   4.1570   4.1709   4.1911   4.2054
  4.2174   4.2538   4.2653   4.3132   4.3653   4.4084   4.4290   4.4442
  4.4555   4.5429   4.6251   4.6425   4.7056   4.8136   4.8183   4.8675
  4.9538   4.9686   4.9692   5.0098   5.0421   5.0584   5.0702   5.0856
  5.1915   5.2226   5.2471   5.2687   5.3069   5.3254   5.3273   5.3342
  5.3828   5.4179   5.4720   5.4939   5.5192   5.5972   5.6395   5.7423
  5.9890   6.3746   6.3814   6.3929   6.4241   6.4743  25.2005  25.4360
 25.4481
 --------------------------------------------------------------
 
 -----------------------------------------------------------------
                    Cartesian Multipole Moments
 -----------------------------------------------------------------
    Charge (ESU x 10^10)
                -0.0000
    Dipole Moment (Debye)
         X      -0.0034      Y       0.0009      Z      -0.0675
       Tot       0.0676
    Quadrupole Moments (Debye-Ang)
        XX     -22.0911     XY      -0.4699     YY     -21.4385
        XZ      -0.0162     YZ      -0.0034     ZZ     -21.9020
    Octopole Moments (Debye-Ang^2)
       XXX      -0.0119    XXY       0.0047    XYY      -0.0335
       YYY       0.0161    XXZ      -1.6347    XYZ      -0.1110
       YYZ       0.6361    XZZ       0.0598    YZZ       0.0139
       ZZZ      -0.2810
    Hexadecapole Moments (Debye-Ang^3)
      XXXX    -202.4546   XXXY       3.4985   XXYY     -42.1652
      XYYY       2.9365   YYYY     -44.3699   XXXZ       0.0023
      XXYZ      -0.0142   XYYZ      -0.0201   YYYZ      -0.0172
      XXZZ     -45.2077   XYZZ      -0.0672   YYZZ     -17.2417
      XZZZ       0.0717   YZZZ      -0.0310   ZZZZ     -72.3653
 -----------------------------------------------------------------
Archival summary:
1\1\centos77-c4\SP\ProcedureUnspecified\BasisUnspecified\38\shihchen\TueJul701:44:252020TueJul701:44:252020\0\\#,ProcedureUnspecified,BasisUnspecified,\\0,1\C\H,1,1.09259\H,1,1.09259,2,106.406\C,1,1.52295,2,119.624,3,112.549,0\H,4,1.09061,1,111.616,2,-57.8727,0\H,4,1.09134,1,114.448,2,176.589,0\H,4,1.09213,1,107.12,2,56.9388,0\C,1,1.52514,2,99.7178,3,-124.232,0\H,8,1.09033,1,111.526,2,57.8585,0\H,8,1.0916,1,114.571,2,-68.27,0\H,8,1.0924,1,107.243,2,173.189,0\\\@

 Total job time:  27.24s(wall), 73.94s(cpu) 
 Tue Jul  7 01:44:25 2020

        *************************************************************
        *                                                           *
        *  Thank you very much for using Q-Chem.  Have a nice day.  *
        *                                                           *
        *************************************************************


