                  Welcome to Q-Chem
     A Quantum Leap Into The Future Of Chemistry


 Q-Chem 5.3 (devel), Q-Chem, Inc., Pleasanton, CA (2020)

 Yihan Shao,  Zhengting Gan,  E. Epifanovsky,  A. T. B. Gilbert,  M. Wormit,  
 J. Kussmann,  A. W. Lange,  A. Behn,  Jia Deng,  Xintian Feng,  D. Ghosh,  
 M. Goldey,  P. R. Horn,  L. D. Jacobson,  I. Kaliman,  T. Kus,  A. Landau,  
 Jie Liu,  E. I. Proynov,  R. M. Richard,  R. P. Steele,  E. J. Sundstrom,  
 H. L. Woodcock III,  P. M. Zimmerman,  D. Zuev,  B. Alam,  B. Albrecht,  
 E. Alguire,  S. A. Baeppler,  D. Barton,  Z. Benda,  Y. A. Bernard,  
 E. J. Berquist,  K. B. Bravaya,  H. Burton,  K. Carter-Fenk,  D. Casanova,  
 Chun-Min Chang,  Yunqing Chen,  A. Chien,  K. D. Closser,  M. P. Coons,  
 S. Coriani,  S. Dasgupta,  A. L. Dempwolff,  M. Diedenhofen,  Hainam Do,  
 R. G. Edgar,  Po-Tung Fang,  S. Faraji,  S. Fatehi,  Qingguo Feng,  
 J. Fosso-Tande,  J. Gayvert,  Qinghui Ge,  A. Ghysels,  G. Gidofalvi,  
 J. Gomes,  J. Gonthier,  A. Gunina,  D. Hait,  M. W. D. Hanson-Heine,  
 P. H. P. Harbach,  A. W. Hauser,  M. F. Herbst,  J. E. Herr,  
 E. G. Hohenstein,  Z. C. Holden,  Kerwin Hui,  B. C. Huynh,  T.-C. Jagau,  
 Hyunjun Ji,  B. Kaduk,  K. Khistyaev,  Jaehoon Kim,  P. Klunzinger,  K. Koh,  
 D. Kosenkov,  L. Koulias,  T. Kowalczyk,  C. M. Krauter,  A. Kunitsa,  
 Ka Un Lao,  A. Laurent,  K. V. Lawler,  Joonho Lee,  D. Lefrancois,  
 S. Lehtola,  D. S. Levine,  Yi-Pei Li,  You-Sheng Lin,  Fenglai Liu,  
 Kuan-Yu Liu,  E. Livshits,  M. Loipersberger,  A. Luenser,  P. Manohar,  
 E. Mansoor,  S. F. Manzer,  Shan-Ping Mao,  Yuezhi Mao,  N. Mardirossian,  
 A. V. Marenich,  T. Markovich,  L. A. Martinez-Martinez,  S. A. Maurer,  
 N. J. Mayhall,  S. C. McKenzie,  J.-M. Mewes,  P. Morgante,  A. F. Morrison,  
 J. W. Mullinax,  K. Nanda,  T. S. Nguyen-Beck,  R. Olivares-Amaya,  
 K. J. Oosterbaan,  J. A. Parkhill,  S. K. Paul,  F. Pavosevic,  Zheng Pei,  
 T. M. Perrine,  F. Plasser,  P. Pokhilko,  S. Prager,  A. Prociuk,  
 E. Ramos,  B. Rana,  D. R. Rehn,  F. Rob,  M. Scheurer,  M. Schneider,  
 N. Sergueev,  S. M. Sharada,  S. Sharma,  D. W. Small,  T. Stauch,  
 C. J. Stein,  T. Stein,  Yu-Chuan Su,  S. P. Veccham,  Zhen Tao,  
 A. J. W. Thom,  A. Tkatchenko,  T. Tsuchimochi,  N. M. Tubman,  L. Vogt,  
 M. L. Vidal,  O. Vydrov,  M. A. Watson,  J. Wenzel,  M. de Wergifosse,  
 T. A. Wesolowski,  A. White,  J. Witte,  A. Yamada,  Jun Yang,  K. Yao,  
 S. Yeganeh,  S. R. Yost,  Zhi-Qiang You,  A. Zech,  Igor Ying Zhang,  
 Xing Zhang,  Yan Zhao,  Ying Zhu,  B. R. Brooks,  G. K. L. Chan,  
 C. J. Cramer,  M. S. Gordon,  W. J. Hehre,  A. Klamt,  M. W. Schmidt,  
 C. D. Sherrill,  D. G. Truhlar,  A. Aspuru-Guzik,  R. Baer,  A. T. Bell,  
 N. A. Besley,  Jeng-Da Chai,  A. E. DePrince, III,  R. A. DiStasio Jr.,  
 A. Dreuw,  B. D. Dunietz,  T. R. Furlani,  Chao-Ping Hsu,  Yousung Jung,  
 Jing Kong,  D. S. Lambrecht,  WanZhen Liang,  C. Ochsenfeld,  
 V. A. Rassolov,  L. V. Slipchenko,  J. E. Subotnik,  T. Van Voorhis,  
 J. M. Herbert,  A. I. Krylov,  P. M. W. Gill,  M. Head-Gordon

 Contributors to earlier versions of Q-Chem not listed above: 
 R. D. Adamson,  B. Austin,  J. Baker,  G. J. O. Beran,  K. Brandhorst,  
 S. T. Brown,  E. F. C. Byrd,  A. K. Chakraborty,  C.-L. Cheng,  
 Siu Hung Chien,  D. M. Chipman,  D. L. Crittenden,  H. Dachsel,  
 R. J. Doerksen,  A. D. Dutoi,  L. Fusti-Molnar,  W. A. Goddard III,  
 A. Golubeva-Zadorozhnaya,  S. R. Gwaltney,  G. Hawkins,  A. Heyden,  
 S. Hirata,  G. Kedziora,  F. J. Keil,  C. Kelley,  Jihan Kim,  R. A. King,  
 R. Z. Khaliullin,  P. P. Korambath,  W. Kurlancheek,  A. M. Lee,  M. S. Lee,  
 S. V. Levchenko,  Ching Yeh Lin,  D. Liotard,  R. C. Lochan,  I. Lotan,  
 P. E. Maslen,  N. Nair,  D. P. O'Neill,  D. Neuhauser,  E. Neuscamman,  
 C. M. Oana,  R. Olson,  B. Peters,  R. Peverati,  P. A. Pieniazek,  
 Y. M. Rhee,  J. Ritchie,  M. A. Rohrdanz,  E. Rosta,  N. J. Russ,  
 H. F. Schaefer III,  N. E. Schultz,  N. Shenvi,  A. C. Simmonett,  A. Sodt,  
 D. Stuck,  K. S. Thanthiriwatte,  V. Vanovschi,  Tao Wang,  A. Warshel,  
 C. F. Williams,  Q. Wu,  X. Xu,  W. Zhang

 Please cite Q-Chem as follows:
 Y. Shao et al., Mol. Phys. 113, 184-215 (2015)
 DOI: 10.1080/00268976.2014.952696

 Q-Chem 5.3.0 for Intel X86 EM64T Linux

 Parts of Q-Chem use Armadillo 9.800.1 (Horizon Scraper).
 http://arma.sourceforge.net/

 Q-Chem begins on Tue Jul  7 01:53:22 2020  

Host: centos77-c4
0

     Scratch files written to /tmp/26964.centos77-h1/qchem105456//
Processing $rem in /opt/qchem-5.3.0-intel2020u1//config/preferences:
Processing $rem in /home/shihchengli/.qchemrc:

Checking the input file for inconsistencies... 	...done.

--------------------------------------------------------------
User input:
--------------------------------------------------------------
$rem
   JOBTYPE  sp
   EXCHANGE   omegaB97X-D
   BASIS   6-311+G(2df,2pd)
   UNRESTRICTED   False
   max_scf_cycles   250
   geom_opt_max_cycles   1500
   basis2 6-31G*
   scf_algorithm rca_diis
   SYM_IGNORE  TRUE
   print_input   true
   geom_opt_dmax   80
   pop_mulliken false
   XC_GRID 000075000302
$end

$molecule
0 1
C       1.3490663752     -0.0054851266     0.2813795235
C       0.0084709678     0.0032507617     -0.5820314170
H       1.1969937444     -0.9349413029     0.8265324321
H       1.1743922451     0.8927273439     0.8698888355
H       2.1274292802     0.0103322028     -0.4758168707
C       -1.1825240579     0.0042206017     0.2511403811
H       0.1360462393     -0.8674056677     -1.2296722291
H       0.1490766471     0.8775704677     -1.2219937360
H       -1.3755388258     -0.8092803882     0.9590473724
H       -2.1619455109     -0.0252832789     -0.2374309588
H       -1.4214671653     0.8542950525     0.9000016859
$end
--------------------------------------------------------------
 ----------------------------------------------------------------
             Standard Nuclear Orientation (Angstroms)
    I     Atom           X                Y                Z
 ----------------------------------------------------------------
    1      C       1.3490663752    -0.0054851266     0.2813795235
    2      C       0.0084709678     0.0032507617    -0.5820314170
    3      H       1.1969937444    -0.9349413029     0.8265324321
    4      H       1.1743922451     0.8927273439     0.8698888355
    5      H       2.1274292802     0.0103322028    -0.4758168707
    6      C      -1.1825240579     0.0042206017     0.2511403811
    7      H       0.1360462393    -0.8674056677    -1.2296722291
    8      H       0.1490766471     0.8775704677    -1.2219937360
    9      H      -1.3755388258    -0.8092803882     0.9590473724
   10      H      -2.1619455109    -0.0252832789    -0.2374309588
   11      H      -1.4214671653     0.8542950525     0.9000016859
 ----------------------------------------------------------------
 Nuclear Repulsion Energy =          83.03564844 hartrees
 There are       13 alpha and       13 beta electrons
 Requested basis set is 6-311+G(2df,2pd)
 There are 72 shells and 214 basis functions

 Total QAlloc Memory Limit   2000 MB
 Mega-Array Size       188 MB
 MEM_STATIC part       192 MB

                       Distance Matrix (Angstroms)
             C (  1)   C (  2)   H (  3)   H (  4)   H (  5)   C (  6)
   C (  2)  1.594601
   H (  3)  1.088213  2.068053
   H (  4)  1.087952  2.063641  1.828323
   H (  5)  1.086023  2.121631  1.858861  1.870247
   C (  6)  2.531790  1.453494  2.622061  2.593713  3.388849
   H (  7)  2.120755  1.092592  2.314767  2.929913  2.303113  2.165910
   H (  8)  2.116576  1.092592  2.929128  2.329694  2.285336  2.169337
   H (  9)  2.920410  2.224997  2.579007  3.067072  3.873162  1.095523
   H ( 10)  3.549192  2.197788  3.638952  3.633187  4.296142  1.094915
   H ( 11)  2.966104  2.228323  3.172239  2.596319  3.898694  1.095783
             H (  7)   H (  8)   H (  9)   H ( 10)
   H (  8)  1.745042
   H (  9)  2.660594  3.150692
   H ( 10)  2.640924  2.669332  1.632375
   H ( 11)  3.150494  2.640078  1.665256  1.617319
 
 A cutoff of  1.0D-09 yielded   2537 shell pairs
 There are     22593 function pairs (     27785 Cartesian)
 Smallest overlap matrix eigenvalue = 8.05E-05

 Scale SEOQF with 1.000000e-01/1.000000e-01/1.000000e-01

 Standard Electronic Orientation quadrupole field applied
 Nucleus-field energy     =     0.0000000006 hartrees
 Requested basis set is 6-31G(d)
 There are 28 shells and 58 basis functions
 A cutoff of  1.0D-09 yielded    402 shell pairs
 There are      1773 function pairs (      1968 Cartesian)
 Smallest overlap matrix eigenvalue = 6.73E-03
 Guess from superposition of atomic densities
 Warning:  Energy on first SCF cycle will be non-variational
 SAD guess density has 26.000000 electrons
 Long-range K will be added via erf
 Coulomb attenuation parameter = 0.2 bohr**(-1)
 A restricted hybrid HF-DFT SCF calculation will be
 performed using Relaxed Constraint Minimization + Pulay DIIS
 Exchange:     0.2220 Hartree-Fock + 1.0000 wB97X-D + LR-HF
 Correlation:  1.0000 wB97X-D
 Using Euler-Maclaurin-Lebedev (75,302) quadrature formula
 Dispersion:   Grimme D
 SCF converges when DIIS error is below 1.0E-04
 using 3 threads for integral computing
 -------------------------------------------------------
 OpenMP Integral computing Module                
 Release: version 1.0, May 2013, Q-Chem Inc. Pittsburgh 
 -------------------------------------------------------
 using 3 threads for integral computing
 -------------------------------------------------------
 OpenMP Integral computing Module                
 Release: version 1.0, May 2013, Q-Chem Inc. Pittsburgh 
 -------------------------------------------------------
 ---------------------------------------
  Cycle       Energy         DIIS Error
 ---------------------------------------
    1    -119.6561069921      1.02E-01
    2    -119.0339417319      9.18E-03
    3    -119.0558199187      2.50E-03
    4    -119.0704460138      1.73E-03
    5    -119.0711744475      2.57E-04 Done RCA. Switching to DIIS
    6    -119.0717295456      1.98E-04
    7    -119.0717465011      5.66E-06 Convergence criterion met
 ---------------------------------------
 SCF time:  CPU 19.62 s  wall 7.17 s
 SCF   energy in the small basis set = -119.07174650
 Total energy in the small basis set = -119.07174650
 ----------------------------------------------------
  Cycle       Energy    
 ----------------------------------------------------
    1     -16.5421628058     -1.65E+01
 Long-range K will be added via erf
 Coulomb attenuation parameter = 0.2 bohr**(-1)
 A restricted hybrid HF-DFT SCF calculation will be
 performed using Relaxed Constraint Minimization + Pulay DIIS
 Exchange:     0.2220 Hartree-Fock + 1.0000 wB97X-D + LR-HF
 Correlation:  1.0000 wB97X-D
 Using Euler-Maclaurin-Lebedev (75,302) quadrature formula
 Dispersion:   Grimme D
 SCF converges when DIIS error is below 1.0E-05
 Basis2 calculation detected. Using small basis as guess for larger.
 SCFMinFind is unable to tell whether the solution found is close.
 Resetting ReadMinima to 0 and attempting to follow guess.
 SCFMinFind following SCF Guess.
 using 3 threads for integral computing
 -------------------------------------------------------
 OpenMP Integral computing Module                
 Release: version 1.0, May 2013, Q-Chem Inc. Pittsburgh 
 -------------------------------------------------------
 using 3 threads for integral computing
 -------------------------------------------------------
 OpenMP Integral computing Module                
 Release: version 1.0, May 2013, Q-Chem Inc. Pittsburgh 
 -------------------------------------------------------
 ---------------------------------------
  Cycle       Energy         DIIS Error
 ---------------------------------------
    1    -119.0925139169      4.21E-03
    2    -119.1144926802      6.21E-04 Done RCA. Switching to DIIS
    3    -119.1153515645      4.43E-04
    4    -119.1164256001      5.00E-05
    5    -119.1164422880      1.54E-05
    6    -119.1164437157      5.19E-06 Convergence criterion met
 ---------------------------------------
 SCF time:  CPU 52.96 s  wall 17.99 s
 SCF   energy in the final basis set = -119.11644372
 Total energy in the final basis set = -119.11644372
 
 --------------------------------------------------------------
 
                    Orbital Energies (a.u.)
 --------------------------------------------------------------
 
 Alpha MOs
 -- Occupied --
-10.2750 -10.2673 -10.2649  -0.8867  -0.7817  -0.6789  -0.5499  -0.5402
 -0.4724  -0.4630  -0.4500  -0.4051  -0.3781
 -- Virtual --
  0.0675   0.0826   0.0935   0.0981   0.1238   0.1308   0.1322   0.1391
  0.1433   0.1697   0.1718   0.1931   0.2246   0.2334   0.2389   0.2632
  0.2755   0.2876   0.3014   0.3090   0.3328   0.3654   0.4618   0.4652
  0.4676   0.5090   0.5151   0.5213   0.5439   0.5658   0.5714   0.6069
  0.6089   0.6243   0.6389   0.6557   0.6581   0.6665   0.7108   0.7186
  0.7270   0.7664   0.7771   0.8426   0.8592   0.9110   0.9197   0.9570
  1.0089   1.0347   1.0524   1.0871   1.1399   1.1870   1.2066   1.2168
  1.2384   1.2492   1.2715   1.2773   1.2991   1.3261   1.3565   1.3796
  1.3853   1.3868   1.4046   1.4325   1.4520   1.4712   1.4792   1.4844
  1.5133   1.5459   1.5477   1.5949   1.6136   1.6534   1.6888   1.7579
  1.7676   2.3934   2.4339   2.5124   2.5539   2.5653   2.5751   2.5935
  2.6805   2.7082   2.7902   2.8036   2.8364   2.9052   2.9118   2.9178
  2.9242   2.9521   2.9782   2.9790   2.9955   3.0113   3.0835   3.1188
  3.1306   3.1670   3.1712   3.2041   3.2072   3.2795   3.2810   3.3059
  3.3174   3.3235   3.3436   3.3684   3.3776   3.4079   3.4332   3.4529
  3.4705   3.4924   3.5185   3.5397   3.5436   3.5564   3.5729   3.5772
  3.6007   3.6191   3.6374   3.6730   3.7727   3.7832   3.8255   3.8595
  3.8800   3.9099   3.9468   3.9680   3.9778   4.0148   4.0262   4.0665
  4.0709   4.1287   4.1470   4.1558   4.1679   4.1785   4.2283   4.2392
  4.2544   4.2926   4.3398   4.3730   4.3791   4.4221   4.4265   4.4680
  4.4980   4.5341   4.5684   4.6572   4.6681   4.7113   4.8171   4.8537
  4.9023   4.9283   4.9694   4.9845   5.0095   5.0272   5.0712   5.0830
  5.1221   5.1356   5.1791   5.2216   5.2904   5.3285   5.3657   5.4416
  5.4945   5.5655   5.5778   5.6176   5.6777   5.7310   5.7511   5.8978
  6.0268   6.3257   6.3359   6.4400   6.4504   6.4701  25.2000  25.4234
 25.4678
 --------------------------------------------------------------
 
 -----------------------------------------------------------------
                    Cartesian Multipole Moments
 -----------------------------------------------------------------
    Charge (ESU x 10^10)
                 0.0000
    Dipole Moment (Debye)
         X      -0.2298      Y       0.0027      Z      -0.1421
       Tot       0.2703
    Quadrupole Moments (Debye-Ang)
        XX     -22.2732     XY      -0.0283     YY     -21.4306
        XZ      -1.5041     YZ       0.0002     ZZ     -22.0752
    Octopole Moments (Debye-Ang^2)
       XXX      -6.0092    XXY       0.0633    XYY      -0.5624
       YYY      -0.0458    XXZ      -1.7146    XYZ      -0.0195
       YYZ       0.2639    XZZ      -0.8802    YZZ      -0.0177
       ZZZ      -0.9230
    Hexadecapole Moments (Debye-Ang^3)
      XXXX    -203.1978   XXXY       0.2555   XXYY     -42.4271
      XYYY       0.2284   YYYY     -44.1038   XXXZ      -5.0711
      XXYZ       0.0440   XYYZ      -0.0493   YYYZ       0.0414
      XXZZ     -45.1783   XYZZ       0.2310   YYZZ     -17.3498
      XZZZ      -0.6241   YZZZ       0.0473   ZZZZ     -72.6377
 -----------------------------------------------------------------
Archival summary:
1\1\centos77-c4\SP\ProcedureUnspecified\BasisUnspecified\38\shihchen\TueJul701:53:502020TueJul701:53:502020\0\\#,ProcedureUnspecified,BasisUnspecified,\\0,1\C\H,1,1.09259\H,1,1.09259,2,105.989\C,1,1.45349,2,116.146,3,-130.233,0\H,4,1.09491,1,118.501,2,64.8749,0\H,4,1.09552,1,120.949,2,-176.928,0\H,4,1.09578,1,121.24,2,-51.8194,0\C,1,1.5946,2,102.318,3,107.166,0\H,8,1.08602,1,103,2,-53.946,0\H,8,1.08795,1,98.8235,2,68.3684,0\H,8,1.08821,1,99.1166,2,-175.086,0\\\@

 Total job time:  28.13s(wall), 76.30s(cpu) 
 Tue Jul  7 01:53:50 2020

        *************************************************************
        *                                                           *
        *  Thank you very much for using Q-Chem.  Have a nice day.  *
        *                                                           *
        *************************************************************


