                  Welcome to Q-Chem
     A Quantum Leap Into The Future Of Chemistry


 Q-Chem 5.3 (devel), Q-Chem, Inc., Pleasanton, CA (2020)

 Yihan Shao,  Zhengting Gan,  E. Epifanovsky,  A. T. B. Gilbert,  M. Wormit,  
 J. Kussmann,  A. W. Lange,  A. Behn,  Jia Deng,  Xintian Feng,  D. Ghosh,  
 M. Goldey,  P. R. Horn,  L. D. Jacobson,  I. Kaliman,  T. Kus,  A. Landau,  
 Jie Liu,  E. I. Proynov,  R. M. Richard,  R. P. Steele,  E. J. Sundstrom,  
 H. L. Woodcock III,  P. M. Zimmerman,  D. Zuev,  B. Alam,  B. Albrecht,  
 E. Alguire,  S. A. Baeppler,  D. Barton,  Z. Benda,  Y. A. Bernard,  
 E. J. Berquist,  K. B. Bravaya,  H. Burton,  K. Carter-Fenk,  D. Casanova,  
 Chun-Min Chang,  Yunqing Chen,  A. Chien,  K. D. Closser,  M. P. Coons,  
 S. Coriani,  S. Dasgupta,  A. L. Dempwolff,  M. Diedenhofen,  Hainam Do,  
 R. G. Edgar,  Po-Tung Fang,  S. Faraji,  S. Fatehi,  Qingguo Feng,  
 J. Fosso-Tande,  J. Gayvert,  Qinghui Ge,  A. Ghysels,  G. Gidofalvi,  
 J. Gomes,  J. Gonthier,  A. Gunina,  D. Hait,  M. W. D. Hanson-Heine,  
 P. H. P. Harbach,  A. W. Hauser,  M. F. Herbst,  J. E. Herr,  
 E. G. Hohenstein,  Z. C. Holden,  Kerwin Hui,  B. C. Huynh,  T.-C. Jagau,  
 Hyunjun Ji,  B. Kaduk,  K. Khistyaev,  Jaehoon Kim,  P. Klunzinger,  K. Koh,  
 D. Kosenkov,  L. Koulias,  T. Kowalczyk,  C. M. Krauter,  A. Kunitsa,  
 Ka Un Lao,  A. Laurent,  K. V. Lawler,  Joonho Lee,  D. Lefrancois,  
 S. Lehtola,  D. S. Levine,  Yi-Pei Li,  You-Sheng Lin,  Fenglai Liu,  
 Kuan-Yu Liu,  E. Livshits,  M. Loipersberger,  A. Luenser,  P. Manohar,  
 E. Mansoor,  S. F. Manzer,  Shan-Ping Mao,  Yuezhi Mao,  N. Mardirossian,  
 A. V. Marenich,  T. Markovich,  L. A. Martinez-Martinez,  S. A. Maurer,  
 N. J. Mayhall,  S. C. McKenzie,  J.-M. Mewes,  P. Morgante,  A. F. Morrison,  
 J. W. Mullinax,  K. Nanda,  T. S. Nguyen-Beck,  R. Olivares-Amaya,  
 K. J. Oosterbaan,  J. A. Parkhill,  S. K. Paul,  F. Pavosevic,  Zheng Pei,  
 T. M. Perrine,  F. Plasser,  P. Pokhilko,  S. Prager,  A. Prociuk,  
 E. Ramos,  B. Rana,  D. R. Rehn,  F. Rob,  M. Scheurer,  M. Schneider,  
 N. Sergueev,  S. M. Sharada,  S. Sharma,  D. W. Small,  T. Stauch,  
 C. J. Stein,  T. Stein,  Yu-Chuan Su,  S. P. Veccham,  Zhen Tao,  
 A. J. W. Thom,  A. Tkatchenko,  T. Tsuchimochi,  N. M. Tubman,  L. Vogt,  
 M. L. Vidal,  O. Vydrov,  M. A. Watson,  J. Wenzel,  M. de Wergifosse,  
 T. A. Wesolowski,  A. White,  J. Witte,  A. Yamada,  Jun Yang,  K. Yao,  
 S. Yeganeh,  S. R. Yost,  Zhi-Qiang You,  A. Zech,  Igor Ying Zhang,  
 Xing Zhang,  Yan Zhao,  Ying Zhu,  B. R. Brooks,  G. K. L. Chan,  
 C. J. Cramer,  M. S. Gordon,  W. J. Hehre,  A. Klamt,  M. W. Schmidt,  
 C. D. Sherrill,  D. G. Truhlar,  A. Aspuru-Guzik,  R. Baer,  A. T. Bell,  
 N. A. Besley,  Jeng-Da Chai,  A. E. DePrince, III,  R. A. DiStasio Jr.,  
 A. Dreuw,  B. D. Dunietz,  T. R. Furlani,  Chao-Ping Hsu,  Yousung Jung,  
 Jing Kong,  D. S. Lambrecht,  WanZhen Liang,  C. Ochsenfeld,  
 V. A. Rassolov,  L. V. Slipchenko,  J. E. Subotnik,  T. Van Voorhis,  
 J. M. Herbert,  A. I. Krylov,  P. M. W. Gill,  M. Head-Gordon

 Contributors to earlier versions of Q-Chem not listed above: 
 R. D. Adamson,  B. Austin,  J. Baker,  G. J. O. Beran,  K. Brandhorst,  
 S. T. Brown,  E. F. C. Byrd,  A. K. Chakraborty,  C.-L. Cheng,  
 Siu Hung Chien,  D. M. Chipman,  D. L. Crittenden,  H. Dachsel,  
 R. J. Doerksen,  A. D. Dutoi,  L. Fusti-Molnar,  W. A. Goddard III,  
 A. Golubeva-Zadorozhnaya,  S. R. Gwaltney,  G. Hawkins,  A. Heyden,  
 S. Hirata,  G. Kedziora,  F. J. Keil,  C. Kelley,  Jihan Kim,  R. A. King,  
 R. Z. Khaliullin,  P. P. Korambath,  W. Kurlancheek,  A. M. Lee,  M. S. Lee,  
 S. V. Levchenko,  Ching Yeh Lin,  D. Liotard,  R. C. Lochan,  I. Lotan,  
 P. E. Maslen,  N. Nair,  D. P. O'Neill,  D. Neuhauser,  E. Neuscamman,  
 C. M. Oana,  R. Olson,  B. Peters,  R. Peverati,  P. A. Pieniazek,  
 Y. M. Rhee,  J. Ritchie,  M. A. Rohrdanz,  E. Rosta,  N. J. Russ,  
 H. F. Schaefer III,  N. E. Schultz,  N. Shenvi,  A. C. Simmonett,  A. Sodt,  
 D. Stuck,  K. S. Thanthiriwatte,  V. Vanovschi,  Tao Wang,  A. Warshel,  
 C. F. Williams,  Q. Wu,  X. Xu,  W. Zhang

 Please cite Q-Chem as follows:
 Y. Shao et al., Mol. Phys. 113, 184-215 (2015)
 DOI: 10.1080/00268976.2014.952696

 Q-Chem 5.3.0 for Intel X86 EM64T Linux

 Parts of Q-Chem use Armadillo 9.800.1 (Horizon Scraper).
 http://arma.sourceforge.net/

 Q-Chem begins on Tue Jul  7 01:41:39 2020  

Host: centos77-c4
0

     Scratch files written to /tmp/26964.centos77-h1/qchem103171//
Processing $rem in /opt/qchem-5.3.0-intel2020u1//config/preferences:
Processing $rem in /home/shihchengli/.qchemrc:

Checking the input file for inconsistencies... 	...done.

--------------------------------------------------------------
User input:
--------------------------------------------------------------
$rem
   JOBTYPE  sp
   EXCHANGE   omegaB97X-D
   BASIS   6-311+G(2df,2pd)
   UNRESTRICTED   False
   max_scf_cycles   250
   geom_opt_max_cycles   1500
   basis2 6-31G*
   scf_algorithm rca_diis
   SYM_IGNORE  TRUE
   print_input   true
   geom_opt_dmax   80
   pop_mulliken false
   XC_GRID 000075000302
$end

$molecule
0 1
C       1.2671129874     -0.0419589071     0.2309940574
C       0.0000000818     0.0330241669     -0.5858037417
H       1.4452626987     -0.9257284016     0.8417937260
H       1.0469821013     0.7954887494     0.9010088343
H       2.1812960257     0.2597900064     -0.2803711644
C       -1.2671128873     -0.0419590586     0.2309939750
H       0.0000006848     -0.9562759142     -1.0499417247
H       -0.0000007652     0.7480680062     -1.4100606385
H       -1.4452625796     -0.9257285389     0.8417936406
H       -2.1812956378     0.2597916519     -0.2803707266
H       -1.0469827704     0.7954889055     0.9010087815
$end
--------------------------------------------------------------
 ----------------------------------------------------------------
             Standard Nuclear Orientation (Angstroms)
    I     Atom           X                Y                Z
 ----------------------------------------------------------------
    1      C       1.2671129874    -0.0419589071     0.2309940574
    2      C       0.0000000818     0.0330241669    -0.5858037417
    3      H       1.4452626987    -0.9257284016     0.8417937260
    4      H       1.0469821013     0.7954887494     0.9010088343
    5      H       2.1812960257     0.2597900064    -0.2803711644
    6      C      -1.2671128873    -0.0419590586     0.2309939750
    7      H       0.0000006848    -0.9562759142    -1.0499417247
    8      H      -0.0000007652     0.7480680062    -1.4100606385
    9      H      -1.4452625796    -0.9257285389     0.8417936406
   10      H      -2.1812956378     0.2597916519    -0.2803707266
   11      H      -1.0469827704     0.7954889055     0.9010087815
 ----------------------------------------------------------------
 Nuclear Repulsion Energy =          83.41228264 hartrees
 There are       13 alpha and       13 beta electrons
 Requested basis set is 6-311+G(2df,2pd)
 There are 72 shells and 214 basis functions

 Total QAlloc Memory Limit   2000 MB
 Mega-Array Size       188 MB
 MEM_STATIC part       192 MB

                       Distance Matrix (Angstroms)
             C (  1)   C (  2)   H (  3)   H (  4)   H (  5)   C (  6)
   C (  2)  1.509422
   H (  3)  1.088973  2.246336
   H (  4)  1.094850  1.971835  1.767688
   H (  5)  1.090081  2.214219  1.790657  1.723166
   C (  6)  2.534226  1.509422  2.917380  2.550544  3.499153
   H (  7)  2.020482  1.092767  2.380836  2.823306  2.613256  2.020482
   H (  8)  2.218734  1.091186  3.156141  2.537610  2.504530  2.218733
   H (  9)  2.917380  2.246336  2.890525  3.029419  3.977013  1.088973
   H ( 10)  3.499153  2.214219  3.977013  3.479139  4.362592  1.090081
   H ( 11)  2.550545  1.971836  3.029420  2.093965  3.479140  1.094850
             H (  7)   H (  8)   H (  9)   H ( 10)
   H (  8)  1.741974
   H (  9)  2.380836  3.156141
   H ( 10)  2.613257  2.504528  1.790658
   H ( 11)  2.823307  2.537609  1.767689  1.723164
 
 A cutoff of  1.0D-09 yielded   2542 shell pairs
 There are     22642 function pairs (     27845 Cartesian)
 Smallest overlap matrix eigenvalue = 9.19E-05

 Scale SEOQF with 1.000000e-01/1.000000e-01/1.000000e-01

 Standard Electronic Orientation quadrupole field applied
 Nucleus-field energy     =     0.0000000006 hartrees
 Requested basis set is 6-31G(d)
 There are 28 shells and 58 basis functions
 A cutoff of  1.0D-09 yielded    402 shell pairs
 There are      1773 function pairs (      1968 Cartesian)
 Smallest overlap matrix eigenvalue = 6.38E-03
 Guess from superposition of atomic densities
 Warning:  Energy on first SCF cycle will be non-variational
 SAD guess density has 26.000000 electrons
 Long-range K will be added via erf
 Coulomb attenuation parameter = 0.2 bohr**(-1)
 A restricted hybrid HF-DFT SCF calculation will be
 performed using Relaxed Constraint Minimization + Pulay DIIS
 Exchange:     0.2220 Hartree-Fock + 1.0000 wB97X-D + LR-HF
 Correlation:  1.0000 wB97X-D
 Using Euler-Maclaurin-Lebedev (75,302) quadrature formula
 Dispersion:   Grimme D
 SCF converges when DIIS error is below 1.0E-04
 using 3 threads for integral computing
 -------------------------------------------------------
 OpenMP Integral computing Module                
 Release: version 1.0, May 2013, Q-Chem Inc. Pittsburgh 
 -------------------------------------------------------
 using 3 threads for integral computing
 -------------------------------------------------------
 OpenMP Integral computing Module                
 Release: version 1.0, May 2013, Q-Chem Inc. Pittsburgh 
 -------------------------------------------------------
 ---------------------------------------
  Cycle       Energy         DIIS Error
 ---------------------------------------
    1    -119.6919554904      1.03E-01
    2    -119.0373151028      9.12E-03
    3    -119.0589664707      2.53E-03
    4    -119.0731342572      1.75E-03
    5    -119.0738812878      2.75E-04 Done RCA. Switching to DIIS
    6    -119.0744304805      2.06E-04
    7    -119.0744487687      5.24E-06 Convergence criterion met
 ---------------------------------------
 SCF time:  CPU 21.04 s  wall 7.85 s
 SCF   energy in the small basis set = -119.07444877
 Total energy in the small basis set = -119.07444877
 ----------------------------------------------------
  Cycle       Energy    
 ----------------------------------------------------
    1     -16.5532268175     -1.66E+01
 Long-range K will be added via erf
 Coulomb attenuation parameter = 0.2 bohr**(-1)
 A restricted hybrid HF-DFT SCF calculation will be
 performed using Relaxed Constraint Minimization + Pulay DIIS
 Exchange:     0.2220 Hartree-Fock + 1.0000 wB97X-D + LR-HF
 Correlation:  1.0000 wB97X-D
 Using Euler-Maclaurin-Lebedev (75,302) quadrature formula
 Dispersion:   Grimme D
 SCF converges when DIIS error is below 1.0E-05
 Basis2 calculation detected. Using small basis as guess for larger.
 SCFMinFind is unable to tell whether the solution found is close.
 Resetting ReadMinima to 0 and attempting to follow guess.
 SCFMinFind following SCF Guess.
 using 3 threads for integral computing
 -------------------------------------------------------
 OpenMP Integral computing Module                
 Release: version 1.0, May 2013, Q-Chem Inc. Pittsburgh 
 -------------------------------------------------------
 using 3 threads for integral computing
 -------------------------------------------------------
 OpenMP Integral computing Module                
 Release: version 1.0, May 2013, Q-Chem Inc. Pittsburgh 
 -------------------------------------------------------
 ---------------------------------------
  Cycle       Energy         DIIS Error
 ---------------------------------------
    1    -119.0946552292      4.21E-03
    2    -119.1167707710      6.15E-04 Done RCA. Switching to DIIS
    3    -119.1176363263      4.36E-04
    4    -119.1186774339      4.64E-05
    5    -119.1186929054      1.16E-05
    6    -119.1186937827      4.39E-06 Convergence criterion met
 ---------------------------------------
 SCF time:  CPU 49.25 s  wall 16.44 s
 SCF   energy in the final basis set = -119.11869378
 Total energy in the final basis set = -119.11869378
 
 --------------------------------------------------------------
 
                    Orbital Energies (a.u.)
 --------------------------------------------------------------
 
 Alpha MOs
 -- Occupied --
-10.2729 -10.2658 -10.2658  -0.8909  -0.7798  -0.6777  -0.5531  -0.5355
 -0.4890  -0.4479  -0.4343  -0.4312  -0.3712
 -- Virtual --
  0.0704   0.0859   0.0910   0.0970   0.1237   0.1289   0.1341   0.1358
  0.1452   0.1721   0.1727   0.1921   0.2071   0.2323   0.2437   0.2689
  0.2900   0.2913   0.3204   0.3236   0.3242   0.3544   0.4493   0.4661
  0.4816   0.4954   0.5012   0.5119   0.5596   0.5608   0.5909   0.5911
  0.6097   0.6326   0.6359   0.6447   0.6612   0.6707   0.7055   0.7160
  0.7289   0.7557   0.8356   0.8432   0.8840   0.8966   0.9364   0.9513
  1.0030   1.0145   1.0561   1.1188   1.1494   1.1875   1.1903   1.1975
  1.2310   1.2448   1.2783   1.3004   1.3021   1.3340   1.3560   1.3766
  1.3863   1.4016   1.4280   1.4403   1.4556   1.4648   1.4867   1.4932
  1.5207   1.5462   1.5663   1.6254   1.6391   1.6528   1.6550   1.7444
  1.7719   2.3943   2.4065   2.4729   2.5233   2.5254   2.5675   2.6034
  2.6321   2.7307   2.7712   2.7889   2.8394   2.9013   2.9112   2.9283
  2.9584   2.9971   3.0098   3.0230   3.0652   3.0899   3.0912   3.1440
  3.1505   3.1617   3.1657   3.2012   3.2021   3.2388   3.2994   3.3026
  3.3223   3.3282   3.3670   3.3678   3.3942   3.4239   3.4284   3.4641
  3.4713   3.4931   3.4931   3.4992   3.5558   3.5630   3.5870   3.6014
  3.6293   3.6839   3.6916   3.6997   3.7430   3.7876   3.8414   3.8696
  3.8934   3.9235   3.9338   3.9450   3.9748   4.0278   4.0513   4.0734
  4.1223   4.1346   4.1628   4.1755   4.1797   4.2001   4.2157   4.2523
  4.2694   4.3021   4.3097   4.3531   4.3981   4.4045   4.4215   4.4767
  4.4824   4.5559   4.5722   4.6356   4.7056   4.7834   4.8366   4.8655
  4.8778   4.9559   4.9815   5.0121   5.0192   5.0879   5.0905   5.1544
  5.1583   5.2151   5.2410   5.2564   5.2870   5.2991   5.3788   5.3801
  5.4336   5.4344   5.4944   5.5346   5.5866   5.6404   5.6442   5.7826
  6.0151   6.3708   6.3802   6.4075   6.4276   6.5114  25.1882  25.4398
 25.4609
 --------------------------------------------------------------
 
 -----------------------------------------------------------------
                    Cartesian Multipole Moments
 -----------------------------------------------------------------
    Charge (ESU x 10^10)
                 0.0000
    Dipole Moment (Debye)
         X      -0.0000      Y      -0.0084      Z      -0.0976
       Tot       0.0979
    Quadrupole Moments (Debye-Ang)
        XX     -21.7995     XY      -0.0000     YY     -21.3882
        XZ      -0.0000     YZ      -1.0036     ZZ     -22.3303
    Octopole Moments (Debye-Ang^2)
       XXX       0.0000    XXY      -0.0097    XYY      -0.0000
       YYY      -0.1786    XXZ      -1.1154    XYZ       0.0000
       YYZ       0.6660    XZZ      -0.0000    YZZ       0.4808
       ZZZ      -0.2888
    Hexadecapole Moments (Debye-Ang^3)
      XXXX    -195.5357   XXXY      -0.0000   XXYY     -41.2487
      XYYY       0.0000   YYYY     -44.4427   XXXZ      -0.0000
      XXYZ      -2.6484   XYYZ      -0.0000   YYYZ      -0.1063
      XXZZ     -45.7546   XYZZ      -0.0000   YYZZ     -17.4935
      XZZZ       0.0000   YZZZ      -1.7986   ZZZZ     -70.7308
 -----------------------------------------------------------------
Archival summary:
1\1\centos77-c4\SP\ProcedureUnspecified\BasisUnspecified\38\shihchen\TueJul701:42:062020TueJul701:42:062020\0\\#,ProcedureUnspecified,BasisUnspecified,\\0,1\C\H,1,1.09119\H,1,1.09277,2,105.808\C,1,1.50942,2,116.188,3,110.692,0\H,4,1.08897,1,118.762,2,-160.858,0\H,4,1.09008,1,115.875,2,-25.5662,0\H,4,1.09485,1,97.1447,2,83.9495,0\C,1,1.50942,2,116.188,3,-110.692,0\H,8,1.08897,1,118.762,2,160.858,0\H,8,1.09008,1,115.875,2,25.5661,0\H,8,1.09485,1,97.1447,2,-83.9495,0\\\@

 Total job time:  27.23s(wall), 73.90s(cpu) 
 Tue Jul  7 01:42:06 2020

        *************************************************************
        *                                                           *
        *  Thank you very much for using Q-Chem.  Have a nice day.  *
        *                                                           *
        *************************************************************


