                  Welcome to Q-Chem
     A Quantum Leap Into The Future Of Chemistry


 Q-Chem 5.3 (devel), Q-Chem, Inc., Pleasanton, CA (2020)

 Yihan Shao,  Zhengting Gan,  E. Epifanovsky,  A. T. B. Gilbert,  M. Wormit,  
 J. Kussmann,  A. W. Lange,  A. Behn,  Jia Deng,  Xintian Feng,  D. Ghosh,  
 M. Goldey,  P. R. Horn,  L. D. Jacobson,  I. Kaliman,  T. Kus,  A. Landau,  
 Jie Liu,  E. I. Proynov,  R. M. Richard,  R. P. Steele,  E. J. Sundstrom,  
 H. L. Woodcock III,  P. M. Zimmerman,  D. Zuev,  B. Alam,  B. Albrecht,  
 E. Alguire,  S. A. Baeppler,  D. Barton,  Z. Benda,  Y. A. Bernard,  
 E. J. Berquist,  K. B. Bravaya,  H. Burton,  K. Carter-Fenk,  D. Casanova,  
 Chun-Min Chang,  Yunqing Chen,  A. Chien,  K. D. Closser,  M. P. Coons,  
 S. Coriani,  S. Dasgupta,  A. L. Dempwolff,  M. Diedenhofen,  Hainam Do,  
 R. G. Edgar,  Po-Tung Fang,  S. Faraji,  S. Fatehi,  Qingguo Feng,  
 J. Fosso-Tande,  J. Gayvert,  Qinghui Ge,  A. Ghysels,  G. Gidofalvi,  
 J. Gomes,  J. Gonthier,  A. Gunina,  D. Hait,  M. W. D. Hanson-Heine,  
 P. H. P. Harbach,  A. W. Hauser,  M. F. Herbst,  J. E. Herr,  
 E. G. Hohenstein,  Z. C. Holden,  Kerwin Hui,  B. C. Huynh,  T.-C. Jagau,  
 Hyunjun Ji,  B. Kaduk,  K. Khistyaev,  Jaehoon Kim,  P. Klunzinger,  K. Koh,  
 D. Kosenkov,  L. Koulias,  T. Kowalczyk,  C. M. Krauter,  A. Kunitsa,  
 Ka Un Lao,  A. Laurent,  K. V. Lawler,  Joonho Lee,  D. Lefrancois,  
 S. Lehtola,  D. S. Levine,  Yi-Pei Li,  You-Sheng Lin,  Fenglai Liu,  
 Kuan-Yu Liu,  E. Livshits,  M. Loipersberger,  A. Luenser,  P. Manohar,  
 E. Mansoor,  S. F. Manzer,  Shan-Ping Mao,  Yuezhi Mao,  N. Mardirossian,  
 A. V. Marenich,  T. Markovich,  L. A. Martinez-Martinez,  S. A. Maurer,  
 N. J. Mayhall,  S. C. McKenzie,  J.-M. Mewes,  P. Morgante,  A. F. Morrison,  
 J. W. Mullinax,  K. Nanda,  T. S. Nguyen-Beck,  R. Olivares-Amaya,  
 K. J. Oosterbaan,  J. A. Parkhill,  S. K. Paul,  F. Pavosevic,  Zheng Pei,  
 T. M. Perrine,  F. Plasser,  P. Pokhilko,  S. Prager,  A. Prociuk,  
 E. Ramos,  B. Rana,  D. R. Rehn,  F. Rob,  M. Scheurer,  M. Schneider,  
 N. Sergueev,  S. M. Sharada,  S. Sharma,  D. W. Small,  T. Stauch,  
 C. J. Stein,  T. Stein,  Yu-Chuan Su,  S. P. Veccham,  Zhen Tao,  
 A. J. W. Thom,  A. Tkatchenko,  T. Tsuchimochi,  N. M. Tubman,  L. Vogt,  
 M. L. Vidal,  O. Vydrov,  M. A. Watson,  J. Wenzel,  M. de Wergifosse,  
 T. A. Wesolowski,  A. White,  J. Witte,  A. Yamada,  Jun Yang,  K. Yao,  
 S. Yeganeh,  S. R. Yost,  Zhi-Qiang You,  A. Zech,  Igor Ying Zhang,  
 Xing Zhang,  Yan Zhao,  Ying Zhu,  B. R. Brooks,  G. K. L. Chan,  
 C. J. Cramer,  M. S. Gordon,  W. J. Hehre,  A. Klamt,  M. W. Schmidt,  
 C. D. Sherrill,  D. G. Truhlar,  A. Aspuru-Guzik,  R. Baer,  A. T. Bell,  
 N. A. Besley,  Jeng-Da Chai,  A. E. DePrince, III,  R. A. DiStasio Jr.,  
 A. Dreuw,  B. D. Dunietz,  T. R. Furlani,  Chao-Ping Hsu,  Yousung Jung,  
 Jing Kong,  D. S. Lambrecht,  WanZhen Liang,  C. Ochsenfeld,  
 V. A. Rassolov,  L. V. Slipchenko,  J. E. Subotnik,  T. Van Voorhis,  
 J. M. Herbert,  A. I. Krylov,  P. M. W. Gill,  M. Head-Gordon

 Contributors to earlier versions of Q-Chem not listed above: 
 R. D. Adamson,  B. Austin,  J. Baker,  G. J. O. Beran,  K. Brandhorst,  
 S. T. Brown,  E. F. C. Byrd,  A. K. Chakraborty,  C.-L. Cheng,  
 Siu Hung Chien,  D. M. Chipman,  D. L. Crittenden,  H. Dachsel,  
 R. J. Doerksen,  A. D. Dutoi,  L. Fusti-Molnar,  W. A. Goddard III,  
 A. Golubeva-Zadorozhnaya,  S. R. Gwaltney,  G. Hawkins,  A. Heyden,  
 S. Hirata,  G. Kedziora,  F. J. Keil,  C. Kelley,  Jihan Kim,  R. A. King,  
 R. Z. Khaliullin,  P. P. Korambath,  W. Kurlancheek,  A. M. Lee,  M. S. Lee,  
 S. V. Levchenko,  Ching Yeh Lin,  D. Liotard,  R. C. Lochan,  I. Lotan,  
 P. E. Maslen,  N. Nair,  D. P. O'Neill,  D. Neuhauser,  E. Neuscamman,  
 C. M. Oana,  R. Olson,  B. Peters,  R. Peverati,  P. A. Pieniazek,  
 Y. M. Rhee,  J. Ritchie,  M. A. Rohrdanz,  E. Rosta,  N. J. Russ,  
 H. F. Schaefer III,  N. E. Schultz,  N. Shenvi,  A. C. Simmonett,  A. Sodt,  
 D. Stuck,  K. S. Thanthiriwatte,  V. Vanovschi,  Tao Wang,  A. Warshel,  
 C. F. Williams,  Q. Wu,  X. Xu,  W. Zhang

 Please cite Q-Chem as follows:
 Y. Shao et al., Mol. Phys. 113, 184-215 (2015)
 DOI: 10.1080/00268976.2014.952696

 Q-Chem 5.3.0 for Intel X86 EM64T Linux

 Parts of Q-Chem use Armadillo 9.800.1 (Horizon Scraper).
 http://arma.sourceforge.net/

 Q-Chem begins on Tue Jul  7 02:32:53 2020  

Host: centos77-c4
0

     Scratch files written to /tmp/26964.centos77-h1/qchem112849//
Processing $rem in /opt/qchem-5.3.0-intel2020u1//config/preferences:
Processing $rem in /home/shihchengli/.qchemrc:

Checking the input file for inconsistencies... 	...done.

--------------------------------------------------------------
User input:
--------------------------------------------------------------
$rem
   JOBTYPE  sp
   EXCHANGE   omegaB97X-D
   BASIS   6-311+G(2df,2pd)
   UNRESTRICTED   False
   max_scf_cycles   250
   geom_opt_max_cycles   1500
   basis2 6-31G*
   scf_algorithm rca_diis
   SYM_IGNORE  TRUE
   print_input   true
   geom_opt_dmax   80
   pop_mulliken false
   XC_GRID 000075000302
$end

$molecule
0 1
C       1.2671797806     0.0016633042     0.2587263824
C       0.0000000412     -0.0207611896     -0.5878106814
H       1.2922237275     -0.9076418414     0.9515017000
H       1.3168729101     0.8525947148     0.8560594986
H       2.1639370762     -0.0307370031     -0.3595611642
C       -1.2671796438     0.0016629782     0.2587264103
H       0.0000000831     -0.7794942668     -1.1672568569
H       -0.0000000968     0.9684966157     -1.3173402655
H       -1.2922234618     -0.9076414350     0.9515012736
H       -2.1639375290     -0.0307366543     -0.3595615152
H       -1.3168729479     0.8525954434     0.8560602370
$end
--------------------------------------------------------------
 ----------------------------------------------------------------
             Standard Nuclear Orientation (Angstroms)
    I     Atom           X                Y                Z
 ----------------------------------------------------------------
    1      C       1.2671797806     0.0016633042     0.2587263824
    2      C       0.0000000412    -0.0207611896    -0.5878106814
    3      H       1.2922237275    -0.9076418414     0.9515017000
    4      H       1.3168729101     0.8525947148     0.8560594986
    5      H       2.1639370762    -0.0307370031    -0.3595611642
    6      C      -1.2671796438     0.0016629782     0.2587264103
    7      H       0.0000000831    -0.7794942668    -1.1672568569
    8      H      -0.0000000968     0.9684966157    -1.3173402655
    9      H      -1.2922234618    -0.9076414350     0.9515012736
   10      H      -2.1639375290    -0.0307366543    -0.3595615152
   11      H      -1.3168729479     0.8525954434     0.8560602370
 ----------------------------------------------------------------
 Nuclear Repulsion Energy =          82.86477481 hartrees
 There are       13 alpha and       13 beta electrons
 Requested basis set is 6-311+G(2df,2pd)
 There are 72 shells and 214 basis functions

 Total QAlloc Memory Limit   2000 MB
 Mega-Array Size       188 MB
 MEM_STATIC part       192 MB

                       Distance Matrix (Angstroms)
             C (  1)   C (  2)   H (  3)   H (  4)   H (  5)   C (  6)
   C (  2)  1.524097
   H (  3)  1.143416  2.196789
   H (  4)  1.040846  2.140483  1.762994
   H (  5)  1.089726  2.175964  1.802147  1.724971
   C (  6)  2.534359  1.524097  2.803091  2.785358  3.486530
   H (  7)  2.061402  0.954690  2.485036  2.914048  2.428092  2.061402
   H (  8)  2.241539  1.229164  3.215180  2.543866  2.568741  2.241539
   H (  9)  2.803091  2.196788  2.584447  3.148797  3.799065  1.143415
   H ( 10)  3.486531  2.175965  3.799066  3.791312  4.327875  1.089727
   H ( 11)  2.785358  2.140483  3.148798  2.633746  3.791312  1.040847
             H (  7)   H (  8)   H (  9)   H ( 10)
   H (  8)  1.754422
   H (  9)  2.485035  3.215179
   H ( 10)  2.428093  2.568741  1.802147
   H ( 11)  2.914049  2.543867  1.762995  1.724973
 
 A cutoff of  1.0D-09 yielded   2530 shell pairs
 There are     22528 function pairs (     27697 Cartesian)
 Smallest overlap matrix eigenvalue = 8.63E-05

 Scale SEOQF with 1.000000e-01/1.000000e-01/1.000000e-01

 Standard Electronic Orientation quadrupole field applied
 Nucleus-field energy     =     0.0000000006 hartrees
 Requested basis set is 6-31G(d)
 There are 28 shells and 58 basis functions
 A cutoff of  1.0D-09 yielded    402 shell pairs
 There are      1773 function pairs (      1968 Cartesian)
 Smallest overlap matrix eigenvalue = 6.73E-03
 Guess from superposition of atomic densities
 Warning:  Energy on first SCF cycle will be non-variational
 SAD guess density has 26.000000 electrons
 Long-range K will be added via erf
 Coulomb attenuation parameter = 0.2 bohr**(-1)
 A restricted hybrid HF-DFT SCF calculation will be
 performed using Relaxed Constraint Minimization + Pulay DIIS
 Exchange:     0.2220 Hartree-Fock + 1.0000 wB97X-D + LR-HF
 Correlation:  1.0000 wB97X-D
 Using Euler-Maclaurin-Lebedev (75,302) quadrature formula
 Dispersion:   Grimme D
 SCF converges when DIIS error is below 1.0E-04
 using 3 threads for integral computing
 -------------------------------------------------------
 OpenMP Integral computing Module                
 Release: version 1.0, May 2013, Q-Chem Inc. Pittsburgh 
 -------------------------------------------------------
 using 3 threads for integral computing
 -------------------------------------------------------
 OpenMP Integral computing Module                
 Release: version 1.0, May 2013, Q-Chem Inc. Pittsburgh 
 -------------------------------------------------------
 ---------------------------------------
  Cycle       Energy         DIIS Error
 ---------------------------------------
    1    -119.6153807920      1.02E-01
    2    -119.0348339915      9.15E-03
    3    -119.0568156497      2.53E-03
    4    -119.0713481431      1.73E-03
    5    -119.0720877583      2.71E-04 Done RCA. Switching to DIIS
    6    -119.0726353626      2.00E-04
    7    -119.0726528986      5.19E-06 Convergence criterion met
 ---------------------------------------
 SCF time:  CPU 18.43 s  wall 6.58 s
 SCF   energy in the small basis set = -119.07265290
 Total energy in the small basis set = -119.07265290
 ----------------------------------------------------
  Cycle       Energy    
 ----------------------------------------------------
    1     -16.5516828544     -1.66E+01
 Long-range K will be added via erf
 Coulomb attenuation parameter = 0.2 bohr**(-1)
 A restricted hybrid HF-DFT SCF calculation will be
 performed using Relaxed Constraint Minimization + Pulay DIIS
 Exchange:     0.2220 Hartree-Fock + 1.0000 wB97X-D + LR-HF
 Correlation:  1.0000 wB97X-D
 Using Euler-Maclaurin-Lebedev (75,302) quadrature formula
 Dispersion:   Grimme D
 SCF converges when DIIS error is below 1.0E-05
 Basis2 calculation detected. Using small basis as guess for larger.
 SCFMinFind is unable to tell whether the solution found is close.
 Resetting ReadMinima to 0 and attempting to follow guess.
 SCFMinFind following SCF Guess.
 using 3 threads for integral computing
 -------------------------------------------------------
 OpenMP Integral computing Module                
 Release: version 1.0, May 2013, Q-Chem Inc. Pittsburgh 
 -------------------------------------------------------
 using 3 threads for integral computing
 -------------------------------------------------------
 OpenMP Integral computing Module                
 Release: version 1.0, May 2013, Q-Chem Inc. Pittsburgh 
 -------------------------------------------------------
 ---------------------------------------
  Cycle       Energy         DIIS Error
 ---------------------------------------
    1    -119.0930653651      4.21E-03
    2    -119.1150788759      5.87E-04 Done RCA. Switching to DIIS
    3    -119.1158930947      4.10E-04
    4    -119.1168173412      4.59E-05
    5    -119.1168322748      1.06E-05
    6    -119.1168330085      4.03E-06 Convergence criterion met
 ---------------------------------------
 SCF time:  CPU 50.54 s  wall 17.06 s
 SCF   energy in the final basis set = -119.11683301
 Total energy in the final basis set = -119.11683301
 
 --------------------------------------------------------------
 
                    Orbital Energies (a.u.)
 --------------------------------------------------------------
 
 Alpha MOs
 -- Occupied --
-10.2728 -10.2655 -10.2655  -0.8840  -0.7785  -0.6861  -0.5450  -0.5232
 -0.4879  -0.4595  -0.4314  -0.4195  -0.3955
 -- Virtual --
  0.0691   0.0857   0.0902   0.0982   0.1248   0.1298   0.1334   0.1416
  0.1434   0.1690   0.1717   0.1908   0.2202   0.2424   0.2430   0.2620
  0.2843   0.2855   0.3129   0.3132   0.3372   0.3501   0.4581   0.4679
  0.4707   0.5061   0.5137   0.5170   0.5447   0.5622   0.5827   0.5840
  0.6229   0.6249   0.6348   0.6422   0.6574   0.6598   0.7129   0.7293
  0.7379   0.7683   0.8291   0.8592   0.8702   0.8772   0.8871   0.9575
  1.0011   1.0430   1.0668   1.1388   1.1393   1.1726   1.1830   1.2027
  1.2129   1.2477   1.2687   1.2727   1.2940   1.2958   1.3268   1.3770
  1.3821   1.3944   1.3984   1.4360   1.4676   1.4677   1.4726   1.4770
  1.5280   1.5821   1.6109   1.6207   1.6490   1.6570   1.6862   1.6958
  1.7813   2.3655   2.3843   2.4726   2.5034   2.5759   2.5769   2.6137
  2.6524   2.7138   2.8191   2.8326   2.8340   2.8645   2.9254   2.9256
  2.9372   2.9383   2.9950   3.0261   3.0404   3.0607   3.0872   3.1141
  3.1346   3.1562   3.1600   3.1761   3.2159   3.2289   3.2518   3.2950
  3.3357   3.3359   3.3400   3.3652   3.3665   3.3778   3.4198   3.4339
  3.4399   3.4906   3.4935   3.4984   3.5589   3.5686   3.5930   3.6168
  3.6220   3.6887   3.6898   3.7089   3.7658   3.7671   3.8555   3.8846
  3.9184   3.9238   3.9462   3.9681   3.9730   3.9874   4.0566   4.0601
  4.0920   4.1019   4.1060   4.1142   4.1533   4.1647   4.1954   4.2118
  4.2342   4.2536   4.2677   4.3615   4.3729   4.4081   4.4161   4.4206
  4.4609   4.4687   4.5756   4.6234   4.7356   4.8024   4.8227   4.8673
  4.8819   4.9127   4.9467   4.9640   5.0002   5.0080   5.0865   5.1510
  5.1890   5.2391   5.2427   5.2751   5.3127   5.3446   5.3700   5.3923
  5.4099   5.4386   5.4801   5.5542   5.6852   5.7024   5.7547   5.8493
  5.8898   6.3250   6.3315   6.4543   6.4785   6.5608  25.1177  25.4322
 25.4448
 --------------------------------------------------------------
 
 -----------------------------------------------------------------
                    Cartesian Multipole Moments
 -----------------------------------------------------------------
    Charge (ESU x 10^10)
                -0.0000
    Dipole Moment (Debye)
         X       0.0000      Y      -0.0448      Z      -0.0522
       Tot       0.0687
    Quadrupole Moments (Debye-Ang)
        XX     -22.1098     XY       0.0000     YY     -21.3811
        XZ      -0.0000     YZ       0.2622     ZZ     -21.9164
    Octopole Moments (Debye-Ang^2)
       XXX       0.0000    XXY       0.3411    XYY       0.0000
       YYY       0.1415    XXZ      -1.5230    XYZ       0.0000
       YYZ       0.5452    XZZ       0.0000    YZZ      -0.1862
       ZZZ      -0.2060
    Hexadecapole Moments (Debye-Ang^3)
      XXXX    -201.7969   XXXY       0.0000   XXYY     -42.2381
      XYYY       0.0000   YYYY     -44.5189   XXXZ       0.0000
      XXYZ       1.3146   XYYZ      -0.0000   YYYZ       2.5204
      XXZZ     -45.3916   XYZZ       0.0000   YYZZ     -17.2434
      XZZZ      -0.0000   YZZZ       2.7680   ZZZZ     -72.9650
 -----------------------------------------------------------------
Archival summary:
1\1\centos77-c4\SP\ProcedureUnspecified\BasisUnspecified\38\shihchen\TueJul702:33:202020TueJul702:33:202020\0\\#,ProcedureUnspecified,BasisUnspecified,\\0,1\C\H,1,0.95469\H,1,1.22916,2,106.224\C,1,1.5241,2,110.415,3,117.483,0\H,4,1.04085,1,111.745,2,-176.444,0\H,4,1.08973,1,111.631,2,-55.2501,0\H,4,1.14342,1,110.062,2,64.1426,0\C,1,1.5241,2,110.415,3,-117.483,0\H,8,1.04085,1,111.745,2,176.444,0\H,8,1.08973,1,111.631,2,55.25,0\H,8,1.14342,1,110.062,2,-64.1426,0\\\@

 Total job time:  26.56s(wall), 72.55s(cpu) 
 Tue Jul  7 02:33:20 2020

        *************************************************************
        *                                                           *
        *  Thank you very much for using Q-Chem.  Have a nice day.  *
        *                                                           *
        *************************************************************


