                  Welcome to Q-Chem
     A Quantum Leap Into The Future Of Chemistry


 Q-Chem 5.3 (devel), Q-Chem, Inc., Pleasanton, CA (2020)

 Yihan Shao,  Zhengting Gan,  E. Epifanovsky,  A. T. B. Gilbert,  M. Wormit,  
 J. Kussmann,  A. W. Lange,  A. Behn,  Jia Deng,  Xintian Feng,  D. Ghosh,  
 M. Goldey,  P. R. Horn,  L. D. Jacobson,  I. Kaliman,  T. Kus,  A. Landau,  
 Jie Liu,  E. I. Proynov,  R. M. Richard,  R. P. Steele,  E. J. Sundstrom,  
 H. L. Woodcock III,  P. M. Zimmerman,  D. Zuev,  B. Alam,  B. Albrecht,  
 E. Alguire,  S. A. Baeppler,  D. Barton,  Z. Benda,  Y. A. Bernard,  
 E. J. Berquist,  K. B. Bravaya,  H. Burton,  K. Carter-Fenk,  D. Casanova,  
 Chun-Min Chang,  Yunqing Chen,  A. Chien,  K. D. Closser,  M. P. Coons,  
 S. Coriani,  S. Dasgupta,  A. L. Dempwolff,  M. Diedenhofen,  Hainam Do,  
 R. G. Edgar,  Po-Tung Fang,  S. Faraji,  S. Fatehi,  Qingguo Feng,  
 J. Fosso-Tande,  J. Gayvert,  Qinghui Ge,  A. Ghysels,  G. Gidofalvi,  
 J. Gomes,  J. Gonthier,  A. Gunina,  D. Hait,  M. W. D. Hanson-Heine,  
 P. H. P. Harbach,  A. W. Hauser,  M. F. Herbst,  J. E. Herr,  
 E. G. Hohenstein,  Z. C. Holden,  Kerwin Hui,  B. C. Huynh,  T.-C. Jagau,  
 Hyunjun Ji,  B. Kaduk,  K. Khistyaev,  Jaehoon Kim,  P. Klunzinger,  K. Koh,  
 D. Kosenkov,  L. Koulias,  T. Kowalczyk,  C. M. Krauter,  A. Kunitsa,  
 Ka Un Lao,  A. Laurent,  K. V. Lawler,  Joonho Lee,  D. Lefrancois,  
 S. Lehtola,  D. S. Levine,  Yi-Pei Li,  You-Sheng Lin,  Fenglai Liu,  
 Kuan-Yu Liu,  E. Livshits,  M. Loipersberger,  A. Luenser,  P. Manohar,  
 E. Mansoor,  S. F. Manzer,  Shan-Ping Mao,  Yuezhi Mao,  N. Mardirossian,  
 A. V. Marenich,  T. Markovich,  L. A. Martinez-Martinez,  S. A. Maurer,  
 N. J. Mayhall,  S. C. McKenzie,  J.-M. Mewes,  P. Morgante,  A. F. Morrison,  
 J. W. Mullinax,  K. Nanda,  T. S. Nguyen-Beck,  R. Olivares-Amaya,  
 K. J. Oosterbaan,  J. A. Parkhill,  S. K. Paul,  F. Pavosevic,  Zheng Pei,  
 T. M. Perrine,  F. Plasser,  P. Pokhilko,  S. Prager,  A. Prociuk,  
 E. Ramos,  B. Rana,  D. R. Rehn,  F. Rob,  M. Scheurer,  M. Schneider,  
 N. Sergueev,  S. M. Sharada,  S. Sharma,  D. W. Small,  T. Stauch,  
 C. J. Stein,  T. Stein,  Yu-Chuan Su,  S. P. Veccham,  Zhen Tao,  
 A. J. W. Thom,  A. Tkatchenko,  T. Tsuchimochi,  N. M. Tubman,  L. Vogt,  
 M. L. Vidal,  O. Vydrov,  M. A. Watson,  J. Wenzel,  M. de Wergifosse,  
 T. A. Wesolowski,  A. White,  J. Witte,  A. Yamada,  Jun Yang,  K. Yao,  
 S. Yeganeh,  S. R. Yost,  Zhi-Qiang You,  A. Zech,  Igor Ying Zhang,  
 Xing Zhang,  Yan Zhao,  Ying Zhu,  B. R. Brooks,  G. K. L. Chan,  
 C. J. Cramer,  M. S. Gordon,  W. J. Hehre,  A. Klamt,  M. W. Schmidt,  
 C. D. Sherrill,  D. G. Truhlar,  A. Aspuru-Guzik,  R. Baer,  A. T. Bell,  
 N. A. Besley,  Jeng-Da Chai,  A. E. DePrince, III,  R. A. DiStasio Jr.,  
 A. Dreuw,  B. D. Dunietz,  T. R. Furlani,  Chao-Ping Hsu,  Yousung Jung,  
 Jing Kong,  D. S. Lambrecht,  WanZhen Liang,  C. Ochsenfeld,  
 V. A. Rassolov,  L. V. Slipchenko,  J. E. Subotnik,  T. Van Voorhis,  
 J. M. Herbert,  A. I. Krylov,  P. M. W. Gill,  M. Head-Gordon

 Contributors to earlier versions of Q-Chem not listed above: 
 R. D. Adamson,  B. Austin,  J. Baker,  G. J. O. Beran,  K. Brandhorst,  
 S. T. Brown,  E. F. C. Byrd,  A. K. Chakraborty,  C.-L. Cheng,  
 Siu Hung Chien,  D. M. Chipman,  D. L. Crittenden,  H. Dachsel,  
 R. J. Doerksen,  A. D. Dutoi,  L. Fusti-Molnar,  W. A. Goddard III,  
 A. Golubeva-Zadorozhnaya,  S. R. Gwaltney,  G. Hawkins,  A. Heyden,  
 S. Hirata,  G. Kedziora,  F. J. Keil,  C. Kelley,  Jihan Kim,  R. A. King,  
 R. Z. Khaliullin,  P. P. Korambath,  W. Kurlancheek,  A. M. Lee,  M. S. Lee,  
 S. V. Levchenko,  Ching Yeh Lin,  D. Liotard,  R. C. Lochan,  I. Lotan,  
 P. E. Maslen,  N. Nair,  D. P. O'Neill,  D. Neuhauser,  E. Neuscamman,  
 C. M. Oana,  R. Olson,  B. Peters,  R. Peverati,  P. A. Pieniazek,  
 Y. M. Rhee,  J. Ritchie,  M. A. Rohrdanz,  E. Rosta,  N. J. Russ,  
 H. F. Schaefer III,  N. E. Schultz,  N. Shenvi,  A. C. Simmonett,  A. Sodt,  
 D. Stuck,  K. S. Thanthiriwatte,  V. Vanovschi,  Tao Wang,  A. Warshel,  
 C. F. Williams,  Q. Wu,  X. Xu,  W. Zhang

 Please cite Q-Chem as follows:
 Y. Shao et al., Mol. Phys. 113, 184-215 (2015)
 DOI: 10.1080/00268976.2014.952696

 Q-Chem 5.3.0 for Intel X86 EM64T Linux

 Parts of Q-Chem use Armadillo 9.800.1 (Horizon Scraper).
 http://arma.sourceforge.net/

 Q-Chem begins on Tue Jul  7 01:14:19 2020  

Host: centos77-c4
0

     Scratch files written to /tmp/26964.centos77-h1/qchem98212//
Processing $rem in /opt/qchem-5.3.0-intel2020u1//config/preferences:
Processing $rem in /home/shihchengli/.qchemrc:

Checking the input file for inconsistencies... 	...done.

--------------------------------------------------------------
User input:
--------------------------------------------------------------
$rem
   JOBTYPE  sp
   EXCHANGE   omegaB97X-D
   BASIS   6-311+G(2df,2pd)
   UNRESTRICTED   False
   max_scf_cycles   250
   geom_opt_max_cycles   1500
   basis2 6-31G*
   scf_algorithm rca_diis
   SYM_IGNORE  TRUE
   print_input   true
   geom_opt_dmax   80
   pop_mulliken false
   XC_GRID 000075000302
$end

$molecule
0 1
C       1.3674760911     0.0112066038     0.2593990910
C       -0.0000000806     -0.0107251512     -0.7212804536
H       1.3208811921     -0.8771467226     0.8948730614
H       1.2838784312     0.8643833556     0.9369521341
H       2.3637902978     0.0351256620     -0.1860750659
C       -1.3674765774     0.0112061694     0.2593985447
H       0.0000009065     -0.9036781767     -1.3504720151
H       -0.0000000803     0.8472664298     -1.3975006200
H       -1.3208815828     -0.8771471531     0.8948725081
H       -2.3637912720     0.0351273168     -0.1860743323
H       -1.2838773861     0.8643823323     0.9369521665
$end
--------------------------------------------------------------
 ----------------------------------------------------------------
             Standard Nuclear Orientation (Angstroms)
    I     Atom           X                Y                Z
 ----------------------------------------------------------------
    1      C       1.3674760911     0.0112066038     0.2593990910
    2      C      -0.0000000806    -0.0107251512    -0.7212804536
    3      H       1.3208811921    -0.8771467226     0.8948730614
    4      H       1.2838784312     0.8643833556     0.9369521341
    5      H       2.3637902978     0.0351256620    -0.1860750659
    6      C      -1.3674765774     0.0112061694     0.2593985447
    7      H       0.0000009065    -0.9036781767    -1.3504720151
    8      H      -0.0000000803     0.8472664298    -1.3975006200
    9      H      -1.3208815828    -0.8771471531     0.8948725081
   10      H      -2.3637912720     0.0351273168    -0.1860743323
   11      H      -1.2838773861     0.8643823323     0.9369521665
 ----------------------------------------------------------------
 Nuclear Repulsion Energy =          78.42131669 hartrees
 There are       13 alpha and       13 beta electrons
 Requested basis set is 6-311+G(2df,2pd)
 There are 72 shells and 214 basis functions

 Total QAlloc Memory Limit   2000 MB
 Mega-Array Size       188 MB
 MEM_STATIC part       192 MB

                       Distance Matrix (Angstroms)
             C (  1)   C (  2)   H (  3)   H (  4)   H (  5)   C (  6)
   C (  2)  1.682915
   H (  3)  1.093238  2.259948
   H (  4)  1.092693  2.272420  1.742431
   H (  5)  1.091632  2.424057  1.757370  1.764956
   C (  6)  2.734953  1.682915  2.901769  2.866474  3.757841
   H (  7)  2.301888  1.092359  2.605188  3.163336  2.797262  2.301889
   H (  8)  2.305277  1.092439  3.158054  2.664265  2.777522  2.305277
   H (  9)  2.901769  2.259948  2.641763  3.133604  3.946834  1.093238
   H ( 10)  3.757842  2.424058  3.946834  3.905682  4.727582  1.091632
   H ( 11)  2.866472  2.272419  3.133602  2.567756  3.905680  1.092693
             H (  7)   H (  8)   H (  9)   H ( 10)
   H (  8)  1.751576
   H (  9)  2.605188  3.158054
   H ( 10)  2.797265  2.777523  1.757371
   H ( 11)  3.163335  2.664264  1.742431  1.764955
 
 A cutoff of  1.0D-09 yielded   2512 shell pairs
 There are     22410 function pairs (     27535 Cartesian)
 Smallest overlap matrix eigenvalue = 1.58E-04

 Scale SEOQF with 1.000000e-01/1.000000e-01/1.000000e-01

 Standard Electronic Orientation quadrupole field applied
 Nucleus-field energy     =     0.0000000006 hartrees
 Requested basis set is 6-31G(d)
 There are 28 shells and 58 basis functions
 A cutoff of  1.0D-09 yielded    402 shell pairs
 There are      1773 function pairs (      1968 Cartesian)
 Smallest overlap matrix eigenvalue = 1.04E-02
 Guess from superposition of atomic densities
 Warning:  Energy on first SCF cycle will be non-variational
 SAD guess density has 26.000000 electrons
 Long-range K will be added via erf
 Coulomb attenuation parameter = 0.2 bohr**(-1)
 A restricted hybrid HF-DFT SCF calculation will be
 performed using Relaxed Constraint Minimization + Pulay DIIS
 Exchange:     0.2220 Hartree-Fock + 1.0000 wB97X-D + LR-HF
 Correlation:  1.0000 wB97X-D
 Using Euler-Maclaurin-Lebedev (75,302) quadrature formula
 Dispersion:   Grimme D
 SCF converges when DIIS error is below 1.0E-04
 using 3 threads for integral computing
 -------------------------------------------------------
 OpenMP Integral computing Module                
 Release: version 1.0, May 2013, Q-Chem Inc. Pittsburgh 
 -------------------------------------------------------
 using 3 threads for integral computing
 -------------------------------------------------------
 OpenMP Integral computing Module                
 Release: version 1.0, May 2013, Q-Chem Inc. Pittsburgh 
 -------------------------------------------------------
 ---------------------------------------
  Cycle       Energy         DIIS Error
 ---------------------------------------
    1    -119.2419586058      8.90E-02
    2    -119.0518178969      7.69E-03
    3    -119.0678501348      2.46E-03
    4    -119.0771666507      1.69E-03
    5    -119.0778883706      3.05E-04 Done RCA. Switching to DIIS
    6    -119.0783860241      2.27E-04
    7    -119.0784081258      4.43E-06 Convergence criterion met
 ---------------------------------------
 SCF time:  CPU 19.70 s  wall 7.14 s
 SCF   energy in the small basis set = -119.07840813
 Total energy in the small basis set = -119.07840813
 ----------------------------------------------------
  Cycle       Energy    
 ----------------------------------------------------
    1     -16.4229326612     -1.64E+01
 Long-range K will be added via erf
 Coulomb attenuation parameter = 0.2 bohr**(-1)
 A restricted hybrid HF-DFT SCF calculation will be
 performed using Relaxed Constraint Minimization + Pulay DIIS
 Exchange:     0.2220 Hartree-Fock + 1.0000 wB97X-D + LR-HF
 Correlation:  1.0000 wB97X-D
 Using Euler-Maclaurin-Lebedev (75,302) quadrature formula
 Dispersion:   Grimme D
 SCF converges when DIIS error is below 1.0E-05
 Basis2 calculation detected. Using small basis as guess for larger.
 SCFMinFind is unable to tell whether the solution found is close.
 Resetting ReadMinima to 0 and attempting to follow guess.
 SCFMinFind following SCF Guess.
 using 3 threads for integral computing
 -------------------------------------------------------
 OpenMP Integral computing Module                
 Release: version 1.0, May 2013, Q-Chem Inc. Pittsburgh 
 -------------------------------------------------------
 using 3 threads for integral computing
 -------------------------------------------------------
 OpenMP Integral computing Module                
 Release: version 1.0, May 2013, Q-Chem Inc. Pittsburgh 
 -------------------------------------------------------
 ---------------------------------------
  Cycle       Energy         DIIS Error
 ---------------------------------------
    1    -119.0968675838      4.21E-03
    2    -119.1190354036      5.84E-04 Done RCA. Switching to DIIS
    3    -119.1199160006      3.89E-04
    4    -119.1207633441      4.22E-05
    5    -119.1207766591      9.22E-06 Convergence criterion met
 ---------------------------------------
 SCF time:  CPU 40.03 s  wall 13.36 s
 SCF   energy in the final basis set = -119.12077666
 Total energy in the final basis set = -119.12077666
 
 --------------------------------------------------------------
 
                    Orbital Energies (a.u.)
 --------------------------------------------------------------
 
 Alpha MOs
 -- Occupied --
-10.2997 -10.2782 -10.2782  -0.8453  -0.7693  -0.6920  -0.5259  -0.5120
 -0.4650  -0.4608  -0.4227  -0.4153  -0.4110
 -- Virtual --
  0.0700   0.0823   0.0884   0.1031   0.1235   0.1301   0.1333   0.1424
  0.1454   0.1673   0.1716   0.1921   0.2214   0.2311   0.2471   0.2605
  0.2650   0.2655   0.2817   0.2878   0.3310   0.3343   0.4490   0.4585
  0.4717   0.5074   0.5199   0.5313   0.5629   0.5682   0.5782   0.5844
  0.5891   0.5910   0.6230   0.6281   0.6419   0.6452   0.7064   0.7119
  0.7236   0.7552   0.7981   0.8114   0.8536   0.8774   0.8984   0.9466
  1.0072   1.0176   1.0310   1.0799   1.1189   1.1676   1.1971   1.2019
  1.2066   1.2078   1.2268   1.2472   1.2563   1.2957   1.2962   1.3004
  1.3095   1.3739   1.3922   1.4217   1.4526   1.4641   1.4690   1.4786
  1.5044   1.5321   1.5952   1.6223   1.6243   1.6553   1.6744   1.6795
  1.7488   2.3656   2.3888   2.4610   2.4644   2.4953   2.5156   2.5489
  2.5681   2.6291   2.7167   2.7467   2.8110   2.8555   2.8628   2.9279
  2.9312   2.9326   2.9845   3.0344   3.0411   3.0780   3.0805   3.0987
  3.1015   3.1421   3.1602   3.1628   3.1742   3.2161   3.2658   3.2773
  3.3028   3.3263   3.3359   3.3414   3.3456   3.3553   3.3654   3.3740
  3.3749   3.3951   3.4480   3.5016   3.5555   3.5667   3.5703   3.6055
  3.6143   3.6147   3.6548   3.7022   3.7071   3.7072   3.7355   3.7981
  3.8053   3.8592   3.8878   3.8916   3.9146   3.9408   4.0076   4.0131
  4.0160   4.0458   4.0804   4.0859   4.1105   4.1198   4.1745   4.1932
  4.2049   4.2138   4.2442   4.2667   4.3034   4.3037   4.3371   4.3742
  4.4236   4.4635   4.4966   4.5539   4.5561   4.7273   4.8135   4.8295
  4.8828   4.8999   4.9291   4.9418   5.0000   5.0055   5.0200   5.0729
  5.0898   5.1475   5.1902   5.2123   5.2172   5.2406   5.2413   5.2929
  5.3095   5.3319   5.3429   5.3835   5.3920   5.4374   5.4801   5.5438
  5.7035   6.3554   6.3812   6.3860   6.4167   6.4307  25.0012  25.3386
 25.3753
 --------------------------------------------------------------
 
 -----------------------------------------------------------------
                    Cartesian Multipole Moments
 -----------------------------------------------------------------
    Charge (ESU x 10^10)
                -0.0000
    Dipole Moment (Debye)
         X       0.0000      Y      -0.0167      Z       0.0270
       Tot       0.0317
    Quadrupole Moments (Debye-Ang)
        XX     -21.4271     XY      -0.0000     YY     -21.6783
        XZ      -0.0000     YZ       0.0347     ZZ     -21.9358
    Octopole Moments (Debye-Ang^2)
       XXX      -0.0000    XXY      -0.0002    XYY       0.0000
       YYY      -0.3210    XXZ      -0.2285    XYZ       0.0000
       YYZ       0.9632    XZZ       0.0000    YZZ       0.0571
       ZZZ       1.1870
    Hexadecapole Moments (Debye-Ang^3)
      XXXX    -215.1303   XXXY      -0.0000   XXYY     -47.0956
      XYYY      -0.0000   YYYY     -44.2843   XXXZ      -0.0000
      XXYZ      -0.2014   XYYZ      -0.0000   YYYZ      -0.3126
      XXZZ     -52.5255   XYZZ      -0.0000   YYZZ     -17.9861
      XZZZ      -0.0000   YZZZ      -0.3134   ZZZZ     -80.1028
 -----------------------------------------------------------------
Archival summary:
1\1\centos77-c4\SP\ProcedureUnspecified\BasisUnspecified\38\shihchen\TueJul701:14:422020TueJul701:14:422020\0\\#,ProcedureUnspecified,BasisUnspecified,\\0,1\C\H,1,1.09236\H,1,1.09244,2,106.588\C,1,1.68292,2,110.261,3,119.985,0\H,4,1.09163,1,120.272,2,-61.0879,0\H,4,1.09269,1,108.02,2,174.706,0\H,4,1.09324,1,107.068,2,61.2698,0\C,1,1.68292,2,110.261,3,-119.985,0\H,8,1.09163,1,120.272,2,61.0878,0\H,8,1.09269,1,108.02,2,-174.706,0\H,8,1.09324,1,107.068,2,-61.2698,0\\\@

 Total job time:  23.40s(wall), 63.36s(cpu) 
 Tue Jul  7 01:14:42 2020

        *************************************************************
        *                                                           *
        *  Thank you very much for using Q-Chem.  Have a nice day.  *
        *                                                           *
        *************************************************************


