                  Welcome to Q-Chem
     A Quantum Leap Into The Future Of Chemistry


 Q-Chem 5.2 (devel), Q-Chem, Inc., Pleasanton, CA (2019)

 Yihan Shao,  Zhengting Gan,  E. Epifanovsky,  A. T. B. Gilbert,  M. Wormit,  
 J. Kussmann,  A. W. Lange,  A. Behn,  Jia Deng,  Xintian Feng,  D. Ghosh,  
 M. Goldey,  P. R. Horn,  L. D. Jacobson,  I. Kaliman,  T. Kus,  A. Landau,  
 Jie Liu,  E. I. Proynov,  R. M. Richard,  R. P. Steele,  E. J. Sundstrom,  
 H. L. Woodcock III,  P. M. Zimmerman,  D. Zuev,  B. Alam,  B. Albrecht,  
 E. Alguire,  S. A. Baeppler,  D. Barton,  Z. Benda,  Y. A. Bernard,  
 E. J. Berquist,  K. B. Bravaya,  H. Burton,  K. Carter-Fenk,  D. Casanova,  
 Chun-Min Chang,  Yunqing Chen,  A. Chien,  K. D. Closser,  M. P. Coons,  
 S. Coriani,  S. Dasgupta,  A. L. Dempwolff,  M. Diedenhofen,  Hainam Do,  
 R. G. Edgar,  Po-Tung Fang,  S. Faraji,  S. Fatehi,  Qingguo Feng,  
 J. Fosso-Tande,  J. Gayvert,  Qinghui Ge,  A. Ghysels,  G. Gidofalvi,  
 J. Gomes,  J. Gonthier,  A. Gunina,  D. Hait,  M. W. D. Hanson-Heine,  
 P. H. P. Harbach,  A. W. Hauser,  M. F. Herbst,  J. E. Herr,  
 E. G. Hohenstein,  Z. C. Holden,  Kerwin Hui,  B. C. Huynh,  T.-C. Jagau,  
 Hyunjun Ji,  B. Kaduk,  K. Khistyaev,  Jaehoon Kim,  P. Klunzinger,  K. Koh,  
 D. Kosenkov,  L. Koulias,  T. Kowalczyk,  C. M. Krauter,  A. Kunitsa,  
 Ka Un Lao,  A. Laurent,  K. V. Lawler,  Joonho Lee,  D. Lefrancois,  
 S. Lehtola,  D. S. Levine,  Yi-Pei Li,  You-Sheng Lin,  Fenglai Liu,  
 Kuan-Yu Liu,  E. Livshits,  M. Loipersberger,  A. Luenser,  P. Manohar,  
 E. Mansoor,  S. F. Manzer,  Shan-Ping Mao,  Yuezhi Mao,  N. Mardirossian,  
 A. V. Marenich,  T. Markovich,  L. A. Martinez-Martinez,  S. A. Maurer,  
 N. J. Mayhall,  S. C. McKenzie,  J.-M. Mewes,  P. Morgante,  A. F. Morrison,  
 J. W. Mullinax,  K. Nanda,  T. S. Nguyen-Beck,  R. Olivares-Amaya,  
 J. A. Parkhill,  S. K. Paul,  Zheng Pei,  T. M. Perrine,  F. Plasser,  
 P. Pokhilko,  S. Prager,  A. Prociuk,  E. Ramos,  B. Rana,  D. R. Rehn,  
 F. Rob,  M. Scheurer,  M. Schneider,  N. Sergueev,  S. M. Sharada,  
 S. Sharma,  D. W. Small,  T. Stauch,  C. J. Stein,  T. Stein,  Yu-Chuan Su,  
 S. P. Veccham,  A. J. W. Thom,  A. Tkatchenko,  T. Tsuchimochi,  
 N. M. Tubman,  L. Vogt,  M. L. Vidal,  O. Vydrov,  M. A. Watson,  J. Wenzel,  
 M. de Wergifosse,  T. A. Wesolowski,  A. White,  J. Witte,  A. Yamada,  
 Jun Yang,  K. Yao,  S. Yeganeh,  S. R. Yost,  Zhi-Qiang You,  A. Zech,  
 Igor Ying Zhang,  Xing Zhang,  Yan Zhao,  Ying Zhu,  B. R. Brooks,  
 G. K. L. Chan,  C. J. Cramer,  M. S. Gordon,  W. J. Hehre,  A. Klamt,  
 M. W. Schmidt,  C. D. Sherrill,  D. G. Truhlar,  A. Aspuru-Guzik,  R. Baer,  
 A. T. Bell,  N. A. Besley,  Jeng-Da Chai,  A. E. DePrince, III,  
 R. A. DiStasio Jr.,  A. Dreuw,  B. D. Dunietz,  T. R. Furlani,  
 Chao-Ping Hsu,  Yousung Jung,  Jing Kong,  D. S. Lambrecht,  WanZhen Liang,  
 C. Ochsenfeld,  V. A. Rassolov,  L. V. Slipchenko,  J. E. Subotnik,  
 T. Van Voorhis,  J. M. Herbert,  A. I. Krylov,  P. M. W. Gill,  M. Head-Gordon

 Contributors to earlier versions of Q-Chem not listed above: 
 R. D. Adamson,  B. Austin,  J. Baker,  G. J. O. Beran,  K. Brandhorst,  
 S. T. Brown,  E. F. C. Byrd,  A. K. Chakraborty,  C.-L. Cheng,  
 Siu Hung Chien,  D. M. Chipman,  D. L. Crittenden,  H. Dachsel,  
 R. J. Doerksen,  A. D. Dutoi,  L. Fusti-Molnar,  W. A. Goddard III,  
 A. Golubeva-Zadorozhnaya,  S. R. Gwaltney,  G. Hawkins,  A. Heyden,  
 S. Hirata,  G. Kedziora,  F. J. Keil,  C. Kelley,  Jihan Kim,  R. A. King,  
 R. Z. Khaliullin,  P. P. Korambath,  W. Kurlancheek,  A. M. Lee,  M. S. Lee,  
 S. V. Levchenko,  Ching Yeh Lin,  D. Liotard,  R. C. Lochan,  I. Lotan,  
 P. E. Maslen,  N. Nair,  D. P. O'Neill,  D. Neuhauser,  E. Neuscamman,  
 C. M. Oana,  R. Olson,  B. Peters,  R. Peverati,  P. A. Pieniazek,  
 Y. M. Rhee,  J. Ritchie,  M. A. Rohrdanz,  E. Rosta,  N. J. Russ,  
 H. F. Schaefer III,  N. E. Schultz,  N. Shenvi,  A. C. Simmonett,  A. Sodt,  
 D. Stuck,  K. S. Thanthiriwatte,  V. Vanovschi,  Tao Wang,  A. Warshel,  
 C. F. Williams,  Q. Wu,  X. Xu,  W. Zhang

 Please cite Q-Chem as follows:
 Y. Shao et al., Mol. Phys. 113, 184-215 (2015)
 DOI: 10.1080/00268976.2014.952696

 Q-Chem 5.2.2 for Intel X86 EM64T Linux

 Parts of Q-Chem use Armadillo 9.800.1 (Horizon Scraper).
 http://arma.sourceforge.net/

 Q-Chem begins on Sun Apr 12 05:27:01 2020  

Host: cn0821
0

     Scratch files written to /tmp/ypli/6721342.srvc1/qchem168956//
Warning:  Did not find "$end" marker in "$molecule" section

Checking the input file for inconsistencies... 	...done.

--------------------------------------------------------------
User input:
--------------------------------------------------------------
$rem
   JOBTYPE  sp
   EXCHANGE   omegaB97X-D
   BASIS   6-311+G(2df,2pd)
   max_scf_cycles   250
   geom_opt_max_cycles   1500
   basis2 6-31G*
   scf_algorithm rca_diis
   SYM_IGNORE  TRUE
   print_input   true
   geom_opt_dmax   80
   pop_mulliken false
   XC_GRID 000075000302
$end

$molecule
0 1
C       1.1916162663     0.0000850205     0.2593906142
C       0.0000000231     -0.0011367869     -0.6783679640
H       1.1425493372     -0.8779199612     0.9072457466
H       1.1408571633     0.8786753003     0.9061697879
H       2.1617466607     -0.0006805442     -0.2365258742
C       -1.1916161466     0.0000851009     0.2593907204
H       -0.0000001901     -0.8781691515     -1.3285544974
H       0.0000000139     0.8789862763     -1.3245931712
H       -1.1425493166     -0.8779200138     0.9072456522
H       -2.1617465111     -0.0006799574     -0.2365259564
H       -1.1408573606     0.8786753830     0.9061699610
--------------------------------------------------------------
 ----------------------------------------------------------------
             Standard Nuclear Orientation (Angstroms)
    I     Atom           X                Y                Z
 ----------------------------------------------------------------
    1      C       1.1916162663     0.0000850205     0.2593906142
    2      C       0.0000000231    -0.0011367869    -0.6783679640
    3      H       1.1425493372    -0.8779199612     0.9072457466
    4      H       1.1408571633     0.8786753003     0.9061697879
    5      H       2.1617466607    -0.0006805442    -0.2365258742
    6      C      -1.1916161466     0.0000851009     0.2593907204
    7      H      -0.0000001901    -0.8781691515    -1.3285544974
    8      H       0.0000000139     0.8789862763    -1.3245931712
    9      H      -1.1425493166    -0.8779200138     0.9072456522
   10      H      -2.1617465111    -0.0006799574    -0.2365259564
   11      H      -1.1408573606     0.8786753830     0.9061699610
 ----------------------------------------------------------------
 Nuclear Repulsion Energy =          83.85343978 hartrees
 There are       13 alpha and       13 beta electrons
 Requested basis set is 6-311+G(2df,2pd)
 There are 72 shells and 214 basis functions

 Total QAlloc Memory Limit   2000 MB
 Mega-Array Size       188 MB
 MEM_STATIC part       192 MB

                       Distance Matrix (Angstroms)
             C (  1)   C (  2)   H (  3)   H (  4)   H (  5)   C (  6)
   C (  2)  1.516358
   H (  3)  1.092253  2.142041
   H (  4)  1.092163  2.141585  1.756596
   H (  5)  1.089535  2.206439  1.765368  1.766702
   C (  6)  2.383232  1.516358  2.576614  2.575010  3.389834
   H (  7)  2.170910  1.091755  2.510821  3.063013  2.575978  2.170910
   H (  8)  2.168276  1.091890  3.061575  2.505566  2.575044  2.168276
   H (  9)  2.576614  2.142041  2.285099  2.880898  3.605015  1.092253
   H ( 10)  3.389834  2.206439  3.605015  3.603638  4.323493  1.089535
   H ( 11)  2.575010  2.141585  2.880898  2.281715  3.603639  1.092163
             H (  7)   H (  8)   H (  9)   H ( 10)
   H (  8)  1.757160
   H (  9)  2.510821  3.061575
   H ( 10)  2.575978  2.575044  1.765369
   H ( 11)  3.063013  2.505566  1.756597  1.766702
 
 A cutoff of  1.0D-09 yielded   2552 shell pairs
 There are     22682 function pairs (     27887 Cartesian)
 Smallest overlap matrix eigenvalue = 8.30E-05

 Scale SEOQF with 1.000000e-01/1.000000e-01/1.000000e-01

 Standard Electronic Orientation quadrupole field applied
 Nucleus-field energy     =     0.0000000003 hartrees
 Requested basis set is 6-31G(d)
 There are 28 shells and 58 basis functions
 A cutoff of  1.0D-09 yielded    402 shell pairs
 There are      1773 function pairs (      1968 Cartesian)
 Smallest overlap matrix eigenvalue = 6.78E-03
 Guess from superposition of atomic densities
 Warning:  Energy on first SCF cycle will be non-variational
 SAD guess density has 26.000000 electrons
 Long-range K will be added via erf
 Coulomb attenuation parameter = 0.2 bohr**(-1)
 A restricted hybrid HF-DFT SCF calculation will be
 performed using Relaxed Constraint Minimization + Pulay DIIS
 Exchange:     0.2220 Hartree-Fock + 1.0000 wB97X-D + LR-HF
 Correlation:  1.0000 wB97X-D
 Using Euler-Maclaurin-Lebedev (75,302) quadrature formula
 Dispersion:   Grimme D
 SCF converges when DIIS error is below 1.0E-04
 using 3 threads for integral computing
 -------------------------------------------------------
 OpenMP Integral computing Module                
 Release: version 1.0, May 2013, Q-Chem Inc. Pittsburgh 
 -------------------------------------------------------
 using 3 threads for integral computing
 -------------------------------------------------------
 OpenMP Integral computing Module                
 Release: version 1.0, May 2013, Q-Chem Inc. Pittsburgh 
 -------------------------------------------------------
 ---------------------------------------
  Cycle       Energy         DIIS Error
 ---------------------------------------
    1    -119.6649232519      1.02E-01
    2    -119.0617478610      9.13E-03
    3    -119.0831493262      2.43E-03
    4    -119.0976944052      1.66E-03
    5    -119.0983613469      2.49E-04 Done RCA. Switching to DIIS
    6    -119.0988614567      1.84E-04
    7    -119.0988760671      4.82E-06 Convergence criterion met
 ---------------------------------------
 SCF time:  CPU 33.08 s  wall 11.48 s
 SCF   energy in the small basis set = -119.09887607
 Total energy in the small basis set = -119.09887607
 ----------------------------------------------------
  Cycle       Energy    
 ----------------------------------------------------
    1     -16.5515044119     -1.66E+01
 Long-range K will be added via erf
 Coulomb attenuation parameter = 0.2 bohr**(-1)
 A restricted hybrid HF-DFT SCF calculation will be
 performed using Relaxed Constraint Minimization + Pulay DIIS
 Exchange:     0.2220 Hartree-Fock + 1.0000 wB97X-D + LR-HF
 Correlation:  1.0000 wB97X-D
 Using Euler-Maclaurin-Lebedev (75,302) quadrature formula
 Dispersion:   Grimme D
 SCF converges when DIIS error is below 1.0E-05
 Basis2 calculation detected. Using small basis as guess for larger.
 SCFMinFind is unable to tell whether the solution found is close.
 Resetting ReadMinima to 0 and attempting to follow guess.
 SCFMinFind following SCF Guess.
 using 3 threads for integral computing
 -------------------------------------------------------
 OpenMP Integral computing Module                
 Release: version 1.0, May 2013, Q-Chem Inc. Pittsburgh 
 -------------------------------------------------------
 using 3 threads for integral computing
 -------------------------------------------------------
 OpenMP Integral computing Module                
 Release: version 1.0, May 2013, Q-Chem Inc. Pittsburgh 
 -------------------------------------------------------
 ---------------------------------------
  Cycle       Energy         DIIS Error
 ---------------------------------------
    1    -119.1181460923      4.21E-03
    2    -119.1401497802      6.05E-04 Done RCA. Switching to DIIS
    3    -119.1409631924      4.34E-04
    4    -119.1419893307      4.57E-05
    5    -119.1420041598      8.72E-06 Convergence criterion met
 ---------------------------------------
 SCF time:  CPU 86.37 s  wall 29.25 s
 SCF   energy in the final basis set = -119.14200416
 Total energy in the final basis set = -119.14200416
 
 --------------------------------------------------------------
 
                    Orbital Energies (a.u.)
 --------------------------------------------------------------
 
 Alpha MOs
 -- Occupied --
-10.2737 -10.2638 -10.2638  -0.8890  -0.7698  -0.6817  -0.5511  -0.5315
 -0.4741  -0.4561  -0.4273  -0.4124  -0.4116
 -- Virtual --
  0.0708   0.0848   0.0890   0.0988   0.1269   0.1314   0.1342   0.1391
  0.1395   0.1693   0.1702   0.1931   0.2213   0.2447   0.2549   0.2727
  0.2745   0.2898   0.3162   0.3163   0.3360   0.3502   0.4664   0.4670
  0.4722   0.4986   0.4993   0.5160   0.5482   0.5704   0.5787   0.5899
  0.6309   0.6348   0.6372   0.6418   0.6614   0.6645   0.7147   0.7234
  0.7317   0.7736   0.8117   0.8437   0.8876   0.8946   0.9048   0.9384
  1.0516   1.0535   1.0555   1.0880   1.1579   1.1846   1.2129   1.2136
  1.2224   1.2391   1.2615   1.2830   1.3096   1.3124   1.3376   1.3787
  1.3989   1.4094   1.4293   1.4380   1.4410   1.4436   1.4738   1.4904
  1.5075   1.5683   1.6094   1.6120   1.6486   1.6778   1.7078   1.7266
  1.7398   2.4367   2.4541   2.4662   2.5081   2.5318   2.5795   2.5801
  2.6586   2.7225   2.8157   2.8373   2.8546   2.9164   2.9208   2.9216
  2.9293   2.9295   2.9949   3.0155   3.0458   3.0493   3.0668   3.1111
  3.1345   3.1357   3.1875   3.2118   3.2446   3.2463   3.2758   3.3052
  3.3278   3.3350   3.3598   3.3659   3.3930   3.4004   3.4047   3.4271
  3.4568   3.4889   3.5148   3.5173   3.5781   3.5919   3.6091   3.6168
  3.6240   3.6551   3.7363   3.7394   3.7655   3.8024   3.8632   3.8971
  3.9310   3.9562   3.9687   3.9715   3.9919   4.0377   4.0552   4.0857
  4.0985   4.1137   4.1310   4.1445   4.1520   4.1754   4.1894   4.2099
  4.2341   4.2815   4.3093   4.3772   4.3786   4.3877   4.4279   4.4360
  4.4370   4.5786   4.6114   4.6227   4.6380   4.8437   4.8664   4.9119
  4.9155   4.9523   4.9674   5.0108   5.0552   5.0686   5.0722   5.0754
  5.1110   5.2572   5.2718   5.2901   5.3159   5.3697   5.3720   5.3729
  5.3844   5.4062   5.5157   5.5162   5.5566   5.6011   5.6739   5.7273
  5.9693   6.3776   6.4054   6.4159   6.4452   6.4629  25.1921  25.4545
 25.4580
 --------------------------------------------------------------
 
 -----------------------------------------------------------------
                    Cartesian Multipole Moments
 -----------------------------------------------------------------
    Charge (ESU x 10^10)
                -0.0000
    Dipole Moment (Debye)
         X      -0.0000      Y       0.0000      Z      -0.0627
       Tot       0.0627
    Quadrupole Moments (Debye-Ang)
        XX     -22.3470     XY      -0.0000     YY     -21.3165
        XZ      -0.0000     YZ       0.0059     ZZ     -21.8416
    Octopole Moments (Debye-Ang^2)
       XXX       0.0000    XXY      -0.0074    XYY      -0.0000
       YYY       0.0178    XXZ      -1.0085    XYZ      -0.0000
       YYZ       0.7319    XZZ      -0.0000    YZZ      -0.0036
       ZZZ       0.5552
    Hexadecapole Moments (Debye-Ang^3)
      XXXX    -181.2154   XXXY      -0.0000   XXYY     -39.4605
      XYYY       0.0000   YYYY     -43.9453   XXXZ       0.0000
      XXYZ      -0.0033   XYYZ       0.0000   YYYZ      -0.0096
      XXZZ     -43.8481   XYZZ       0.0000   YYZZ     -17.7115
      XZZZ       0.0000   YZZZ       0.0085   ZZZZ     -76.8409
 -----------------------------------------------------------------
Archival summary:
1\1\cn0821\SP\ProcedureUnspecified\BasisUnspecified\38\r0852400\SunApr1205:27:462020SunApr1205:27:462020\0\\#,ProcedureUnspecified,BasisUnspecified,\\0,1\C\H,1,1.09175\H,1,1.09189,2,107.161\C,1,1.51636,2,111.651,3,-122.276,0\H,4,1.08954,1,114.723,2,59.7009,0\H,4,1.09216,1,109.291,2,-178.666,0\H,4,1.09225,1,109.321,2,-61.792,0\C,1,1.51636,2,111.651,3,122.276,0\H,8,1.08954,1,114.723,2,-59.7009,0\H,8,1.09216,1,109.291,2,178.666,0\H,8,1.09225,1,109.321,2,61.792,0\\\@

 Total job time:  45.21s(wall), 124.87s(cpu) 
 Sun Apr 12 05:27:46 2020

        *************************************************************
        *                                                           *
        *  Thank you very much for using Q-Chem.  Have a nice day.  *
        *                                                           *
        *************************************************************


