                  Welcome to Q-Chem
     A Quantum Leap Into The Future Of Chemistry


 Q-Chem 5.3 (devel), Q-Chem, Inc., Pleasanton, CA (2020)

 Yihan Shao,  Zhengting Gan,  E. Epifanovsky,  A. T. B. Gilbert,  M. Wormit,  
 J. Kussmann,  A. W. Lange,  A. Behn,  Jia Deng,  Xintian Feng,  D. Ghosh,  
 M. Goldey,  P. R. Horn,  L. D. Jacobson,  I. Kaliman,  T. Kus,  A. Landau,  
 Jie Liu,  E. I. Proynov,  R. M. Richard,  R. P. Steele,  E. J. Sundstrom,  
 H. L. Woodcock III,  P. M. Zimmerman,  D. Zuev,  B. Alam,  B. Albrecht,  
 E. Alguire,  S. A. Baeppler,  D. Barton,  Z. Benda,  Y. A. Bernard,  
 E. J. Berquist,  K. B. Bravaya,  H. Burton,  K. Carter-Fenk,  D. Casanova,  
 Chun-Min Chang,  Yunqing Chen,  A. Chien,  K. D. Closser,  M. P. Coons,  
 S. Coriani,  S. Dasgupta,  A. L. Dempwolff,  M. Diedenhofen,  Hainam Do,  
 R. G. Edgar,  Po-Tung Fang,  S. Faraji,  S. Fatehi,  Qingguo Feng,  
 J. Fosso-Tande,  J. Gayvert,  Qinghui Ge,  A. Ghysels,  G. Gidofalvi,  
 J. Gomes,  J. Gonthier,  A. Gunina,  D. Hait,  M. W. D. Hanson-Heine,  
 P. H. P. Harbach,  A. W. Hauser,  M. F. Herbst,  J. E. Herr,  
 E. G. Hohenstein,  Z. C. Holden,  Kerwin Hui,  B. C. Huynh,  T.-C. Jagau,  
 Hyunjun Ji,  B. Kaduk,  K. Khistyaev,  Jaehoon Kim,  P. Klunzinger,  K. Koh,  
 D. Kosenkov,  L. Koulias,  T. Kowalczyk,  C. M. Krauter,  A. Kunitsa,  
 Ka Un Lao,  A. Laurent,  K. V. Lawler,  Joonho Lee,  D. Lefrancois,  
 S. Lehtola,  D. S. Levine,  Yi-Pei Li,  You-Sheng Lin,  Fenglai Liu,  
 Kuan-Yu Liu,  E. Livshits,  M. Loipersberger,  A. Luenser,  P. Manohar,  
 E. Mansoor,  S. F. Manzer,  Shan-Ping Mao,  Yuezhi Mao,  N. Mardirossian,  
 A. V. Marenich,  T. Markovich,  L. A. Martinez-Martinez,  S. A. Maurer,  
 N. J. Mayhall,  S. C. McKenzie,  J.-M. Mewes,  P. Morgante,  A. F. Morrison,  
 J. W. Mullinax,  K. Nanda,  T. S. Nguyen-Beck,  R. Olivares-Amaya,  
 K. J. Oosterbaan,  J. A. Parkhill,  S. K. Paul,  F. Pavosevic,  Zheng Pei,  
 T. M. Perrine,  F. Plasser,  P. Pokhilko,  S. Prager,  A. Prociuk,  
 E. Ramos,  B. Rana,  D. R. Rehn,  F. Rob,  M. Scheurer,  M. Schneider,  
 N. Sergueev,  S. M. Sharada,  S. Sharma,  D. W. Small,  T. Stauch,  
 C. J. Stein,  T. Stein,  Yu-Chuan Su,  S. P. Veccham,  Zhen Tao,  
 A. J. W. Thom,  A. Tkatchenko,  T. Tsuchimochi,  N. M. Tubman,  L. Vogt,  
 M. L. Vidal,  O. Vydrov,  M. A. Watson,  J. Wenzel,  M. de Wergifosse,  
 T. A. Wesolowski,  A. White,  J. Witte,  A. Yamada,  Jun Yang,  K. Yao,  
 S. Yeganeh,  S. R. Yost,  Zhi-Qiang You,  A. Zech,  Igor Ying Zhang,  
 Xing Zhang,  Yan Zhao,  Ying Zhu,  B. R. Brooks,  G. K. L. Chan,  
 C. J. Cramer,  M. S. Gordon,  W. J. Hehre,  A. Klamt,  M. W. Schmidt,  
 C. D. Sherrill,  D. G. Truhlar,  A. Aspuru-Guzik,  R. Baer,  A. T. Bell,  
 N. A. Besley,  Jeng-Da Chai,  A. E. DePrince, III,  R. A. DiStasio Jr.,  
 A. Dreuw,  B. D. Dunietz,  T. R. Furlani,  Chao-Ping Hsu,  Yousung Jung,  
 Jing Kong,  D. S. Lambrecht,  WanZhen Liang,  C. Ochsenfeld,  
 V. A. Rassolov,  L. V. Slipchenko,  J. E. Subotnik,  T. Van Voorhis,  
 J. M. Herbert,  A. I. Krylov,  P. M. W. Gill,  M. Head-Gordon

 Contributors to earlier versions of Q-Chem not listed above: 
 R. D. Adamson,  B. Austin,  J. Baker,  G. J. O. Beran,  K. Brandhorst,  
 S. T. Brown,  E. F. C. Byrd,  A. K. Chakraborty,  C.-L. Cheng,  
 Siu Hung Chien,  D. M. Chipman,  D. L. Crittenden,  H. Dachsel,  
 R. J. Doerksen,  A. D. Dutoi,  L. Fusti-Molnar,  W. A. Goddard III,  
 A. Golubeva-Zadorozhnaya,  S. R. Gwaltney,  G. Hawkins,  A. Heyden,  
 S. Hirata,  G. Kedziora,  F. J. Keil,  C. Kelley,  Jihan Kim,  R. A. King,  
 R. Z. Khaliullin,  P. P. Korambath,  W. Kurlancheek,  A. M. Lee,  M. S. Lee,  
 S. V. Levchenko,  Ching Yeh Lin,  D. Liotard,  R. C. Lochan,  I. Lotan,  
 P. E. Maslen,  N. Nair,  D. P. O'Neill,  D. Neuhauser,  E. Neuscamman,  
 C. M. Oana,  R. Olson,  B. Peters,  R. Peverati,  P. A. Pieniazek,  
 Y. M. Rhee,  J. Ritchie,  M. A. Rohrdanz,  E. Rosta,  N. J. Russ,  
 H. F. Schaefer III,  N. E. Schultz,  N. Shenvi,  A. C. Simmonett,  A. Sodt,  
 D. Stuck,  K. S. Thanthiriwatte,  V. Vanovschi,  Tao Wang,  A. Warshel,  
 C. F. Williams,  Q. Wu,  X. Xu,  W. Zhang

 Please cite Q-Chem as follows:
 Y. Shao et al., Mol. Phys. 113, 184-215 (2015)
 DOI: 10.1080/00268976.2014.952696

 Q-Chem 5.3.0 for Intel X86 EM64T Linux

 Parts of Q-Chem use Armadillo 9.800.1 (Horizon Scraper).
 http://arma.sourceforge.net/

 Q-Chem begins on Tue Jul  7 01:37:39 2020  

Host: centos77-c4
0

     Scratch files written to /tmp/26964.centos77-h1/qchem102166//
Processing $rem in /opt/qchem-5.3.0-intel2020u1//config/preferences:
Processing $rem in /home/shihchengli/.qchemrc:

Checking the input file for inconsistencies... 	...done.

--------------------------------------------------------------
User input:
--------------------------------------------------------------
$rem
   JOBTYPE  sp
   EXCHANGE   omegaB97X-D
   BASIS   6-311+G(2df,2pd)
   UNRESTRICTED   False
   max_scf_cycles   250
   geom_opt_max_cycles   1500
   basis2 6-31G*
   scf_algorithm rca_diis
   SYM_IGNORE  TRUE
   print_input   true
   geom_opt_dmax   80
   pop_mulliken false
   XC_GRID 000075000302
$end

$molecule
0 1
C       1.2753364770     0.0486957688     0.1506715392
C       -0.0000001148     -0.0443675369     -0.5084655169
H       1.0543365482     -0.8175624788     0.7866396828
H       1.1295338821     0.8593444869     0.8684017128
H       2.2930378857     -0.0502633623     -0.2083226006
C       -1.2753363775     0.0486958113     0.1506713658
H       0.0000004915     -0.8820448036     -1.2054647468
H       -0.0000003354     0.8459832188     -1.1398052161
H       -1.0543367660     -0.8175624268     0.7866396539
H       -2.2930380926     -0.0502626885     -0.2083222749
H       -1.1295336589     0.8593446771     0.8684014195
$end
--------------------------------------------------------------
 ----------------------------------------------------------------
             Standard Nuclear Orientation (Angstroms)
    I     Atom           X                Y                Z
 ----------------------------------------------------------------
    1      C       1.2753364770     0.0486957688     0.1506715392
    2      C      -0.0000001148    -0.0443675369    -0.5084655169
    3      H       1.0543365482    -0.8175624788     0.7866396828
    4      H       1.1295338821     0.8593444869     0.8684017128
    5      H       2.2930378857    -0.0502633623    -0.2083226006
    6      C      -1.2753363775     0.0486958113     0.1506713658
    7      H       0.0000004915    -0.8820448036    -1.2054647468
    8      H      -0.0000003354     0.8459832188    -1.1398052161
    9      H      -1.0543367660    -0.8175624268     0.7866396539
   10      H      -2.2930380926    -0.0502626885    -0.2083222749
   11      H      -1.1295336589     0.8593446771     0.8684014195
 ----------------------------------------------------------------
 Nuclear Repulsion Energy =          85.67478982 hartrees
 There are       13 alpha and       13 beta electrons
 Requested basis set is 6-311+G(2df,2pd)
 There are 72 shells and 214 basis functions

 Total QAlloc Memory Limit   2000 MB
 Mega-Array Size       188 MB
 MEM_STATIC part       192 MB

                       Distance Matrix (Angstroms)
             C (  1)   C (  2)   H (  3)   H (  4)   H (  5)   C (  6)
   C (  2)  1.438612
   H (  3)  1.097133  1.840313
   H (  4)  1.092495  1.997074  1.680582
   H (  5)  1.083691  2.312605  1.764392  1.827693
   C (  6)  2.550673  1.438612  2.565587  2.637364  3.587752
   H (  7)  2.081313  1.089730  2.254831  2.934145  2.635180  2.081314
   H (  8)  1.981787  1.091473  2.755032  2.304110  2.632288  1.981787
   H (  9)  2.565587  1.840313  2.108673  2.754631  3.575418  1.097133
   H ( 10)  3.587752  2.312605  3.575418  3.701448  4.586076  1.083691
   H ( 11)  2.637364  1.997074  2.754631  2.259068  3.701448  1.092496
             H (  7)   H (  8)   H (  9)   H ( 10)
   H (  8)  1.729275
   H (  9)  2.254831  2.755032
   H ( 10)  2.635181  2.632288  1.764392
   H ( 11)  2.934145  2.304109  1.680582  1.827693
 
 A cutoff of  1.0D-09 yielded   2550 shell pairs
 There are     22608 function pairs (     27783 Cartesian)
 Smallest overlap matrix eigenvalue = 7.44E-05

 Scale SEOQF with 1.000000e-01/1.000000e-01/1.000000e-01

 Standard Electronic Orientation quadrupole field applied
 Nucleus-field energy     =     0.0000000008 hartrees
 Requested basis set is 6-31G(d)
 There are 28 shells and 58 basis functions
 A cutoff of  1.0D-09 yielded    402 shell pairs
 There are      1773 function pairs (      1968 Cartesian)
 Smallest overlap matrix eigenvalue = 4.84E-03
 Guess from superposition of atomic densities
 Warning:  Energy on first SCF cycle will be non-variational
 SAD guess density has 26.000000 electrons
 Long-range K will be added via erf
 Coulomb attenuation parameter = 0.2 bohr**(-1)
 A restricted hybrid HF-DFT SCF calculation will be
 performed using Relaxed Constraint Minimization + Pulay DIIS
 Exchange:     0.2220 Hartree-Fock + 1.0000 wB97X-D + LR-HF
 Correlation:  1.0000 wB97X-D
 Using Euler-Maclaurin-Lebedev (75,302) quadrature formula
 Dispersion:   Grimme D
 SCF converges when DIIS error is below 1.0E-04
 using 3 threads for integral computing
 -------------------------------------------------------
 OpenMP Integral computing Module                
 Release: version 1.0, May 2013, Q-Chem Inc. Pittsburgh 
 -------------------------------------------------------
 using 3 threads for integral computing
 -------------------------------------------------------
 OpenMP Integral computing Module                
 Release: version 1.0, May 2013, Q-Chem Inc. Pittsburgh 
 -------------------------------------------------------
 ---------------------------------------
  Cycle       Energy         DIIS Error
 ---------------------------------------
    1    -119.9485122459      1.11E-01
    2    -118.9869397425      9.76E-03
    3    -119.0116059152      2.64E-03
    4    -119.0282213232      1.84E-03
    5    -119.0290383205      2.72E-04 Done RCA. Switching to DIIS
    6    -119.0296619721      2.07E-04
    7    -119.0296802282      5.45E-06 Convergence criterion met
 ---------------------------------------
 SCF time:  CPU 21.57 s  wall 8.09 s
 SCF   energy in the small basis set = -119.02968023
 Total energy in the small basis set = -119.02968023
 ----------------------------------------------------
  Cycle       Energy    
 ----------------------------------------------------
    1     -16.6146086483     -1.66E+01
 Long-range K will be added via erf
 Coulomb attenuation parameter = 0.2 bohr**(-1)
 A restricted hybrid HF-DFT SCF calculation will be
 performed using Relaxed Constraint Minimization + Pulay DIIS
 Exchange:     0.2220 Hartree-Fock + 1.0000 wB97X-D + LR-HF
 Correlation:  1.0000 wB97X-D
 Using Euler-Maclaurin-Lebedev (75,302) quadrature formula
 Dispersion:   Grimme D
 SCF converges when DIIS error is below 1.0E-05
 Basis2 calculation detected. Using small basis as guess for larger.
 SCFMinFind is unable to tell whether the solution found is close.
 Resetting ReadMinima to 0 and attempting to follow guess.
 SCFMinFind following SCF Guess.
 using 3 threads for integral computing
 -------------------------------------------------------
 OpenMP Integral computing Module                
 Release: version 1.0, May 2013, Q-Chem Inc. Pittsburgh 
 -------------------------------------------------------
 using 3 threads for integral computing
 -------------------------------------------------------
 OpenMP Integral computing Module                
 Release: version 1.0, May 2013, Q-Chem Inc. Pittsburgh 
 -------------------------------------------------------
 ---------------------------------------
  Cycle       Energy         DIIS Error
 ---------------------------------------
    1    -119.0517499994      4.22E-03
    2    -119.0741015593      6.46E-04 Done RCA. Switching to DIIS
    3    -119.0750179906      4.70E-04
    4    -119.0762191651      4.92E-05
    5    -119.0762366826      1.48E-05
    6    -119.0762381177      4.32E-06 Convergence criterion met
 ---------------------------------------
 SCF time:  CPU 52.38 s  wall 17.62 s
 SCF   energy in the final basis set = -119.07623812
 Total energy in the final basis set = -119.07623812
 
 --------------------------------------------------------------
 
                    Orbital Energies (a.u.)
 --------------------------------------------------------------
 
 Alpha MOs
 -- Occupied --
-10.2664 -10.2663 -10.2654  -0.9190  -0.7950  -0.6731  -0.5690  -0.5593
 -0.4907  -0.4752  -0.4447  -0.4001  -0.3537
 -- Virtual --
  0.0703   0.0833   0.0925   0.0956   0.1143   0.1289   0.1336   0.1379
  0.1510   0.1703   0.1761   0.1967   0.2032   0.2232   0.2520   0.2591
  0.2681   0.2863   0.3119   0.3349   0.3380   0.3850   0.4436   0.4583
  0.4771   0.4923   0.5045   0.5135   0.5671   0.5747   0.5835   0.5921
  0.6075   0.6262   0.6454   0.6642   0.6696   0.6983   0.7176   0.7199
  0.7283   0.7949   0.8114   0.8456   0.8960   0.8978   0.9423   0.9667
  1.0032   1.0252   1.0549   1.0673   1.1454   1.1682   1.2289   1.2466
  1.2483   1.2723   1.3020   1.3122   1.3211   1.3245   1.3621   1.3744
  1.3876   1.4304   1.4548   1.4557   1.4580   1.4802   1.4855   1.5047
  1.5279   1.5759   1.5893   1.6113   1.6257   1.6715   1.6865   1.7351
  1.8737   2.4122   2.4662   2.5267   2.5375   2.5711   2.5906   2.6108
  2.6654   2.7264   2.7723   2.8320   2.8500   2.8673   2.9143   2.9633
  3.0006   3.0050   3.0341   3.0388   3.0461   3.0838   3.1084   3.1576
  3.1640   3.1805   3.2059   3.2200   3.2419   3.2426   3.2730   3.3265
  3.3328   3.3621   3.3912   3.3926   3.3968   3.4108   3.4341   3.4595
  3.4733   3.5165   3.5213   3.5234   3.5705   3.5792   3.5976   3.5996
  3.6292   3.6618   3.6680   3.7264   3.7396   3.7707   3.7996   3.8955
  3.9204   3.9322   3.9722   4.0051   4.0403   4.0612   4.0824   4.1050
  4.1388   4.1728   4.1759   4.2084   4.2462   4.2617   4.2767   4.3053
  4.3254   4.3862   4.3883   4.4550   4.4608   4.5146   4.5152   4.5688
  4.5791   4.5929   4.7096   4.7117   4.7423   4.7726   4.8115   4.8287
  4.9318   4.9882   4.9933   5.0488   5.0571   5.1054   5.1635   5.1796
  5.1951   5.2206   5.2274   5.2858   5.3538   5.3591   5.3899   5.4386
  5.4807   5.5372   5.5816   5.5931   5.7692   5.7807   5.9258   6.0795
  6.1992   6.3850   6.4219   6.4586   6.4812   6.5418  25.3469  25.4717
 25.5904
 --------------------------------------------------------------
 
 -----------------------------------------------------------------
                    Cartesian Multipole Moments
 -----------------------------------------------------------------
    Charge (ESU x 10^10)
                 0.0000
    Dipole Moment (Debye)
         X      -0.0000      Y      -0.0702      Z      -0.0451
       Tot       0.0835
    Quadrupole Moments (Debye-Ang)
        XX     -20.5051     XY      -0.0000     YY     -21.9580
        XZ      -0.0000     YZ       0.6258     ZZ     -23.2387
    Octopole Moments (Debye-Ang^2)
       XXX      -0.0000    XXY      -0.5280    XYY       0.0000
       YYY      -0.5940    XXZ      -2.1472    XYZ       0.0000
       YYZ       0.6152    XZZ       0.0000    YZZ      -0.0814
       ZZZ       1.3908
    Hexadecapole Moments (Debye-Ang^3)
      XXXX    -174.0436   XXXY      -0.0000   XXYY     -43.0526
      XYYY       0.0000   YYYY     -45.1719   XXXZ      -0.0000
      XXYZ       0.6948   XYYZ      -0.0000   YYYZ      -0.3116
      XXZZ     -45.9258   XYZZ       0.0000   YYZZ     -17.1854
      XZZZ      -0.0000   YZZZ       0.6152   ZZZZ     -66.5733
 -----------------------------------------------------------------
Archival summary:
1\1\centos77-c4\SP\ProcedureUnspecified\BasisUnspecified\38\shihchen\TueJul701:38:082020TueJul701:38:082020\0\\#,ProcedureUnspecified,BasisUnspecified,\\0,1\C\H,1,1.08973\H,1,1.09147,2,104.897\C,1,1.43861,2,110.046,3,109.322,0\H,4,1.08369,1,132.441,2,-42.2212,0\H,4,1.0925,1,103.338,2,175.706,0\H,4,1.09713,1,92.0596,2,74.6509,0\C,1,1.43861,2,110.046,3,-109.322,0\H,8,1.08369,1,132.441,2,42.2211,0\H,8,1.0925,1,103.338,2,-175.706,0\H,8,1.09713,1,92.0596,2,-74.6509,0\\\@

 Total job time:  28.69s(wall), 77.65s(cpu) 
 Tue Jul  7 01:38:08 2020

        *************************************************************
        *                                                           *
        *  Thank you very much for using Q-Chem.  Have a nice day.  *
        *                                                           *
        *************************************************************


