                  Welcome to Q-Chem
     A Quantum Leap Into The Future Of Chemistry


 Q-Chem 5.3 (devel), Q-Chem, Inc., Pleasanton, CA (2020)

 Yihan Shao,  Zhengting Gan,  E. Epifanovsky,  A. T. B. Gilbert,  M. Wormit,  
 J. Kussmann,  A. W. Lange,  A. Behn,  Jia Deng,  Xintian Feng,  D. Ghosh,  
 M. Goldey,  P. R. Horn,  L. D. Jacobson,  I. Kaliman,  T. Kus,  A. Landau,  
 Jie Liu,  E. I. Proynov,  R. M. Richard,  R. P. Steele,  E. J. Sundstrom,  
 H. L. Woodcock III,  P. M. Zimmerman,  D. Zuev,  B. Alam,  B. Albrecht,  
 E. Alguire,  S. A. Baeppler,  D. Barton,  Z. Benda,  Y. A. Bernard,  
 E. J. Berquist,  K. B. Bravaya,  H. Burton,  K. Carter-Fenk,  D. Casanova,  
 Chun-Min Chang,  Yunqing Chen,  A. Chien,  K. D. Closser,  M. P. Coons,  
 S. Coriani,  S. Dasgupta,  A. L. Dempwolff,  M. Diedenhofen,  Hainam Do,  
 R. G. Edgar,  Po-Tung Fang,  S. Faraji,  S. Fatehi,  Qingguo Feng,  
 J. Fosso-Tande,  J. Gayvert,  Qinghui Ge,  A. Ghysels,  G. Gidofalvi,  
 J. Gomes,  J. Gonthier,  A. Gunina,  D. Hait,  M. W. D. Hanson-Heine,  
 P. H. P. Harbach,  A. W. Hauser,  M. F. Herbst,  J. E. Herr,  
 E. G. Hohenstein,  Z. C. Holden,  Kerwin Hui,  B. C. Huynh,  T.-C. Jagau,  
 Hyunjun Ji,  B. Kaduk,  K. Khistyaev,  Jaehoon Kim,  P. Klunzinger,  K. Koh,  
 D. Kosenkov,  L. Koulias,  T. Kowalczyk,  C. M. Krauter,  A. Kunitsa,  
 Ka Un Lao,  A. Laurent,  K. V. Lawler,  Joonho Lee,  D. Lefrancois,  
 S. Lehtola,  D. S. Levine,  Yi-Pei Li,  You-Sheng Lin,  Fenglai Liu,  
 Kuan-Yu Liu,  E. Livshits,  M. Loipersberger,  A. Luenser,  P. Manohar,  
 E. Mansoor,  S. F. Manzer,  Shan-Ping Mao,  Yuezhi Mao,  N. Mardirossian,  
 A. V. Marenich,  T. Markovich,  L. A. Martinez-Martinez,  S. A. Maurer,  
 N. J. Mayhall,  S. C. McKenzie,  J.-M. Mewes,  P. Morgante,  A. F. Morrison,  
 J. W. Mullinax,  K. Nanda,  T. S. Nguyen-Beck,  R. Olivares-Amaya,  
 K. J. Oosterbaan,  J. A. Parkhill,  S. K. Paul,  F. Pavosevic,  Zheng Pei,  
 T. M. Perrine,  F. Plasser,  P. Pokhilko,  S. Prager,  A. Prociuk,  
 E. Ramos,  B. Rana,  D. R. Rehn,  F. Rob,  M. Scheurer,  M. Schneider,  
 N. Sergueev,  S. M. Sharada,  S. Sharma,  D. W. Small,  T. Stauch,  
 C. J. Stein,  T. Stein,  Yu-Chuan Su,  S. P. Veccham,  Zhen Tao,  
 A. J. W. Thom,  A. Tkatchenko,  T. Tsuchimochi,  N. M. Tubman,  L. Vogt,  
 M. L. Vidal,  O. Vydrov,  M. A. Watson,  J. Wenzel,  M. de Wergifosse,  
 T. A. Wesolowski,  A. White,  J. Witte,  A. Yamada,  Jun Yang,  K. Yao,  
 S. Yeganeh,  S. R. Yost,  Zhi-Qiang You,  A. Zech,  Igor Ying Zhang,  
 Xing Zhang,  Yan Zhao,  Ying Zhu,  B. R. Brooks,  G. K. L. Chan,  
 C. J. Cramer,  M. S. Gordon,  W. J. Hehre,  A. Klamt,  M. W. Schmidt,  
 C. D. Sherrill,  D. G. Truhlar,  A. Aspuru-Guzik,  R. Baer,  A. T. Bell,  
 N. A. Besley,  Jeng-Da Chai,  A. E. DePrince, III,  R. A. DiStasio Jr.,  
 A. Dreuw,  B. D. Dunietz,  T. R. Furlani,  Chao-Ping Hsu,  Yousung Jung,  
 Jing Kong,  D. S. Lambrecht,  WanZhen Liang,  C. Ochsenfeld,  
 V. A. Rassolov,  L. V. Slipchenko,  J. E. Subotnik,  T. Van Voorhis,  
 J. M. Herbert,  A. I. Krylov,  P. M. W. Gill,  M. Head-Gordon

 Contributors to earlier versions of Q-Chem not listed above: 
 R. D. Adamson,  B. Austin,  J. Baker,  G. J. O. Beran,  K. Brandhorst,  
 S. T. Brown,  E. F. C. Byrd,  A. K. Chakraborty,  C.-L. Cheng,  
 Siu Hung Chien,  D. M. Chipman,  D. L. Crittenden,  H. Dachsel,  
 R. J. Doerksen,  A. D. Dutoi,  L. Fusti-Molnar,  W. A. Goddard III,  
 A. Golubeva-Zadorozhnaya,  S. R. Gwaltney,  G. Hawkins,  A. Heyden,  
 S. Hirata,  G. Kedziora,  F. J. Keil,  C. Kelley,  Jihan Kim,  R. A. King,  
 R. Z. Khaliullin,  P. P. Korambath,  W. Kurlancheek,  A. M. Lee,  M. S. Lee,  
 S. V. Levchenko,  Ching Yeh Lin,  D. Liotard,  R. C. Lochan,  I. Lotan,  
 P. E. Maslen,  N. Nair,  D. P. O'Neill,  D. Neuhauser,  E. Neuscamman,  
 C. M. Oana,  R. Olson,  B. Peters,  R. Peverati,  P. A. Pieniazek,  
 Y. M. Rhee,  J. Ritchie,  M. A. Rohrdanz,  E. Rosta,  N. J. Russ,  
 H. F. Schaefer III,  N. E. Schultz,  N. Shenvi,  A. C. Simmonett,  A. Sodt,  
 D. Stuck,  K. S. Thanthiriwatte,  V. Vanovschi,  Tao Wang,  A. Warshel,  
 C. F. Williams,  Q. Wu,  X. Xu,  W. Zhang

 Please cite Q-Chem as follows:
 Y. Shao et al., Mol. Phys. 113, 184-215 (2015)
 DOI: 10.1080/00268976.2014.952696

 Q-Chem 5.3.0 for Intel X86 EM64T Linux

 Parts of Q-Chem use Armadillo 9.800.1 (Horizon Scraper).
 http://arma.sourceforge.net/

 Q-Chem begins on Tue Jul  7 01:15:08 2020  

Host: centos77-c4
0

     Scratch files written to /tmp/26964.centos77-h1/qchem98365//
Processing $rem in /opt/qchem-5.3.0-intel2020u1//config/preferences:
Processing $rem in /home/shihchengli/.qchemrc:

Checking the input file for inconsistencies... 	...done.

--------------------------------------------------------------
User input:
--------------------------------------------------------------
$rem
   JOBTYPE  sp
   EXCHANGE   omegaB97X-D
   BASIS   6-311+G(2df,2pd)
   UNRESTRICTED   False
   max_scf_cycles   250
   geom_opt_max_cycles   1500
   basis2 6-31G*
   scf_algorithm rca_diis
   SYM_IGNORE  TRUE
   print_input   true
   geom_opt_dmax   80
   pop_mulliken false
   XC_GRID 000075000302
$end

$molecule
0 1
C       1.4147019197     0.0177104222     0.2613055213
C       -0.0000001341     -0.0159579241     -0.7891039795
H       1.3255897828     -0.8746004036     0.8878108973
H       1.2717787705     0.8557961463     0.9483746836
H       2.4476026858     0.0501006480     -0.0922460590
C       -1.4147026858     0.0177098051     0.2613047201
H       0.0000013305     -0.9170773985     -1.4063365757
H       -0.0000000955     0.8350230276     -1.4740039660
H       -1.3255903843     -0.8746010119     0.8878100898
H       -2.4476039965     0.0501027503     -0.0922448754
H       -1.2717772536     0.8557946046     0.9483745624
$end
--------------------------------------------------------------
 ----------------------------------------------------------------
             Standard Nuclear Orientation (Angstroms)
    I     Atom           X                Y                Z
 ----------------------------------------------------------------
    1      C       1.4147019197     0.0177104222     0.2613055213
    2      C      -0.0000001341    -0.0159579241    -0.7891039795
    3      H       1.3255897828    -0.8746004036     0.8878108973
    4      H       1.2717787705     0.8557961463     0.9483746836
    5      H       2.4476026858     0.0501006480    -0.0922460590
    6      C      -1.4147026858     0.0177098051     0.2613047201
    7      H       0.0000013305    -0.9170773985    -1.4063365757
    8      H      -0.0000000955     0.8350230276    -1.4740039660
    9      H      -1.3255903843    -0.8746010119     0.8878100898
   10      H      -2.4476039965     0.0501027503    -0.0922448754
   11      H      -1.2717772536     0.8557946046     0.9483745624
 ----------------------------------------------------------------
 Nuclear Repulsion Energy =          76.56359313 hartrees
 There are       13 alpha and       13 beta electrons
 Requested basis set is 6-311+G(2df,2pd)
 There are 72 shells and 214 basis functions

 Total QAlloc Memory Limit   2000 MB
 Mega-Array Size       188 MB
 MEM_STATIC part       192 MB

                       Distance Matrix (Angstroms)
             C (  1)   C (  2)   H (  3)   H (  4)   H (  5)   C (  6)
   C (  2)  1.762349
   H (  3)  1.093923  2.303584
   H (  4)  1.093105  2.322974  1.732292
   H (  5)  1.092214  2.545729  1.753424  1.764823
   C (  6)  2.829405  1.762349  2.949225  2.896832  3.878589
   H (  7)  2.378284  1.092242  2.649925  3.210166  2.941602  2.378286
   H (  8)  2.383418  1.092363  3.202838  2.736014  2.918239  2.383418
   H (  9)  2.949225  2.303584  2.651180  3.121581  4.006566  1.093923
   H ( 10)  3.878589  2.545730  4.006567  3.945357  4.895207  1.092214
   H ( 11)  2.896829  2.322972  3.121578  2.543556  3.945354  1.093105
             H (  7)   H (  8)   H (  9)   H ( 10)
   H (  8)  1.753407
   H (  9)  2.649926  3.202838
   H ( 10)  2.941606  2.918240  1.753425
   H ( 11)  3.210165  2.736013  1.732291  1.764822
 
 A cutoff of  1.0D-09 yielded   2502 shell pairs
 There are     22344 function pairs (     27463 Cartesian)
 Smallest overlap matrix eigenvalue = 2.08E-04

 Scale SEOQF with 1.000000e-01/1.000000e-01/1.000000e-01

 Standard Electronic Orientation quadrupole field applied
 Nucleus-field energy     =     0.0000000006 hartrees
 Requested basis set is 6-31G(d)
 There are 28 shells and 58 basis functions
 A cutoff of  1.0D-09 yielded    402 shell pairs
 There are      1773 function pairs (      1968 Cartesian)
 Smallest overlap matrix eigenvalue = 1.22E-02
 Guess from superposition of atomic densities
 Warning:  Energy on first SCF cycle will be non-variational
 SAD guess density has 26.000000 electrons
 Long-range K will be added via erf
 Coulomb attenuation parameter = 0.2 bohr**(-1)
 A restricted hybrid HF-DFT SCF calculation will be
 performed using Relaxed Constraint Minimization + Pulay DIIS
 Exchange:     0.2220 Hartree-Fock + 1.0000 wB97X-D + LR-HF
 Correlation:  1.0000 wB97X-D
 Using Euler-Maclaurin-Lebedev (75,302) quadrature formula
 Dispersion:   Grimme D
 SCF converges when DIIS error is below 1.0E-04
 using 3 threads for integral computing
 -------------------------------------------------------
 OpenMP Integral computing Module                
 Release: version 1.0, May 2013, Q-Chem Inc. Pittsburgh 
 -------------------------------------------------------
 using 3 threads for integral computing
 -------------------------------------------------------
 OpenMP Integral computing Module                
 Release: version 1.0, May 2013, Q-Chem Inc. Pittsburgh 
 -------------------------------------------------------
 ---------------------------------------
  Cycle       Energy         DIIS Error
 ---------------------------------------
    1    -119.1000294408      8.52E-02
    2    -119.0281866586      7.36E-03
    3    -119.0429038407      2.42E-03
    4    -119.0513608714      1.73E-03
    5    -119.0520831911      2.54E-04 Done RCA. Switching to DIIS
    6    -119.0526387195      2.24E-04
    7    -119.0526605025      4.02E-06 Convergence criterion met
 ---------------------------------------
 SCF time:  CPU 18.96 s  wall 6.91 s
 SCF   energy in the small basis set = -119.05266050
 Total energy in the small basis set = -119.05266050
 ----------------------------------------------------
  Cycle       Energy    
 ----------------------------------------------------
    1     -16.3756852736     -1.64E+01
 Long-range K will be added via erf
 Coulomb attenuation parameter = 0.2 bohr**(-1)
 A restricted hybrid HF-DFT SCF calculation will be
 performed using Relaxed Constraint Minimization + Pulay DIIS
 Exchange:     0.2220 Hartree-Fock + 1.0000 wB97X-D + LR-HF
 Correlation:  1.0000 wB97X-D
 Using Euler-Maclaurin-Lebedev (75,302) quadrature formula
 Dispersion:   Grimme D
 SCF converges when DIIS error is below 1.0E-05
 Basis2 calculation detected. Using small basis as guess for larger.
 SCFMinFind is unable to tell whether the solution found is close.
 Resetting ReadMinima to 0 and attempting to follow guess.
 SCFMinFind following SCF Guess.
 using 3 threads for integral computing
 -------------------------------------------------------
 OpenMP Integral computing Module                
 Release: version 1.0, May 2013, Q-Chem Inc. Pittsburgh 
 -------------------------------------------------------
 using 3 threads for integral computing
 -------------------------------------------------------
 OpenMP Integral computing Module                
 Release: version 1.0, May 2013, Q-Chem Inc. Pittsburgh 
 -------------------------------------------------------
 ---------------------------------------
  Cycle       Energy         DIIS Error
 ---------------------------------------
    1    -119.0713257063      4.22E-03
    2    -119.0936109224      5.78E-04 Done RCA. Switching to DIIS
    3    -119.0945126625      3.78E-04
    4    -119.0953179112      4.08E-05
    5    -119.0953307926      7.83E-06 Convergence criterion met
 ---------------------------------------
 SCF time:  CPU 41.55 s  wall 14.12 s

 Q-Chem warning in module 0, line  198:

 OriOrb: Failure to resolve orbital degeneracies.


 Q-Chem warning in module 0, line  198:

 OriOrb: Failure to resolve orbital degeneracies.

 SCF   energy in the final basis set = -119.09533079
 Total energy in the final basis set = -119.09533079
 
 --------------------------------------------------------------
 
                    Orbital Energies (a.u.)
 --------------------------------------------------------------
 
 Alpha MOs
 -- Occupied --
-10.3115 -10.2839 -10.2838  -0.8320  -0.7674  -0.6989  -0.5186  -0.5083
 -0.4628  -0.4595  -0.4294  -0.4071  -0.4062
 -- Virtual --
  0.0700   0.0804   0.0845   0.1046   0.1224   0.1301   0.1331   0.1419
  0.1457   0.1635   0.1728   0.1920   0.2046   0.2187   0.2372   0.2502
  0.2538   0.2645   0.2816   0.2891   0.3306   0.3332   0.4452   0.4551
  0.4719   0.5061   0.5165   0.5355   0.5589   0.5589   0.5766   0.5831
  0.5918   0.5958   0.6167   0.6233   0.6438   0.6489   0.7038   0.7075
  0.7213   0.7528   0.7734   0.8051   0.8440   0.8602   0.9127   0.9396
  1.0001   1.0124   1.0141   1.0737   1.1062   1.1683   1.1719   1.1807
  1.1861   1.1956   1.2288   1.2371   1.2484   1.2736   1.2824   1.2925
  1.3061   1.3574   1.3722   1.4336   1.4498   1.4551   1.4601   1.4816
  1.4941   1.5177   1.5908   1.6104   1.6109   1.6497   1.6665   1.6729
  1.7153   2.3655   2.3769   2.4492   2.4522   2.4764   2.4928   2.5422
  2.5491   2.5848   2.6789   2.6905   2.8010   2.8350   2.8413   2.9233
  2.9288   2.9338   2.9656   3.0114   3.0403   3.0565   3.0794   3.1065
  3.1070   3.1440   3.1513   3.1575   3.1610   3.2018   3.2370   3.2519
  3.2882   3.2967   3.3107   3.3304   3.3349   3.3422   3.3522   3.3773
  3.3800   3.3924   3.4294   3.5008   3.5436   3.5499   3.5578   3.5730
  3.6080   3.6162   3.6354   3.6588   3.6596   3.6654   3.7088   3.7772
  3.7884   3.8004   3.8541   3.8578   3.8979   3.9142   3.9718   3.9756
  4.0067   4.0232   4.0506   4.0595   4.0849   4.0998   4.1099   4.1828
  4.1908   4.1958   4.2321   4.2504   4.2862   4.3000   4.3022   4.3509
  4.3552   4.4162   4.4617   4.5175   4.5961   4.6241   4.8143   4.8268
  4.8444   4.8696   4.9145   4.9283   4.9670   4.9926   5.0085   5.0509
  5.0737   5.1352   5.1572   5.1652   5.1660   5.1844   5.2172   5.2698
  5.2923   5.3109   5.3138   5.3306   5.3477   5.3734   5.4133   5.5232
  5.6458   6.3458   6.3735   6.3911   6.4208   6.4338  24.9335  25.3125
 25.3502
 --------------------------------------------------------------
 
 -----------------------------------------------------------------
                    Cartesian Multipole Moments
 -----------------------------------------------------------------
    Charge (ESU x 10^10)
                -0.0000
    Dipole Moment (Debye)
         X       0.0000      Y      -0.0309      Z       0.0820
       Tot       0.0876
    Quadrupole Moments (Debye-Ang)
        XX     -21.1560     XY      -0.0000     YY     -21.8274
        XZ      -0.0000     YZ       0.0623     ZZ     -21.9077
    Octopole Moments (Debye-Ang^2)
       XXX      -0.0000    XXY       0.0028    XYY       0.0000
       YYY      -0.5163    XXZ       0.7883    XYZ       0.0000
       YYZ       1.1622    XZZ       0.0000    YZZ       0.0581
       ZZZ       1.7940
    Hexadecapole Moments (Debye-Ang^3)
      XXXX    -221.1848   XXXY      -0.0000   XXYY     -49.4877
      XYYY      -0.0000   YYYY     -44.3683   XXXZ      -0.0000
      XXYZ      -0.2701   XYYZ      -0.0000   YYYZ      -0.5065
      XXZZ     -56.1798   XYZZ      -0.0000   YYZZ     -18.5820
      XZZZ      -0.0000   YZZZ      -0.5247   ZZZZ     -84.5618
 -----------------------------------------------------------------
Archival summary:
1\1\centos77-c4\SP\ProcedureUnspecified\BasisUnspecified\38\shihchen\TueJul701:15:322020TueJul701:15:322020\0\\#,ProcedureUnspecified,BasisUnspecified,\\0,1\C\H,1,1.09224\H,1,1.09236,2,106.762\C,1,1.76235,2,110.645,3,120.927,0\H,4,1.09221,1,124.526,2,-62.3073,0\H,4,1.09311,1,106.518,2,171.581,0\H,4,1.09392,1,105.093,2,60.7751,0\C,1,1.76235,2,110.645,3,-120.927,0\H,8,1.09221,1,124.526,2,62.307,0\H,8,1.09311,1,106.518,2,-171.581,0\H,8,1.09392,1,105.093,2,-60.7751,0\\\@

 Total job time:  24.42s(wall), 65.80s(cpu) 
 Tue Jul  7 01:15:32 2020

        *************************************************************
        *                                                           *
        *  Thank you very much for using Q-Chem.  Have a nice day.  *
        *                                                           *
        *************************************************************


