                  Welcome to Q-Chem
     A Quantum Leap Into The Future Of Chemistry


 Q-Chem 5.3 (devel), Q-Chem, Inc., Pleasanton, CA (2020)

 Yihan Shao,  Zhengting Gan,  E. Epifanovsky,  A. T. B. Gilbert,  M. Wormit,  
 J. Kussmann,  A. W. Lange,  A. Behn,  Jia Deng,  Xintian Feng,  D. Ghosh,  
 M. Goldey,  P. R. Horn,  L. D. Jacobson,  I. Kaliman,  T. Kus,  A. Landau,  
 Jie Liu,  E. I. Proynov,  R. M. Richard,  R. P. Steele,  E. J. Sundstrom,  
 H. L. Woodcock III,  P. M. Zimmerman,  D. Zuev,  B. Alam,  B. Albrecht,  
 E. Alguire,  S. A. Baeppler,  D. Barton,  Z. Benda,  Y. A. Bernard,  
 E. J. Berquist,  K. B. Bravaya,  H. Burton,  K. Carter-Fenk,  D. Casanova,  
 Chun-Min Chang,  Yunqing Chen,  A. Chien,  K. D. Closser,  M. P. Coons,  
 S. Coriani,  S. Dasgupta,  A. L. Dempwolff,  M. Diedenhofen,  Hainam Do,  
 R. G. Edgar,  Po-Tung Fang,  S. Faraji,  S. Fatehi,  Qingguo Feng,  
 J. Fosso-Tande,  J. Gayvert,  Qinghui Ge,  A. Ghysels,  G. Gidofalvi,  
 J. Gomes,  J. Gonthier,  A. Gunina,  D. Hait,  M. W. D. Hanson-Heine,  
 P. H. P. Harbach,  A. W. Hauser,  M. F. Herbst,  J. E. Herr,  
 E. G. Hohenstein,  Z. C. Holden,  Kerwin Hui,  B. C. Huynh,  T.-C. Jagau,  
 Hyunjun Ji,  B. Kaduk,  K. Khistyaev,  Jaehoon Kim,  P. Klunzinger,  K. Koh,  
 D. Kosenkov,  L. Koulias,  T. Kowalczyk,  C. M. Krauter,  A. Kunitsa,  
 Ka Un Lao,  A. Laurent,  K. V. Lawler,  Joonho Lee,  D. Lefrancois,  
 S. Lehtola,  D. S. Levine,  Yi-Pei Li,  You-Sheng Lin,  Fenglai Liu,  
 Kuan-Yu Liu,  E. Livshits,  M. Loipersberger,  A. Luenser,  P. Manohar,  
 E. Mansoor,  S. F. Manzer,  Shan-Ping Mao,  Yuezhi Mao,  N. Mardirossian,  
 A. V. Marenich,  T. Markovich,  L. A. Martinez-Martinez,  S. A. Maurer,  
 N. J. Mayhall,  S. C. McKenzie,  J.-M. Mewes,  P. Morgante,  A. F. Morrison,  
 J. W. Mullinax,  K. Nanda,  T. S. Nguyen-Beck,  R. Olivares-Amaya,  
 K. J. Oosterbaan,  J. A. Parkhill,  S. K. Paul,  F. Pavosevic,  Zheng Pei,  
 T. M. Perrine,  F. Plasser,  P. Pokhilko,  S. Prager,  A. Prociuk,  
 E. Ramos,  B. Rana,  D. R. Rehn,  F. Rob,  M. Scheurer,  M. Schneider,  
 N. Sergueev,  S. M. Sharada,  S. Sharma,  D. W. Small,  T. Stauch,  
 C. J. Stein,  T. Stein,  Yu-Chuan Su,  S. P. Veccham,  Zhen Tao,  
 A. J. W. Thom,  A. Tkatchenko,  T. Tsuchimochi,  N. M. Tubman,  L. Vogt,  
 M. L. Vidal,  O. Vydrov,  M. A. Watson,  J. Wenzel,  M. de Wergifosse,  
 T. A. Wesolowski,  A. White,  J. Witte,  A. Yamada,  Jun Yang,  K. Yao,  
 S. Yeganeh,  S. R. Yost,  Zhi-Qiang You,  A. Zech,  Igor Ying Zhang,  
 Xing Zhang,  Yan Zhao,  Ying Zhu,  B. R. Brooks,  G. K. L. Chan,  
 C. J. Cramer,  M. S. Gordon,  W. J. Hehre,  A. Klamt,  M. W. Schmidt,  
 C. D. Sherrill,  D. G. Truhlar,  A. Aspuru-Guzik,  R. Baer,  A. T. Bell,  
 N. A. Besley,  Jeng-Da Chai,  A. E. DePrince, III,  R. A. DiStasio Jr.,  
 A. Dreuw,  B. D. Dunietz,  T. R. Furlani,  Chao-Ping Hsu,  Yousung Jung,  
 Jing Kong,  D. S. Lambrecht,  WanZhen Liang,  C. Ochsenfeld,  
 V. A. Rassolov,  L. V. Slipchenko,  J. E. Subotnik,  T. Van Voorhis,  
 J. M. Herbert,  A. I. Krylov,  P. M. W. Gill,  M. Head-Gordon

 Contributors to earlier versions of Q-Chem not listed above: 
 R. D. Adamson,  B. Austin,  J. Baker,  G. J. O. Beran,  K. Brandhorst,  
 S. T. Brown,  E. F. C. Byrd,  A. K. Chakraborty,  C.-L. Cheng,  
 Siu Hung Chien,  D. M. Chipman,  D. L. Crittenden,  H. Dachsel,  
 R. J. Doerksen,  A. D. Dutoi,  L. Fusti-Molnar,  W. A. Goddard III,  
 A. Golubeva-Zadorozhnaya,  S. R. Gwaltney,  G. Hawkins,  A. Heyden,  
 S. Hirata,  G. Kedziora,  F. J. Keil,  C. Kelley,  Jihan Kim,  R. A. King,  
 R. Z. Khaliullin,  P. P. Korambath,  W. Kurlancheek,  A. M. Lee,  M. S. Lee,  
 S. V. Levchenko,  Ching Yeh Lin,  D. Liotard,  R. C. Lochan,  I. Lotan,  
 P. E. Maslen,  N. Nair,  D. P. O'Neill,  D. Neuhauser,  E. Neuscamman,  
 C. M. Oana,  R. Olson,  B. Peters,  R. Peverati,  P. A. Pieniazek,  
 Y. M. Rhee,  J. Ritchie,  M. A. Rohrdanz,  E. Rosta,  N. J. Russ,  
 H. F. Schaefer III,  N. E. Schultz,  N. Shenvi,  A. C. Simmonett,  A. Sodt,  
 D. Stuck,  K. S. Thanthiriwatte,  V. Vanovschi,  Tao Wang,  A. Warshel,  
 C. F. Williams,  Q. Wu,  X. Xu,  W. Zhang

 Please cite Q-Chem as follows:
 Y. Shao et al., Mol. Phys. 113, 184-215 (2015)
 DOI: 10.1080/00268976.2014.952696

 Q-Chem 5.3.0 for Intel X86 EM64T Linux

 Parts of Q-Chem use Armadillo 9.800.1 (Horizon Scraper).
 http://arma.sourceforge.net/

 Q-Chem begins on Tue Jul  7 01:06:11 2020  

Host: centos77-c4
0

     Scratch files written to /tmp/26964.centos77-h1/qchem96826//
Processing $rem in /opt/qchem-5.3.0-intel2020u1//config/preferences:
Processing $rem in /home/shihchengli/.qchemrc:

Checking the input file for inconsistencies... 	...done.

--------------------------------------------------------------
User input:
--------------------------------------------------------------
$rem
   JOBTYPE  sp
   EXCHANGE   omegaB97X-D
   BASIS   6-311+G(2df,2pd)
   UNRESTRICTED   False
   max_scf_cycles   250
   geom_opt_max_cycles   1500
   basis2 6-31G*
   scf_algorithm rca_diis
   SYM_IGNORE  TRUE
   print_input   true
   geom_opt_dmax   80
   pop_mulliken false
   XC_GRID 000075000302
$end

$molecule
0 1
C       1.5271305564     -0.0064474267     0.2693873249
C       -0.0000000788     0.0229661771     -0.0598477352
H       1.9294562655     -0.8837108964     0.7758622012
H       1.9851894161     0.8896675216     0.6890418964
H       1.8650787967     -0.0609850602     -0.7708735410
C       -1.5271308173     -0.0064482641     0.2693865814
H       0.0000010853     -0.7902372394     -0.7957960800
H       -0.0000004778     0.8902240924     -0.7301465143
H       -1.9294566972     -0.8837117626     0.7758612592
H       -1.8650799468     -0.0609827921     -0.7708738486
H       -1.9851881628     0.8896663164     0.6890434749
$end
--------------------------------------------------------------
 ----------------------------------------------------------------
             Standard Nuclear Orientation (Angstroms)
    I     Atom           X                Y                Z
 ----------------------------------------------------------------
    1      C       1.5271305564    -0.0064474267     0.2693873249
    2      C      -0.0000000788     0.0229661771    -0.0598477352
    3      H       1.9294562655    -0.8837108964     0.7758622012
    4      H       1.9851894161     0.8896675216     0.6890418964
    5      H       1.8650787967    -0.0609850602    -0.7708735410
    6      C      -1.5271308173    -0.0064482641     0.2693865814
    7      H       0.0000010853    -0.7902372394    -0.7957960800
    8      H      -0.0000004778     0.8902240924    -0.7301465143
    9      H      -1.9294566972    -0.8837117626     0.7758612592
   10      H      -1.8650799468    -0.0609827921    -0.7708738486
   11      H      -1.9851881628     0.8896663164     0.6890434749
 ----------------------------------------------------------------
 Nuclear Repulsion Energy =          80.01817304 hartrees
 There are       13 alpha and       13 beta electrons
 Requested basis set is 6-311+G(2df,2pd)
 There are 72 shells and 214 basis functions

 Total QAlloc Memory Limit   2000 MB
 Mega-Array Size       188 MB
 MEM_STATIC part       192 MB

                       Distance Matrix (Angstroms)
             C (  1)   C (  2)   H (  3)   H (  4)   H (  5)   C (  6)
   C (  2)  1.562494
   H (  3)  1.089942  2.289820
   H (  4)  1.090390  2.291939  1.776377
   H (  5)  1.095137  1.997780  1.753115  1.746287
   C (  6)  3.054261  1.562494  3.601958  3.649045  3.548549
   H (  7)  2.020165  1.096777  2.490310  2.994628  2.002734  2.020166
   H (  8)  2.033523  1.096101  3.022865  2.440302  2.094034  2.033523
   H (  9)  3.601958  2.289820  3.858913  4.298473  4.179446  1.089942
   H ( 10)  3.548550  1.997781  4.179447  4.226070  3.730159  1.095137
   H ( 11)  3.649043  2.291938  4.298470  3.970378  4.226068  1.090390
             H (  7)   H (  8)   H (  9)   H ( 10)
   H (  8)  1.681743
   H (  9)  2.490312  3.022864
   H ( 10)  2.002738  2.094033  1.753116
   H ( 11)  2.994629  2.440301  1.776376  1.746287
 
 A cutoff of  1.0D-09 yielded   2463 shell pairs
 There are     21698 function pairs (     26615 Cartesian)
 Smallest overlap matrix eigenvalue = 6.81E-05

 Scale SEOQF with 1.000000e-01/1.000000e-01/1.000000e-01

 Standard Electronic Orientation quadrupole field applied
 Nucleus-field energy     =     0.0000000015 hartrees
 Requested basis set is 6-31G(d)
 There are 28 shells and 58 basis functions
 A cutoff of  1.0D-09 yielded    391 shell pairs
 There are      1754 function pairs (      1947 Cartesian)
 Smallest overlap matrix eigenvalue = 6.71E-03
 Guess from superposition of atomic densities
 Warning:  Energy on first SCF cycle will be non-variational
 SAD guess density has 26.000000 electrons
 Long-range K will be added via erf
 Coulomb attenuation parameter = 0.2 bohr**(-1)
 A restricted hybrid HF-DFT SCF calculation will be
 performed using Relaxed Constraint Minimization + Pulay DIIS
 Exchange:     0.2220 Hartree-Fock + 1.0000 wB97X-D + LR-HF
 Correlation:  1.0000 wB97X-D
 Using Euler-Maclaurin-Lebedev (75,302) quadrature formula
 Dispersion:   Grimme D
 SCF converges when DIIS error is below 1.0E-04
 using 3 threads for integral computing
 -------------------------------------------------------
 OpenMP Integral computing Module                
 Release: version 1.0, May 2013, Q-Chem Inc. Pittsburgh 
 -------------------------------------------------------
 using 3 threads for integral computing
 -------------------------------------------------------
 OpenMP Integral computing Module                
 Release: version 1.0, May 2013, Q-Chem Inc. Pittsburgh 
 -------------------------------------------------------
 ---------------------------------------
  Cycle       Energy         DIIS Error
 ---------------------------------------
    1    -119.5738573910      9.88E-02
    2    -119.0106251595      8.15E-03
    3    -119.0289202299      2.72E-03
    4    -119.0395616461      1.88E-03
    5    -119.0404546896      3.24E-04 Done RCA. Switching to DIIS
    6    -119.0410894731      2.47E-04
    7    -119.0411160658      4.61E-06 Convergence criterion met
 ---------------------------------------
 SCF time:  CPU 18.30 s  wall 6.69 s
 SCF   energy in the small basis set = -119.04111607
 Total energy in the small basis set = -119.04111607
 ----------------------------------------------------
  Cycle       Energy    
 ----------------------------------------------------
    1     -16.5093249893     -1.65E+01
 Long-range K will be added via erf
 Coulomb attenuation parameter = 0.2 bohr**(-1)
 A restricted hybrid HF-DFT SCF calculation will be
 performed using Relaxed Constraint Minimization + Pulay DIIS
 Exchange:     0.2220 Hartree-Fock + 1.0000 wB97X-D + LR-HF
 Correlation:  1.0000 wB97X-D
 Using Euler-Maclaurin-Lebedev (75,302) quadrature formula
 Dispersion:   Grimme D
 SCF converges when DIIS error is below 1.0E-05
 Basis2 calculation detected. Using small basis as guess for larger.
 SCFMinFind is unable to tell whether the solution found is close.
 Resetting ReadMinima to 0 and attempting to follow guess.
 SCFMinFind following SCF Guess.
 using 3 threads for integral computing
 -------------------------------------------------------
 OpenMP Integral computing Module                
 Release: version 1.0, May 2013, Q-Chem Inc. Pittsburgh 
 -------------------------------------------------------
 using 3 threads for integral computing
 -------------------------------------------------------
 OpenMP Integral computing Module                
 Release: version 1.0, May 2013, Q-Chem Inc. Pittsburgh 
 -------------------------------------------------------
 ---------------------------------------
  Cycle       Energy         DIIS Error
 ---------------------------------------
    1    -119.0615933217      4.21E-03
    2    -119.0834222465      5.69E-04 Done RCA. Switching to DIIS
    3    -119.0842343525      3.86E-04
    4    -119.0850547884      4.92E-05
    5    -119.0850706904      1.58E-05
    6    -119.0850721954      4.23E-06 Convergence criterion met
 ---------------------------------------
 SCF time:  CPU 48.86 s  wall 16.55 s
 SCF   energy in the final basis set = -119.08507220
 Total energy in the final basis set = -119.08507220
 
 --------------------------------------------------------------
 
                    Orbital Energies (a.u.)
 --------------------------------------------------------------
 
 Alpha MOs
 -- Occupied --
-10.2818 -10.2772 -10.2772  -0.8763  -0.7955  -0.6711  -0.5379  -0.5048
 -0.5022  -0.4789  -0.4272  -0.3980  -0.3767
 -- Virtual --
  0.0600   0.0851   0.0961   0.0984   0.1094   0.1272   0.1313   0.1585
  0.1692   0.1726   0.2044   0.2144   0.2211   0.2221   0.2357   0.2409
  0.2563   0.2712   0.2790   0.2998   0.3192   0.3786   0.4668   0.4783
  0.4819   0.4915   0.5278   0.5390   0.5606   0.5623   0.5710   0.5896
  0.5950   0.6007   0.6308   0.6426   0.6667   0.6837   0.6948   0.7075
  0.7214   0.7503   0.8419   0.8493   0.8738   0.8905   0.9372   0.9525
  0.9525   0.9675   1.0315   1.0636   1.1356   1.1473   1.1708   1.1827
  1.2258   1.2402   1.2625   1.2774   1.2896   1.3064   1.3189   1.3369
  1.3496   1.3930   1.4237   1.4375   1.4457   1.4466   1.4679   1.4726
  1.4924   1.5984   1.6075   1.6236   1.6331   1.6622   1.7216   1.7585
  1.8022   2.4045   2.4429   2.4619   2.4883   2.5353   2.5837   2.6408
  2.6839   2.6942   2.7217   2.7953   2.8378   2.8566   2.9174   2.9484
  2.9485   2.9543   3.0051   3.0125   3.0319   3.0487   3.0771   3.1118
  3.1210   3.1355   3.1558   3.1852   3.2134   3.2314   3.2518   3.2530
  3.2681   3.2894   3.2915   3.3329   3.3425   3.3626   3.3659   3.4113
  3.4324   3.4348   3.5415   3.5537   3.5632   3.5946   3.6089   3.6115
  3.6447   3.6528   3.6809   3.7052   3.7157   3.7368   3.7574   3.8009
  3.8226   3.8381   3.8894   3.9048   3.9559   4.0028   4.0211   4.0502
  4.0941   4.0996   4.1277   4.1408   4.1599   4.1844   4.2028   4.2093
  4.2187   4.2194   4.3085   4.3428   4.3613   4.3788   4.4627   4.4833
  4.4870   4.5888   4.6196   4.6265   4.7490   4.7929   4.8627   4.8800
  4.8917   4.9244   4.9629   4.9853   5.0225   5.0761   5.1147   5.1147
  5.1861   5.1974   5.2023   5.2451   5.2920   5.3121   5.3152   5.3399
  5.3566   5.4324   5.4443   5.4526   5.6450   5.6809   5.6937   5.8166
  6.0094   6.3829   6.3919   6.3944   6.4250   6.4655  25.1998  25.3770
 25.4128
 --------------------------------------------------------------
 
 -----------------------------------------------------------------
                    Cartesian Multipole Moments
 -----------------------------------------------------------------
    Charge (ESU x 10^10)
                -0.0000
    Dipole Moment (Debye)
         X       0.0000      Y      -0.0092      Z      -0.3915
       Tot       0.3916
    Quadrupole Moments (Debye-Ang)
        XX     -21.6285     XY      -0.0000     YY     -21.4894
        XZ       0.0000     YZ      -0.0290     ZZ     -22.0341
    Octopole Moments (Debye-Ang^2)
       XXX       0.0000    XXY       0.1356    XYY       0.0000
       YYY      -0.0026    XXZ      -2.0419    XYZ       0.0000
       YYZ      -1.6995    XZZ      -0.0000    YZZ      -0.2907
       ZZZ      -8.4304
    Hexadecapole Moments (Debye-Ang^3)
      XXXX    -282.0291   XXXY      -0.0000   XXYY     -50.8014
      XYYY      -0.0000   YYYY     -43.9270   XXXZ      -0.0000
      XXYZ       0.0664   XYYZ      -0.0000   YYYZ       0.0821
      XXZZ     -53.0569   XYZZ      -0.0000   YYZZ     -14.8633
      XZZZ      -0.0000   YZZZ       0.2126   ZZZZ     -50.8760
 -----------------------------------------------------------------
Archival summary:
1\1\centos77-c4\SP\ProcedureUnspecified\BasisUnspecified\38\shihchen\TueJul701:06:372020TueJul701:06:372020\0\\#,ProcedureUnspecified,BasisUnspecified,\\0,1\C\H,1,1.0961\H,1,1.09678,2,100.155\C,1,1.56249,2,98.2649,3,-99.0233,0\H,4,1.08994,1,118.284,2,168.146,0\H,4,1.09039,1,118.438,2,-56.259,0\H,4,1.09514,1,95.8769,2,55.5968,0\C,1,1.56249,2,98.265,3,99.0232,0\H,8,1.08994,1,118.284,2,-168.146,0\H,8,1.09039,1,118.438,2,56.2589,0\H,8,1.09514,1,95.8768,2,-55.597,0\\\@

 Total job time:  26.01s(wall), 70.69s(cpu) 
 Tue Jul  7 01:06:37 2020

        *************************************************************
        *                                                           *
        *  Thank you very much for using Q-Chem.  Have a nice day.  *
        *                                                           *
        *************************************************************


