                  Welcome to Q-Chem
     A Quantum Leap Into The Future Of Chemistry


 Q-Chem 5.3 (devel), Q-Chem, Inc., Pleasanton, CA (2020)

 Yihan Shao,  Zhengting Gan,  E. Epifanovsky,  A. T. B. Gilbert,  M. Wormit,  
 J. Kussmann,  A. W. Lange,  A. Behn,  Jia Deng,  Xintian Feng,  D. Ghosh,  
 M. Goldey,  P. R. Horn,  L. D. Jacobson,  I. Kaliman,  T. Kus,  A. Landau,  
 Jie Liu,  E. I. Proynov,  R. M. Richard,  R. P. Steele,  E. J. Sundstrom,  
 H. L. Woodcock III,  P. M. Zimmerman,  D. Zuev,  B. Alam,  B. Albrecht,  
 E. Alguire,  S. A. Baeppler,  D. Barton,  Z. Benda,  Y. A. Bernard,  
 E. J. Berquist,  K. B. Bravaya,  H. Burton,  K. Carter-Fenk,  D. Casanova,  
 Chun-Min Chang,  Yunqing Chen,  A. Chien,  K. D. Closser,  M. P. Coons,  
 S. Coriani,  S. Dasgupta,  A. L. Dempwolff,  M. Diedenhofen,  Hainam Do,  
 R. G. Edgar,  Po-Tung Fang,  S. Faraji,  S. Fatehi,  Qingguo Feng,  
 J. Fosso-Tande,  J. Gayvert,  Qinghui Ge,  A. Ghysels,  G. Gidofalvi,  
 J. Gomes,  J. Gonthier,  A. Gunina,  D. Hait,  M. W. D. Hanson-Heine,  
 P. H. P. Harbach,  A. W. Hauser,  M. F. Herbst,  J. E. Herr,  
 E. G. Hohenstein,  Z. C. Holden,  Kerwin Hui,  B. C. Huynh,  T.-C. Jagau,  
 Hyunjun Ji,  B. Kaduk,  K. Khistyaev,  Jaehoon Kim,  P. Klunzinger,  K. Koh,  
 D. Kosenkov,  L. Koulias,  T. Kowalczyk,  C. M. Krauter,  A. Kunitsa,  
 Ka Un Lao,  A. Laurent,  K. V. Lawler,  Joonho Lee,  D. Lefrancois,  
 S. Lehtola,  D. S. Levine,  Yi-Pei Li,  You-Sheng Lin,  Fenglai Liu,  
 Kuan-Yu Liu,  E. Livshits,  M. Loipersberger,  A. Luenser,  P. Manohar,  
 E. Mansoor,  S. F. Manzer,  Shan-Ping Mao,  Yuezhi Mao,  N. Mardirossian,  
 A. V. Marenich,  T. Markovich,  L. A. Martinez-Martinez,  S. A. Maurer,  
 N. J. Mayhall,  S. C. McKenzie,  J.-M. Mewes,  P. Morgante,  A. F. Morrison,  
 J. W. Mullinax,  K. Nanda,  T. S. Nguyen-Beck,  R. Olivares-Amaya,  
 K. J. Oosterbaan,  J. A. Parkhill,  S. K. Paul,  F. Pavosevic,  Zheng Pei,  
 T. M. Perrine,  F. Plasser,  P. Pokhilko,  S. Prager,  A. Prociuk,  
 E. Ramos,  B. Rana,  D. R. Rehn,  F. Rob,  M. Scheurer,  M. Schneider,  
 N. Sergueev,  S. M. Sharada,  S. Sharma,  D. W. Small,  T. Stauch,  
 C. J. Stein,  T. Stein,  Yu-Chuan Su,  S. P. Veccham,  Zhen Tao,  
 A. J. W. Thom,  A. Tkatchenko,  T. Tsuchimochi,  N. M. Tubman,  L. Vogt,  
 M. L. Vidal,  O. Vydrov,  M. A. Watson,  J. Wenzel,  M. de Wergifosse,  
 T. A. Wesolowski,  A. White,  J. Witte,  A. Yamada,  Jun Yang,  K. Yao,  
 S. Yeganeh,  S. R. Yost,  Zhi-Qiang You,  A. Zech,  Igor Ying Zhang,  
 Xing Zhang,  Yan Zhao,  Ying Zhu,  B. R. Brooks,  G. K. L. Chan,  
 C. J. Cramer,  M. S. Gordon,  W. J. Hehre,  A. Klamt,  M. W. Schmidt,  
 C. D. Sherrill,  D. G. Truhlar,  A. Aspuru-Guzik,  R. Baer,  A. T. Bell,  
 N. A. Besley,  Jeng-Da Chai,  A. E. DePrince, III,  R. A. DiStasio Jr.,  
 A. Dreuw,  B. D. Dunietz,  T. R. Furlani,  Chao-Ping Hsu,  Yousung Jung,  
 Jing Kong,  D. S. Lambrecht,  WanZhen Liang,  C. Ochsenfeld,  
 V. A. Rassolov,  L. V. Slipchenko,  J. E. Subotnik,  T. Van Voorhis,  
 J. M. Herbert,  A. I. Krylov,  P. M. W. Gill,  M. Head-Gordon

 Contributors to earlier versions of Q-Chem not listed above: 
 R. D. Adamson,  B. Austin,  J. Baker,  G. J. O. Beran,  K. Brandhorst,  
 S. T. Brown,  E. F. C. Byrd,  A. K. Chakraborty,  C.-L. Cheng,  
 Siu Hung Chien,  D. M. Chipman,  D. L. Crittenden,  H. Dachsel,  
 R. J. Doerksen,  A. D. Dutoi,  L. Fusti-Molnar,  W. A. Goddard III,  
 A. Golubeva-Zadorozhnaya,  S. R. Gwaltney,  G. Hawkins,  A. Heyden,  
 S. Hirata,  G. Kedziora,  F. J. Keil,  C. Kelley,  Jihan Kim,  R. A. King,  
 R. Z. Khaliullin,  P. P. Korambath,  W. Kurlancheek,  A. M. Lee,  M. S. Lee,  
 S. V. Levchenko,  Ching Yeh Lin,  D. Liotard,  R. C. Lochan,  I. Lotan,  
 P. E. Maslen,  N. Nair,  D. P. O'Neill,  D. Neuhauser,  E. Neuscamman,  
 C. M. Oana,  R. Olson,  B. Peters,  R. Peverati,  P. A. Pieniazek,  
 Y. M. Rhee,  J. Ritchie,  M. A. Rohrdanz,  E. Rosta,  N. J. Russ,  
 H. F. Schaefer III,  N. E. Schultz,  N. Shenvi,  A. C. Simmonett,  A. Sodt,  
 D. Stuck,  K. S. Thanthiriwatte,  V. Vanovschi,  Tao Wang,  A. Warshel,  
 C. F. Williams,  Q. Wu,  X. Xu,  W. Zhang

 Please cite Q-Chem as follows:
 Y. Shao et al., Mol. Phys. 113, 184-215 (2015)
 DOI: 10.1080/00268976.2014.952696

 Q-Chem 5.3.0 for Intel X86 EM64T Linux

 Parts of Q-Chem use Armadillo 9.800.1 (Horizon Scraper).
 http://arma.sourceforge.net/

 Q-Chem begins on Tue Jul  7 01:04:23 2020  

Host: centos77-c4
0

     Scratch files written to /tmp/26964.centos77-h1/qchem96519//
Processing $rem in /opt/qchem-5.3.0-intel2020u1//config/preferences:
Processing $rem in /home/shihchengli/.qchemrc:

Checking the input file for inconsistencies... 	...done.

--------------------------------------------------------------
User input:
--------------------------------------------------------------
$rem
   JOBTYPE  sp
   EXCHANGE   omegaB97X-D
   BASIS   6-311+G(2df,2pd)
   UNRESTRICTED   False
   max_scf_cycles   250
   geom_opt_max_cycles   1500
   basis2 6-31G*
   scf_algorithm rca_diis
   SYM_IGNORE  TRUE
   print_input   true
   geom_opt_dmax   80
   pop_mulliken false
   XC_GRID 000075000302
$end

$molecule
0 1
C       1.4476434409     -0.0053681919     0.2645480027
C       -0.0000000549     0.0178981525     -0.2807536037
H       1.7109579095     -0.8817947045     0.8580087717
H       1.7608462223     0.8885385509     0.8059113636
H       2.0409255912     -0.0448917985     -0.6528905616
C       -1.4476436719     -0.0053686709     0.2645475927
H       0.0000006497     -0.8200247832     -0.9858319569
H       -0.0000003251     0.8891597385     -0.9435243163
H       -1.7109582249     -0.8817951769     0.8580083166
H       -2.0409262391     -0.0448902531     -0.6528905787
H       -1.7608453581     0.8885378031     0.8059119889
$end
--------------------------------------------------------------
 ----------------------------------------------------------------
             Standard Nuclear Orientation (Angstroms)
    I     Atom           X                Y                Z
 ----------------------------------------------------------------
    1      C       1.4476434409    -0.0053681919     0.2645480027
    2      C      -0.0000000549     0.0178981525    -0.2807536037
    3      H       1.7109579095    -0.8817947045     0.8580087717
    4      H       1.7608462223     0.8885385509     0.8059113636
    5      H       2.0409255912    -0.0448917985    -0.6528905616
    6      C      -1.4476436719    -0.0053686709     0.2645475927
    7      H       0.0000006497    -0.8200247832    -0.9858319569
    8      H      -0.0000003251     0.8891597385    -0.9435243163
    9      H      -1.7109582249    -0.8817951769     0.8580083166
   10      H      -2.0409262391    -0.0448902531    -0.6528905787
   11      H      -1.7608453581     0.8885378031     0.8059119889
 ----------------------------------------------------------------
 Nuclear Repulsion Energy =          80.63471004 hartrees
 There are       13 alpha and       13 beta electrons
 Requested basis set is 6-311+G(2df,2pd)
 There are 72 shells and 214 basis functions

 Total QAlloc Memory Limit   2000 MB
 Mega-Array Size       188 MB
 MEM_STATIC part       192 MB

                       Distance Matrix (Angstroms)
             C (  1)   C (  2)   H (  3)   H (  4)   H (  5)   C (  6)
   C (  2)  1.547116
   H (  3)  1.090712  2.243570
   H (  4)  1.090981  2.244869  1.771802
   H (  5)  1.093270  2.075525  1.758437  1.754377
   C (  6)  2.895287  1.547116  3.331228  3.374397  3.607405
   H (  7)  2.079131  1.095103  2.516136  3.038110  2.208406  2.079131
   H (  8)  2.086933  1.094697  3.051095  2.482158  2.263250  2.086933
   H (  9)  3.331229  2.243570  3.421916  3.897463  4.130358  1.090712
   H ( 10)  3.607405  2.075526  4.130358  4.177663  4.081852  1.093270
   H ( 11)  3.374395  2.244868  3.897462  3.521692  4.177662  1.090981
             H (  7)   H (  8)   H (  9)   H ( 10)
   H (  8)  1.709708
   H (  9)  2.516136  3.051095
   H ( 10)  2.208408  2.263249  1.758438
   H ( 11)  3.038110  2.482157  1.771802  1.754377
 
 A cutoff of  1.0D-09 yielded   2475 shell pairs
 There are     21999 function pairs (     27055 Cartesian)
 Smallest overlap matrix eigenvalue = 8.51E-05

 Scale SEOQF with 1.000000e-01/1.000000e-01/1.000000e-01

 Standard Electronic Orientation quadrupole field applied
 Nucleus-field energy     =     0.0000000012 hartrees
 Requested basis set is 6-31G(d)
 There are 28 shells and 58 basis functions
 A cutoff of  1.0D-09 yielded    394 shell pairs
 There are      1765 function pairs (      1960 Cartesian)
 Smallest overlap matrix eigenvalue = 7.73E-03
 Guess from superposition of atomic densities
 Warning:  Energy on first SCF cycle will be non-variational
 SAD guess density has 26.000000 electrons
 Long-range K will be added via erf
 Coulomb attenuation parameter = 0.2 bohr**(-1)
 A restricted hybrid HF-DFT SCF calculation will be
 performed using Relaxed Constraint Minimization + Pulay DIIS
 Exchange:     0.2220 Hartree-Fock + 1.0000 wB97X-D + LR-HF
 Correlation:  1.0000 wB97X-D
 Using Euler-Maclaurin-Lebedev (75,302) quadrature formula
 Dispersion:   Grimme D
 SCF converges when DIIS error is below 1.0E-04
 using 3 threads for integral computing
 -------------------------------------------------------
 OpenMP Integral computing Module                
 Release: version 1.0, May 2013, Q-Chem Inc. Pittsburgh 
 -------------------------------------------------------
 using 3 threads for integral computing
 -------------------------------------------------------
 OpenMP Integral computing Module                
 Release: version 1.0, May 2013, Q-Chem Inc. Pittsburgh 
 -------------------------------------------------------
 ---------------------------------------
  Cycle       Energy         DIIS Error
 ---------------------------------------
    1    -119.5685924761      9.89E-02
    2    -119.0470208145      8.49E-03
    3    -119.0664599756      2.60E-03
    4    -119.0782951155      1.79E-03
    5    -119.0790974550      3.05E-04 Done RCA. Switching to DIIS
    6    -119.0796675773      2.28E-04
    7    -119.0796902944      4.13E-06 Convergence criterion met
 ---------------------------------------
 SCF time:  CPU 20.56 s  wall 7.85 s
 SCF   energy in the small basis set = -119.07969029
 Total energy in the small basis set = -119.07969029
 ----------------------------------------------------
  Cycle       Energy    
 ----------------------------------------------------
    1     -16.5183147673     -1.65E+01
 Long-range K will be added via erf
 Coulomb attenuation parameter = 0.2 bohr**(-1)
 A restricted hybrid HF-DFT SCF calculation will be
 performed using Relaxed Constraint Minimization + Pulay DIIS
 Exchange:     0.2220 Hartree-Fock + 1.0000 wB97X-D + LR-HF
 Correlation:  1.0000 wB97X-D
 Using Euler-Maclaurin-Lebedev (75,302) quadrature formula
 Dispersion:   Grimme D
 SCF converges when DIIS error is below 1.0E-05
 Basis2 calculation detected. Using small basis as guess for larger.
 SCFMinFind is unable to tell whether the solution found is close.
 Resetting ReadMinima to 0 and attempting to follow guess.
 SCFMinFind following SCF Guess.
 using 3 threads for integral computing
 -------------------------------------------------------
 OpenMP Integral computing Module                
 Release: version 1.0, May 2013, Q-Chem Inc. Pittsburgh 
 -------------------------------------------------------
 using 3 threads for integral computing
 -------------------------------------------------------
 OpenMP Integral computing Module                
 Release: version 1.0, May 2013, Q-Chem Inc. Pittsburgh 
 -------------------------------------------------------
 ---------------------------------------
  Cycle       Energy         DIIS Error
 ---------------------------------------
    1    -119.0992119869      4.21E-03
    2    -119.1211695099      5.74E-04 Done RCA. Switching to DIIS
    3    -119.1219958720      3.88E-04
    4    -119.1228251455      4.68E-05
    5    -119.1228400411      1.35E-05
    6    -119.1228411339      4.20E-06 Convergence criterion met
 ---------------------------------------
 SCF time:  CPU 47.05 s  wall 15.71 s
 SCF   energy in the final basis set = -119.12284113
 Total energy in the final basis set = -119.12284113
 
 --------------------------------------------------------------
 
                    Orbital Energies (a.u.)
 --------------------------------------------------------------
 
 Alpha MOs
 -- Occupied --
-10.2781 -10.2713 -10.2713  -0.8733  -0.7899  -0.6724  -0.5385  -0.5084
 -0.4975  -0.4745  -0.4275  -0.4006  -0.3945
 -- Virtual --
  0.0644   0.0864   0.0949   0.0992   0.1135   0.1283   0.1320   0.1537
  0.1583   0.1746   0.1914   0.2059   0.2271   0.2329   0.2391   0.2634
  0.2652   0.2737   0.2849   0.3049   0.3222   0.3682   0.4618   0.4729
  0.4839   0.4967   0.5233   0.5318   0.5492   0.5702   0.5809   0.5839
  0.5990   0.6006   0.6334   0.6470   0.6546   0.6722   0.6960   0.7150
  0.7309   0.7873   0.7999   0.8389   0.8638   0.8746   0.9414   0.9625
  0.9745   0.9997   1.0339   1.1172   1.1403   1.1518   1.1557   1.1900
  1.2360   1.2594   1.2647   1.2876   1.2899   1.2930   1.3014   1.3066
  1.3691   1.3826   1.3915   1.4511   1.4531   1.4610   1.4637   1.4822
  1.4875   1.5847   1.6034   1.6360   1.6607   1.6747   1.6849   1.7139
  1.7906   2.4162   2.4517   2.4823   2.4988   2.5449   2.5453   2.6067
  2.6480   2.6626   2.7441   2.8186   2.8600   2.8844   2.9290   2.9302
  2.9553   2.9943   3.0027   3.0293   3.0392   3.0516   3.0869   3.1113
  3.1330   3.1499   3.1576   3.1697   3.1832   3.1866   3.2068   3.2789
  3.2831   3.3124   3.3262   3.3314   3.3358   3.3545   3.3864   3.4023
  3.4353   3.4708   3.5018   3.5572   3.5638   3.5921   3.5970   3.6184
  3.6408   3.6562   3.6745   3.7252   3.7411   3.7746   3.7764   3.8236
  3.8872   3.8932   3.9041   3.9433   3.9629   3.9765   3.9868   4.0480
  4.0935   4.1224   4.1437   4.1469   4.1525   4.1726   4.1727   4.2005
  4.2389   4.2760   4.2783   4.3231   4.3573   4.4244   4.4371   4.4669
  4.4887   4.5283   4.5417   4.6233   4.7711   4.8320   4.8472   4.8894
  4.9039   4.9474   4.9553   4.9623   5.0125   5.0161   5.0726   5.0998
  5.1237   5.1401   5.2191   5.2480   5.2930   5.3037   5.3091   5.3358
  5.3504   5.3889   5.4519   5.4697   5.5887   5.6250   5.6582   5.8747
  5.9035   6.3666   6.3828   6.3919   6.4026   6.4625  25.2014  25.3928
 25.4289
 --------------------------------------------------------------
 
 -----------------------------------------------------------------
                    Cartesian Multipole Moments
 -----------------------------------------------------------------
    Charge (ESU x 10^10)
                 0.0000
    Dipole Moment (Debye)
         X       0.0000      Y      -0.0040      Z      -0.2088
       Tot       0.2089
    Quadrupole Moments (Debye-Ang)
        XX     -21.8831     XY      -0.0000     YY     -21.4358
        XZ       0.0000     YZ      -0.0091     ZZ     -21.8097
    Octopole Moments (Debye-Ang^2)
       XXX       0.0000    XXY       0.0546    XYY       0.0000
       YYY       0.0260    XXZ      -2.0560    XYZ       0.0000
       YYZ      -0.6190    XZZ      -0.0000    YZZ      -0.1802
       ZZZ      -4.6779
    Hexadecapole Moments (Debye-Ang^3)
      XXXX    -259.0816   XXXY      -0.0000   XXYY     -48.5786
      XYYY      -0.0000   YYYY     -44.0510   XXXZ       0.0000
      XXYZ       0.2653   XYYZ      -0.0000   YYYZ       0.1650
      XXZZ     -49.4308   XYZZ      -0.0000   YYZZ     -15.4174
      XZZZ      -0.0000   YZZZ       0.1969   ZZZZ     -58.1714
 -----------------------------------------------------------------
Archival summary:
1\1\centos77-c4\SP\ProcedureUnspecified\BasisUnspecified\38\shihchen\TueJul701:04:492020TueJul701:04:492020\0\\#,ProcedureUnspecified,BasisUnspecified,\\0,1\C\H,1,1.0947\H,1,1.0951,2,102.66\C,1,1.54712,2,103.024,3,-106.176,0\H,4,1.09071,1,115.452,2,172.454,0\H,4,1.09098,1,115.544,2,-59.2939,0\H,4,1.09327,1,102.272,2,56.3742,0\C,1,1.54712,2,103.024,3,106.176,0\H,8,1.09071,1,115.452,2,-172.454,0\H,8,1.09098,1,115.544,2,59.2938,0\H,8,1.09327,1,102.271,2,-56.3744,0\\\@

 Total job time:  26.40s(wall), 71.18s(cpu) 
 Tue Jul  7 01:04:49 2020

        *************************************************************
        *                                                           *
        *  Thank you very much for using Q-Chem.  Have a nice day.  *
        *                                                           *
        *************************************************************


