                  Welcome to Q-Chem
     A Quantum Leap Into The Future Of Chemistry


 Q-Chem 5.3 (devel), Q-Chem, Inc., Pleasanton, CA (2020)

 Yihan Shao,  Zhengting Gan,  E. Epifanovsky,  A. T. B. Gilbert,  M. Wormit,  
 J. Kussmann,  A. W. Lange,  A. Behn,  Jia Deng,  Xintian Feng,  D. Ghosh,  
 M. Goldey,  P. R. Horn,  L. D. Jacobson,  I. Kaliman,  T. Kus,  A. Landau,  
 Jie Liu,  E. I. Proynov,  R. M. Richard,  R. P. Steele,  E. J. Sundstrom,  
 H. L. Woodcock III,  P. M. Zimmerman,  D. Zuev,  B. Alam,  B. Albrecht,  
 E. Alguire,  S. A. Baeppler,  D. Barton,  Z. Benda,  Y. A. Bernard,  
 E. J. Berquist,  K. B. Bravaya,  H. Burton,  K. Carter-Fenk,  D. Casanova,  
 Chun-Min Chang,  Yunqing Chen,  A. Chien,  K. D. Closser,  M. P. Coons,  
 S. Coriani,  S. Dasgupta,  A. L. Dempwolff,  M. Diedenhofen,  Hainam Do,  
 R. G. Edgar,  Po-Tung Fang,  S. Faraji,  S. Fatehi,  Qingguo Feng,  
 J. Fosso-Tande,  J. Gayvert,  Qinghui Ge,  A. Ghysels,  G. Gidofalvi,  
 J. Gomes,  J. Gonthier,  A. Gunina,  D. Hait,  M. W. D. Hanson-Heine,  
 P. H. P. Harbach,  A. W. Hauser,  M. F. Herbst,  J. E. Herr,  
 E. G. Hohenstein,  Z. C. Holden,  Kerwin Hui,  B. C. Huynh,  T.-C. Jagau,  
 Hyunjun Ji,  B. Kaduk,  K. Khistyaev,  Jaehoon Kim,  P. Klunzinger,  K. Koh,  
 D. Kosenkov,  L. Koulias,  T. Kowalczyk,  C. M. Krauter,  A. Kunitsa,  
 Ka Un Lao,  A. Laurent,  K. V. Lawler,  Joonho Lee,  D. Lefrancois,  
 S. Lehtola,  D. S. Levine,  Yi-Pei Li,  You-Sheng Lin,  Fenglai Liu,  
 Kuan-Yu Liu,  E. Livshits,  M. Loipersberger,  A. Luenser,  P. Manohar,  
 E. Mansoor,  S. F. Manzer,  Shan-Ping Mao,  Yuezhi Mao,  N. Mardirossian,  
 A. V. Marenich,  T. Markovich,  L. A. Martinez-Martinez,  S. A. Maurer,  
 N. J. Mayhall,  S. C. McKenzie,  J.-M. Mewes,  P. Morgante,  A. F. Morrison,  
 J. W. Mullinax,  K. Nanda,  T. S. Nguyen-Beck,  R. Olivares-Amaya,  
 K. J. Oosterbaan,  J. A. Parkhill,  S. K. Paul,  F. Pavosevic,  Zheng Pei,  
 T. M. Perrine,  F. Plasser,  P. Pokhilko,  S. Prager,  A. Prociuk,  
 E. Ramos,  B. Rana,  D. R. Rehn,  F. Rob,  M. Scheurer,  M. Schneider,  
 N. Sergueev,  S. M. Sharada,  S. Sharma,  D. W. Small,  T. Stauch,  
 C. J. Stein,  T. Stein,  Yu-Chuan Su,  S. P. Veccham,  Zhen Tao,  
 A. J. W. Thom,  A. Tkatchenko,  T. Tsuchimochi,  N. M. Tubman,  L. Vogt,  
 M. L. Vidal,  O. Vydrov,  M. A. Watson,  J. Wenzel,  M. de Wergifosse,  
 T. A. Wesolowski,  A. White,  J. Witte,  A. Yamada,  Jun Yang,  K. Yao,  
 S. Yeganeh,  S. R. Yost,  Zhi-Qiang You,  A. Zech,  Igor Ying Zhang,  
 Xing Zhang,  Yan Zhao,  Ying Zhu,  B. R. Brooks,  G. K. L. Chan,  
 C. J. Cramer,  M. S. Gordon,  W. J. Hehre,  A. Klamt,  M. W. Schmidt,  
 C. D. Sherrill,  D. G. Truhlar,  A. Aspuru-Guzik,  R. Baer,  A. T. Bell,  
 N. A. Besley,  Jeng-Da Chai,  A. E. DePrince, III,  R. A. DiStasio Jr.,  
 A. Dreuw,  B. D. Dunietz,  T. R. Furlani,  Chao-Ping Hsu,  Yousung Jung,  
 Jing Kong,  D. S. Lambrecht,  WanZhen Liang,  C. Ochsenfeld,  
 V. A. Rassolov,  L. V. Slipchenko,  J. E. Subotnik,  T. Van Voorhis,  
 J. M. Herbert,  A. I. Krylov,  P. M. W. Gill,  M. Head-Gordon

 Contributors to earlier versions of Q-Chem not listed above: 
 R. D. Adamson,  B. Austin,  J. Baker,  G. J. O. Beran,  K. Brandhorst,  
 S. T. Brown,  E. F. C. Byrd,  A. K. Chakraborty,  C.-L. Cheng,  
 Siu Hung Chien,  D. M. Chipman,  D. L. Crittenden,  H. Dachsel,  
 R. J. Doerksen,  A. D. Dutoi,  L. Fusti-Molnar,  W. A. Goddard III,  
 A. Golubeva-Zadorozhnaya,  S. R. Gwaltney,  G. Hawkins,  A. Heyden,  
 S. Hirata,  G. Kedziora,  F. J. Keil,  C. Kelley,  Jihan Kim,  R. A. King,  
 R. Z. Khaliullin,  P. P. Korambath,  W. Kurlancheek,  A. M. Lee,  M. S. Lee,  
 S. V. Levchenko,  Ching Yeh Lin,  D. Liotard,  R. C. Lochan,  I. Lotan,  
 P. E. Maslen,  N. Nair,  D. P. O'Neill,  D. Neuhauser,  E. Neuscamman,  
 C. M. Oana,  R. Olson,  B. Peters,  R. Peverati,  P. A. Pieniazek,  
 Y. M. Rhee,  J. Ritchie,  M. A. Rohrdanz,  E. Rosta,  N. J. Russ,  
 H. F. Schaefer III,  N. E. Schultz,  N. Shenvi,  A. C. Simmonett,  A. Sodt,  
 D. Stuck,  K. S. Thanthiriwatte,  V. Vanovschi,  Tao Wang,  A. Warshel,  
 C. F. Williams,  Q. Wu,  X. Xu,  W. Zhang

 Please cite Q-Chem as follows:
 Y. Shao et al., Mol. Phys. 113, 184-215 (2015)
 DOI: 10.1080/00268976.2014.952696

 Q-Chem 5.3.0 for Intel X86 EM64T Linux

 Parts of Q-Chem use Armadillo 9.800.1 (Horizon Scraper).
 http://arma.sourceforge.net/

 Q-Chem begins on Tue Jul  7 01:12:09 2020  

Host: centos77-c4
0

     Scratch files written to /tmp/26964.centos77-h1/qchem97833//
Processing $rem in /opt/qchem-5.3.0-intel2020u1//config/preferences:
Processing $rem in /home/shihchengli/.qchemrc:

Checking the input file for inconsistencies... 	...done.

--------------------------------------------------------------
User input:
--------------------------------------------------------------
$rem
   JOBTYPE  sp
   EXCHANGE   omegaB97X-D
   BASIS   6-311+G(2df,2pd)
   UNRESTRICTED   False
   max_scf_cycles   250
   geom_opt_max_cycles   1500
   basis2 6-31G*
   scf_algorithm rca_diis
   SYM_IGNORE  TRUE
   print_input   true
   geom_opt_dmax   80
   pop_mulliken false
   XC_GRID 000075000302
$end

$molecule
0 1
C       1.2331003044     0.1430114460     0.2634395396
C       -0.0000000642     0.2609794339     -0.6174128250
H       0.9610465556     -0.8575178193     0.6180566404
H       1.4988519299     0.7506839393     1.1245035300
H       2.1135598439     -0.0556053516     -0.3499755376
C       -1.2331006817     0.1430115606     0.2634390647
H       -0.0000002073     -0.8340638361     -0.7082771919
H       0.0000003289     0.6119408234     -1.6453126472
H       -0.9610463169     -0.8575177683     0.6180557376
H       -2.1135606384     -0.0556045283     -0.3499756066
H       -1.4988511148     0.7506827664     1.1245043150
$end
--------------------------------------------------------------
 ----------------------------------------------------------------
             Standard Nuclear Orientation (Angstroms)
    I     Atom           X                Y                Z
 ----------------------------------------------------------------
    1      C       1.2331003044     0.1430114460     0.2634395396
    2      C      -0.0000000642     0.2609794339    -0.6174128250
    3      H       0.9610465556    -0.8575178193     0.6180566404
    4      H       1.4988519299     0.7506839393     1.1245035300
    5      H       2.1135598439    -0.0556053516    -0.3499755376
    6      C      -1.2331006817     0.1430115606     0.2634390647
    7      H      -0.0000002073    -0.8340638361    -0.7082771919
    8      H       0.0000003289     0.6119408234    -1.6453126472
    9      H      -0.9610463169    -0.8575177683     0.6180557376
   10      H      -2.1135606384    -0.0556045283    -0.3499756066
   11      H      -1.4988511148     0.7506827664     1.1245043150
 ----------------------------------------------------------------
 Nuclear Repulsion Energy =          84.04859516 hartrees
 There are       13 alpha and       13 beta electrons
 Requested basis set is 6-311+G(2df,2pd)
 There are 72 shells and 214 basis functions

 Total QAlloc Memory Limit   2000 MB
 Mega-Array Size       188 MB
 MEM_STATIC part       192 MB

                       Distance Matrix (Angstroms)
             C (  1)   C (  2)   H (  3)   H (  4)   H (  5)   C (  6)
   C (  2)  1.519985
   H (  3)  1.095822  1.923807
   H (  4)  1.086886  2.349604  1.769756
   H (  5)  1.091300  2.153807  1.705414  1.789429
   C (  6)  2.466201  1.519985  2.437436  2.928184  3.408205
   H (  7)  1.849175  1.098807  1.638085  2.849047  2.280683  1.849174
   H (  8)  2.320294  1.086164  2.864570  3.152410  2.567226  2.320294
   H (  9)  2.437435  1.923806  1.922093  2.982264  3.321649  1.095822
   H ( 10)  3.408206  2.153807  3.321650  3.984183  4.227120  1.091300
   H ( 11)  2.928183  2.349604  2.982263  2.997703  3.984182  1.086886
             H (  7)   H (  8)   H (  9)   H ( 10)
   H (  8)  1.723068
   H (  9)  1.638084  2.864569
   H ( 10)  2.280683  2.567227  1.705415
   H ( 11)  2.849046  3.152410  1.769755  1.789430
 
 A cutoff of  1.0D-09 yielded   2547 shell pairs
 There are     22659 function pairs (     27868 Cartesian)
 Smallest overlap matrix eigenvalue = 1.11E-04

 Scale SEOQF with 1.000000e-01/1.000000e-01/1.000000e-01

 Standard Electronic Orientation quadrupole field applied
 Nucleus-field energy     =     0.0000000004 hartrees
 Requested basis set is 6-31G(d)
 There are 28 shells and 58 basis functions
 A cutoff of  1.0D-09 yielded    402 shell pairs
 There are      1773 function pairs (      1968 Cartesian)
 Smallest overlap matrix eigenvalue = 5.43E-03
 Guess from superposition of atomic densities
 Warning:  Energy on first SCF cycle will be non-variational
 SAD guess density has 26.000000 electrons
 Long-range K will be added via erf
 Coulomb attenuation parameter = 0.2 bohr**(-1)
 A restricted hybrid HF-DFT SCF calculation will be
 performed using Relaxed Constraint Minimization + Pulay DIIS
 Exchange:     0.2220 Hartree-Fock + 1.0000 wB97X-D + LR-HF
 Correlation:  1.0000 wB97X-D
 Using Euler-Maclaurin-Lebedev (75,302) quadrature formula
 Dispersion:   Grimme D
 SCF converges when DIIS error is below 1.0E-04
 using 3 threads for integral computing
 -------------------------------------------------------
 OpenMP Integral computing Module                
 Release: version 1.0, May 2013, Q-Chem Inc. Pittsburgh 
 -------------------------------------------------------
 using 3 threads for integral computing
 -------------------------------------------------------
 OpenMP Integral computing Module                
 Release: version 1.0, May 2013, Q-Chem Inc. Pittsburgh 
 -------------------------------------------------------
 ---------------------------------------
  Cycle       Energy         DIIS Error
 ---------------------------------------
    1    -119.7716234603      1.04E-01
    2    -118.9860749539      9.10E-03
    3    -119.0076265949      2.60E-03
    4    -119.0220836771      1.81E-03
    5    -119.0228776252      2.71E-04 Done RCA. Switching to DIIS
    6    -119.0234817165      2.01E-04
    7    -119.0234993598      6.36E-06 Convergence criterion met
 ---------------------------------------
 SCF time:  CPU 18.82 s  wall 6.75 s
 SCF   energy in the small basis set = -119.02349936
 Total energy in the small basis set = -119.02349936
 ----------------------------------------------------
  Cycle       Energy    
 ----------------------------------------------------
    1     -16.5603164675     -1.66E+01
 Long-range K will be added via erf
 Coulomb attenuation parameter = 0.2 bohr**(-1)
 A restricted hybrid HF-DFT SCF calculation will be
 performed using Relaxed Constraint Minimization + Pulay DIIS
 Exchange:     0.2220 Hartree-Fock + 1.0000 wB97X-D + LR-HF
 Correlation:  1.0000 wB97X-D
 Using Euler-Maclaurin-Lebedev (75,302) quadrature formula
 Dispersion:   Grimme D
 SCF converges when DIIS error is below 1.0E-05
 Basis2 calculation detected. Using small basis as guess for larger.
 SCFMinFind is unable to tell whether the solution found is close.
 Resetting ReadMinima to 0 and attempting to follow guess.
 SCFMinFind following SCF Guess.
 using 3 threads for integral computing
 -------------------------------------------------------
 OpenMP Integral computing Module                
 Release: version 1.0, May 2013, Q-Chem Inc. Pittsburgh 
 -------------------------------------------------------
 using 3 threads for integral computing
 -------------------------------------------------------
 OpenMP Integral computing Module                
 Release: version 1.0, May 2013, Q-Chem Inc. Pittsburgh 
 -------------------------------------------------------
 ---------------------------------------
  Cycle       Energy         DIIS Error
 ---------------------------------------
    1    -119.0465338314      4.21E-03
    2    -119.0683350273      6.03E-04 Done RCA. Switching to DIIS
    3    -119.0691682205      4.26E-04
    4    -119.0701543828      4.93E-05
    5    -119.0701712961      1.20E-05
    6    -119.0701722971      3.73E-06 Convergence criterion met
 ---------------------------------------
 SCF time:  CPU 51.33 s  wall 17.24 s
 SCF   energy in the final basis set = -119.07017230
 Total energy in the final basis set = -119.07017230
 
 --------------------------------------------------------------
 
                    Orbital Energies (a.u.)
 --------------------------------------------------------------
 
 Alpha MOs
 -- Occupied --
-10.2781 -10.2697 -10.2697  -0.9076  -0.7797  -0.6758  -0.5692  -0.5228
 -0.5008  -0.4418  -0.4367  -0.4119  -0.3691
 -- Virtual --
  0.0663   0.0858   0.0867   0.0933   0.1246   0.1264   0.1274   0.1343
  0.1427   0.1711   0.1736   0.1945   0.2173   0.2407   0.2424   0.2581
  0.2789   0.2906   0.3185   0.3187   0.3353   0.3498   0.4509   0.4610
  0.4652   0.4844   0.5095   0.5160   0.5422   0.5461   0.5702   0.5995
  0.6038   0.6281   0.6305   0.6549   0.6651   0.6963   0.7034   0.7279
  0.7319   0.7987   0.8386   0.8430   0.8635   0.9111   0.9535   0.9870
  1.0217   1.0348   1.0500   1.1062   1.1266   1.1670   1.2152   1.2168
  1.2250   1.2413   1.2916   1.3207   1.3369   1.3543   1.3620   1.3798
  1.4020   1.4106   1.4157   1.4339   1.4476   1.4938   1.5141   1.5419
  1.5555   1.5578   1.5708   1.6183   1.6399   1.6428   1.6655   1.7079
  1.7512   2.3873   2.3920   2.4168   2.5251   2.5728   2.6062   2.6150
  2.6603   2.6790   2.8137   2.8490   2.8556   2.8634   2.8982   2.9130
  2.9722   2.9781   3.0077   3.0121   3.0500   3.0637   3.0735   3.1111
  3.1563   3.1850   3.1862   3.2243   3.2330   3.2660   3.2719   3.2830
  3.3268   3.3381   3.3663   3.3759   3.3851   3.4468   3.4577   3.4926
  3.5231   3.5386   3.5545   3.5557   3.5724   3.5783   3.5865   3.5977
  3.6300   3.6523   3.6756   3.6942   3.7300   3.7957   3.8145   3.8356
  3.9161   3.9274   3.9462   3.9735   3.9941   3.9999   4.0364   4.1028
  4.1190   4.1455   4.1753   4.1927   4.2139   4.2291   4.2495   4.2586
  4.2758   4.3255   4.3562   4.3824   4.3986   4.4571   4.4880   4.4914
  4.5992   4.6082   4.6141   4.7948   4.8207   4.8314   4.8900   4.9286
  4.9301   4.9737   4.9760   4.9905   5.0356   5.1273   5.1437   5.1498
  5.1801   5.2272   5.2760   5.2824   5.3081   5.3262   5.3984   5.4133
  5.4218   5.4426   5.5083   5.5984   5.6173   5.7463   5.7837   5.8007
  5.9892   6.4185   6.4273   6.4525   6.4962   6.5954  25.1724  25.4348
 25.4535
 --------------------------------------------------------------
 
 -----------------------------------------------------------------
                    Cartesian Multipole Moments
 -----------------------------------------------------------------
    Charge (ESU x 10^10)
                -0.0000
    Dipole Moment (Debye)
         X       0.0000      Y      -0.4138      Z      -0.1533
       Tot       0.4413
    Quadrupole Moments (Debye-Ang)
        XX     -22.2897     XY       0.0000     YY     -22.1271
        XZ       0.0000     YZ       0.4117     ZZ     -21.4890
    Octopole Moments (Debye-Ang^2)
       XXX       0.0000    XXY      -2.1522    XYY       0.0000
       YYY      -8.5203    XXZ      -0.7008    XYZ       0.0000
       YYZ       0.6665    XZZ       0.0000    YZZ      -0.6875
       ZZZ      -0.9004
    Hexadecapole Moments (Debye-Ang^3)
      XXXX    -192.7808   XXXY       0.0000   XXYY     -41.4729
      XYYY       0.0000   YYYY     -44.5679   XXXZ       0.0000
      XXYZ       2.6185   XYYZ       0.0000   YYYZ       1.3445
      XXZZ     -42.6104   XYZZ       0.0000   YYZZ     -19.2769
      XZZZ      -0.0000   YZZZ       1.0026   ZZZZ     -68.7103
 -----------------------------------------------------------------
Archival summary:
1\1\centos77-c4\SP\ProcedureUnspecified\BasisUnspecified\38\shihchen\TueJul701:12:362020TueJul701:12:362020\0\\#,ProcedureUnspecified,BasisUnspecified,\\0,1\C\H,1,1.08616\H,1,1.09881,2,104.108\C,1,1.51998,2,124.995,3,-97.9854,0\H,4,1.08689,1,127.885,2,-109.602,0\H,4,1.0913,1,110.054,2,29.496,0\H,4,1.09582,1,93.2671,2,134.043,0\C,1,1.51998,2,124.995,3,97.9854,0\H,8,1.08689,1,127.885,2,109.602,0\H,8,1.0913,1,110.054,2,-29.4961,0\H,8,1.09582,1,93.2671,2,-134.043,0\\\@

 Total job time:  26.92s(wall), 73.75s(cpu) 
 Tue Jul  7 01:12:36 2020

        *************************************************************
        *                                                           *
        *  Thank you very much for using Q-Chem.  Have a nice day.  *
        *                                                           *
        *************************************************************


