                  Welcome to Q-Chem
     A Quantum Leap Into The Future Of Chemistry


 Q-Chem 5.2 (devel), Q-Chem, Inc., Pleasanton, CA (2019)

 Yihan Shao,  Zhengting Gan,  E. Epifanovsky,  A. T. B. Gilbert,  M. Wormit,  
 J. Kussmann,  A. W. Lange,  A. Behn,  Jia Deng,  Xintian Feng,  D. Ghosh,  
 M. Goldey,  P. R. Horn,  L. D. Jacobson,  I. Kaliman,  T. Kus,  A. Landau,  
 Jie Liu,  E. I. Proynov,  R. M. Richard,  R. P. Steele,  E. J. Sundstrom,  
 H. L. Woodcock III,  P. M. Zimmerman,  D. Zuev,  B. Alam,  B. Albrecht,  
 E. Alguire,  S. A. Baeppler,  D. Barton,  Z. Benda,  Y. A. Bernard,  
 E. J. Berquist,  K. B. Bravaya,  H. Burton,  K. Carter-Fenk,  D. Casanova,  
 Chun-Min Chang,  Yunqing Chen,  A. Chien,  K. D. Closser,  M. P. Coons,  
 S. Coriani,  S. Dasgupta,  A. L. Dempwolff,  M. Diedenhofen,  Hainam Do,  
 R. G. Edgar,  Po-Tung Fang,  S. Faraji,  S. Fatehi,  Qingguo Feng,  
 J. Fosso-Tande,  J. Gayvert,  Qinghui Ge,  A. Ghysels,  G. Gidofalvi,  
 J. Gomes,  J. Gonthier,  A. Gunina,  D. Hait,  M. W. D. Hanson-Heine,  
 P. H. P. Harbach,  A. W. Hauser,  M. F. Herbst,  J. E. Herr,  
 E. G. Hohenstein,  Z. C. Holden,  Kerwin Hui,  B. C. Huynh,  T.-C. Jagau,  
 Hyunjun Ji,  B. Kaduk,  K. Khistyaev,  Jaehoon Kim,  P. Klunzinger,  K. Koh,  
 D. Kosenkov,  L. Koulias,  T. Kowalczyk,  C. M. Krauter,  A. Kunitsa,  
 Ka Un Lao,  A. Laurent,  K. V. Lawler,  Joonho Lee,  D. Lefrancois,  
 S. Lehtola,  D. S. Levine,  Yi-Pei Li,  You-Sheng Lin,  Fenglai Liu,  
 Kuan-Yu Liu,  E. Livshits,  M. Loipersberger,  A. Luenser,  P. Manohar,  
 E. Mansoor,  S. F. Manzer,  Shan-Ping Mao,  Yuezhi Mao,  N. Mardirossian,  
 A. V. Marenich,  T. Markovich,  L. A. Martinez-Martinez,  S. A. Maurer,  
 N. J. Mayhall,  S. C. McKenzie,  J.-M. Mewes,  P. Morgante,  A. F. Morrison,  
 J. W. Mullinax,  K. Nanda,  T. S. Nguyen-Beck,  R. Olivares-Amaya,  
 J. A. Parkhill,  S. K. Paul,  Zheng Pei,  T. M. Perrine,  F. Plasser,  
 P. Pokhilko,  S. Prager,  A. Prociuk,  E. Ramos,  B. Rana,  D. R. Rehn,  
 F. Rob,  M. Scheurer,  M. Schneider,  N. Sergueev,  S. M. Sharada,  
 S. Sharma,  D. W. Small,  T. Stauch,  C. J. Stein,  T. Stein,  Yu-Chuan Su,  
 S. P. Veccham,  A. J. W. Thom,  A. Tkatchenko,  T. Tsuchimochi,  
 N. M. Tubman,  L. Vogt,  M. L. Vidal,  O. Vydrov,  M. A. Watson,  J. Wenzel,  
 M. de Wergifosse,  T. A. Wesolowski,  A. White,  J. Witte,  A. Yamada,  
 Jun Yang,  K. Yao,  S. Yeganeh,  S. R. Yost,  Zhi-Qiang You,  A. Zech,  
 Igor Ying Zhang,  Xing Zhang,  Yan Zhao,  Ying Zhu,  B. R. Brooks,  
 G. K. L. Chan,  C. J. Cramer,  M. S. Gordon,  W. J. Hehre,  A. Klamt,  
 M. W. Schmidt,  C. D. Sherrill,  D. G. Truhlar,  A. Aspuru-Guzik,  R. Baer,  
 A. T. Bell,  N. A. Besley,  Jeng-Da Chai,  A. E. DePrince, III,  
 R. A. DiStasio Jr.,  A. Dreuw,  B. D. Dunietz,  T. R. Furlani,  
 Chao-Ping Hsu,  Yousung Jung,  Jing Kong,  D. S. Lambrecht,  WanZhen Liang,  
 C. Ochsenfeld,  V. A. Rassolov,  L. V. Slipchenko,  J. E. Subotnik,  
 T. Van Voorhis,  J. M. Herbert,  A. I. Krylov,  P. M. W. Gill,  M. Head-Gordon

 Contributors to earlier versions of Q-Chem not listed above: 
 R. D. Adamson,  B. Austin,  J. Baker,  G. J. O. Beran,  K. Brandhorst,  
 S. T. Brown,  E. F. C. Byrd,  A. K. Chakraborty,  C.-L. Cheng,  
 Siu Hung Chien,  D. M. Chipman,  D. L. Crittenden,  H. Dachsel,  
 R. J. Doerksen,  A. D. Dutoi,  L. Fusti-Molnar,  W. A. Goddard III,  
 A. Golubeva-Zadorozhnaya,  S. R. Gwaltney,  G. Hawkins,  A. Heyden,  
 S. Hirata,  G. Kedziora,  F. J. Keil,  C. Kelley,  Jihan Kim,  R. A. King,  
 R. Z. Khaliullin,  P. P. Korambath,  W. Kurlancheek,  A. M. Lee,  M. S. Lee,  
 S. V. Levchenko,  Ching Yeh Lin,  D. Liotard,  R. C. Lochan,  I. Lotan,  
 P. E. Maslen,  N. Nair,  D. P. O'Neill,  D. Neuhauser,  E. Neuscamman,  
 C. M. Oana,  R. Olson,  B. Peters,  R. Peverati,  P. A. Pieniazek,  
 Y. M. Rhee,  J. Ritchie,  M. A. Rohrdanz,  E. Rosta,  N. J. Russ,  
 H. F. Schaefer III,  N. E. Schultz,  N. Shenvi,  A. C. Simmonett,  A. Sodt,  
 D. Stuck,  K. S. Thanthiriwatte,  V. Vanovschi,  Tao Wang,  A. Warshel,  
 C. F. Williams,  Q. Wu,  X. Xu,  W. Zhang

 Please cite Q-Chem as follows:
 Y. Shao et al., Mol. Phys. 113, 184-215 (2015)
 DOI: 10.1080/00268976.2014.952696

 Q-Chem 5.2.2 for Intel X86 EM64T Linux

 Parts of Q-Chem use Armadillo 9.800.1 (Horizon Scraper).
 http://arma.sourceforge.net/

 Q-Chem begins on Sun Apr 12 07:19:49 2020  

Host: cn0821
0

     Scratch files written to /tmp/ypli/6721342.srvc1/qchem186215//
Warning:  Did not find "$end" marker in "$molecule" section

Checking the input file for inconsistencies... 	...done.

--------------------------------------------------------------
User input:
--------------------------------------------------------------
$rem
   JOBTYPE  sp
   EXCHANGE   omegaB97X-D
   BASIS   6-311+G(2df,2pd)
   max_scf_cycles   250
   geom_opt_max_cycles   1500
   basis2 6-31G*
   scf_algorithm rca_diis
   SYM_IGNORE  TRUE
   print_input   true
   geom_opt_dmax   80
   pop_mulliken false
   XC_GRID 000075000302
$end

$molecule
0 1
C       1.2723996611     0.0121811843     0.2548124710
C       0.0056099392     0.0003211944     -0.5874490210
H       1.3550796258     -0.8588902883     0.9117878181
H       1.2583010824     0.8628771252     0.9371073467
H       2.1577537787     -0.0542299866     -0.3767323961
C       -1.2618973299     -0.0113219207     0.2636941847
H       0.0074311780     -0.8736562902     -1.2431294702
H       -0.0166788104     0.8738736643     -1.2433195395
H       -1.2555509121     -0.8993924161     0.8949103779
H       -2.1691883844     0.0537519525     -0.3394007900
H       -1.3532598889     0.8944864472     0.8687640372
--------------------------------------------------------------
 ----------------------------------------------------------------
             Standard Nuclear Orientation (Angstroms)
    I     Atom           X                Y                Z
 ----------------------------------------------------------------
    1      C       1.2723996611     0.0121811843     0.2548124710
    2      C       0.0056099392     0.0003211944    -0.5874490210
    3      H       1.3550796258    -0.8588902883     0.9117878181
    4      H       1.2583010824     0.8628771252     0.9371073467
    5      H       2.1577537787    -0.0542299866    -0.3767323961
    6      C      -1.2618973299    -0.0113219207     0.2636941847
    7      H       0.0074311780    -0.8736562902    -1.2431294702
    8      H      -0.0166788104     0.8738736643    -1.2433195395
    9      H      -1.2555509121    -0.8993924161     0.8949103779
   10      H      -2.1691883844     0.0537519525    -0.3394007900
   11      H      -1.3532598889     0.8944864472     0.8687640372
 ----------------------------------------------------------------
 Nuclear Repulsion Energy =          82.73742428 hartrees
 There are       13 alpha and       13 beta electrons
 Requested basis set is 6-311+G(2df,2pd)
 There are 72 shells and 214 basis functions

 Total QAlloc Memory Limit   2000 MB
 Mega-Array Size       188 MB
 MEM_STATIC part       192 MB

                       Distance Matrix (Angstroms)
             C (  1)   C (  2)   H (  3)   H (  4)   H (  5)   C (  6)
   C (  2)  1.521283
   H (  3)  1.094175  2.192493
   H (  4)  1.090600  2.153488  1.724671
   H (  5)  1.089546  2.163123  1.718153  1.837464
   C (  6)  2.534422  1.526812  2.826122  2.751201  3.479368
   H (  7)  2.151438  1.092592  2.541661  3.055103  2.458860  2.150659
   H (  8)  2.156070  1.092592  3.086856  2.525857  2.518036  2.145980
   H (  9)  2.762467  2.144155  2.610999  3.070314  3.739254  1.089561
   H ( 10)  3.492756  2.189550  3.849526  3.745910  4.328450  1.091391
   H ( 11)  2.837162  2.183258  3.226652  2.612646  3.844287  1.093136
             H (  7)   H (  8)   H (  9)   H ( 10)
   H (  8)  1.747696
   H (  9)  2.483345  3.041596
   H ( 10)  2.532683  2.474463  1.807413
   H ( 11)  3.072117  2.499554  1.796728  1.682925
 
 A cutoff of  1.0D-09 yielded   2531 shell pairs
 There are     22549 function pairs (     27724 Cartesian)
 Smallest overlap matrix eigenvalue = 8.69E-05

 Scale SEOQF with 1.000000e-01/1.000000e-01/1.000000e-01

 Standard Electronic Orientation quadrupole field applied
 Nucleus-field energy     =     0.0000000006 hartrees
 Requested basis set is 6-31G(d)
 There are 28 shells and 58 basis functions
 A cutoff of  1.0D-09 yielded    402 shell pairs
 There are      1773 function pairs (      1968 Cartesian)
 Smallest overlap matrix eigenvalue = 6.80E-03
 Guess from superposition of atomic densities
 Warning:  Energy on first SCF cycle will be non-variational
 SAD guess density has 26.000000 electrons
 Long-range K will be added via erf
 Coulomb attenuation parameter = 0.2 bohr**(-1)
 A restricted hybrid HF-DFT SCF calculation will be
 performed using Relaxed Constraint Minimization + Pulay DIIS
 Exchange:     0.2220 Hartree-Fock + 1.0000 wB97X-D + LR-HF
 Correlation:  1.0000 wB97X-D
 Using Euler-Maclaurin-Lebedev (75,302) quadrature formula
 Dispersion:   Grimme D
 SCF converges when DIIS error is below 1.0E-04
 using 3 threads for integral computing
 -------------------------------------------------------
 OpenMP Integral computing Module                
 Release: version 1.0, May 2013, Q-Chem Inc. Pittsburgh 
 -------------------------------------------------------
 using 3 threads for integral computing
 -------------------------------------------------------
 OpenMP Integral computing Module                
 Release: version 1.0, May 2013, Q-Chem Inc. Pittsburgh 
 -------------------------------------------------------
 ---------------------------------------
  Cycle       Energy         DIIS Error
 ---------------------------------------
    1    -119.6200633917      1.00E-01
    2    -119.0631545443      9.02E-03
    3    -119.0843508050      2.47E-03
    4    -119.0983220928      1.69E-03
    5    -119.0990237267      2.68E-04 Done RCA. Switching to DIIS
    6    -119.0995382382      1.98E-04
    7    -119.0995552349      4.70E-06 Convergence criterion met
 ---------------------------------------
 SCF time:  CPU 33.39 s  wall 11.58 s
 SCF   energy in the small basis set = -119.09955523
 Total energy in the small basis set = -119.09955523
 ----------------------------------------------------
  Cycle       Energy    
 ----------------------------------------------------
    1     -16.5388797237     -1.65E+01
 Long-range K will be added via erf
 Coulomb attenuation parameter = 0.2 bohr**(-1)
 A restricted hybrid HF-DFT SCF calculation will be
 performed using Relaxed Constraint Minimization + Pulay DIIS
 Exchange:     0.2220 Hartree-Fock + 1.0000 wB97X-D + LR-HF
 Correlation:  1.0000 wB97X-D
 Using Euler-Maclaurin-Lebedev (75,302) quadrature formula
 Dispersion:   Grimme D
 SCF converges when DIIS error is below 1.0E-05
 Basis2 calculation detected. Using small basis as guess for larger.
 SCFMinFind is unable to tell whether the solution found is close.
 Resetting ReadMinima to 0 and attempting to follow guess.
 SCFMinFind following SCF Guess.
 using 3 threads for integral computing
 -------------------------------------------------------
 OpenMP Integral computing Module                
 Release: version 1.0, May 2013, Q-Chem Inc. Pittsburgh 
 -------------------------------------------------------
 using 3 threads for integral computing
 -------------------------------------------------------
 OpenMP Integral computing Module                
 Release: version 1.0, May 2013, Q-Chem Inc. Pittsburgh 
 -------------------------------------------------------
 ---------------------------------------
  Cycle       Energy         DIIS Error
 ---------------------------------------
    1    -119.1187957881      4.21E-03
    2    -119.1408368864      5.99E-04 Done RCA. Switching to DIIS
    3    -119.1416738135      4.21E-04
    4    -119.1426428578      4.56E-05
    5    -119.1426576729      1.01E-05
    6    -119.1426583643      3.89E-06 Convergence criterion met
 ---------------------------------------
 SCF time:  CPU 96.44 s  wall 32.62 s
 SCF   energy in the final basis set = -119.14265836
 Total energy in the final basis set = -119.14265836
 
 --------------------------------------------------------------
 
                    Orbital Energies (a.u.)
 --------------------------------------------------------------
 
 Alpha MOs
 -- Occupied --
-10.2740 -10.2652 -10.2652  -0.8813  -0.7775  -0.6781  -0.5466  -0.5267
 -0.4825  -0.4613  -0.4224  -0.4168  -0.4028
 -- Virtual --
  0.0691   0.0857   0.0909   0.0991   0.1247   0.1301   0.1334   0.1427
  0.1429   0.1703   0.1724   0.1916   0.2305   0.2360   0.2504   0.2630
  0.2809   0.2856   0.3102   0.3133   0.3343   0.3497   0.4589   0.4659
  0.4713   0.5094   0.5139   0.5182   0.5454   0.5608   0.5817   0.5879
  0.6222   0.6266   0.6385   0.6484   0.6515   0.6618   0.7102   0.7259
  0.7270   0.7671   0.8174   0.8653   0.8683   0.8724   0.8829   0.9556
  0.9982   1.0523   1.0558   1.1363   1.1443   1.1718   1.1892   1.2131
  1.2348   1.2358   1.2675   1.2723   1.2868   1.2999   1.3300   1.3670
  1.3771   1.3936   1.4131   1.4473   1.4652   1.4716   1.4737   1.4851
  1.5192   1.5766   1.6123   1.6235   1.6369   1.6459   1.6853   1.6955
  1.7495   2.3793   2.4677   2.4794   2.4999   2.5451   2.5590   2.5997
  2.6294   2.7122   2.8222   2.8270   2.8386   2.9043   2.9192   2.9261
  2.9435   2.9496   2.9999   3.0203   3.0549   3.0605   3.0739   3.1029
  3.1375   3.1408   3.1769   3.1885   3.1987   3.2208   3.2782   3.2992
  3.3096   3.3444   3.3532   3.3595   3.3800   3.3970   3.4132   3.4406
  3.4702   3.4827   3.5088   3.5220   3.5628   3.5773   3.5841   3.6181
  3.6227   3.6652   3.6768   3.7029   3.7711   3.7834   3.8783   3.8887
  3.8996   3.9346   3.9483   3.9587   3.9690   3.9909   4.0195   4.0605
  4.0685   4.1046   4.1196   4.1389   4.1584   4.1738   4.1899   4.2167
  4.2189   4.2388   4.2702   4.3693   4.3876   4.4171   4.4220   4.4288
  4.4389   4.5844   4.5942   4.6020   4.6738   4.7979   4.8041   4.8856
  4.9255   4.9485   4.9625   4.9939   5.0281   5.0334   5.0573   5.0763
  5.1625   5.2334   5.2464   5.2744   5.2997   5.3137   5.3827   5.3885
  5.4034   5.4233   5.4689   5.5151   5.5703   5.5752   5.6513   5.7472
  5.9555   6.3572   6.3600   6.4123   6.4327   6.4649  25.2050  25.4429
 25.4548
 --------------------------------------------------------------
 
 -----------------------------------------------------------------
                    Cartesian Multipole Moments
 -----------------------------------------------------------------
    Charge (ESU x 10^10)
                -0.0000
    Dipole Moment (Debye)
         X      -0.0170      Y      -0.0019      Z      -0.0830
       Tot       0.0847
    Quadrupole Moments (Debye-Ang)
        XX     -22.1612     XY      -0.4767     YY     -21.3741
        XZ       0.0166     YZ      -0.0028     ZZ     -21.8556
    Octopole Moments (Debye-Ang^2)
       XXX      -0.3986    XXY       0.0147    XYY      -0.3642
       YYY      -0.0308    XXZ      -1.4997    XYZ       0.1366
       YYZ       0.4610    XZZ       0.2396    YZZ      -0.0119
       ZZZ      -0.3990
    Hexadecapole Moments (Debye-Ang^3)
      XXXX    -202.3306   XXXY      -2.5104   XXYY     -42.1987
      XYYY       0.0736   YYYY     -44.1609   XXXZ      -0.2637
      XXYZ       0.0108   XYYZ      -0.0803   YYYZ      -0.0182
      XXZZ     -45.3653   XYZZ       0.0669   YYZZ     -17.1042
      XZZZ       0.4461   YZZZ       0.0011   ZZZZ     -72.2155
 -----------------------------------------------------------------
Archival summary:
1\1\cn0821\SP\ProcedureUnspecified\BasisUnspecified\38\r0852400\SunApr1207:20:382020SunApr1207:20:382020\0\\#,ProcedureUnspecified,BasisUnspecified,\\0,1\C\H,1,1.09259\H,1,1.09259,2,106.221\C,1,1.52128,2,109.7,3,-118.928,0\H,4,1.08955,1,110.809,2,53.9647,0\H,4,1.0906,1,109.98,2,-177.935,0\H,4,1.09417,1,112.901,2,-61.9523,0\C,1,1.52681,2,109.258,3,117.313,0\H,8,1.08956,1,108.925,2,62.5752,0\H,8,1.09139,1,112.434,2,-62.0929,0\H,8,1.09314,1,111.816,2,-174.623,0\\\@

 Total job time:  48.65s(wall), 135.18s(cpu) 
 Sun Apr 12 07:20:38 2020

        *************************************************************
        *                                                           *
        *  Thank you very much for using Q-Chem.  Have a nice day.  *
        *                                                           *
        *************************************************************


