                  Welcome to Q-Chem
     A Quantum Leap Into The Future Of Chemistry


 Q-Chem 5.3 (devel), Q-Chem, Inc., Pleasanton, CA (2020)

 Yihan Shao,  Zhengting Gan,  E. Epifanovsky,  A. T. B. Gilbert,  M. Wormit,  
 J. Kussmann,  A. W. Lange,  A. Behn,  Jia Deng,  Xintian Feng,  D. Ghosh,  
 M. Goldey,  P. R. Horn,  L. D. Jacobson,  I. Kaliman,  T. Kus,  A. Landau,  
 Jie Liu,  E. I. Proynov,  R. M. Richard,  R. P. Steele,  E. J. Sundstrom,  
 H. L. Woodcock III,  P. M. Zimmerman,  D. Zuev,  B. Alam,  B. Albrecht,  
 E. Alguire,  S. A. Baeppler,  D. Barton,  Z. Benda,  Y. A. Bernard,  
 E. J. Berquist,  K. B. Bravaya,  H. Burton,  K. Carter-Fenk,  D. Casanova,  
 Chun-Min Chang,  Yunqing Chen,  A. Chien,  K. D. Closser,  M. P. Coons,  
 S. Coriani,  S. Dasgupta,  A. L. Dempwolff,  M. Diedenhofen,  Hainam Do,  
 R. G. Edgar,  Po-Tung Fang,  S. Faraji,  S. Fatehi,  Qingguo Feng,  
 J. Fosso-Tande,  J. Gayvert,  Qinghui Ge,  A. Ghysels,  G. Gidofalvi,  
 J. Gomes,  J. Gonthier,  A. Gunina,  D. Hait,  M. W. D. Hanson-Heine,  
 P. H. P. Harbach,  A. W. Hauser,  M. F. Herbst,  J. E. Herr,  
 E. G. Hohenstein,  Z. C. Holden,  Kerwin Hui,  B. C. Huynh,  T.-C. Jagau,  
 Hyunjun Ji,  B. Kaduk,  K. Khistyaev,  Jaehoon Kim,  P. Klunzinger,  K. Koh,  
 D. Kosenkov,  L. Koulias,  T. Kowalczyk,  C. M. Krauter,  A. Kunitsa,  
 Ka Un Lao,  A. Laurent,  K. V. Lawler,  Joonho Lee,  D. Lefrancois,  
 S. Lehtola,  D. S. Levine,  Yi-Pei Li,  You-Sheng Lin,  Fenglai Liu,  
 Kuan-Yu Liu,  E. Livshits,  M. Loipersberger,  A. Luenser,  P. Manohar,  
 E. Mansoor,  S. F. Manzer,  Shan-Ping Mao,  Yuezhi Mao,  N. Mardirossian,  
 A. V. Marenich,  T. Markovich,  L. A. Martinez-Martinez,  S. A. Maurer,  
 N. J. Mayhall,  S. C. McKenzie,  J.-M. Mewes,  P. Morgante,  A. F. Morrison,  
 J. W. Mullinax,  K. Nanda,  T. S. Nguyen-Beck,  R. Olivares-Amaya,  
 K. J. Oosterbaan,  J. A. Parkhill,  S. K. Paul,  F. Pavosevic,  Zheng Pei,  
 T. M. Perrine,  F. Plasser,  P. Pokhilko,  S. Prager,  A. Prociuk,  
 E. Ramos,  B. Rana,  D. R. Rehn,  F. Rob,  M. Scheurer,  M. Schneider,  
 N. Sergueev,  S. M. Sharada,  S. Sharma,  D. W. Small,  T. Stauch,  
 C. J. Stein,  T. Stein,  Yu-Chuan Su,  S. P. Veccham,  Zhen Tao,  
 A. J. W. Thom,  A. Tkatchenko,  T. Tsuchimochi,  N. M. Tubman,  L. Vogt,  
 M. L. Vidal,  O. Vydrov,  M. A. Watson,  J. Wenzel,  M. de Wergifosse,  
 T. A. Wesolowski,  A. White,  J. Witte,  A. Yamada,  Jun Yang,  K. Yao,  
 S. Yeganeh,  S. R. Yost,  Zhi-Qiang You,  A. Zech,  Igor Ying Zhang,  
 Xing Zhang,  Yan Zhao,  Ying Zhu,  B. R. Brooks,  G. K. L. Chan,  
 C. J. Cramer,  M. S. Gordon,  W. J. Hehre,  A. Klamt,  M. W. Schmidt,  
 C. D. Sherrill,  D. G. Truhlar,  A. Aspuru-Guzik,  R. Baer,  A. T. Bell,  
 N. A. Besley,  Jeng-Da Chai,  A. E. DePrince, III,  R. A. DiStasio Jr.,  
 A. Dreuw,  B. D. Dunietz,  T. R. Furlani,  Chao-Ping Hsu,  Yousung Jung,  
 Jing Kong,  D. S. Lambrecht,  WanZhen Liang,  C. Ochsenfeld,  
 V. A. Rassolov,  L. V. Slipchenko,  J. E. Subotnik,  T. Van Voorhis,  
 J. M. Herbert,  A. I. Krylov,  P. M. W. Gill,  M. Head-Gordon

 Contributors to earlier versions of Q-Chem not listed above: 
 R. D. Adamson,  B. Austin,  J. Baker,  G. J. O. Beran,  K. Brandhorst,  
 S. T. Brown,  E. F. C. Byrd,  A. K. Chakraborty,  C.-L. Cheng,  
 Siu Hung Chien,  D. M. Chipman,  D. L. Crittenden,  H. Dachsel,  
 R. J. Doerksen,  A. D. Dutoi,  L. Fusti-Molnar,  W. A. Goddard III,  
 A. Golubeva-Zadorozhnaya,  S. R. Gwaltney,  G. Hawkins,  A. Heyden,  
 S. Hirata,  G. Kedziora,  F. J. Keil,  C. Kelley,  Jihan Kim,  R. A. King,  
 R. Z. Khaliullin,  P. P. Korambath,  W. Kurlancheek,  A. M. Lee,  M. S. Lee,  
 S. V. Levchenko,  Ching Yeh Lin,  D. Liotard,  R. C. Lochan,  I. Lotan,  
 P. E. Maslen,  N. Nair,  D. P. O'Neill,  D. Neuhauser,  E. Neuscamman,  
 C. M. Oana,  R. Olson,  B. Peters,  R. Peverati,  P. A. Pieniazek,  
 Y. M. Rhee,  J. Ritchie,  M. A. Rohrdanz,  E. Rosta,  N. J. Russ,  
 H. F. Schaefer III,  N. E. Schultz,  N. Shenvi,  A. C. Simmonett,  A. Sodt,  
 D. Stuck,  K. S. Thanthiriwatte,  V. Vanovschi,  Tao Wang,  A. Warshel,  
 C. F. Williams,  Q. Wu,  X. Xu,  W. Zhang

 Please cite Q-Chem as follows:
 Y. Shao et al., Mol. Phys. 113, 184-215 (2015)
 DOI: 10.1080/00268976.2014.952696

 Q-Chem 5.3.0 for Intel X86 EM64T Linux

 Parts of Q-Chem use Armadillo 9.800.1 (Horizon Scraper).
 http://arma.sourceforge.net/

 Q-Chem begins on Tue Jul  7 01:05:44 2020  

Host: centos77-c4
0

     Scratch files written to /tmp/26964.centos77-h1/qchem96745//
Processing $rem in /opt/qchem-5.3.0-intel2020u1//config/preferences:
Processing $rem in /home/shihchengli/.qchemrc:

Checking the input file for inconsistencies... 	...done.

--------------------------------------------------------------
User input:
--------------------------------------------------------------
$rem
   JOBTYPE  sp
   EXCHANGE   omegaB97X-D
   BASIS   6-311+G(2df,2pd)
   UNRESTRICTED   False
   max_scf_cycles   250
   geom_opt_max_cycles   1500
   basis2 6-31G*
   scf_algorithm rca_diis
   SYM_IGNORE  TRUE
   print_input   true
   geom_opt_dmax   80
   pop_mulliken false
   XC_GRID 000075000302
$end

$molecule
0 1
C       1.5103281441     -0.0064923824     0.2682267775
C       -0.0000000739     0.0225055816     -0.1157742740
H       1.8792156986     -0.8832461192     0.8007853481
H       1.9360993276     0.8895226196     0.7211597118
H       1.9148209141     -0.0587948052     -0.7476244737
C       -1.5103284075     -0.0064931276     0.2682261200
H       0.0000009751     -0.7960574918     -0.8451276685
H       -0.0000004414     0.8915744836     -0.7831473892
H       -1.8792161107     -0.8832468846     0.8007845404
H       -1.9148219400     -0.0587927311     -0.7476246873
H       -1.9360981466     0.8895215231     0.7211610137
$end
--------------------------------------------------------------
 ----------------------------------------------------------------
             Standard Nuclear Orientation (Angstroms)
    I     Atom           X                Y                Z
 ----------------------------------------------------------------
    1      C       1.5103281441    -0.0064923824     0.2682267775
    2      C      -0.0000000739     0.0225055816    -0.1157742740
    3      H       1.8792156986    -0.8832461192     0.8007853481
    4      H       1.9360993276     0.8895226196     0.7211597118
    5      H       1.9148209141    -0.0587948052    -0.7476244737
    6      C      -1.5103284075    -0.0064931276     0.2682261200
    7      H       0.0000009751    -0.7960574918    -0.8451276685
    8      H      -0.0000004414     0.8915744836    -0.7831473892
    9      H      -1.8792161107    -0.8832468846     0.8007845404
   10      H      -1.9148219400    -0.0587927311    -0.7476246873
   11      H      -1.9360981466     0.8895215231     0.7211610137
 ----------------------------------------------------------------
 Nuclear Repulsion Energy =          80.12364047 hartrees
 There are       13 alpha and       13 beta electrons
 Requested basis set is 6-311+G(2df,2pd)
 There are 72 shells and 214 basis functions

 Total QAlloc Memory Limit   2000 MB
 Mega-Array Size       188 MB
 MEM_STATIC part       192 MB

                       Distance Matrix (Angstroms)
             C (  1)   C (  2)   H (  3)   H (  4)   H (  5)   C (  6)
   C (  2)  1.558650
   H (  3)  1.090135  2.278578
   H (  4)  1.090538  2.280495  1.775468
   H (  5)  1.094671  2.018015  1.754583  1.748452
   C (  6)  3.020657  1.558650  3.541373  3.589688  3.573001
   H (  7)  2.035696  1.096358  2.499616  3.007144  2.054166  2.035697
   H (  8)  2.047683  1.095750  3.031548  2.451821  2.137991  2.047682
   H (  9)  3.541374  2.278579  3.758432  4.207812  4.179953  1.090135
   H ( 10)  3.573002  2.018016  4.179954  4.229211  3.829643  1.094670
   H ( 11)  3.589686  2.280494  4.207810  3.872197  4.229209  1.090538
             H (  7)   H (  8)   H (  9)   H ( 10)
   H (  8)  1.688770
   H (  9)  2.499617  3.031548
   H ( 10)  2.054170  2.137990  1.754584
   H ( 11)  3.007144  2.451820  1.775467  1.748452
 
 A cutoff of  1.0D-09 yielded   2467 shell pairs
 There are     21808 function pairs (     26783 Cartesian)
 Smallest overlap matrix eigenvalue = 8.07E-05

 Scale SEOQF with 1.000000e-01/1.000000e-01/1.000000e-01

 Standard Electronic Orientation quadrupole field applied
 Nucleus-field energy     =     0.0000000015 hartrees
 Requested basis set is 6-31G(d)
 There are 28 shells and 58 basis functions
 A cutoff of  1.0D-09 yielded    391 shell pairs
 There are      1754 function pairs (      1947 Cartesian)
 Smallest overlap matrix eigenvalue = 7.32E-03
 Guess from superposition of atomic densities
 Warning:  Energy on first SCF cycle will be non-variational
 SAD guess density has 26.000000 electrons
 Long-range K will be added via erf
 Coulomb attenuation parameter = 0.2 bohr**(-1)
 A restricted hybrid HF-DFT SCF calculation will be
 performed using Relaxed Constraint Minimization + Pulay DIIS
 Exchange:     0.2220 Hartree-Fock + 1.0000 wB97X-D + LR-HF
 Correlation:  1.0000 wB97X-D
 Using Euler-Maclaurin-Lebedev (75,302) quadrature formula
 Dispersion:   Grimme D
 SCF converges when DIIS error is below 1.0E-04
 using 3 threads for integral computing
 -------------------------------------------------------
 OpenMP Integral computing Module                
 Release: version 1.0, May 2013, Q-Chem Inc. Pittsburgh 
 -------------------------------------------------------
 using 3 threads for integral computing
 -------------------------------------------------------
 OpenMP Integral computing Module                
 Release: version 1.0, May 2013, Q-Chem Inc. Pittsburgh 
 -------------------------------------------------------
 ---------------------------------------
  Cycle       Energy         DIIS Error
 ---------------------------------------
    1    -119.5700783183      9.88E-02
    2    -119.0215110475      8.23E-03
    3    -119.0400789614      2.69E-03
    4    -119.0510042543      1.85E-03
    5    -119.0518718450      3.19E-04 Done RCA. Switching to DIIS
    6    -119.0524878040      2.42E-04
    7    -119.0525133640      4.42E-06 Convergence criterion met
 ---------------------------------------
 SCF time:  CPU 20.64 s  wall 7.88 s
 SCF   energy in the small basis set = -119.05251336
 Total energy in the small basis set = -119.05251336
 ----------------------------------------------------
  Cycle       Energy    
 ----------------------------------------------------
    1     -16.5112041705     -1.65E+01
 Long-range K will be added via erf
 Coulomb attenuation parameter = 0.2 bohr**(-1)
 A restricted hybrid HF-DFT SCF calculation will be
 performed using Relaxed Constraint Minimization + Pulay DIIS
 Exchange:     0.2220 Hartree-Fock + 1.0000 wB97X-D + LR-HF
 Correlation:  1.0000 wB97X-D
 Using Euler-Maclaurin-Lebedev (75,302) quadrature formula
 Dispersion:   Grimme D
 SCF converges when DIIS error is below 1.0E-05
 Basis2 calculation detected. Using small basis as guess for larger.
 SCFMinFind is unable to tell whether the solution found is close.
 Resetting ReadMinima to 0 and attempting to follow guess.
 SCFMinFind following SCF Guess.
 using 3 threads for integral computing
 -------------------------------------------------------
 OpenMP Integral computing Module                
 Release: version 1.0, May 2013, Q-Chem Inc. Pittsburgh 
 -------------------------------------------------------
 using 3 threads for integral computing
 -------------------------------------------------------
 OpenMP Integral computing Module                
 Release: version 1.0, May 2013, Q-Chem Inc. Pittsburgh 
 -------------------------------------------------------
 ---------------------------------------
  Cycle       Energy         DIIS Error
 ---------------------------------------
    1    -119.0726890077      4.21E-03
    2    -119.0945491671      5.70E-04 Done RCA. Switching to DIIS
    3    -119.0953645056      3.86E-04
    4    -119.0961827822      4.84E-05
    5    -119.0961983415      1.52E-05
    6    -119.0961997270      4.22E-06 Convergence criterion met
 ---------------------------------------
 SCF time:  CPU 47.43 s  wall 15.95 s
 SCF   energy in the final basis set = -119.09619973
 Total energy in the final basis set = -119.09619973
 
 --------------------------------------------------------------
 
                    Orbital Energies (a.u.)
 --------------------------------------------------------------
 
 Alpha MOs
 -- Occupied --
-10.2808 -10.2757 -10.2757  -0.8751  -0.7942  -0.6713  -0.5378  -0.5035
 -0.5030  -0.4779  -0.4276  -0.3986  -0.3816
 -- Virtual --
  0.0612   0.0855   0.0958   0.0987   0.1100   0.1273   0.1315   0.1576
  0.1667   0.1736   0.2039   0.2151   0.2180   0.2276   0.2345   0.2477
  0.2569   0.2738   0.2777   0.3008   0.3193   0.3758   0.4656   0.4800
  0.4816   0.4924   0.5286   0.5344   0.5601   0.5639   0.5705   0.5881
  0.5976   0.5989   0.6304   0.6445   0.6659   0.6823   0.6945   0.7085
  0.7227   0.7574   0.8412   0.8448   0.8638   0.8859   0.9507   0.9553
  0.9640   0.9656   1.0281   1.0773   1.1346   1.1588   1.1655   1.1751
  1.2306   1.2395   1.2606   1.2776   1.2951   1.3066   1.3074   1.3283
  1.3539   1.3901   1.4223   1.4407   1.4457   1.4511   1.4620   1.4646
  1.4906   1.6015   1.6036   1.6257   1.6440   1.6661   1.7103   1.7585
  1.7979   2.4163   2.4530   2.4593   2.4942   2.5390   2.5793   2.6375
  2.6753   2.6932   2.7012   2.8015   2.8425   2.8636   2.9220   2.9446
  2.9533   2.9598   3.0051   3.0093   3.0436   3.0512   3.0832   3.1068
  3.1249   3.1400   3.1574   3.1848   3.2009   3.2112   3.2366   3.2588
  3.2694   3.2952   3.2974   3.3336   3.3437   3.3555   3.3718   3.4078
  3.4239   3.4349   3.5403   3.5604   3.5615   3.5804   3.6053   3.6168
  3.6338   3.6662   3.7024   3.7092   3.7248   3.7298   3.7544   3.8256
  3.8344   3.8613   3.8926   3.9056   3.9468   3.9980   4.0144   4.0566
  4.0972   4.1028   4.1344   4.1486   4.1545   4.1809   4.1984   4.2154
  4.2226   4.2281   4.2832   4.3509   4.3563   4.3699   4.4594   4.4778
  4.4928   4.5763   4.5890   4.6331   4.7388   4.8060   4.8597   4.8880
  4.8998   4.9185   4.9577   4.9873   5.0199   5.0563   5.1056   5.1094
  5.1683   5.1845   5.2023   5.2438   5.2890   5.3074   5.3286   5.3290
  5.3534   5.4176   5.4473   5.4599   5.6276   5.6798   5.6849   5.8424
  5.9794   6.3730   6.3902   6.3916   6.4207   6.4632  25.1970  25.3797
 25.4164
 --------------------------------------------------------------
 
 -----------------------------------------------------------------
                    Cartesian Multipole Moments
 -----------------------------------------------------------------
    Charge (ESU x 10^10)
                -0.0000
    Dipole Moment (Debye)
         X       0.0000      Y      -0.0079      Z      -0.3367
       Tot       0.3368
    Quadrupole Moments (Debye-Ang)
        XX     -21.6965     XY      -0.0000     YY     -21.4745
        XZ       0.0000     YZ      -0.0225     ZZ     -21.9541
    Octopole Moments (Debye-Ang^2)
       XXX       0.0000    XXY       0.1208    XYY       0.0000
       YYY       0.0089    XXZ      -2.0183    XYZ       0.0000
       YYZ      -1.4040    XZZ      -0.0000    YZZ      -0.2710
       ZZZ      -7.4545
    Hexadecapole Moments (Debye-Ang^3)
      XXXX    -277.6760   XXXY      -0.0000   XXYY     -50.3976
      XYYY      -0.0000   YYYY     -43.9566   XXXZ      -0.0000
      XXYZ       0.1500   XYYZ      -0.0000   YYYZ       0.1135
      XXZZ     -52.0630   XYZZ      -0.0000   YYZZ     -14.9552
      XZZZ      -0.0000   YZZZ       0.2176   ZZZZ     -52.4590
 -----------------------------------------------------------------
Archival summary:
1\1\centos77-c4\SP\ProcedureUnspecified\BasisUnspecified\38\shihchen\TueJul701:06:112020TueJul701:06:112020\0\\#,ProcedureUnspecified,BasisUnspecified,\\0,1\C\H,1,1.09575\H,1,1.09636,2,100.777\C,1,1.55865,2,99.486,3,-100.756,0\H,4,1.09013,1,117.595,2,169.354,0\H,4,1.09054,1,117.733,2,-57.0073,0\H,4,1.09467,1,97.4879,2,55.8625,0\C,1,1.55865,2,99.4861,3,100.756,0\H,8,1.09013,1,117.595,2,-169.354,0\H,8,1.09054,1,117.733,2,57.0071,0\H,8,1.09467,1,97.4878,2,-55.8627,0\\\@

 Total job time:  26.60s(wall), 71.50s(cpu) 
 Tue Jul  7 01:06:11 2020

        *************************************************************
        *                                                           *
        *  Thank you very much for using Q-Chem.  Have a nice day.  *
        *                                                           *
        *************************************************************


