                  Welcome to Q-Chem
     A Quantum Leap Into The Future Of Chemistry


 Q-Chem 5.3 (devel), Q-Chem, Inc., Pleasanton, CA (2020)

 Yihan Shao,  Zhengting Gan,  E. Epifanovsky,  A. T. B. Gilbert,  M. Wormit,  
 J. Kussmann,  A. W. Lange,  A. Behn,  Jia Deng,  Xintian Feng,  D. Ghosh,  
 M. Goldey,  P. R. Horn,  L. D. Jacobson,  I. Kaliman,  T. Kus,  A. Landau,  
 Jie Liu,  E. I. Proynov,  R. M. Richard,  R. P. Steele,  E. J. Sundstrom,  
 H. L. Woodcock III,  P. M. Zimmerman,  D. Zuev,  B. Alam,  B. Albrecht,  
 E. Alguire,  S. A. Baeppler,  D. Barton,  Z. Benda,  Y. A. Bernard,  
 E. J. Berquist,  K. B. Bravaya,  H. Burton,  K. Carter-Fenk,  D. Casanova,  
 Chun-Min Chang,  Yunqing Chen,  A. Chien,  K. D. Closser,  M. P. Coons,  
 S. Coriani,  S. Dasgupta,  A. L. Dempwolff,  M. Diedenhofen,  Hainam Do,  
 R. G. Edgar,  Po-Tung Fang,  S. Faraji,  S. Fatehi,  Qingguo Feng,  
 J. Fosso-Tande,  J. Gayvert,  Qinghui Ge,  A. Ghysels,  G. Gidofalvi,  
 J. Gomes,  J. Gonthier,  A. Gunina,  D. Hait,  M. W. D. Hanson-Heine,  
 P. H. P. Harbach,  A. W. Hauser,  M. F. Herbst,  J. E. Herr,  
 E. G. Hohenstein,  Z. C. Holden,  Kerwin Hui,  B. C. Huynh,  T.-C. Jagau,  
 Hyunjun Ji,  B. Kaduk,  K. Khistyaev,  Jaehoon Kim,  P. Klunzinger,  K. Koh,  
 D. Kosenkov,  L. Koulias,  T. Kowalczyk,  C. M. Krauter,  A. Kunitsa,  
 Ka Un Lao,  A. Laurent,  K. V. Lawler,  Joonho Lee,  D. Lefrancois,  
 S. Lehtola,  D. S. Levine,  Yi-Pei Li,  You-Sheng Lin,  Fenglai Liu,  
 Kuan-Yu Liu,  E. Livshits,  M. Loipersberger,  A. Luenser,  P. Manohar,  
 E. Mansoor,  S. F. Manzer,  Shan-Ping Mao,  Yuezhi Mao,  N. Mardirossian,  
 A. V. Marenich,  T. Markovich,  L. A. Martinez-Martinez,  S. A. Maurer,  
 N. J. Mayhall,  S. C. McKenzie,  J.-M. Mewes,  P. Morgante,  A. F. Morrison,  
 J. W. Mullinax,  K. Nanda,  T. S. Nguyen-Beck,  R. Olivares-Amaya,  
 K. J. Oosterbaan,  J. A. Parkhill,  S. K. Paul,  F. Pavosevic,  Zheng Pei,  
 T. M. Perrine,  F. Plasser,  P. Pokhilko,  S. Prager,  A. Prociuk,  
 E. Ramos,  B. Rana,  D. R. Rehn,  F. Rob,  M. Scheurer,  M. Schneider,  
 N. Sergueev,  S. M. Sharada,  S. Sharma,  D. W. Small,  T. Stauch,  
 C. J. Stein,  T. Stein,  Yu-Chuan Su,  S. P. Veccham,  Zhen Tao,  
 A. J. W. Thom,  A. Tkatchenko,  T. Tsuchimochi,  N. M. Tubman,  L. Vogt,  
 M. L. Vidal,  O. Vydrov,  M. A. Watson,  J. Wenzel,  M. de Wergifosse,  
 T. A. Wesolowski,  A. White,  J. Witte,  A. Yamada,  Jun Yang,  K. Yao,  
 S. Yeganeh,  S. R. Yost,  Zhi-Qiang You,  A. Zech,  Igor Ying Zhang,  
 Xing Zhang,  Yan Zhao,  Ying Zhu,  B. R. Brooks,  G. K. L. Chan,  
 C. J. Cramer,  M. S. Gordon,  W. J. Hehre,  A. Klamt,  M. W. Schmidt,  
 C. D. Sherrill,  D. G. Truhlar,  A. Aspuru-Guzik,  R. Baer,  A. T. Bell,  
 N. A. Besley,  Jeng-Da Chai,  A. E. DePrince, III,  R. A. DiStasio Jr.,  
 A. Dreuw,  B. D. Dunietz,  T. R. Furlani,  Chao-Ping Hsu,  Yousung Jung,  
 Jing Kong,  D. S. Lambrecht,  WanZhen Liang,  C. Ochsenfeld,  
 V. A. Rassolov,  L. V. Slipchenko,  J. E. Subotnik,  T. Van Voorhis,  
 J. M. Herbert,  A. I. Krylov,  P. M. W. Gill,  M. Head-Gordon

 Contributors to earlier versions of Q-Chem not listed above: 
 R. D. Adamson,  B. Austin,  J. Baker,  G. J. O. Beran,  K. Brandhorst,  
 S. T. Brown,  E. F. C. Byrd,  A. K. Chakraborty,  C.-L. Cheng,  
 Siu Hung Chien,  D. M. Chipman,  D. L. Crittenden,  H. Dachsel,  
 R. J. Doerksen,  A. D. Dutoi,  L. Fusti-Molnar,  W. A. Goddard III,  
 A. Golubeva-Zadorozhnaya,  S. R. Gwaltney,  G. Hawkins,  A. Heyden,  
 S. Hirata,  G. Kedziora,  F. J. Keil,  C. Kelley,  Jihan Kim,  R. A. King,  
 R. Z. Khaliullin,  P. P. Korambath,  W. Kurlancheek,  A. M. Lee,  M. S. Lee,  
 S. V. Levchenko,  Ching Yeh Lin,  D. Liotard,  R. C. Lochan,  I. Lotan,  
 P. E. Maslen,  N. Nair,  D. P. O'Neill,  D. Neuhauser,  E. Neuscamman,  
 C. M. Oana,  R. Olson,  B. Peters,  R. Peverati,  P. A. Pieniazek,  
 Y. M. Rhee,  J. Ritchie,  M. A. Rohrdanz,  E. Rosta,  N. J. Russ,  
 H. F. Schaefer III,  N. E. Schultz,  N. Shenvi,  A. C. Simmonett,  A. Sodt,  
 D. Stuck,  K. S. Thanthiriwatte,  V. Vanovschi,  Tao Wang,  A. Warshel,  
 C. F. Williams,  Q. Wu,  X. Xu,  W. Zhang

 Please cite Q-Chem as follows:
 Y. Shao et al., Mol. Phys. 113, 184-215 (2015)
 DOI: 10.1080/00268976.2014.952696

 Q-Chem 5.3.0 for Intel X86 EM64T Linux

 Parts of Q-Chem use Armadillo 9.800.1 (Horizon Scraper).
 http://arma.sourceforge.net/

 Q-Chem begins on Tue Jul  7 02:34:42 2020  

Host: centos77-c4
0

     Scratch files written to /tmp/26964.centos77-h1/qchem113012//
Processing $rem in /opt/qchem-5.3.0-intel2020u1//config/preferences:
Processing $rem in /home/shihchengli/.qchemrc:

Checking the input file for inconsistencies... 	...done.

--------------------------------------------------------------
User input:
--------------------------------------------------------------
$rem
   JOBTYPE  sp
   EXCHANGE   omegaB97X-D
   BASIS   6-311+G(2df,2pd)
   UNRESTRICTED   False
   max_scf_cycles   250
   geom_opt_max_cycles   1500
   basis2 6-31G*
   scf_algorithm rca_diis
   SYM_IGNORE  TRUE
   print_input   true
   geom_opt_dmax   80
   pop_mulliken false
   XC_GRID 000075000302
$end

$molecule
0 1
C       1.2670534030     -0.0024409832     0.2582938985
C       -0.0000000485     0.0310163836     -0.5878440972
H       1.3218979375     -0.8370156312     0.8325579313
H       1.2844770909     0.9194100242     0.9759614758
H       2.1652364070     0.0465435580     -0.3601084477
C       -1.2670535845     -0.0024405218     0.2582938834
H       -0.0000001527     -1.0180674989     -1.3546406970
H       -0.0000000230     0.7340578855     -1.1298798944
H       -1.3218983461     -0.8370162382     0.8325585576
H       -2.1652356957     0.0465446895     -0.3601079056
H       -1.2844770485     0.9194089985     0.9759603142
$end
--------------------------------------------------------------
 ----------------------------------------------------------------
             Standard Nuclear Orientation (Angstroms)
    I     Atom           X                Y                Z
 ----------------------------------------------------------------
    1      C       1.2670534030    -0.0024409832     0.2582938985
    2      C      -0.0000000485     0.0310163836    -0.5878440972
    3      H       1.3218979375    -0.8370156312     0.8325579313
    4      H       1.2844770909     0.9194100242     0.9759614758
    5      H       2.1652364070     0.0465435580    -0.3601084477
    6      C      -1.2670535845    -0.0024405218     0.2582938834
    7      H      -0.0000001527    -1.0180674989    -1.3546406970
    8      H      -0.0000000230     0.7340578855    -1.1298798944
    9      H      -1.3218983461    -0.8370162382     0.8325585576
   10      H      -2.1652356957     0.0465446895    -0.3601079056
   11      H      -1.2844770485     0.9194089985     0.9759603142
 ----------------------------------------------------------------
 Nuclear Repulsion Energy =          83.01568250 hartrees
 There are       13 alpha and       13 beta electrons
 Requested basis set is 6-311+G(2df,2pd)
 There are 72 shells and 214 basis functions

 Total QAlloc Memory Limit   2000 MB
 Mega-Array Size       188 MB
 MEM_STATIC part       192 MB

                       Distance Matrix (Angstroms)
             C (  1)   C (  2)   H (  3)   H (  4)   H (  5)   C (  6)
   C (  2)  1.523973
   H (  3)  1.014545  2.125661
   H (  4)  1.168400  2.210116  1.762667
   H (  5)  1.091583  2.177235  1.707147  1.822832
   C (  6)  2.534107  1.523973  2.780102  2.806272  3.487898
   H (  7)  2.288773  1.299444  2.562037  3.291718  2.609740  2.288773
   H (  8)  2.018634  0.887733  2.840220  2.473622  2.398640  2.018633
   H (  9)  2.780102  2.125662  2.643796  3.146234  3.789887  1.014546
   H ( 10)  3.487897  2.177235  3.789885  3.800986  4.330472  1.091582
   H ( 11)  2.806272  2.210115  3.146233  2.568954  3.800986  1.168399
             H (  7)   H (  8)   H (  9)   H ( 10)
   H (  8)  1.766483
   H (  9)  2.562037  2.840221
   H ( 10)  2.609739  2.398639  1.707147
   H ( 11)  3.291716  2.473621  1.762667  1.822829
 
 A cutoff of  1.0D-09 yielded   2532 shell pairs
 There are     22546 function pairs (     27715 Cartesian)
 Smallest overlap matrix eigenvalue = 8.54E-05

 Scale SEOQF with 1.000000e-01/1.000000e-01/1.000000e-01

 Standard Electronic Orientation quadrupole field applied
 Nucleus-field energy     =     0.0000000006 hartrees
 Requested basis set is 6-31G(d)
 There are 28 shells and 58 basis functions
 A cutoff of  1.0D-09 yielded    402 shell pairs
 There are      1773 function pairs (      1968 Cartesian)
 Smallest overlap matrix eigenvalue = 6.64E-03
 Guess from superposition of atomic densities
 Warning:  Energy on first SCF cycle will be non-variational
 SAD guess density has 26.000000 electrons
 Long-range K will be added via erf
 Coulomb attenuation parameter = 0.2 bohr**(-1)
 A restricted hybrid HF-DFT SCF calculation will be
 performed using Relaxed Constraint Minimization + Pulay DIIS
 Exchange:     0.2220 Hartree-Fock + 1.0000 wB97X-D + LR-HF
 Correlation:  1.0000 wB97X-D
 Using Euler-Maclaurin-Lebedev (75,302) quadrature formula
 Dispersion:   Grimme D
 SCF converges when DIIS error is below 1.0E-04
 using 3 threads for integral computing
 -------------------------------------------------------
 OpenMP Integral computing Module                
 Release: version 1.0, May 2013, Q-Chem Inc. Pittsburgh 
 -------------------------------------------------------
 using 3 threads for integral computing
 -------------------------------------------------------
 OpenMP Integral computing Module                
 Release: version 1.0, May 2013, Q-Chem Inc. Pittsburgh 
 -------------------------------------------------------
 ---------------------------------------
  Cycle       Energy         DIIS Error
 ---------------------------------------
    1    -119.6054148752      1.03E-01
    2    -118.9912237384      9.35E-03
    3    -119.0144912035      2.62E-03
    4    -119.0300196685      1.79E-03
    5    -119.0308106396      2.74E-04 Done RCA. Switching to DIIS
    6    -119.0314058727      2.02E-04
    7    -119.0314239119      5.87E-06 Convergence criterion met
 ---------------------------------------
 SCF time:  CPU 19.34 s  wall 7.02 s
 SCF   energy in the small basis set = -119.03142391
 Total energy in the small basis set = -119.03142391
 ----------------------------------------------------
  Cycle       Energy    
 ----------------------------------------------------
    1     -16.5649384472     -1.66E+01
 Long-range K will be added via erf
 Coulomb attenuation parameter = 0.2 bohr**(-1)
 A restricted hybrid HF-DFT SCF calculation will be
 performed using Relaxed Constraint Minimization + Pulay DIIS
 Exchange:     0.2220 Hartree-Fock + 1.0000 wB97X-D + LR-HF
 Correlation:  1.0000 wB97X-D
 Using Euler-Maclaurin-Lebedev (75,302) quadrature formula
 Dispersion:   Grimme D
 SCF converges when DIIS error is below 1.0E-05
 Basis2 calculation detected. Using small basis as guess for larger.
 SCFMinFind is unable to tell whether the solution found is close.
 Resetting ReadMinima to 0 and attempting to follow guess.
 SCFMinFind following SCF Guess.
 using 3 threads for integral computing
 -------------------------------------------------------
 OpenMP Integral computing Module                
 Release: version 1.0, May 2013, Q-Chem Inc. Pittsburgh 
 -------------------------------------------------------
 using 3 threads for integral computing
 -------------------------------------------------------
 OpenMP Integral computing Module                
 Release: version 1.0, May 2013, Q-Chem Inc. Pittsburgh 
 -------------------------------------------------------
 ---------------------------------------
  Cycle       Energy         DIIS Error
 ---------------------------------------
    1    -119.0536825539      4.21E-03
    2    -119.0756593405      5.73E-04 Done RCA. Switching to DIIS
    3    -119.0764481838      3.99E-04
    4    -119.0773239430      4.64E-05
    5    -119.0773392784      1.12E-05
    6    -119.0773400863      4.22E-06 Convergence criterion met
 ---------------------------------------
 SCF time:  CPU 50.72 s  wall 17.11 s
 SCF   energy in the final basis set = -119.07734009
 Total energy in the final basis set = -119.07734009
 
 --------------------------------------------------------------
 
                    Orbital Energies (a.u.)
 --------------------------------------------------------------
 
 Alpha MOs
 -- Occupied --
-10.2723 -10.2660 -10.2660  -0.8876  -0.7802  -0.6956  -0.5445  -0.5217
 -0.4931  -0.4561  -0.4405  -0.4204  -0.3881
 -- Virtual --
  0.0691   0.0855   0.0889   0.0970   0.1246   0.1294   0.1333   0.1405
  0.1435   0.1664   0.1712   0.1902   0.2103   0.2413   0.2415   0.2605
  0.2837   0.2882   0.3132   0.3147   0.3398   0.3503   0.4580   0.4692
  0.4705   0.5030   0.5134   0.5160   0.5442   0.5633   0.5808   0.5832
  0.6162   0.6242   0.6327   0.6401   0.6585   0.6620   0.7165   0.7325
  0.7473   0.7700   0.8379   0.8550   0.8725   0.8822   0.8937   0.9554
  0.9994   1.0375   1.0720   1.1358   1.1388   1.1641   1.1833   1.1853
  1.2129   1.2385   1.2718   1.2755   1.2968   1.3011   1.3269   1.3746
  1.3844   1.3927   1.3968   1.4282   1.4584   1.4638   1.4750   1.4798
  1.5308   1.5850   1.6125   1.6182   1.6528   1.6696   1.6847   1.7005
  1.8182   2.3293   2.3549   2.4734   2.5085   2.5750   2.5963   2.6281
  2.6763   2.7144   2.8013   2.8304   2.8318   2.8410   2.9204   2.9206
  2.9294   2.9377   2.9839   3.0243   3.0320   3.0629   3.0869   3.1224
  3.1460   3.1499   3.1516   3.1776   3.1970   3.2227   3.2442   3.2802
  3.3334   3.3351   3.3456   3.3473   3.3641   3.3757   3.4248   3.4372
  3.4477   3.4797   3.4925   3.4968   3.5575   3.5664   3.5862   3.6154
  3.6283   3.6745   3.6890   3.7143   3.7470   3.7497   3.8260   3.8849
  3.8977   3.9145   3.9295   3.9737   3.9798   3.9846   4.0554   4.0590
  4.0818   4.0836   4.1180   4.1211   4.1567   4.1673   4.1952   4.2097
  4.2331   4.2767   4.2816   4.3411   4.3719   4.4023   4.4055   4.4220
  4.4477   4.4773   4.5545   4.5873   4.7582   4.8019   4.8150   4.8474
  4.8608   4.8770   4.9285   4.9305   4.9812   4.9953   5.0616   5.1826
  5.2035   5.2320   5.2384   5.2611   5.3710   5.3813   5.3908   5.4126
  5.4430   5.4604   5.5173   5.5862   5.7204   5.7253   5.8678   5.9778
  6.0341   6.2890   6.2992   6.4862   6.5202   6.7290  25.0298  25.4166
 25.4316
 --------------------------------------------------------------
 
 -----------------------------------------------------------------
                    Cartesian Multipole Moments
 -----------------------------------------------------------------
    Charge (ESU x 10^10)
                -0.0000
    Dipole Moment (Debye)
         X      -0.0000      Y       0.0691      Z      -0.0041
       Tot       0.0692
    Quadrupole Moments (Debye-Ang)
        XX     -22.0481     XY      -0.0000     YY     -21.4141
        XZ      -0.0000     YZ      -0.3914     ZZ     -22.0071
    Octopole Moments (Debye-Ang^2)
       XXX      -0.0000    XXY      -0.5005    XYY      -0.0000
       YYY      -0.1970    XXZ      -1.4904    XYZ       0.0000
       YYZ       0.6153    XZZ      -0.0000    YZZ       0.2908
       ZZZ       0.0627
    Hexadecapole Moments (Debye-Ang^3)
      XXXX    -201.3538   XXXY      -0.0000   XXYY     -42.3072
      XYYY      -0.0000   YYYY     -45.0342   XXXZ      -0.0000
      XXYZ      -1.9719   XYYZ       0.0000   YYYZ      -3.7908
      XXZZ     -45.5126   XYZZ      -0.0000   YYZZ     -17.4697
      XZZZ       0.0000   YZZZ      -4.1649   ZZZZ     -73.9678
 -----------------------------------------------------------------
Archival summary:
1\1\centos77-c4\SP\ProcedureUnspecified\BasisUnspecified\38\shihchen\TueJul702:35:092020TueJul702:35:092020\0\\#,ProcedureUnspecified,BasisUnspecified,\\0,1\C\H,1,0.887733\H,1,1.29944,2,106.204\C,1,1.52397,2,110.879,3,117.146,0\H,4,1.01455,1,112.165,2,-175.496,0\H,4,1.09158,1,111.628,2,-53.8136,0\H,4,1.1684,1,109.64,2,65.1658,0\C,1,1.52397,2,110.879,3,-117.146,0\H,8,1.01455,1,112.165,2,175.496,0\H,8,1.09158,1,111.628,2,53.8135,0\H,8,1.1684,1,109.64,2,-65.1658,0\\\@

 Total job time:  27.07s(wall), 73.70s(cpu) 
 Tue Jul  7 02:35:09 2020

        *************************************************************
        *                                                           *
        *  Thank you very much for using Q-Chem.  Have a nice day.  *
        *                                                           *
        *************************************************************


