                  Welcome to Q-Chem
     A Quantum Leap Into The Future Of Chemistry


 Q-Chem 5.2 (devel), Q-Chem, Inc., Pleasanton, CA (2019)

 Yihan Shao,  Zhengting Gan,  E. Epifanovsky,  A. T. B. Gilbert,  M. Wormit,  
 J. Kussmann,  A. W. Lange,  A. Behn,  Jia Deng,  Xintian Feng,  D. Ghosh,  
 M. Goldey,  P. R. Horn,  L. D. Jacobson,  I. Kaliman,  T. Kus,  A. Landau,  
 Jie Liu,  E. I. Proynov,  R. M. Richard,  R. P. Steele,  E. J. Sundstrom,  
 H. L. Woodcock III,  P. M. Zimmerman,  D. Zuev,  B. Alam,  B. Albrecht,  
 E. Alguire,  S. A. Baeppler,  D. Barton,  Z. Benda,  Y. A. Bernard,  
 E. J. Berquist,  K. B. Bravaya,  H. Burton,  K. Carter-Fenk,  D. Casanova,  
 Chun-Min Chang,  Yunqing Chen,  A. Chien,  K. D. Closser,  M. P. Coons,  
 S. Coriani,  S. Dasgupta,  A. L. Dempwolff,  M. Diedenhofen,  Hainam Do,  
 R. G. Edgar,  Po-Tung Fang,  S. Faraji,  S. Fatehi,  Qingguo Feng,  
 J. Fosso-Tande,  J. Gayvert,  Qinghui Ge,  A. Ghysels,  G. Gidofalvi,  
 J. Gomes,  J. Gonthier,  A. Gunina,  D. Hait,  M. W. D. Hanson-Heine,  
 P. H. P. Harbach,  A. W. Hauser,  M. F. Herbst,  J. E. Herr,  
 E. G. Hohenstein,  Z. C. Holden,  Kerwin Hui,  B. C. Huynh,  T.-C. Jagau,  
 Hyunjun Ji,  B. Kaduk,  K. Khistyaev,  Jaehoon Kim,  P. Klunzinger,  K. Koh,  
 D. Kosenkov,  L. Koulias,  T. Kowalczyk,  C. M. Krauter,  A. Kunitsa,  
 Ka Un Lao,  A. Laurent,  K. V. Lawler,  Joonho Lee,  D. Lefrancois,  
 S. Lehtola,  D. S. Levine,  Yi-Pei Li,  You-Sheng Lin,  Fenglai Liu,  
 Kuan-Yu Liu,  E. Livshits,  M. Loipersberger,  A. Luenser,  P. Manohar,  
 E. Mansoor,  S. F. Manzer,  Shan-Ping Mao,  Yuezhi Mao,  N. Mardirossian,  
 A. V. Marenich,  T. Markovich,  L. A. Martinez-Martinez,  S. A. Maurer,  
 N. J. Mayhall,  S. C. McKenzie,  J.-M. Mewes,  P. Morgante,  A. F. Morrison,  
 J. W. Mullinax,  K. Nanda,  T. S. Nguyen-Beck,  R. Olivares-Amaya,  
 J. A. Parkhill,  S. K. Paul,  Zheng Pei,  T. M. Perrine,  F. Plasser,  
 P. Pokhilko,  S. Prager,  A. Prociuk,  E. Ramos,  B. Rana,  D. R. Rehn,  
 F. Rob,  M. Scheurer,  M. Schneider,  N. Sergueev,  S. M. Sharada,  
 S. Sharma,  D. W. Small,  T. Stauch,  C. J. Stein,  T. Stein,  Yu-Chuan Su,  
 S. P. Veccham,  A. J. W. Thom,  A. Tkatchenko,  T. Tsuchimochi,  
 N. M. Tubman,  L. Vogt,  M. L. Vidal,  O. Vydrov,  M. A. Watson,  J. Wenzel,  
 M. de Wergifosse,  T. A. Wesolowski,  A. White,  J. Witte,  A. Yamada,  
 Jun Yang,  K. Yao,  S. Yeganeh,  S. R. Yost,  Zhi-Qiang You,  A. Zech,  
 Igor Ying Zhang,  Xing Zhang,  Yan Zhao,  Ying Zhu,  B. R. Brooks,  
 G. K. L. Chan,  C. J. Cramer,  M. S. Gordon,  W. J. Hehre,  A. Klamt,  
 M. W. Schmidt,  C. D. Sherrill,  D. G. Truhlar,  A. Aspuru-Guzik,  R. Baer,  
 A. T. Bell,  N. A. Besley,  Jeng-Da Chai,  A. E. DePrince, III,  
 R. A. DiStasio Jr.,  A. Dreuw,  B. D. Dunietz,  T. R. Furlani,  
 Chao-Ping Hsu,  Yousung Jung,  Jing Kong,  D. S. Lambrecht,  WanZhen Liang,  
 C. Ochsenfeld,  V. A. Rassolov,  L. V. Slipchenko,  J. E. Subotnik,  
 T. Van Voorhis,  J. M. Herbert,  A. I. Krylov,  P. M. W. Gill,  M. Head-Gordon

 Contributors to earlier versions of Q-Chem not listed above: 
 R. D. Adamson,  B. Austin,  J. Baker,  G. J. O. Beran,  K. Brandhorst,  
 S. T. Brown,  E. F. C. Byrd,  A. K. Chakraborty,  C.-L. Cheng,  
 Siu Hung Chien,  D. M. Chipman,  D. L. Crittenden,  H. Dachsel,  
 R. J. Doerksen,  A. D. Dutoi,  L. Fusti-Molnar,  W. A. Goddard III,  
 A. Golubeva-Zadorozhnaya,  S. R. Gwaltney,  G. Hawkins,  A. Heyden,  
 S. Hirata,  G. Kedziora,  F. J. Keil,  C. Kelley,  Jihan Kim,  R. A. King,  
 R. Z. Khaliullin,  P. P. Korambath,  W. Kurlancheek,  A. M. Lee,  M. S. Lee,  
 S. V. Levchenko,  Ching Yeh Lin,  D. Liotard,  R. C. Lochan,  I. Lotan,  
 P. E. Maslen,  N. Nair,  D. P. O'Neill,  D. Neuhauser,  E. Neuscamman,  
 C. M. Oana,  R. Olson,  B. Peters,  R. Peverati,  P. A. Pieniazek,  
 Y. M. Rhee,  J. Ritchie,  M. A. Rohrdanz,  E. Rosta,  N. J. Russ,  
 H. F. Schaefer III,  N. E. Schultz,  N. Shenvi,  A. C. Simmonett,  A. Sodt,  
 D. Stuck,  K. S. Thanthiriwatte,  V. Vanovschi,  Tao Wang,  A. Warshel,  
 C. F. Williams,  Q. Wu,  X. Xu,  W. Zhang

 Please cite Q-Chem as follows:
 Y. Shao et al., Mol. Phys. 113, 184-215 (2015)
 DOI: 10.1080/00268976.2014.952696

 Q-Chem 5.2.2 for Intel X86 EM64T Linux

 Parts of Q-Chem use Armadillo 9.800.1 (Horizon Scraper).
 http://arma.sourceforge.net/

 Q-Chem begins on Sun Apr 12 07:35:39 2020  

Host: cn0821
0

     Scratch files written to /tmp/ypli/6721342.srvc1/qchem188598//
Warning:  Did not find "$end" marker in "$molecule" section

Checking the input file for inconsistencies... 	...done.

--------------------------------------------------------------
User input:
--------------------------------------------------------------
$rem
   JOBTYPE  sp
   EXCHANGE   omegaB97X-D
   BASIS   6-311+G(2df,2pd)
   max_scf_cycles   250
   geom_opt_max_cycles   1500
   basis2 6-31G*
   scf_algorithm rca_diis
   SYM_IGNORE  TRUE
   print_input   true
   geom_opt_dmax   80
   pop_mulliken false
   XC_GRID 000075000302
$end

$molecule
0 1
C       1.2589466590     -0.0378872047     0.2954694885
C       -0.0000000245     -0.0371455087     -0.5371862768
H       1.2099562149     -0.9434995524     0.8945868160
H       1.4304827125     0.9008784678     0.8291945860
H       2.1846073724     0.1272122457     -0.2609641945
C       -1.2589465777     -0.0378875330     0.2954694538
H       0.0000005613     -0.7961412158     -1.3292533283
H       -0.0000001772     0.7398770347     -1.3090894438
H       -1.2099545412     -0.9434991788     0.8945875050
H       -2.1846071388     0.1272151388     -0.2609637528
H       -1.4304851212     0.9008779725     0.8291941659
--------------------------------------------------------------
 ----------------------------------------------------------------
             Standard Nuclear Orientation (Angstroms)
    I     Atom           X                Y                Z
 ----------------------------------------------------------------
    1      C       1.2589466590    -0.0378872047     0.2954694885
    2      C      -0.0000000245    -0.0371455087    -0.5371862768
    3      H       1.2099562149    -0.9434995524     0.8945868160
    4      H       1.4304827125     0.9008784678     0.8291945860
    5      H       2.1846073724     0.1272122457    -0.2609641945
    6      C      -1.2589465777    -0.0378875330     0.2954694538
    7      H       0.0000005613    -0.7961412158    -1.3292533283
    8      H      -0.0000001772     0.7398770347    -1.3090894438
    9      H      -1.2099545412    -0.9434991788     0.8945875050
   10      H      -2.1846071388     0.1272151388    -0.2609637528
   11      H      -1.4304851212     0.9008779725     0.8291941659
 ----------------------------------------------------------------
 Nuclear Repulsion Energy =          82.99258417 hartrees
 There are       13 alpha and       13 beta electrons
 Requested basis set is 6-311+G(2df,2pd)
 There are 72 shells and 214 basis functions

 Total QAlloc Memory Limit   2000 MB
 Mega-Array Size       188 MB
 MEM_STATIC part       192 MB

                       Distance Matrix (Angstroms)
             C (  1)   C (  2)   H (  3)   H (  4)   H (  5)   C (  6)
   C (  2)  1.509392
   H (  3)  1.086957  2.082173
   H (  4)  1.093420  2.189330  1.858666
   H (  5)  1.092577  2.208126  1.852476  1.534832
   C (  6)  2.517893  1.509391  2.697138  2.898133  3.492125
   H (  7)  2.190803  1.097016  2.535976  3.095974  2.601217  2.190804
   H (  8)  2.182767  1.095262  3.025548  2.577685  2.499287  2.182767
   H (  9)  2.697137  2.082173  2.419911  3.221477  3.742295  1.086957
   H ( 10)  3.492125  2.208126  3.742297  3.854332  4.369215  1.092577
   H ( 11)  2.898135  2.189331  3.221480  2.860968  3.854335  1.093420
             H (  7)   H (  8)   H (  9)   H ( 10)
   H (  8)  1.536151
   H (  9)  2.535976  3.025547
   H ( 10)  2.601219  2.499286  1.852478
   H ( 11)  3.095975  2.577686  1.858665  1.534828
 
 A cutoff of  1.0D-09 yielded   2530 shell pairs
 There are     22520 function pairs (     27689 Cartesian)
 Smallest overlap matrix eigenvalue = 9.60E-05

 Scale SEOQF with 1.000000e-01/1.000000e-01/1.000000e-01

 Standard Electronic Orientation quadrupole field applied
 Nucleus-field energy     =     0.0000000006 hartrees
 Requested basis set is 6-31G(d)
 There are 28 shells and 58 basis functions
 A cutoff of  1.0D-09 yielded    402 shell pairs
 There are      1773 function pairs (      1968 Cartesian)
 Smallest overlap matrix eigenvalue = 7.31E-03
 Guess from superposition of atomic densities
 Warning:  Energy on first SCF cycle will be non-variational
 SAD guess density has 26.000000 electrons
 Long-range K will be added via erf
 Coulomb attenuation parameter = 0.2 bohr**(-1)
 A restricted hybrid HF-DFT SCF calculation will be
 performed using Relaxed Constraint Minimization + Pulay DIIS
 Exchange:     0.2220 Hartree-Fock + 1.0000 wB97X-D + LR-HF
 Correlation:  1.0000 wB97X-D
 Using Euler-Maclaurin-Lebedev (75,302) quadrature formula
 Dispersion:   Grimme D
 SCF converges when DIIS error is below 1.0E-04
 using 3 threads for integral computing
 -------------------------------------------------------
 OpenMP Integral computing Module                
 Release: version 1.0, May 2013, Q-Chem Inc. Pittsburgh 
 -------------------------------------------------------
 using 3 threads for integral computing
 -------------------------------------------------------
 OpenMP Integral computing Module                
 Release: version 1.0, May 2013, Q-Chem Inc. Pittsburgh 
 -------------------------------------------------------
 ---------------------------------------
  Cycle       Energy         DIIS Error
 ---------------------------------------
    1    -119.6683721414      1.02E-01
    2    -119.0306306142      9.29E-03
    3    -119.0528204926      2.46E-03
    4    -119.0683037540      1.70E-03
    5    -119.0690026844      2.42E-04 Done RCA. Switching to DIIS
    6    -119.0695493098      1.77E-04
    7    -119.0695632438      6.70E-06 Convergence criterion met
 ---------------------------------------
 SCF time:  CPU 32.70 s  wall 11.26 s
 SCF   energy in the small basis set = -119.06956324
 Total energy in the small basis set = -119.06956324
 ----------------------------------------------------
  Cycle       Energy    
 ----------------------------------------------------
    1     -16.5427867590     -1.65E+01
 Long-range K will be added via erf
 Coulomb attenuation parameter = 0.2 bohr**(-1)
 A restricted hybrid HF-DFT SCF calculation will be
 performed using Relaxed Constraint Minimization + Pulay DIIS
 Exchange:     0.2220 Hartree-Fock + 1.0000 wB97X-D + LR-HF
 Correlation:  1.0000 wB97X-D
 Using Euler-Maclaurin-Lebedev (75,302) quadrature formula
 Dispersion:   Grimme D
 SCF converges when DIIS error is below 1.0E-05
 Basis2 calculation detected. Using small basis as guess for larger.
 SCFMinFind is unable to tell whether the solution found is close.
 Resetting ReadMinima to 0 and attempting to follow guess.
 SCFMinFind following SCF Guess.
 using 3 threads for integral computing
 -------------------------------------------------------
 OpenMP Integral computing Module                
 Release: version 1.0, May 2013, Q-Chem Inc. Pittsburgh 
 -------------------------------------------------------
 using 3 threads for integral computing
 -------------------------------------------------------
 OpenMP Integral computing Module                
 Release: version 1.0, May 2013, Q-Chem Inc. Pittsburgh 
 -------------------------------------------------------
 ---------------------------------------
  Cycle       Energy         DIIS Error
 ---------------------------------------
    1    -119.0907442277      4.21E-03
    2    -119.1126523117      6.11E-04 Done RCA. Switching to DIIS
    3    -119.1134656099      4.41E-04
    4    -119.1145311930      5.10E-05
    5    -119.1145489207      1.20E-05
    6    -119.1145499218      3.77E-06 Convergence criterion met
 ---------------------------------------
 SCF time:  CPU 98.72 s  wall 33.40 s
 SCF   energy in the final basis set = -119.11454992
 Total energy in the final basis set = -119.11454992
 
 --------------------------------------------------------------
 
                    Orbital Energies (a.u.)
 --------------------------------------------------------------
 
 Alpha MOs
 -- Occupied --
-10.2724 -10.2663 -10.2663  -0.8848  -0.7821  -0.6864  -0.5648  -0.5154
 -0.4939  -0.4646  -0.4153  -0.4087  -0.3866
 -- Virtual --
  0.0688   0.0844   0.0902   0.0975   0.1276   0.1294   0.1350   0.1410
  0.1459   0.1699   0.1721   0.1896   0.2238   0.2436   0.2474   0.2475
  0.2867   0.2889   0.3100   0.3169   0.3397   0.3405   0.4540   0.4754
  0.4776   0.4975   0.5113   0.5380   0.5602   0.5629   0.5829   0.5903
  0.6158   0.6263   0.6386   0.6388   0.6620   0.6713   0.6998   0.7215
  0.7333   0.7827   0.7967   0.8506   0.8607   0.8669   0.9018   0.9562
  1.0015   1.0263   1.0693   1.1257   1.1434   1.1779   1.1833   1.2146
  1.2341   1.2558   1.2569   1.2974   1.3022   1.3316   1.3317   1.3661
  1.3762   1.3878   1.3896   1.4526   1.4623   1.4698   1.4858   1.4964
  1.5215   1.5542   1.6009   1.6229   1.6427   1.6471   1.7077   1.7328
  1.7396   2.3853   2.4632   2.4967   2.5004   2.5527   2.5681   2.6082
  2.6360   2.6906   2.7938   2.8060   2.8345   2.8826   2.8836   2.9037
  2.9315   2.9615   3.0017   3.0210   3.0522   3.0666   3.0730   3.1284
  3.1309   3.1386   3.1430   3.2097   3.2144   3.2376   3.2601   3.2615
  3.3160   3.3190   3.3330   3.3497   3.3880   3.4181   3.4449   3.4651
  3.4782   3.4807   3.5295   3.5372   3.5536   3.5924   3.6060   3.6216
  3.6440   3.6482   3.6656   3.6838   3.7267   3.7444   3.7901   3.8414
  3.8852   3.8982   3.9385   3.9469   3.9738   3.9820   4.0384   4.0715
  4.0723   4.0892   4.1160   4.1319   4.1559   4.1830   4.2018   4.2176
  4.2437   4.2672   4.2807   4.3409   4.3945   4.4250   4.4279   4.4668
  4.5473   4.5492   4.6136   4.6209   4.6816   4.7345   4.7842   4.8401
  4.9096   4.9266   4.9453   4.9577   5.0248   5.0335   5.0933   5.1195
  5.1515   5.1930   5.2275   5.3270   5.3431   5.3543   5.4291   5.4591
  5.4658   5.5192   5.5232   5.5899   5.6125   5.6763   5.7448   5.8123
  5.9961   6.3041   6.3289   6.3979   6.4198   6.4783  25.2044  25.4497
 25.4710
 --------------------------------------------------------------
 
 -----------------------------------------------------------------
                    Cartesian Multipole Moments
 -----------------------------------------------------------------
    Charge (ESU x 10^10)
                -0.0000
    Dipole Moment (Debye)
         X      -0.0000      Y       0.2112      Z      -0.2107
       Tot       0.2983
    Quadrupole Moments (Debye-Ang)
        XX     -21.6578     XY      -0.0000     YY     -21.3625
        XZ      -0.0000     YZ      -0.3795     ZZ     -22.1482
    Octopole Moments (Debye-Ang^2)
       XXX      -0.0000    XXY       3.8884    XYY       0.0000
       YYY       1.4813    XXZ      -1.2526    XYZ       0.0000
       YYZ       0.6624    XZZ       0.0000    YZZ       0.0120
       ZZZ      -4.0002
    Hexadecapole Moments (Debye-Ang^3)
      XXXX    -199.3298   XXXY      -0.0001   XXYY     -40.7983
      XYYY       0.0000   YYYY     -44.2350   XXXZ      -0.0000
      XXYZ       0.2161   XYYZ       0.0000   YYYZ      -0.2130
      XXZZ     -46.9644   XYZZ       0.0000   YYZZ     -17.8256
      XZZZ      -0.0000   YZZZ      -0.1643   ZZZZ     -71.3862
 -----------------------------------------------------------------
Archival summary:
1\1\cn0821\SP\ProcedureUnspecified\BasisUnspecified\38\r0852400\SunApr1207:36:282020SunApr1207:36:282020\0\\#,ProcedureUnspecified,BasisUnspecified,\\0,1\C\H,1,1.09526\H,1,1.09702,2,88.9679\C,1,1.50939,2,112.901,3,-115.117,0\H,4,1.08696,1,105.479,2,170.536,0\H,4,1.09258,1,115.191,2,40.7214,0\H,4,1.09342,1,113.56,2,-60.1235,0\C,1,1.50939,2,112.901,3,115.117,0\H,8,1.08696,1,105.479,2,-170.536,0\H,8,1.09258,1,115.191,2,-40.7216,0\H,8,1.09342,1,113.56,2,60.1236,0\\\@

 Total job time:  48.78s(wall), 136.47s(cpu) 
 Sun Apr 12 07:36:28 2020

        *************************************************************
        *                                                           *
        *  Thank you very much for using Q-Chem.  Have a nice day.  *
        *                                                           *
        *************************************************************


