                  Welcome to Q-Chem
     A Quantum Leap Into The Future Of Chemistry


 Q-Chem 5.3 (devel), Q-Chem, Inc., Pleasanton, CA (2020)

 Yihan Shao,  Zhengting Gan,  E. Epifanovsky,  A. T. B. Gilbert,  M. Wormit,  
 J. Kussmann,  A. W. Lange,  A. Behn,  Jia Deng,  Xintian Feng,  D. Ghosh,  
 M. Goldey,  P. R. Horn,  L. D. Jacobson,  I. Kaliman,  T. Kus,  A. Landau,  
 Jie Liu,  E. I. Proynov,  R. M. Richard,  R. P. Steele,  E. J. Sundstrom,  
 H. L. Woodcock III,  P. M. Zimmerman,  D. Zuev,  B. Alam,  B. Albrecht,  
 E. Alguire,  S. A. Baeppler,  D. Barton,  Z. Benda,  Y. A. Bernard,  
 E. J. Berquist,  K. B. Bravaya,  H. Burton,  K. Carter-Fenk,  D. Casanova,  
 Chun-Min Chang,  Yunqing Chen,  A. Chien,  K. D. Closser,  M. P. Coons,  
 S. Coriani,  S. Dasgupta,  A. L. Dempwolff,  M. Diedenhofen,  Hainam Do,  
 R. G. Edgar,  Po-Tung Fang,  S. Faraji,  S. Fatehi,  Qingguo Feng,  
 J. Fosso-Tande,  J. Gayvert,  Qinghui Ge,  A. Ghysels,  G. Gidofalvi,  
 J. Gomes,  J. Gonthier,  A. Gunina,  D. Hait,  M. W. D. Hanson-Heine,  
 P. H. P. Harbach,  A. W. Hauser,  M. F. Herbst,  J. E. Herr,  
 E. G. Hohenstein,  Z. C. Holden,  Kerwin Hui,  B. C. Huynh,  T.-C. Jagau,  
 Hyunjun Ji,  B. Kaduk,  K. Khistyaev,  Jaehoon Kim,  P. Klunzinger,  K. Koh,  
 D. Kosenkov,  L. Koulias,  T. Kowalczyk,  C. M. Krauter,  A. Kunitsa,  
 Ka Un Lao,  A. Laurent,  K. V. Lawler,  Joonho Lee,  D. Lefrancois,  
 S. Lehtola,  D. S. Levine,  Yi-Pei Li,  You-Sheng Lin,  Fenglai Liu,  
 Kuan-Yu Liu,  E. Livshits,  M. Loipersberger,  A. Luenser,  P. Manohar,  
 E. Mansoor,  S. F. Manzer,  Shan-Ping Mao,  Yuezhi Mao,  N. Mardirossian,  
 A. V. Marenich,  T. Markovich,  L. A. Martinez-Martinez,  S. A. Maurer,  
 N. J. Mayhall,  S. C. McKenzie,  J.-M. Mewes,  P. Morgante,  A. F. Morrison,  
 J. W. Mullinax,  K. Nanda,  T. S. Nguyen-Beck,  R. Olivares-Amaya,  
 K. J. Oosterbaan,  J. A. Parkhill,  S. K. Paul,  F. Pavosevic,  Zheng Pei,  
 T. M. Perrine,  F. Plasser,  P. Pokhilko,  S. Prager,  A. Prociuk,  
 E. Ramos,  B. Rana,  D. R. Rehn,  F. Rob,  M. Scheurer,  M. Schneider,  
 N. Sergueev,  S. M. Sharada,  S. Sharma,  D. W. Small,  T. Stauch,  
 C. J. Stein,  T. Stein,  Yu-Chuan Su,  S. P. Veccham,  Zhen Tao,  
 A. J. W. Thom,  A. Tkatchenko,  T. Tsuchimochi,  N. M. Tubman,  L. Vogt,  
 M. L. Vidal,  O. Vydrov,  M. A. Watson,  J. Wenzel,  M. de Wergifosse,  
 T. A. Wesolowski,  A. White,  J. Witte,  A. Yamada,  Jun Yang,  K. Yao,  
 S. Yeganeh,  S. R. Yost,  Zhi-Qiang You,  A. Zech,  Igor Ying Zhang,  
 Xing Zhang,  Yan Zhao,  Ying Zhu,  B. R. Brooks,  G. K. L. Chan,  
 C. J. Cramer,  M. S. Gordon,  W. J. Hehre,  A. Klamt,  M. W. Schmidt,  
 C. D. Sherrill,  D. G. Truhlar,  A. Aspuru-Guzik,  R. Baer,  A. T. Bell,  
 N. A. Besley,  Jeng-Da Chai,  A. E. DePrince, III,  R. A. DiStasio Jr.,  
 A. Dreuw,  B. D. Dunietz,  T. R. Furlani,  Chao-Ping Hsu,  Yousung Jung,  
 Jing Kong,  D. S. Lambrecht,  WanZhen Liang,  C. Ochsenfeld,  
 V. A. Rassolov,  L. V. Slipchenko,  J. E. Subotnik,  T. Van Voorhis,  
 J. M. Herbert,  A. I. Krylov,  P. M. W. Gill,  M. Head-Gordon

 Contributors to earlier versions of Q-Chem not listed above: 
 R. D. Adamson,  B. Austin,  J. Baker,  G. J. O. Beran,  K. Brandhorst,  
 S. T. Brown,  E. F. C. Byrd,  A. K. Chakraborty,  C.-L. Cheng,  
 Siu Hung Chien,  D. M. Chipman,  D. L. Crittenden,  H. Dachsel,  
 R. J. Doerksen,  A. D. Dutoi,  L. Fusti-Molnar,  W. A. Goddard III,  
 A. Golubeva-Zadorozhnaya,  S. R. Gwaltney,  G. Hawkins,  A. Heyden,  
 S. Hirata,  G. Kedziora,  F. J. Keil,  C. Kelley,  Jihan Kim,  R. A. King,  
 R. Z. Khaliullin,  P. P. Korambath,  W. Kurlancheek,  A. M. Lee,  M. S. Lee,  
 S. V. Levchenko,  Ching Yeh Lin,  D. Liotard,  R. C. Lochan,  I. Lotan,  
 P. E. Maslen,  N. Nair,  D. P. O'Neill,  D. Neuhauser,  E. Neuscamman,  
 C. M. Oana,  R. Olson,  B. Peters,  R. Peverati,  P. A. Pieniazek,  
 Y. M. Rhee,  J. Ritchie,  M. A. Rohrdanz,  E. Rosta,  N. J. Russ,  
 H. F. Schaefer III,  N. E. Schultz,  N. Shenvi,  A. C. Simmonett,  A. Sodt,  
 D. Stuck,  K. S. Thanthiriwatte,  V. Vanovschi,  Tao Wang,  A. Warshel,  
 C. F. Williams,  Q. Wu,  X. Xu,  W. Zhang

 Please cite Q-Chem as follows:
 Y. Shao et al., Mol. Phys. 113, 184-215 (2015)
 DOI: 10.1080/00268976.2014.952696

 Q-Chem 5.3.0 for Intel X86 EM64T Linux

 Parts of Q-Chem use Armadillo 9.800.1 (Horizon Scraper).
 http://arma.sourceforge.net/

 Q-Chem begins on Tue Jul  7 01:08:28 2020  

Host: centos77-c4
0

     Scratch files written to /tmp/26964.centos77-h1/qchem97205//
Processing $rem in /opt/qchem-5.3.0-intel2020u1//config/preferences:
Processing $rem in /home/shihchengli/.qchemrc:

Checking the input file for inconsistencies... 	...done.

--------------------------------------------------------------
User input:
--------------------------------------------------------------
$rem
   JOBTYPE  sp
   EXCHANGE   omegaB97X-D
   BASIS   6-311+G(2df,2pd)
   UNRESTRICTED   False
   max_scf_cycles   250
   geom_opt_max_cycles   1500
   basis2 6-31G*
   scf_algorithm rca_diis
   SYM_IGNORE  TRUE
   print_input   true
   geom_opt_dmax   80
   pop_mulliken false
   XC_GRID 000075000302
$end

$molecule
0 1
C       1.2610777423     -0.0928799795     0.2530781038
C       0.0000000253     -0.1931282669     -0.6016832401
H       1.4730606723     -0.8034467020     1.0509403725
H       1.0543630912     0.8645885282     0.7429375250
H       2.1494317218     0.0808902902     -0.3540012841
C       -1.2610775126     -0.0928800028     0.2530784684
H       -0.0000000386     -0.7634027638     -1.5287792458
H       -0.0000002834     0.8582261071     -0.9144020917
H       -1.4730607107     -0.8034463914     1.0509408641
H       -2.1494312215     0.0808905950     -0.3540012461
H       -1.0543635466     0.8645892518     0.7429367929
$end
--------------------------------------------------------------
 ----------------------------------------------------------------
             Standard Nuclear Orientation (Angstroms)
    I     Atom           X                Y                Z
 ----------------------------------------------------------------
    1      C       1.2610777423    -0.0928799795     0.2530781038
    2      C       0.0000000253    -0.1931282669    -0.6016832401
    3      H       1.4730606723    -0.8034467020     1.0509403725
    4      H       1.0543630912     0.8645885282     0.7429375250
    5      H       2.1494317218     0.0808902902    -0.3540012841
    6      C      -1.2610775126    -0.0928800028     0.2530784684
    7      H      -0.0000000386    -0.7634027638    -1.5287792458
    8      H      -0.0000002834     0.8582261071    -0.9144020917
    9      H      -1.4730607107    -0.8034463914     1.0509408641
   10      H      -2.1494312215     0.0808905950    -0.3540012461
   11      H      -1.0543635466     0.8645892518     0.7429367929
 ----------------------------------------------------------------
 Nuclear Repulsion Energy =          83.14933849 hartrees
 There are       13 alpha and       13 beta electrons
 Requested basis set is 6-311+G(2df,2pd)
 There are 72 shells and 214 basis functions

 Total QAlloc Memory Limit   2000 MB
 Mega-Array Size       188 MB
 MEM_STATIC part       192 MB

                       Distance Matrix (Angstroms)
             C (  1)   C (  2)   H (  3)   H (  4)   H (  5)   C (  6)
   C (  2)  1.526756
   H (  3)  1.089232  2.296424
   H (  4)  1.095189  2.009590  1.747145
   H (  5)  1.089915  2.180938  1.792593  1.736846
   C (  6)  2.522155  1.526756  2.935473  2.553032  3.468474
   H (  7)  2.283623  1.088448  2.970937  2.987095  2.590944  2.283623
   H (  8)  1.964162  1.096877  2.965407  1.964306  2.353372  1.964161
   H (  9)  2.935473  2.296424  2.946121  3.043859  3.984767  1.089232
   H ( 10)  3.468474  2.180937  3.984766  3.475882  4.298863  1.089915
   H ( 11)  2.553033  2.009590  3.043860  2.108727  3.475883  1.095189
             H (  7)   H (  8)   H (  9)   H ( 10)
   H (  8)  1.734111
   H (  9)  2.970937  2.965406
   H ( 10)  2.590944  2.353371  1.792593
   H ( 11)  2.987095  1.964305  1.747145  1.736845
 
 A cutoff of  1.0D-09 yielded   2541 shell pairs
 There are     22601 function pairs (     27802 Cartesian)
 Smallest overlap matrix eigenvalue = 1.01E-04

 Scale SEOQF with 1.000000e-01/1.000000e-01/1.000000e-01

 Standard Electronic Orientation quadrupole field applied
 Nucleus-field energy     =     0.0000000005 hartrees
 Requested basis set is 6-31G(d)
 There are 28 shells and 58 basis functions
 A cutoff of  1.0D-09 yielded    402 shell pairs
 There are      1773 function pairs (      1968 Cartesian)
 Smallest overlap matrix eigenvalue = 6.09E-03
 Guess from superposition of atomic densities
 Warning:  Energy on first SCF cycle will be non-variational
 SAD guess density has 26.000000 electrons
 Long-range K will be added via erf
 Coulomb attenuation parameter = 0.2 bohr**(-1)
 A restricted hybrid HF-DFT SCF calculation will be
 performed using Relaxed Constraint Minimization + Pulay DIIS
 Exchange:     0.2220 Hartree-Fock + 1.0000 wB97X-D + LR-HF
 Correlation:  1.0000 wB97X-D
 Using Euler-Maclaurin-Lebedev (75,302) quadrature formula
 Dispersion:   Grimme D
 SCF converges when DIIS error is below 1.0E-04
 using 3 threads for integral computing
 -------------------------------------------------------
 OpenMP Integral computing Module                
 Release: version 1.0, May 2013, Q-Chem Inc. Pittsburgh 
 -------------------------------------------------------
 using 3 threads for integral computing
 -------------------------------------------------------
 OpenMP Integral computing Module                
 Release: version 1.0, May 2013, Q-Chem Inc. Pittsburgh 
 -------------------------------------------------------
 ---------------------------------------
  Cycle       Energy         DIIS Error
 ---------------------------------------
    1    -119.6672875646      1.01E-01
    2    -119.0361306196      8.92E-03
    3    -119.0569572701      2.53E-03
    4    -119.0705990422      1.74E-03
    5    -119.0713422008      2.73E-04 Done RCA. Switching to DIIS
    6    -119.0718907849      2.03E-04
    7    -119.0719086273      4.81E-06 Convergence criterion met
 ---------------------------------------
 SCF time:  CPU 18.52 s  wall 6.60 s
 SCF   energy in the small basis set = -119.07190863
 Total energy in the small basis set = -119.07190863
 ----------------------------------------------------
  Cycle       Energy    
 ----------------------------------------------------
    1     -16.5432548507     -1.65E+01
 Long-range K will be added via erf
 Coulomb attenuation parameter = 0.2 bohr**(-1)
 A restricted hybrid HF-DFT SCF calculation will be
 performed using Relaxed Constraint Minimization + Pulay DIIS
 Exchange:     0.2220 Hartree-Fock + 1.0000 wB97X-D + LR-HF
 Correlation:  1.0000 wB97X-D
 Using Euler-Maclaurin-Lebedev (75,302) quadrature formula
 Dispersion:   Grimme D
 SCF converges when DIIS error is below 1.0E-05
 Basis2 calculation detected. Using small basis as guess for larger.
 SCFMinFind is unable to tell whether the solution found is close.
 Resetting ReadMinima to 0 and attempting to follow guess.
 SCFMinFind following SCF Guess.
 using 3 threads for integral computing
 -------------------------------------------------------
 OpenMP Integral computing Module                
 Release: version 1.0, May 2013, Q-Chem Inc. Pittsburgh 
 -------------------------------------------------------
 using 3 threads for integral computing
 -------------------------------------------------------
 OpenMP Integral computing Module                
 Release: version 1.0, May 2013, Q-Chem Inc. Pittsburgh 
 -------------------------------------------------------
 ---------------------------------------
  Cycle       Energy         DIIS Error
 ---------------------------------------
    1    -119.0922283181      4.21E-03
    2    -119.1141676795      5.99E-04 Done RCA. Switching to DIIS
    3    -119.1150047301      4.21E-04
    4    -119.1159723253      4.67E-05
    5    -119.1159876491      1.11E-05
    6    -119.1159884627      3.95E-06 Convergence criterion met
 ---------------------------------------
 SCF time:  CPU 50.87 s  wall 17.05 s
 SCF   energy in the final basis set = -119.11598846
 Total energy in the final basis set = -119.11598846
 
 --------------------------------------------------------------
 
                    Orbital Energies (a.u.)
 --------------------------------------------------------------
 
 Alpha MOs
 -- Occupied --
-10.2773 -10.2680 -10.2680  -0.8910  -0.7781  -0.6777  -0.5552  -0.5230
 -0.4924  -0.4493  -0.4264  -0.4197  -0.3902
 -- Virtual --
  0.0681   0.0860   0.0884   0.0952   0.1249   0.1284   0.1341   0.1343
  0.1422   0.1721   0.1745   0.1933   0.2186   0.2417   0.2466   0.2603
  0.2809   0.2890   0.3099   0.3136   0.3315   0.3522   0.4597   0.4661
  0.4762   0.4876   0.5115   0.5132   0.5408   0.5702   0.5753   0.5909
  0.6094   0.6294   0.6315   0.6459   0.6535   0.6808   0.7060   0.7258
  0.7262   0.7767   0.8193   0.8385   0.8650   0.8933   0.9410   0.9876
  1.0119   1.0271   1.0860   1.1093   1.1189   1.1494   1.2051   1.2078
  1.2312   1.2437   1.2891   1.2952   1.3225   1.3342   1.3349   1.3651
  1.3806   1.4172   1.4288   1.4344   1.4415   1.4701   1.5062   1.5291
  1.5512   1.5610   1.5708   1.6063   1.6327   1.6449   1.6585   1.7009
  1.7427   2.4005   2.4198   2.4275   2.5479   2.5575   2.6156   2.6333
  2.6721   2.6956   2.7701   2.8201   2.8757   2.8856   2.8975   2.9209
  2.9803   2.9817   3.0009   3.0175   3.0611   3.0709   3.0800   3.1108
  3.1484   3.1602   3.1768   3.1964   3.2093   3.2409   3.2837   3.2889
  3.3092   3.3168   3.3553   3.3689   3.3964   3.4036   3.4350   3.4489
  3.4563   3.4974   3.5236   3.5309   3.5601   3.5819   3.5898   3.5974
  3.6117   3.6318   3.6464   3.7217   3.7607   3.8309   3.8404   3.8513
  3.9012   3.9126   3.9268   3.9560   3.9624   4.0295   4.0735   4.0797
  4.1148   4.1218   4.1230   4.1687   4.1873   4.2085   4.2262   4.2312
  4.2375   4.3000   4.3073   4.3372   4.3519   4.4055   4.4567   4.4750
  4.5925   4.6200   4.6355   4.6376   4.7178   4.8127   4.8250   4.8546
  4.8939   4.9455   4.9729   4.9851   4.9986   5.0691   5.0910   5.1415
  5.1477   5.2216   5.2390   5.2623   5.2652   5.3131   5.3714   5.3760
  5.4220   5.4281   5.4830   5.5667   5.6104   5.6231   5.7422   5.7605
  5.9721   6.3988   6.4050   6.4176   6.4555   6.5344  25.1566  25.4385
 25.4475
 --------------------------------------------------------------
 
 -----------------------------------------------------------------
                    Cartesian Multipole Moments
 -----------------------------------------------------------------
    Charge (ESU x 10^10)
                -0.0000
    Dipole Moment (Debye)
         X      -0.0000      Y       0.2701      Z      -0.0992
       Tot       0.2877
    Quadrupole Moments (Debye-Ang)
        XX     -22.1309     XY      -0.0000     YY     -21.8268
        XZ      -0.0000     YZ      -0.1911     ZZ     -21.6393
    Octopole Moments (Debye-Ang^2)
       XXX       0.0000    XXY       1.5413    XYY      -0.0000
       YYY       5.7877    XXZ      -1.1416    XYZ       0.0000
       YYZ       0.5806    XZZ      -0.0000    YZZ       0.2639
       ZZZ      -0.3416
    Hexadecapole Moments (Debye-Ang^3)
      XXXX    -198.2134   XXXY       0.0000   XXYY     -42.2945
      XYYY       0.0000   YYYY     -44.5059   XXXZ      -0.0000
      XXYZ      -2.2316   XYYZ       0.0000   YYYZ      -1.1830
      XXZZ     -44.2746   XYZZ       0.0000   YYZZ     -18.0298
      XZZZ       0.0000   YZZZ      -0.5108   ZZZZ     -70.4616
 -----------------------------------------------------------------
Archival summary:
1\1\centos77-c4\SP\ProcedureUnspecified\BasisUnspecified\38\shihchen\TueJul701:08:542020TueJul701:08:542020\0\\#,ProcedureUnspecified,BasisUnspecified,\\0,1\C\H,1,1.08845\H,1,1.09688,2,105.032\C,1,1.52676,2,120.748,3,-106.035,0\H,4,1.08923,1,121.871,2,-90.9555,0\H,4,1.08991,1,111.831,2,43.2577,0\H,4,1.09519,1,98.7379,2,153.675,0\C,1,1.52676,2,120.748,3,106.035,0\H,8,1.08923,1,121.871,2,90.9555,0\H,8,1.08991,1,111.831,2,-43.2577,0\H,8,1.09519,1,98.7379,2,-153.675,0\\\@

 Total job time:  26.61s(wall), 73.12s(cpu) 
 Tue Jul  7 01:08:54 2020

        *************************************************************
        *                                                           *
        *  Thank you very much for using Q-Chem.  Have a nice day.  *
        *                                                           *
        *************************************************************


