                  Welcome to Q-Chem
     A Quantum Leap Into The Future Of Chemistry


 Q-Chem 5.3 (devel), Q-Chem, Inc., Pleasanton, CA (2020)

 Yihan Shao,  Zhengting Gan,  E. Epifanovsky,  A. T. B. Gilbert,  M. Wormit,  
 J. Kussmann,  A. W. Lange,  A. Behn,  Jia Deng,  Xintian Feng,  D. Ghosh,  
 M. Goldey,  P. R. Horn,  L. D. Jacobson,  I. Kaliman,  T. Kus,  A. Landau,  
 Jie Liu,  E. I. Proynov,  R. M. Richard,  R. P. Steele,  E. J. Sundstrom,  
 H. L. Woodcock III,  P. M. Zimmerman,  D. Zuev,  B. Alam,  B. Albrecht,  
 E. Alguire,  S. A. Baeppler,  D. Barton,  Z. Benda,  Y. A. Bernard,  
 E. J. Berquist,  K. B. Bravaya,  H. Burton,  K. Carter-Fenk,  D. Casanova,  
 Chun-Min Chang,  Yunqing Chen,  A. Chien,  K. D. Closser,  M. P. Coons,  
 S. Coriani,  S. Dasgupta,  A. L. Dempwolff,  M. Diedenhofen,  Hainam Do,  
 R. G. Edgar,  Po-Tung Fang,  S. Faraji,  S. Fatehi,  Qingguo Feng,  
 J. Fosso-Tande,  J. Gayvert,  Qinghui Ge,  A. Ghysels,  G. Gidofalvi,  
 J. Gomes,  J. Gonthier,  A. Gunina,  D. Hait,  M. W. D. Hanson-Heine,  
 P. H. P. Harbach,  A. W. Hauser,  M. F. Herbst,  J. E. Herr,  
 E. G. Hohenstein,  Z. C. Holden,  Kerwin Hui,  B. C. Huynh,  T.-C. Jagau,  
 Hyunjun Ji,  B. Kaduk,  K. Khistyaev,  Jaehoon Kim,  P. Klunzinger,  K. Koh,  
 D. Kosenkov,  L. Koulias,  T. Kowalczyk,  C. M. Krauter,  A. Kunitsa,  
 Ka Un Lao,  A. Laurent,  K. V. Lawler,  Joonho Lee,  D. Lefrancois,  
 S. Lehtola,  D. S. Levine,  Yi-Pei Li,  You-Sheng Lin,  Fenglai Liu,  
 Kuan-Yu Liu,  E. Livshits,  M. Loipersberger,  A. Luenser,  P. Manohar,  
 E. Mansoor,  S. F. Manzer,  Shan-Ping Mao,  Yuezhi Mao,  N. Mardirossian,  
 A. V. Marenich,  T. Markovich,  L. A. Martinez-Martinez,  S. A. Maurer,  
 N. J. Mayhall,  S. C. McKenzie,  J.-M. Mewes,  P. Morgante,  A. F. Morrison,  
 J. W. Mullinax,  K. Nanda,  T. S. Nguyen-Beck,  R. Olivares-Amaya,  
 K. J. Oosterbaan,  J. A. Parkhill,  S. K. Paul,  F. Pavosevic,  Zheng Pei,  
 T. M. Perrine,  F. Plasser,  P. Pokhilko,  S. Prager,  A. Prociuk,  
 E. Ramos,  B. Rana,  D. R. Rehn,  F. Rob,  M. Scheurer,  M. Schneider,  
 N. Sergueev,  S. M. Sharada,  S. Sharma,  D. W. Small,  T. Stauch,  
 C. J. Stein,  T. Stein,  Yu-Chuan Su,  S. P. Veccham,  Zhen Tao,  
 A. J. W. Thom,  A. Tkatchenko,  T. Tsuchimochi,  N. M. Tubman,  L. Vogt,  
 M. L. Vidal,  O. Vydrov,  M. A. Watson,  J. Wenzel,  M. de Wergifosse,  
 T. A. Wesolowski,  A. White,  J. Witte,  A. Yamada,  Jun Yang,  K. Yao,  
 S. Yeganeh,  S. R. Yost,  Zhi-Qiang You,  A. Zech,  Igor Ying Zhang,  
 Xing Zhang,  Yan Zhao,  Ying Zhu,  B. R. Brooks,  G. K. L. Chan,  
 C. J. Cramer,  M. S. Gordon,  W. J. Hehre,  A. Klamt,  M. W. Schmidt,  
 C. D. Sherrill,  D. G. Truhlar,  A. Aspuru-Guzik,  R. Baer,  A. T. Bell,  
 N. A. Besley,  Jeng-Da Chai,  A. E. DePrince, III,  R. A. DiStasio Jr.,  
 A. Dreuw,  B. D. Dunietz,  T. R. Furlani,  Chao-Ping Hsu,  Yousung Jung,  
 Jing Kong,  D. S. Lambrecht,  WanZhen Liang,  C. Ochsenfeld,  
 V. A. Rassolov,  L. V. Slipchenko,  J. E. Subotnik,  T. Van Voorhis,  
 J. M. Herbert,  A. I. Krylov,  P. M. W. Gill,  M. Head-Gordon

 Contributors to earlier versions of Q-Chem not listed above: 
 R. D. Adamson,  B. Austin,  J. Baker,  G. J. O. Beran,  K. Brandhorst,  
 S. T. Brown,  E. F. C. Byrd,  A. K. Chakraborty,  C.-L. Cheng,  
 Siu Hung Chien,  D. M. Chipman,  D. L. Crittenden,  H. Dachsel,  
 R. J. Doerksen,  A. D. Dutoi,  L. Fusti-Molnar,  W. A. Goddard III,  
 A. Golubeva-Zadorozhnaya,  S. R. Gwaltney,  G. Hawkins,  A. Heyden,  
 S. Hirata,  G. Kedziora,  F. J. Keil,  C. Kelley,  Jihan Kim,  R. A. King,  
 R. Z. Khaliullin,  P. P. Korambath,  W. Kurlancheek,  A. M. Lee,  M. S. Lee,  
 S. V. Levchenko,  Ching Yeh Lin,  D. Liotard,  R. C. Lochan,  I. Lotan,  
 P. E. Maslen,  N. Nair,  D. P. O'Neill,  D. Neuhauser,  E. Neuscamman,  
 C. M. Oana,  R. Olson,  B. Peters,  R. Peverati,  P. A. Pieniazek,  
 Y. M. Rhee,  J. Ritchie,  M. A. Rohrdanz,  E. Rosta,  N. J. Russ,  
 H. F. Schaefer III,  N. E. Schultz,  N. Shenvi,  A. C. Simmonett,  A. Sodt,  
 D. Stuck,  K. S. Thanthiriwatte,  V. Vanovschi,  Tao Wang,  A. Warshel,  
 C. F. Williams,  Q. Wu,  X. Xu,  W. Zhang

 Please cite Q-Chem as follows:
 Y. Shao et al., Mol. Phys. 113, 184-215 (2015)
 DOI: 10.1080/00268976.2014.952696

 Q-Chem 5.3.0 for Intel X86 EM64T Linux

 Parts of Q-Chem use Armadillo 9.800.1 (Horizon Scraper).
 http://arma.sourceforge.net/

 Q-Chem begins on Tue Jul  7 01:49:51 2020  

Host: centos77-c4
0

     Scratch files written to /tmp/26964.centos77-h1/qchem104759//
Processing $rem in /opt/qchem-5.3.0-intel2020u1//config/preferences:
Processing $rem in /home/shihchengli/.qchemrc:

Checking the input file for inconsistencies... 	...done.

--------------------------------------------------------------
User input:
--------------------------------------------------------------
$rem
   JOBTYPE  sp
   EXCHANGE   omegaB97X-D
   BASIS   6-311+G(2df,2pd)
   UNRESTRICTED   False
   max_scf_cycles   250
   geom_opt_max_cycles   1500
   basis2 6-31G*
   scf_algorithm rca_diis
   SYM_IGNORE  TRUE
   print_input   true
   geom_opt_dmax   80
   pop_mulliken false
   XC_GRID 000075000302
$end

$molecule
0 1
C       1.1760174114     -0.0026144693     0.1505387390
C       -0.2074700427     0.0019863971     -0.6148709159
H       1.3118026198     -0.8675253234     0.8124013134
H       1.2454180055     0.7657914798     0.9306263067
H       2.1501273659     0.0480092005     -0.3438881682
C       -1.3185183152     0.0138371638     0.3429785500
H       0.1342111727     -0.8668325734     -1.1824659724
H       0.1686412477     0.8512618352     -1.1902214370
H       -1.2240071751     -0.8799815104     0.9528965826
H       -2.1381419392     -0.0370774998     -0.3697471666
H       -1.2980804114     0.9731459660     0.8527971874
$end
--------------------------------------------------------------
 ----------------------------------------------------------------
             Standard Nuclear Orientation (Angstroms)
    I     Atom           X                Y                Z
 ----------------------------------------------------------------
    1      C       1.1760174114    -0.0026144693     0.1505387390
    2      C      -0.2074700427     0.0019863971    -0.6148709159
    3      H       1.3118026198    -0.8675253234     0.8124013134
    4      H       1.2454180055     0.7657914798     0.9306263067
    5      H       2.1501273659     0.0480092005    -0.3438881682
    6      C      -1.3185183152     0.0138371638     0.3429785500
    7      H       0.1342111727    -0.8668325734    -1.1824659724
    8      H       0.1686412477     0.8512618352    -1.1902214370
    9      H      -1.2240071751    -0.8799815104     0.9528965826
   10      H      -2.1381419392    -0.0370774998    -0.3697471666
   11      H      -1.2980804114     0.9731459660     0.8527971874
 ----------------------------------------------------------------
 Nuclear Repulsion Energy =          83.38582241 hartrees
 There are       13 alpha and       13 beta electrons
 Requested basis set is 6-311+G(2df,2pd)
 There are 72 shells and 214 basis functions

 Total QAlloc Memory Limit   2000 MB
 Mega-Array Size       188 MB
 MEM_STATIC part       192 MB

                       Distance Matrix (Angstroms)
             C (  1)   C (  2)   H (  3)   H (  4)   H (  5)   C (  6)
   C (  2)  1.581111
   H (  3)  1.097529  2.258616
   H (  4)  1.097179  2.254516  1.638935
   H (  5)  1.093577  2.373566  1.696466  1.719912
   C (  6)  2.502002  1.466985  2.813494  2.735788  3.536164
   H (  7)  1.899772  1.092592  2.316510  2.892300  2.367291  2.283196
   H (  8)  1.881900  1.092592  2.876029  2.380073  2.299518  2.294259
   H (  9)  2.678371  2.066182  2.539729  2.967680  3.731970  1.086206
   H ( 10)  3.354927  1.946563  3.740219  3.712687  4.289191  1.087361
   H ( 11)  2.750715  2.070418  3.193931  2.553123  3.765378  1.086557
             H (  7)   H (  8)   H (  9)   H ( 10)
   H (  8)  1.718457
   H (  9)  2.530752  3.087010
   H ( 10)  2.551978  2.604529  1.815356
   H ( 11)  3.095041  2.517946  1.857307  1.794678
 
 A cutoff of  1.0D-09 yielded   2544 shell pairs
 There are     22644 function pairs (     27837 Cartesian)
 Smallest overlap matrix eigenvalue = 9.81E-05

 Scale SEOQF with 1.000000e-01/1.000000e-01/1.000000e-01

 Standard Electronic Orientation quadrupole field applied
 Nucleus-field energy     =     0.0000000006 hartrees
 Requested basis set is 6-31G(d)
 There are 28 shells and 58 basis functions
 A cutoff of  1.0D-09 yielded    402 shell pairs
 There are      1773 function pairs (      1968 Cartesian)
 Smallest overlap matrix eigenvalue = 6.59E-03
 Guess from superposition of atomic densities
 Warning:  Energy on first SCF cycle will be non-variational
 SAD guess density has 26.000000 electrons
 Long-range K will be added via erf
 Coulomb attenuation parameter = 0.2 bohr**(-1)
 A restricted hybrid HF-DFT SCF calculation will be
 performed using Relaxed Constraint Minimization + Pulay DIIS
 Exchange:     0.2220 Hartree-Fock + 1.0000 wB97X-D + LR-HF
 Correlation:  1.0000 wB97X-D
 Using Euler-Maclaurin-Lebedev (75,302) quadrature formula
 Dispersion:   Grimme D
 SCF converges when DIIS error is below 1.0E-04
 using 3 threads for integral computing
 -------------------------------------------------------
 OpenMP Integral computing Module                
 Release: version 1.0, May 2013, Q-Chem Inc. Pittsburgh 
 -------------------------------------------------------
 using 3 threads for integral computing
 -------------------------------------------------------
 OpenMP Integral computing Module                
 Release: version 1.0, May 2013, Q-Chem Inc. Pittsburgh 
 -------------------------------------------------------
 ---------------------------------------
  Cycle       Energy         DIIS Error
 ---------------------------------------
    1    -119.6877602509      1.02E-01
    2    -119.0120430080      9.10E-03
    3    -119.0336713353      2.56E-03
    4    -119.0478522516      1.77E-03
    5    -119.0486203172      2.84E-04 Done RCA. Switching to DIIS
    6    -119.0491836543      2.10E-04
    7    -119.0492027521      6.67E-06 Convergence criterion met
 ---------------------------------------
 SCF time:  CPU 20.07 s  wall 7.35 s
 SCF   energy in the small basis set = -119.04920275
 Total energy in the small basis set = -119.04920275
 ----------------------------------------------------
  Cycle       Energy    
 ----------------------------------------------------
    1     -16.5461245191     -1.65E+01
 Long-range K will be added via erf
 Coulomb attenuation parameter = 0.2 bohr**(-1)
 A restricted hybrid HF-DFT SCF calculation will be
 performed using Relaxed Constraint Minimization + Pulay DIIS
 Exchange:     0.2220 Hartree-Fock + 1.0000 wB97X-D + LR-HF
 Correlation:  1.0000 wB97X-D
 Using Euler-Maclaurin-Lebedev (75,302) quadrature formula
 Dispersion:   Grimme D
 SCF converges when DIIS error is below 1.0E-05
 Basis2 calculation detected. Using small basis as guess for larger.
 SCFMinFind is unable to tell whether the solution found is close.
 Resetting ReadMinima to 0 and attempting to follow guess.
 SCFMinFind following SCF Guess.
 using 3 threads for integral computing
 -------------------------------------------------------
 OpenMP Integral computing Module                
 Release: version 1.0, May 2013, Q-Chem Inc. Pittsburgh 
 -------------------------------------------------------
 using 3 threads for integral computing
 -------------------------------------------------------
 OpenMP Integral computing Module                
 Release: version 1.0, May 2013, Q-Chem Inc. Pittsburgh 
 -------------------------------------------------------
 ---------------------------------------
  Cycle       Energy         DIIS Error
 ---------------------------------------
    1    -119.0700663867      4.22E-03
    2    -119.0921186068      6.42E-04 Done RCA. Switching to DIIS
    3    -119.0930255628      4.63E-04
    4    -119.0942012595      4.46E-05
    5    -119.0942164134      8.48E-06 Convergence criterion met
 ---------------------------------------
 SCF time:  CPU 43.84 s  wall 14.68 s
 SCF   energy in the final basis set = -119.09421641
 Total energy in the final basis set = -119.09421641
 
 --------------------------------------------------------------
 
                    Orbital Energies (a.u.)
 --------------------------------------------------------------
 
 Alpha MOs
 -- Occupied --
-10.2758 -10.2723 -10.2623  -0.8934  -0.7841  -0.6817  -0.5554  -0.5262
 -0.4974  -0.4665  -0.4289  -0.3960  -0.3795
 -- Virtual --
  0.0684   0.0846   0.0902   0.0979   0.1241   0.1273   0.1313   0.1390
  0.1452   0.1610   0.1808   0.1918   0.2252   0.2325   0.2414   0.2679
  0.2771   0.2830   0.2929   0.3133   0.3283   0.3409   0.4564   0.4576
  0.4760   0.5069   0.5100   0.5286   0.5335   0.5689   0.5868   0.5983
  0.6241   0.6310   0.6364   0.6468   0.6476   0.6632   0.7080   0.7204
  0.7252   0.7728   0.8245   0.8603   0.8743   0.8836   0.8992   0.9713
  1.0140   1.0334   1.0346   1.0880   1.1372   1.1685   1.1950   1.1994
  1.2370   1.2451   1.2864   1.3007   1.3261   1.3299   1.3409   1.3771
  1.3895   1.4031   1.4199   1.4305   1.4404   1.4745   1.4896   1.4950
  1.5385   1.5658   1.6017   1.6085   1.6128   1.6214   1.6510   1.6918
  1.7537   2.4123   2.4480   2.4860   2.5127   2.5813   2.6072   2.6259
  2.6493   2.7162   2.7583   2.7813   2.8414   2.8688   2.9001   2.9226
  2.9440   2.9494   2.9824   3.0016   3.0538   3.0814   3.1087   3.1177
  3.1306   3.1483   3.1649   3.1980   3.2294   3.2588   3.2893   3.2935
  3.3273   3.3325   3.3598   3.3845   3.3962   3.4104   3.4398   3.4520
  3.4645   3.4943   3.5135   3.5371   3.5497   3.5685   3.5881   3.6009
  3.6209   3.6270   3.6780   3.6922   3.7077   3.7495   3.7825   3.8307
  3.8682   3.8929   3.9096   3.9258   3.9822   3.9947   4.0150   4.0520
  4.0897   4.1090   4.1268   4.1388   4.1443   4.1822   4.1848   4.2620
  4.2722   4.3159   4.3279   4.3663   4.3984   4.4158   4.4609   4.5104
  4.5188   4.5443   4.5936   4.6651   4.7126   4.8027   4.8360   4.8749
  4.9085   4.9389   4.9585   4.9738   5.0084   5.0591   5.0697   5.1319
  5.1471   5.1784   5.2265   5.2725   5.3295   5.3398   5.3818   5.3998
  5.4397   5.5130   5.5517   5.5710   5.6147   5.6691   5.7650   5.8045
  6.0836   6.3163   6.3799   6.4391   6.4579   6.5741  25.2038  25.3953
 25.4948
 --------------------------------------------------------------
 
 -----------------------------------------------------------------
                    Cartesian Multipole Moments
 -----------------------------------------------------------------
    Charge (ESU x 10^10)
                -0.0000
    Dipole Moment (Debye)
         X       0.0433      Y      -0.0028      Z       0.0269
       Tot       0.0510
    Quadrupole Moments (Debye-Ang)
        XX     -22.2506     XY      -0.0467     YY     -21.4777
        XZ      -0.3881     YZ      -0.0002     ZZ     -22.3186
    Octopole Moments (Debye-Ang^2)
       XXX       6.1284    XXY       0.0280    XYY       0.7603
       YYY      -0.1058    XXZ      -1.5620    XYZ      -0.0925
       YYZ       0.8524    XZZ       1.9663    YZZ      -0.1276
       ZZZ       1.3568
    Hexadecapole Moments (Debye-Ang^3)
      XXXX    -200.4358   XXXY       0.6471   XXYY     -41.7680
      XYYY       0.3195   YYYY     -44.0157   XXXZ       5.1123
      XXYZ       0.0019   XYYZ      -0.4533   YYYZ       0.0093
      XXZZ     -44.7494   XYZZ       0.4353   YYZZ     -17.6572
      XZZZ       1.7065   YZZZ      -0.0745   ZZZZ     -74.1911
 -----------------------------------------------------------------
Archival summary:
1\1\centos77-c4\SP\ProcedureUnspecified\BasisUnspecified\38\shihchen\TueJul701:50:162020TueJul701:50:162020\0\\#,ProcedureUnspecified,BasisUnspecified,\\0,1\C\H,1,1.09259\H,1,1.09259,2,103.703\C,1,1.46698,2,125.624,3,158.796,0\H,4,1.08621,1,107.103,2,43.7562,0\H,4,1.08656,1,107.412,2,170.801,0\H,4,1.08736,1,98.1942,2,-73.7573,0\C,1,1.58111,2,88.598,3,-87.0595,0\H,8,1.09358,1,124.085,2,56.0065,0\H,8,1.09718,1,113.422,2,-177.173,0\H,8,1.09753,1,113.733,2,-68.041,0\\\@

 Total job time:  25.08s(wall), 67.74s(cpu) 
 Tue Jul  7 01:50:16 2020

        *************************************************************
        *                                                           *
        *  Thank you very much for using Q-Chem.  Have a nice day.  *
        *                                                           *
        *************************************************************


