                  Welcome to Q-Chem
     A Quantum Leap Into The Future Of Chemistry


 Q-Chem 5.2 (devel), Q-Chem, Inc., Pleasanton, CA (2019)

 Yihan Shao,  Zhengting Gan,  E. Epifanovsky,  A. T. B. Gilbert,  M. Wormit,  
 J. Kussmann,  A. W. Lange,  A. Behn,  Jia Deng,  Xintian Feng,  D. Ghosh,  
 M. Goldey,  P. R. Horn,  L. D. Jacobson,  I. Kaliman,  T. Kus,  A. Landau,  
 Jie Liu,  E. I. Proynov,  R. M. Richard,  R. P. Steele,  E. J. Sundstrom,  
 H. L. Woodcock III,  P. M. Zimmerman,  D. Zuev,  B. Alam,  B. Albrecht,  
 E. Alguire,  S. A. Baeppler,  D. Barton,  Z. Benda,  Y. A. Bernard,  
 E. J. Berquist,  K. B. Bravaya,  H. Burton,  K. Carter-Fenk,  D. Casanova,  
 Chun-Min Chang,  Yunqing Chen,  A. Chien,  K. D. Closser,  M. P. Coons,  
 S. Coriani,  S. Dasgupta,  A. L. Dempwolff,  M. Diedenhofen,  Hainam Do,  
 R. G. Edgar,  Po-Tung Fang,  S. Faraji,  S. Fatehi,  Qingguo Feng,  
 J. Fosso-Tande,  J. Gayvert,  Qinghui Ge,  A. Ghysels,  G. Gidofalvi,  
 J. Gomes,  J. Gonthier,  A. Gunina,  D. Hait,  M. W. D. Hanson-Heine,  
 P. H. P. Harbach,  A. W. Hauser,  M. F. Herbst,  J. E. Herr,  
 E. G. Hohenstein,  Z. C. Holden,  Kerwin Hui,  B. C. Huynh,  T.-C. Jagau,  
 Hyunjun Ji,  B. Kaduk,  K. Khistyaev,  Jaehoon Kim,  P. Klunzinger,  K. Koh,  
 D. Kosenkov,  L. Koulias,  T. Kowalczyk,  C. M. Krauter,  A. Kunitsa,  
 Ka Un Lao,  A. Laurent,  K. V. Lawler,  Joonho Lee,  D. Lefrancois,  
 S. Lehtola,  D. S. Levine,  Yi-Pei Li,  You-Sheng Lin,  Fenglai Liu,  
 Kuan-Yu Liu,  E. Livshits,  M. Loipersberger,  A. Luenser,  P. Manohar,  
 E. Mansoor,  S. F. Manzer,  Shan-Ping Mao,  Yuezhi Mao,  N. Mardirossian,  
 A. V. Marenich,  T. Markovich,  L. A. Martinez-Martinez,  S. A. Maurer,  
 N. J. Mayhall,  S. C. McKenzie,  J.-M. Mewes,  P. Morgante,  A. F. Morrison,  
 J. W. Mullinax,  K. Nanda,  T. S. Nguyen-Beck,  R. Olivares-Amaya,  
 J. A. Parkhill,  S. K. Paul,  Zheng Pei,  T. M. Perrine,  F. Plasser,  
 P. Pokhilko,  S. Prager,  A. Prociuk,  E. Ramos,  B. Rana,  D. R. Rehn,  
 F. Rob,  M. Scheurer,  M. Schneider,  N. Sergueev,  S. M. Sharada,  
 S. Sharma,  D. W. Small,  T. Stauch,  C. J. Stein,  T. Stein,  Yu-Chuan Su,  
 S. P. Veccham,  A. J. W. Thom,  A. Tkatchenko,  T. Tsuchimochi,  
 N. M. Tubman,  L. Vogt,  M. L. Vidal,  O. Vydrov,  M. A. Watson,  J. Wenzel,  
 M. de Wergifosse,  T. A. Wesolowski,  A. White,  J. Witte,  A. Yamada,  
 Jun Yang,  K. Yao,  S. Yeganeh,  S. R. Yost,  Zhi-Qiang You,  A. Zech,  
 Igor Ying Zhang,  Xing Zhang,  Yan Zhao,  Ying Zhu,  B. R. Brooks,  
 G. K. L. Chan,  C. J. Cramer,  M. S. Gordon,  W. J. Hehre,  A. Klamt,  
 M. W. Schmidt,  C. D. Sherrill,  D. G. Truhlar,  A. Aspuru-Guzik,  R. Baer,  
 A. T. Bell,  N. A. Besley,  Jeng-Da Chai,  A. E. DePrince, III,  
 R. A. DiStasio Jr.,  A. Dreuw,  B. D. Dunietz,  T. R. Furlani,  
 Chao-Ping Hsu,  Yousung Jung,  Jing Kong,  D. S. Lambrecht,  WanZhen Liang,  
 C. Ochsenfeld,  V. A. Rassolov,  L. V. Slipchenko,  J. E. Subotnik,  
 T. Van Voorhis,  J. M. Herbert,  A. I. Krylov,  P. M. W. Gill,  M. Head-Gordon

 Contributors to earlier versions of Q-Chem not listed above: 
 R. D. Adamson,  B. Austin,  J. Baker,  G. J. O. Beran,  K. Brandhorst,  
 S. T. Brown,  E. F. C. Byrd,  A. K. Chakraborty,  C.-L. Cheng,  
 Siu Hung Chien,  D. M. Chipman,  D. L. Crittenden,  H. Dachsel,  
 R. J. Doerksen,  A. D. Dutoi,  L. Fusti-Molnar,  W. A. Goddard III,  
 A. Golubeva-Zadorozhnaya,  S. R. Gwaltney,  G. Hawkins,  A. Heyden,  
 S. Hirata,  G. Kedziora,  F. J. Keil,  C. Kelley,  Jihan Kim,  R. A. King,  
 R. Z. Khaliullin,  P. P. Korambath,  W. Kurlancheek,  A. M. Lee,  M. S. Lee,  
 S. V. Levchenko,  Ching Yeh Lin,  D. Liotard,  R. C. Lochan,  I. Lotan,  
 P. E. Maslen,  N. Nair,  D. P. O'Neill,  D. Neuhauser,  E. Neuscamman,  
 C. M. Oana,  R. Olson,  B. Peters,  R. Peverati,  P. A. Pieniazek,  
 Y. M. Rhee,  J. Ritchie,  M. A. Rohrdanz,  E. Rosta,  N. J. Russ,  
 H. F. Schaefer III,  N. E. Schultz,  N. Shenvi,  A. C. Simmonett,  A. Sodt,  
 D. Stuck,  K. S. Thanthiriwatte,  V. Vanovschi,  Tao Wang,  A. Warshel,  
 C. F. Williams,  Q. Wu,  X. Xu,  W. Zhang

 Please cite Q-Chem as follows:
 Y. Shao et al., Mol. Phys. 113, 184-215 (2015)
 DOI: 10.1080/00268976.2014.952696

 Q-Chem 5.2.2 for Intel X86 EM64T Linux

 Parts of Q-Chem use Armadillo 9.800.1 (Horizon Scraper).
 http://arma.sourceforge.net/

 Q-Chem begins on Sun Apr 12 07:47:08 2020  

Host: cn0821
0

     Scratch files written to /tmp/ypli/6721342.srvc1/qchem190277//
Warning:  Did not find "$end" marker in "$molecule" section

Checking the input file for inconsistencies... 	...done.

--------------------------------------------------------------
User input:
--------------------------------------------------------------
$rem
   JOBTYPE  sp
   EXCHANGE   omegaB97X-D
   BASIS   6-311+G(2df,2pd)
   max_scf_cycles   250
   geom_opt_max_cycles   1500
   basis2 6-31G*
   scf_algorithm rca_diis
   SYM_IGNORE  TRUE
   print_input   true
   geom_opt_dmax   80
   pop_mulliken false
   XC_GRID 000075000302
$end

$molecule
0 1
C       1.2576122140     0.0317056136     0.3044139050
C       0.0000000092     0.0175845506     -0.5444045352
H       1.4273702142     -0.9379939049     0.7755008491
H       1.2658327665     0.9812585006     0.8328149834
H       2.1992013738     -0.1046715846     -0.2374827433
C       -1.2576124138     0.0317052666     0.3044133444
H       0.0000004796     -0.8279588590     -1.2362466585
H       -0.0000003094     0.8697747304     -1.2287987222
H       -1.4273672496     -0.9379933888     0.7755029505
H       -2.1992016147     -0.1046677682     -0.2374840984
H       -1.2658355304     0.9812575097     0.8328157440
--------------------------------------------------------------
 ----------------------------------------------------------------
             Standard Nuclear Orientation (Angstroms)
    I     Atom           X                Y                Z
 ----------------------------------------------------------------
    1      C       1.2576122140     0.0317056136     0.3044139050
    2      C       0.0000000092     0.0175845506    -0.5444045352
    3      H       1.4273702142    -0.9379939049     0.7755008491
    4      H       1.2658327665     0.9812585006     0.8328149834
    5      H       2.1992013738    -0.1046715846    -0.2374827433
    6      C      -1.2576124138     0.0317052666     0.3044133444
    7      H       0.0000004796    -0.8279588590    -1.2362466585
    8      H      -0.0000003094     0.8697747304    -1.2287987222
    9      H      -1.4273672496    -0.9379933888     0.7755029505
   10      H      -2.1992016147    -0.1046677682    -0.2374840984
   11      H      -1.2658355304     0.9812575097     0.8328157440
 ----------------------------------------------------------------
 Nuclear Repulsion Energy =          82.88360288 hartrees
 There are       13 alpha and       13 beta electrons
 Requested basis set is 6-311+G(2df,2pd)
 There are 72 shells and 214 basis functions

 Total QAlloc Memory Limit   2000 MB
 Mega-Array Size       188 MB
 MEM_STATIC part       192 MB

                       Distance Matrix (Angstroms)
             C (  1)   C (  2)   H (  3)   H (  4)   H (  5)   C (  6)
   C (  2)  1.517327
   H (  3)  1.091356  2.166256
   H (  4)  1.086704  2.104218  1.926891
   H (  5)  1.094916  2.223878  1.521935  1.787724
   C (  6)  2.515225  1.517327  2.893332  2.747478  3.501687
   H (  7)  2.166621  1.092515  2.469133  3.025990  2.521341  2.166621
   H (  8)  2.152833  1.092988  3.053298  2.421779  2.601680  2.152833
   H (  9)  2.893330  2.166255  2.854737  3.307588  3.856496  1.091356
   H ( 10)  3.501687  2.223878  3.856500  3.785662  4.398403  1.094916
   H ( 11)  2.747480  2.104220  3.307593  2.531668  3.785665  1.086704
             H (  7)   H (  8)   H (  9)   H ( 10)
   H (  8)  1.697750
   H (  9)  2.469134  3.053298
   H ( 10)  2.521342  2.601678  1.521940
   H ( 11)  3.025991  2.421781  1.926889  1.787721
 
 A cutoff of  1.0D-09 yielded   2520 shell pairs
 There are     22474 function pairs (     27639 Cartesian)
 Smallest overlap matrix eigenvalue = 9.13E-05

 Scale SEOQF with 1.000000e-01/1.000000e-01/1.000000e-01

 Standard Electronic Orientation quadrupole field applied
 Nucleus-field energy     =     0.0000000007 hartrees
 Requested basis set is 6-31G(d)
 There are 28 shells and 58 basis functions
 A cutoff of  1.0D-09 yielded    402 shell pairs
 There are      1773 function pairs (      1968 Cartesian)
 Smallest overlap matrix eigenvalue = 7.16E-03
 Guess from superposition of atomic densities
 Warning:  Energy on first SCF cycle will be non-variational
 SAD guess density has 26.000000 electrons
 Long-range K will be added via erf
 Coulomb attenuation parameter = 0.2 bohr**(-1)
 A restricted hybrid HF-DFT SCF calculation will be
 performed using Relaxed Constraint Minimization + Pulay DIIS
 Exchange:     0.2220 Hartree-Fock + 1.0000 wB97X-D + LR-HF
 Correlation:  1.0000 wB97X-D
 Using Euler-Maclaurin-Lebedev (75,302) quadrature formula
 Dispersion:   Grimme D
 SCF converges when DIIS error is below 1.0E-04
 using 3 threads for integral computing
 -------------------------------------------------------
 OpenMP Integral computing Module                
 Release: version 1.0, May 2013, Q-Chem Inc. Pittsburgh 
 -------------------------------------------------------
 using 3 threads for integral computing
 -------------------------------------------------------
 OpenMP Integral computing Module                
 Release: version 1.0, May 2013, Q-Chem Inc. Pittsburgh 
 -------------------------------------------------------
 ---------------------------------------
  Cycle       Energy         DIIS Error
 ---------------------------------------
    1    -119.6521583808      1.01E-01
    2    -119.0317297029      9.32E-03
    3    -119.0541523380      2.48E-03
    4    -119.0696354409      1.71E-03
    5    -119.0703479400      2.52E-04 Done RCA. Switching to DIIS
    6    -119.0708963003      1.84E-04
    7    -119.0709113208      6.91E-06 Convergence criterion met
 ---------------------------------------
 SCF time:  CPU 32.86 s  wall 11.35 s
 SCF   energy in the small basis set = -119.07091132
 Total energy in the small basis set = -119.07091132
 ----------------------------------------------------
  Cycle       Energy    
 ----------------------------------------------------
    1     -16.5407469925     -1.65E+01
 Long-range K will be added via erf
 Coulomb attenuation parameter = 0.2 bohr**(-1)
 A restricted hybrid HF-DFT SCF calculation will be
 performed using Relaxed Constraint Minimization + Pulay DIIS
 Exchange:     0.2220 Hartree-Fock + 1.0000 wB97X-D + LR-HF
 Correlation:  1.0000 wB97X-D
 Using Euler-Maclaurin-Lebedev (75,302) quadrature formula
 Dispersion:   Grimme D
 SCF converges when DIIS error is below 1.0E-05
 Basis2 calculation detected. Using small basis as guess for larger.
 SCFMinFind is unable to tell whether the solution found is close.
 Resetting ReadMinima to 0 and attempting to follow guess.
 SCFMinFind following SCF Guess.
 using 3 threads for integral computing
 -------------------------------------------------------
 OpenMP Integral computing Module                
 Release: version 1.0, May 2013, Q-Chem Inc. Pittsburgh 
 -------------------------------------------------------
 using 3 threads for integral computing
 -------------------------------------------------------
 OpenMP Integral computing Module                
 Release: version 1.0, May 2013, Q-Chem Inc. Pittsburgh 
 -------------------------------------------------------
 ---------------------------------------
  Cycle       Energy         DIIS Error
 ---------------------------------------
    1    -119.0918336749      4.21E-03
    2    -119.1138094159      6.17E-04 Done RCA. Switching to DIIS
    3    -119.1146495264      4.42E-04
    4    -119.1157212059      5.00E-05
    5    -119.1157386866      1.12E-05
    6    -119.1157396319      3.45E-06 Convergence criterion met
 ---------------------------------------
 SCF time:  CPU 97.01 s  wall 32.82 s
 SCF   energy in the final basis set = -119.11573963
 Total energy in the final basis set = -119.11573963
 
 --------------------------------------------------------------
 
                    Orbital Energies (a.u.)
 --------------------------------------------------------------
 
 Alpha MOs
 -- Occupied --
-10.2729 -10.2655 -10.2654  -0.8838  -0.7823  -0.6794  -0.5674  -0.5175
 -0.4994  -0.4541  -0.4131  -0.4095  -0.3913
 -- Virtual --
  0.0700   0.0841   0.0928   0.0943   0.1284   0.1300   0.1359   0.1364
  0.1424   0.1705   0.1730   0.1868   0.2302   0.2463   0.2530   0.2562
  0.2830   0.2873   0.3128   0.3128   0.3338   0.3350   0.4566   0.4740
  0.4751   0.4968   0.5124   0.5284   0.5550   0.5708   0.5915   0.5956
  0.6107   0.6316   0.6318   0.6447   0.6598   0.6619   0.7005   0.7214
  0.7313   0.7904   0.8047   0.8425   0.8541   0.8638   0.8894   0.9472
  1.0053   1.0310   1.0739   1.1258   1.1432   1.1820   1.1865   1.2114
  1.2218   1.2552   1.2592   1.2793   1.2881   1.3113   1.3538   1.3610
  1.3731   1.3846   1.4153   1.4597   1.4633   1.4652   1.5004   1.5057
  1.5151   1.5364   1.5785   1.6309   1.6523   1.6560   1.6903   1.7237
  1.7444   2.3799   2.4651   2.5039   2.5178   2.5701   2.5733   2.6116
  2.6362   2.6867   2.8049   2.8150   2.8297   2.8435   2.8890   2.8992
  2.9127   2.9743   2.9961   3.0128   3.0602   3.0609   3.0903   3.1231
  3.1429   3.1510   3.1614   3.2099   3.2200   3.2215   3.2479   3.2794
  3.3052   3.3150   3.3222   3.3803   3.3954   3.4159   3.4378   3.4673
  3.4980   3.5052   3.5195   3.5208   3.5513   3.5664   3.6041   3.6258
  3.6301   3.6523   3.6815   3.6975   3.7298   3.7523   3.8144   3.8332
  3.8664   3.9039   3.9287   3.9457   3.9778   3.9891   4.0368   4.0432
  4.0729   4.0886   4.0971   4.1340   4.1389   4.1829   4.1951   4.2337
  4.2502   4.2685   4.2893   4.3698   4.4013   4.4139   4.4291   4.4632
  4.4997   4.5783   4.6237   4.6411   4.7003   4.7529   4.7547   4.8242
  4.8683   4.8915   4.9552   4.9851   5.0087   5.0275   5.0311   5.0919
  5.1283   5.2443   5.2542   5.2945   5.3380   5.3492   5.3717   5.4380
  5.4670   5.5430   5.5693   5.5945   5.6313   5.7143   5.7788   5.8137
  5.9768   6.2927   6.3116   6.4353   6.4405   6.4999  25.2165  25.4460
 25.4560
 --------------------------------------------------------------
 
 -----------------------------------------------------------------
                    Cartesian Multipole Moments
 -----------------------------------------------------------------
    Charge (ESU x 10^10)
                -0.0000
    Dipole Moment (Debye)
         X       0.0000      Y      -0.1503      Z      -0.2353
       Tot       0.2792
    Quadrupole Moments (Debye-Ang)
        XX     -21.6172     XY      -0.0000     YY     -20.5904
        XZ       0.0000     YZ       0.3943     ZZ     -23.0336
    Octopole Moments (Debye-Ang^2)
       XXX       0.0000    XXY      -3.0387    XYY       0.0000
       YYY      -0.8787    XXZ      -1.0812    XYZ       0.0000
       YYZ       0.2272    XZZ      -0.0000    YZZ       0.0243
       ZZZ      -3.9345
    Hexadecapole Moments (Debye-Ang^3)
      XXXX    -201.1110   XXXY      -0.0001   XXYY     -40.4065
      XYYY       0.0000   YYYY     -44.3976   XXXZ       0.0000
      XXYZ      -0.0329   XYYZ      -0.0000   YYYZ       0.1163
      XXZZ     -47.6856   XYZZ       0.0000   YYZZ     -17.5155
      XZZZ      -0.0000   YZZZ       0.1668   ZZZZ     -71.3047
 -----------------------------------------------------------------
Archival summary:
1\1\cn0821\SP\ProcedureUnspecified\BasisUnspecified\38\r0852400\SunApr1207:47:572020SunApr1207:47:572020\0\\#,ProcedureUnspecified,BasisUnspecified,\\0,1\C\H,1,1.09252\H,1,1.09299,2,101.941\C,1,1.51733,2,111.19,3,117.26,0\H,4,1.0867,1,106.644,2,-170.337,0\H,4,1.09136,1,111.231,2,51.1469,0\H,4,1.09492,1,115.769,2,-47.5299,0\C,1,1.51733,2,111.19,3,-117.26,0\H,8,1.0867,1,106.643,2,170.337,0\H,8,1.09136,1,111.231,2,-51.1467,0\H,8,1.09492,1,115.769,2,47.5296,0\\\@

 Total job time:  48.36s(wall), 134.98s(cpu) 
 Sun Apr 12 07:47:57 2020

        *************************************************************
        *                                                           *
        *  Thank you very much for using Q-Chem.  Have a nice day.  *
        *                                                           *
        *************************************************************


