                  Welcome to Q-Chem
     A Quantum Leap Into The Future Of Chemistry


 Q-Chem 5.3 (devel), Q-Chem, Inc., Pleasanton, CA (2020)

 Yihan Shao,  Zhengting Gan,  E. Epifanovsky,  A. T. B. Gilbert,  M. Wormit,  
 J. Kussmann,  A. W. Lange,  A. Behn,  Jia Deng,  Xintian Feng,  D. Ghosh,  
 M. Goldey,  P. R. Horn,  L. D. Jacobson,  I. Kaliman,  T. Kus,  A. Landau,  
 Jie Liu,  E. I. Proynov,  R. M. Richard,  R. P. Steele,  E. J. Sundstrom,  
 H. L. Woodcock III,  P. M. Zimmerman,  D. Zuev,  B. Alam,  B. Albrecht,  
 E. Alguire,  S. A. Baeppler,  D. Barton,  Z. Benda,  Y. A. Bernard,  
 E. J. Berquist,  K. B. Bravaya,  H. Burton,  K. Carter-Fenk,  D. Casanova,  
 Chun-Min Chang,  Yunqing Chen,  A. Chien,  K. D. Closser,  M. P. Coons,  
 S. Coriani,  S. Dasgupta,  A. L. Dempwolff,  M. Diedenhofen,  Hainam Do,  
 R. G. Edgar,  Po-Tung Fang,  S. Faraji,  S. Fatehi,  Qingguo Feng,  
 J. Fosso-Tande,  J. Gayvert,  Qinghui Ge,  A. Ghysels,  G. Gidofalvi,  
 J. Gomes,  J. Gonthier,  A. Gunina,  D. Hait,  M. W. D. Hanson-Heine,  
 P. H. P. Harbach,  A. W. Hauser,  M. F. Herbst,  J. E. Herr,  
 E. G. Hohenstein,  Z. C. Holden,  Kerwin Hui,  B. C. Huynh,  T.-C. Jagau,  
 Hyunjun Ji,  B. Kaduk,  K. Khistyaev,  Jaehoon Kim,  P. Klunzinger,  K. Koh,  
 D. Kosenkov,  L. Koulias,  T. Kowalczyk,  C. M. Krauter,  A. Kunitsa,  
 Ka Un Lao,  A. Laurent,  K. V. Lawler,  Joonho Lee,  D. Lefrancois,  
 S. Lehtola,  D. S. Levine,  Yi-Pei Li,  You-Sheng Lin,  Fenglai Liu,  
 Kuan-Yu Liu,  E. Livshits,  M. Loipersberger,  A. Luenser,  P. Manohar,  
 E. Mansoor,  S. F. Manzer,  Shan-Ping Mao,  Yuezhi Mao,  N. Mardirossian,  
 A. V. Marenich,  T. Markovich,  L. A. Martinez-Martinez,  S. A. Maurer,  
 N. J. Mayhall,  S. C. McKenzie,  J.-M. Mewes,  P. Morgante,  A. F. Morrison,  
 J. W. Mullinax,  K. Nanda,  T. S. Nguyen-Beck,  R. Olivares-Amaya,  
 K. J. Oosterbaan,  J. A. Parkhill,  S. K. Paul,  F. Pavosevic,  Zheng Pei,  
 T. M. Perrine,  F. Plasser,  P. Pokhilko,  S. Prager,  A. Prociuk,  
 E. Ramos,  B. Rana,  D. R. Rehn,  F. Rob,  M. Scheurer,  M. Schneider,  
 N. Sergueev,  S. M. Sharada,  S. Sharma,  D. W. Small,  T. Stauch,  
 C. J. Stein,  T. Stein,  Yu-Chuan Su,  S. P. Veccham,  Zhen Tao,  
 A. J. W. Thom,  A. Tkatchenko,  T. Tsuchimochi,  N. M. Tubman,  L. Vogt,  
 M. L. Vidal,  O. Vydrov,  M. A. Watson,  J. Wenzel,  M. de Wergifosse,  
 T. A. Wesolowski,  A. White,  J. Witte,  A. Yamada,  Jun Yang,  K. Yao,  
 S. Yeganeh,  S. R. Yost,  Zhi-Qiang You,  A. Zech,  Igor Ying Zhang,  
 Xing Zhang,  Yan Zhao,  Ying Zhu,  B. R. Brooks,  G. K. L. Chan,  
 C. J. Cramer,  M. S. Gordon,  W. J. Hehre,  A. Klamt,  M. W. Schmidt,  
 C. D. Sherrill,  D. G. Truhlar,  A. Aspuru-Guzik,  R. Baer,  A. T. Bell,  
 N. A. Besley,  Jeng-Da Chai,  A. E. DePrince, III,  R. A. DiStasio Jr.,  
 A. Dreuw,  B. D. Dunietz,  T. R. Furlani,  Chao-Ping Hsu,  Yousung Jung,  
 Jing Kong,  D. S. Lambrecht,  WanZhen Liang,  C. Ochsenfeld,  
 V. A. Rassolov,  L. V. Slipchenko,  J. E. Subotnik,  T. Van Voorhis,  
 J. M. Herbert,  A. I. Krylov,  P. M. W. Gill,  M. Head-Gordon

 Contributors to earlier versions of Q-Chem not listed above: 
 R. D. Adamson,  B. Austin,  J. Baker,  G. J. O. Beran,  K. Brandhorst,  
 S. T. Brown,  E. F. C. Byrd,  A. K. Chakraborty,  C.-L. Cheng,  
 Siu Hung Chien,  D. M. Chipman,  D. L. Crittenden,  H. Dachsel,  
 R. J. Doerksen,  A. D. Dutoi,  L. Fusti-Molnar,  W. A. Goddard III,  
 A. Golubeva-Zadorozhnaya,  S. R. Gwaltney,  G. Hawkins,  A. Heyden,  
 S. Hirata,  G. Kedziora,  F. J. Keil,  C. Kelley,  Jihan Kim,  R. A. King,  
 R. Z. Khaliullin,  P. P. Korambath,  W. Kurlancheek,  A. M. Lee,  M. S. Lee,  
 S. V. Levchenko,  Ching Yeh Lin,  D. Liotard,  R. C. Lochan,  I. Lotan,  
 P. E. Maslen,  N. Nair,  D. P. O'Neill,  D. Neuhauser,  E. Neuscamman,  
 C. M. Oana,  R. Olson,  B. Peters,  R. Peverati,  P. A. Pieniazek,  
 Y. M. Rhee,  J. Ritchie,  M. A. Rohrdanz,  E. Rosta,  N. J. Russ,  
 H. F. Schaefer III,  N. E. Schultz,  N. Shenvi,  A. C. Simmonett,  A. Sodt,  
 D. Stuck,  K. S. Thanthiriwatte,  V. Vanovschi,  Tao Wang,  A. Warshel,  
 C. F. Williams,  Q. Wu,  X. Xu,  W. Zhang

 Please cite Q-Chem as follows:
 Y. Shao et al., Mol. Phys. 113, 184-215 (2015)
 DOI: 10.1080/00268976.2014.952696

 Q-Chem 5.3.0 for Intel X86 EM64T Linux

 Parts of Q-Chem use Armadillo 9.800.1 (Horizon Scraper).
 http://arma.sourceforge.net/

 Q-Chem begins on Tue Jul  7 01:53:51 2020  

Host: centos77-c4
0

     Scratch files written to /tmp/26964.centos77-h1/qchem105539//
Processing $rem in /opt/qchem-5.3.0-intel2020u1//config/preferences:
Processing $rem in /home/shihchengli/.qchemrc:

Checking the input file for inconsistencies... 	...done.

--------------------------------------------------------------
User input:
--------------------------------------------------------------
$rem
   JOBTYPE  sp
   EXCHANGE   omegaB97X-D
   BASIS   6-311+G(2df,2pd)
   UNRESTRICTED   False
   max_scf_cycles   250
   geom_opt_max_cycles   1500
   basis2 6-31G*
   scf_algorithm rca_diis
   SYM_IGNORE  TRUE
   print_input   true
   geom_opt_dmax   80
   pop_mulliken false
   XC_GRID 000075000302
$end

$molecule
0 1
C       1.3765102624     -0.0081377905     0.2922583286
C       0.0125007974     0.0058427289     -0.5781376841
H       1.1522468361     -0.9460995476     0.7937460175
H       1.1274637520     0.8918133304     0.8480149226
H       2.1040483794     0.0102206805     -0.5118435004
C       -1.1528379444     0.0059850142     0.2506072335
H       0.1825016819     -0.8624035966     -1.2192341718
H       0.2005751505     0.8802457566     -1.2056757725
H       -1.3916181534     -0.7829088200     0.9741212472
H       -2.1537407506     -0.0367399752     -0.1948751561
H       -1.4576500718     0.8421828854     0.8920635543
$end
--------------------------------------------------------------
 ----------------------------------------------------------------
             Standard Nuclear Orientation (Angstroms)
    I     Atom           X                Y                Z
 ----------------------------------------------------------------
    1      C       1.3765102624    -0.0081377905     0.2922583286
    2      C       0.0125007974     0.0058427289    -0.5781376841
    3      H       1.1522468361    -0.9460995476     0.7937460175
    4      H       1.1274637520     0.8918133304     0.8480149226
    5      H       2.1040483794     0.0102206805    -0.5118435004
    6      C      -1.1528379444     0.0059850142     0.2506072335
    7      H       0.1825016819    -0.8624035966    -1.2192341718
    8      H       0.2005751505     0.8802457566    -1.2056757725
    9      H      -1.3916181534    -0.7829088200     0.9741212472
   10      H      -2.1537407506    -0.0367399752    -0.1948751561
   11      H      -1.4576500718     0.8421828854     0.8920635543
 ----------------------------------------------------------------
 Nuclear Repulsion Energy =          83.28200233 hartrees
 There are       13 alpha and       13 beta electrons
 Requested basis set is 6-311+G(2df,2pd)
 There are 72 shells and 214 basis functions

 Total QAlloc Memory Limit   2000 MB
 Mega-Array Size       188 MB
 MEM_STATIC part       192 MB

                       Distance Matrix (Angstroms)
             C (  1)   C (  2)   H (  3)   H (  4)   H (  5)   C (  6)
   C (  2)  1.618118
   H (  3)  1.086994  2.021702
   H (  4)  1.086647  2.015440  1.838881
   H (  5)  1.084541  2.092603  1.877509  1.892125
   C (  6)  2.529731  1.429976  2.552426  2.518206  3.344945
   H (  7)  2.107139  1.092592  2.235956  2.871193  2.225807  2.167410
   H (  8)  2.101394  1.092592  2.870349  2.253198  2.204894  2.171824
   H (  9)  2.954275  2.236780  2.555468  3.027601  3.880313  1.096742
   H ( 10)  3.563817  2.200297  3.568454  3.565969  4.269829  1.096397
   H ( 11)  3.019152  2.241049  3.165309  2.585965  3.917756  1.097089
             H (  7)   H (  8)   H (  9)   H ( 10)
   H (  8)  1.742796
   H (  9)  2.700922  3.170596
   H ( 10)  2.681242  2.721284  1.582451
   H ( 11)  3.170693  2.674261  1.628501  1.561564
 
 A cutoff of  1.0D-09 yielded   2538 shell pairs
 There are     22605 function pairs (     27796 Cartesian)
 Smallest overlap matrix eigenvalue = 7.70E-05

 Scale SEOQF with 1.000000e-01/1.000000e-01/1.000000e-01

 Standard Electronic Orientation quadrupole field applied
 Nucleus-field energy     =     0.0000000006 hartrees
 Requested basis set is 6-31G(d)
 There are 28 shells and 58 basis functions
 A cutoff of  1.0D-09 yielded    402 shell pairs
 There are      1773 function pairs (      1968 Cartesian)
 Smallest overlap matrix eigenvalue = 6.67E-03
 Guess from superposition of atomic densities
 Warning:  Energy on first SCF cycle will be non-variational
 SAD guess density has 26.000000 electrons
 Long-range K will be added via erf
 Coulomb attenuation parameter = 0.2 bohr**(-1)
 A restricted hybrid HF-DFT SCF calculation will be
 performed using Relaxed Constraint Minimization + Pulay DIIS
 Exchange:     0.2220 Hartree-Fock + 1.0000 wB97X-D + LR-HF
 Correlation:  1.0000 wB97X-D
 Using Euler-Maclaurin-Lebedev (75,302) quadrature formula
 Dispersion:   Grimme D
 SCF converges when DIIS error is below 1.0E-04
 using 3 threads for integral computing
 -------------------------------------------------------
 OpenMP Integral computing Module                
 Release: version 1.0, May 2013, Q-Chem Inc. Pittsburgh 
 -------------------------------------------------------
 using 3 threads for integral computing
 -------------------------------------------------------
 OpenMP Integral computing Module                
 Release: version 1.0, May 2013, Q-Chem Inc. Pittsburgh 
 -------------------------------------------------------
 ---------------------------------------
  Cycle       Energy         DIIS Error
 ---------------------------------------
    1    -119.6877572166      1.02E-01
    2    -119.0076586567      9.32E-03
    3    -119.0301859110      2.53E-03
    4    -119.0454163171      1.78E-03
    5    -119.0461708926      2.50E-04 Done RCA. Switching to DIIS
    6    -119.0467633641      1.99E-04
    7    -119.0467805895      6.57E-06 Convergence criterion met
 ---------------------------------------
 SCF time:  CPU 21.43 s  wall 8.07 s
 SCF   energy in the small basis set = -119.04678059
 Total energy in the small basis set = -119.04678059
 ----------------------------------------------------
  Cycle       Energy    
 ----------------------------------------------------
    1     -16.5448213057     -1.65E+01
 Long-range K will be added via erf
 Coulomb attenuation parameter = 0.2 bohr**(-1)
 A restricted hybrid HF-DFT SCF calculation will be
 performed using Relaxed Constraint Minimization + Pulay DIIS
 Exchange:     0.2220 Hartree-Fock + 1.0000 wB97X-D + LR-HF
 Correlation:  1.0000 wB97X-D
 Using Euler-Maclaurin-Lebedev (75,302) quadrature formula
 Dispersion:   Grimme D
 SCF converges when DIIS error is below 1.0E-05
 Basis2 calculation detected. Using small basis as guess for larger.
 SCFMinFind is unable to tell whether the solution found is close.
 Resetting ReadMinima to 0 and attempting to follow guess.
 SCFMinFind following SCF Guess.
 using 3 threads for integral computing
 -------------------------------------------------------
 OpenMP Integral computing Module                
 Release: version 1.0, May 2013, Q-Chem Inc. Pittsburgh 
 -------------------------------------------------------
 using 3 threads for integral computing
 -------------------------------------------------------
 OpenMP Integral computing Module                
 Release: version 1.0, May 2013, Q-Chem Inc. Pittsburgh 
 -------------------------------------------------------
 ---------------------------------------
  Cycle       Energy         DIIS Error
 ---------------------------------------
    1    -119.0689888907      4.21E-03
    2    -119.0908879263      6.38E-04 Done RCA. Switching to DIIS
    3    -119.0917606177      4.62E-04
    4    -119.0929292442      5.38E-05
    5    -119.0929477484      1.88E-05
    6    -119.0929498786      5.53E-06 Convergence criterion met
 ---------------------------------------
 SCF time:  CPU 49.88 s  wall 16.65 s
 SCF   energy in the final basis set = -119.09294988
 Total energy in the final basis set = -119.09294988
 
 --------------------------------------------------------------
 
                    Orbital Energies (a.u.)
 --------------------------------------------------------------
 
 Alpha MOs
 -- Occupied --
-10.2764 -10.2679 -10.2658  -0.8915  -0.7856  -0.6800  -0.5533  -0.5498
 -0.4713  -0.4623  -0.4539  -0.4034  -0.3644
 -- Virtual --
  0.0663   0.0807   0.0946   0.0974   0.1226   0.1311   0.1312   0.1368
  0.1436   0.1691   0.1711   0.1943   0.2160   0.2327   0.2383   0.2499
  0.2705   0.2969   0.2997   0.3057   0.3317   0.3718   0.4621   0.4644
  0.4689   0.5102   0.5167   0.5224   0.5437   0.5684   0.5699   0.6020
  0.6109   0.6220   0.6408   0.6560   0.6591   0.6762   0.7071   0.7143
  0.7256   0.7594   0.7716   0.8337   0.8541   0.9256   0.9356   0.9621
  1.0050   1.0290   1.0459   1.0812   1.1303   1.1912   1.2089   1.2152
  1.2530   1.2653   1.2729   1.2822   1.3147   1.3235   1.3652   1.3778
  1.3888   1.3954   1.4060   1.4141   1.4536   1.4683   1.4835   1.4892
  1.5280   1.5300   1.5409   1.5866   1.6157   1.6507   1.7000   1.7578
  1.7780   2.4104   2.4277   2.5273   2.5467   2.5798   2.5925   2.6066
  2.6815   2.7255   2.7789   2.7864   2.8253   2.8704   2.8774   2.9116
  2.9222   2.9515   2.9668   2.9879   2.9998   3.0029   3.0583   3.1196
  3.1290   3.1587   3.1734   3.2067   3.2154   3.2710   3.2804   3.2982
  3.3041   3.3280   3.3480   3.3839   3.4044   3.4070   3.4437   3.4531
  3.4717   3.4895   3.5273   3.5298   3.5469   3.5683   3.5821   3.5891
  3.5993   3.6137   3.6482   3.6578   3.7715   3.7786   3.8158   3.8482
  3.8890   3.9017   3.9343   3.9403   3.9841   4.0091   4.0151   4.0275
  4.0317   4.1357   4.1625   4.1670   4.2007   4.2121   4.2420   4.2572
  4.2958   4.3268   4.3465   4.3787   4.3895   4.4210   4.4332   4.4884
  4.5039   4.5411   4.5913   4.6223   4.6841   4.6942   4.8413   4.8597
  4.8986   4.9152   4.9443   4.9792   5.0163   5.0334   5.0589   5.0848
  5.1105   5.1281   5.1502   5.2007   5.2557   5.3530   5.3886   5.4080
  5.5279   5.5869   5.6365   5.7038   5.7425   5.7696   5.8931   6.0585
  6.0842   6.3083   6.3369   6.4523   6.4558   6.4818  25.1996  25.4156
 25.4816
 --------------------------------------------------------------
 
 -----------------------------------------------------------------
                    Cartesian Multipole Moments
 -----------------------------------------------------------------
    Charge (ESU x 10^10)
                 0.0000
    Dipole Moment (Debye)
         X      -0.3621      Y       0.0051      Z      -0.1963
       Tot       0.4119
    Quadrupole Moments (Debye-Ang)
        XX     -22.3771     XY      -0.0311     YY     -21.4899
        XZ      -2.0277     YZ       0.0008     ZZ     -22.2563
    Octopole Moments (Debye-Ang^2)
       XXX      -8.3679    XXY       0.1095    XYY      -0.8153
       YYY      -0.0784    XXZ      -1.8474    XYZ      -0.0123
       YYZ       0.0760    XZZ      -1.2650    YZZ      -0.0326
       ZZZ      -1.3399
    Hexadecapole Moments (Debye-Ang^3)
      XXXX    -204.0857   XXXY       0.3409   XXYY     -42.5947
      XYYY       0.3541   YYYY     -44.0821   XXXZ      -6.7975
      XXYZ       0.0747   XYYZ      -0.1226   YYYZ       0.0781
      XXZZ     -45.1233   XYZZ       0.3145   YYZZ     -17.5596
      XZZZ      -0.9102   YZZZ       0.0844   ZZZZ     -72.9653
 -----------------------------------------------------------------
Archival summary:
1\1\centos77-c4\SP\ProcedureUnspecified\BasisUnspecified\38\shihchen\TueJul701:54:182020TueJul701:54:182020\0\\#,ProcedureUnspecified,BasisUnspecified,\\0,1\C\H,1,1.09259\H,1,1.09259,2,105.794\C,1,1.42998,2,118.234,3,-134.642,0\H,4,1.0964,1,120.562,2,67.8864,0\H,4,1.09674,1,124.034,2,-174.944,0\H,4,1.09709,1,124.427,2,-47.1963,0\C,1,1.61812,2,99.8321,3,103.671,0\H,8,1.08454,1,99.5854,2,-53.1034,0\H,8,1.08665,1,94.2872,2,69.6078,0\H,8,1.08699,1,94.6865,2,-174.275,0\\\@

 Total job time:  27.67s(wall), 74.92s(cpu) 
 Tue Jul  7 01:54:18 2020

        *************************************************************
        *                                                           *
        *  Thank you very much for using Q-Chem.  Have a nice day.  *
        *                                                           *
        *************************************************************


