                  Welcome to Q-Chem
     A Quantum Leap Into The Future Of Chemistry


 Q-Chem 5.3 (devel), Q-Chem, Inc., Pleasanton, CA (2020)

 Yihan Shao,  Zhengting Gan,  E. Epifanovsky,  A. T. B. Gilbert,  M. Wormit,  
 J. Kussmann,  A. W. Lange,  A. Behn,  Jia Deng,  Xintian Feng,  D. Ghosh,  
 M. Goldey,  P. R. Horn,  L. D. Jacobson,  I. Kaliman,  T. Kus,  A. Landau,  
 Jie Liu,  E. I. Proynov,  R. M. Richard,  R. P. Steele,  E. J. Sundstrom,  
 H. L. Woodcock III,  P. M. Zimmerman,  D. Zuev,  B. Alam,  B. Albrecht,  
 E. Alguire,  S. A. Baeppler,  D. Barton,  Z. Benda,  Y. A. Bernard,  
 E. J. Berquist,  K. B. Bravaya,  H. Burton,  K. Carter-Fenk,  D. Casanova,  
 Chun-Min Chang,  Yunqing Chen,  A. Chien,  K. D. Closser,  M. P. Coons,  
 S. Coriani,  S. Dasgupta,  A. L. Dempwolff,  M. Diedenhofen,  Hainam Do,  
 R. G. Edgar,  Po-Tung Fang,  S. Faraji,  S. Fatehi,  Qingguo Feng,  
 J. Fosso-Tande,  J. Gayvert,  Qinghui Ge,  A. Ghysels,  G. Gidofalvi,  
 J. Gomes,  J. Gonthier,  A. Gunina,  D. Hait,  M. W. D. Hanson-Heine,  
 P. H. P. Harbach,  A. W. Hauser,  M. F. Herbst,  J. E. Herr,  
 E. G. Hohenstein,  Z. C. Holden,  Kerwin Hui,  B. C. Huynh,  T.-C. Jagau,  
 Hyunjun Ji,  B. Kaduk,  K. Khistyaev,  Jaehoon Kim,  P. Klunzinger,  K. Koh,  
 D. Kosenkov,  L. Koulias,  T. Kowalczyk,  C. M. Krauter,  A. Kunitsa,  
 Ka Un Lao,  A. Laurent,  K. V. Lawler,  Joonho Lee,  D. Lefrancois,  
 S. Lehtola,  D. S. Levine,  Yi-Pei Li,  You-Sheng Lin,  Fenglai Liu,  
 Kuan-Yu Liu,  E. Livshits,  M. Loipersberger,  A. Luenser,  P. Manohar,  
 E. Mansoor,  S. F. Manzer,  Shan-Ping Mao,  Yuezhi Mao,  N. Mardirossian,  
 A. V. Marenich,  T. Markovich,  L. A. Martinez-Martinez,  S. A. Maurer,  
 N. J. Mayhall,  S. C. McKenzie,  J.-M. Mewes,  P. Morgante,  A. F. Morrison,  
 J. W. Mullinax,  K. Nanda,  T. S. Nguyen-Beck,  R. Olivares-Amaya,  
 K. J. Oosterbaan,  J. A. Parkhill,  S. K. Paul,  F. Pavosevic,  Zheng Pei,  
 T. M. Perrine,  F. Plasser,  P. Pokhilko,  S. Prager,  A. Prociuk,  
 E. Ramos,  B. Rana,  D. R. Rehn,  F. Rob,  M. Scheurer,  M. Schneider,  
 N. Sergueev,  S. M. Sharada,  S. Sharma,  D. W. Small,  T. Stauch,  
 C. J. Stein,  T. Stein,  Yu-Chuan Su,  S. P. Veccham,  Zhen Tao,  
 A. J. W. Thom,  A. Tkatchenko,  T. Tsuchimochi,  N. M. Tubman,  L. Vogt,  
 M. L. Vidal,  O. Vydrov,  M. A. Watson,  J. Wenzel,  M. de Wergifosse,  
 T. A. Wesolowski,  A. White,  J. Witte,  A. Yamada,  Jun Yang,  K. Yao,  
 S. Yeganeh,  S. R. Yost,  Zhi-Qiang You,  A. Zech,  Igor Ying Zhang,  
 Xing Zhang,  Yan Zhao,  Ying Zhu,  B. R. Brooks,  G. K. L. Chan,  
 C. J. Cramer,  M. S. Gordon,  W. J. Hehre,  A. Klamt,  M. W. Schmidt,  
 C. D. Sherrill,  D. G. Truhlar,  A. Aspuru-Guzik,  R. Baer,  A. T. Bell,  
 N. A. Besley,  Jeng-Da Chai,  A. E. DePrince, III,  R. A. DiStasio Jr.,  
 A. Dreuw,  B. D. Dunietz,  T. R. Furlani,  Chao-Ping Hsu,  Yousung Jung,  
 Jing Kong,  D. S. Lambrecht,  WanZhen Liang,  C. Ochsenfeld,  
 V. A. Rassolov,  L. V. Slipchenko,  J. E. Subotnik,  T. Van Voorhis,  
 J. M. Herbert,  A. I. Krylov,  P. M. W. Gill,  M. Head-Gordon

 Contributors to earlier versions of Q-Chem not listed above: 
 R. D. Adamson,  B. Austin,  J. Baker,  G. J. O. Beran,  K. Brandhorst,  
 S. T. Brown,  E. F. C. Byrd,  A. K. Chakraborty,  C.-L. Cheng,  
 Siu Hung Chien,  D. M. Chipman,  D. L. Crittenden,  H. Dachsel,  
 R. J. Doerksen,  A. D. Dutoi,  L. Fusti-Molnar,  W. A. Goddard III,  
 A. Golubeva-Zadorozhnaya,  S. R. Gwaltney,  G. Hawkins,  A. Heyden,  
 S. Hirata,  G. Kedziora,  F. J. Keil,  C. Kelley,  Jihan Kim,  R. A. King,  
 R. Z. Khaliullin,  P. P. Korambath,  W. Kurlancheek,  A. M. Lee,  M. S. Lee,  
 S. V. Levchenko,  Ching Yeh Lin,  D. Liotard,  R. C. Lochan,  I. Lotan,  
 P. E. Maslen,  N. Nair,  D. P. O'Neill,  D. Neuhauser,  E. Neuscamman,  
 C. M. Oana,  R. Olson,  B. Peters,  R. Peverati,  P. A. Pieniazek,  
 Y. M. Rhee,  J. Ritchie,  M. A. Rohrdanz,  E. Rosta,  N. J. Russ,  
 H. F. Schaefer III,  N. E. Schultz,  N. Shenvi,  A. C. Simmonett,  A. Sodt,  
 D. Stuck,  K. S. Thanthiriwatte,  V. Vanovschi,  Tao Wang,  A. Warshel,  
 C. F. Williams,  Q. Wu,  X. Xu,  W. Zhang

 Please cite Q-Chem as follows:
 Y. Shao et al., Mol. Phys. 113, 184-215 (2015)
 DOI: 10.1080/00268976.2014.952696

 Q-Chem 5.3.0 for Intel X86 EM64T Linux

 Parts of Q-Chem use Armadillo 9.800.1 (Horizon Scraper).
 http://arma.sourceforge.net/

 Q-Chem begins on Tue Jul  7 01:03:57 2020  

Host: centos77-c4
0

     Scratch files written to /tmp/26964.centos77-h1/qchem96445//
Processing $rem in /opt/qchem-5.3.0-intel2020u1//config/preferences:
Processing $rem in /home/shihchengli/.qchemrc:

Checking the input file for inconsistencies... 	...done.

--------------------------------------------------------------
User input:
--------------------------------------------------------------
$rem
   JOBTYPE  sp
   EXCHANGE   omegaB97X-D
   BASIS   6-311+G(2df,2pd)
   UNRESTRICTED   False
   max_scf_cycles   250
   geom_opt_max_cycles   1500
   basis2 6-31G*
   scf_algorithm rca_diis
   SYM_IGNORE  TRUE
   print_input   true
   geom_opt_dmax   80
   pop_mulliken false
   XC_GRID 000075000302
$end

$molecule
0 1
C       1.4226466258     -0.0047085709     0.2633721787
C       -0.0000000473     0.0155035872     -0.3344180642
H       1.6493516965     -0.8813807323     0.8717507262
H       1.6938426642     0.8878644674     0.8293475663
H       2.0742874761     -0.0386118244     -0.6132312283
C       -1.4226468329     -0.0047089656     0.2633718462
H       0.0000005422     -0.8290014724     -1.0309416118
H       -0.0000002844     0.8871718872     -0.9960735750
H       -1.6493519686     -0.8813811133     0.8717503708
H       -2.0742880017     -0.0386104388     -0.6132312094
H       -1.6938419304     0.8878638420     0.8293480194
$end
--------------------------------------------------------------
 ----------------------------------------------------------------
             Standard Nuclear Orientation (Angstroms)
    I     Atom           X                Y                Z
 ----------------------------------------------------------------
    1      C       1.4226466258    -0.0047085709     0.2633721787
    2      C      -0.0000000473     0.0155035872    -0.3344180642
    3      H       1.6493516965    -0.8813807323     0.8717507262
    4      H       1.6938426642     0.8878644674     0.8293475663
    5      H       2.0742874761    -0.0386118244    -0.6132312283
    6      C      -1.4226468329    -0.0047089656     0.2633718462
    7      H       0.0000005422    -0.8290014724    -1.0309416118
    8      H      -0.0000002844     0.8871718872    -0.9960735750
    9      H      -1.6493519686    -0.8813811133     0.8717503708
   10      H      -2.0742880017    -0.0386104388    -0.6132312094
   11      H      -1.6938419304     0.8878638420     0.8293480194
 ----------------------------------------------------------------
 Nuclear Repulsion Energy =          80.87549461 hartrees
 There are       13 alpha and       13 beta electrons
 Requested basis set is 6-311+G(2df,2pd)
 There are 72 shells and 214 basis functions

 Total QAlloc Memory Limit   2000 MB
 Mega-Array Size       188 MB
 MEM_STATIC part       192 MB

                       Distance Matrix (Angstroms)
             C (  1)   C (  2)   H (  3)   H (  4)   H (  5)   C (  6)
   C (  2)  1.543271
   H (  3)  1.090905  2.231503
   H (  4)  1.091129  2.232592  1.770312
   H (  5)  1.092803  2.093641  1.759546  1.756169
   C (  6)  2.845293  1.543271  3.252054  3.290824  3.605292
   H (  7)  2.092517  1.094684  2.518599  3.045883  2.258731  2.092518
   H (  8)  2.098947  1.094346  3.055635  2.490234  2.303544  2.098947
   H (  9)  3.252054  2.231503  3.298704  3.782721  4.096452  1.090905
   H ( 10)  3.605293  2.093642  4.096453  4.139831  4.148575  1.092803
   H ( 11)  3.290823  2.232591  3.782720  3.387685  4.139830  1.091129
             H (  7)   H (  8)   H (  9)   H ( 10)
   H (  8)  1.716528
   H (  9)  2.518600  3.055635
   H ( 10)  2.258733  2.303543  1.759546
   H ( 11)  3.045884  2.490234  1.770312  1.756169
 
 A cutoff of  1.0D-09 yielded   2478 shell pairs
 There are     22074 function pairs (     27163 Cartesian)
 Smallest overlap matrix eigenvalue = 8.58E-05

 Scale SEOQF with 1.000000e-01/1.000000e-01/1.000000e-01

 Standard Electronic Orientation quadrupole field applied
 Nucleus-field energy     =     0.0000000011 hartrees
 Requested basis set is 6-31G(d)
 There are 28 shells and 58 basis functions
 A cutoff of  1.0D-09 yielded    394 shell pairs
 There are      1765 function pairs (      1960 Cartesian)
 Smallest overlap matrix eigenvalue = 7.47E-03
 Guess from superposition of atomic densities
 Warning:  Energy on first SCF cycle will be non-variational
 SAD guess density has 26.000000 electrons
 Long-range K will be added via erf
 Coulomb attenuation parameter = 0.2 bohr**(-1)
 A restricted hybrid HF-DFT SCF calculation will be
 performed using Relaxed Constraint Minimization + Pulay DIIS
 Exchange:     0.2220 Hartree-Fock + 1.0000 wB97X-D + LR-HF
 Correlation:  1.0000 wB97X-D
 Using Euler-Maclaurin-Lebedev (75,302) quadrature formula
 Dispersion:   Grimme D
 SCF converges when DIIS error is below 1.0E-04
 using 3 threads for integral computing
 -------------------------------------------------------
 OpenMP Integral computing Module                
 Release: version 1.0, May 2013, Q-Chem Inc. Pittsburgh 
 -------------------------------------------------------
 using 3 threads for integral computing
 -------------------------------------------------------
 OpenMP Integral computing Module                
 Release: version 1.0, May 2013, Q-Chem Inc. Pittsburgh 
 -------------------------------------------------------
 ---------------------------------------
  Cycle       Energy         DIIS Error
 ---------------------------------------
    1    -119.5713797881      9.90E-02
    2    -119.0532451851      8.58E-03
    3    -119.0729795411      2.58E-03
    4    -119.0851352613      1.77E-03
    5    -119.0859182085      3.00E-04 Done RCA. Switching to DIIS
    6    -119.0864756203      2.24E-04
    7    -119.0864974206      4.12E-06 Convergence criterion met
 ---------------------------------------
 SCF time:  CPU 18.70 s  wall 6.79 s
 SCF   energy in the small basis set = -119.08649742
 Total energy in the small basis set = -119.08649742
 ----------------------------------------------------
  Cycle       Energy    
 ----------------------------------------------------
    1     -16.5211020913     -1.65E+01
 Long-range K will be added via erf
 Coulomb attenuation parameter = 0.2 bohr**(-1)
 A restricted hybrid HF-DFT SCF calculation will be
 performed using Relaxed Constraint Minimization + Pulay DIIS
 Exchange:     0.2220 Hartree-Fock + 1.0000 wB97X-D + LR-HF
 Correlation:  1.0000 wB97X-D
 Using Euler-Maclaurin-Lebedev (75,302) quadrature formula
 Dispersion:   Grimme D
 SCF converges when DIIS error is below 1.0E-05
 Basis2 calculation detected. Using small basis as guess for larger.
 SCFMinFind is unable to tell whether the solution found is close.
 Resetting ReadMinima to 0 and attempting to follow guess.
 SCFMinFind following SCF Guess.
 using 3 threads for integral computing
 -------------------------------------------------------
 OpenMP Integral computing Module                
 Release: version 1.0, May 2013, Q-Chem Inc. Pittsburgh 
 -------------------------------------------------------
 using 3 threads for integral computing
 -------------------------------------------------------
 OpenMP Integral computing Module                
 Release: version 1.0, May 2013, Q-Chem Inc. Pittsburgh 
 -------------------------------------------------------
 ---------------------------------------
  Cycle       Energy         DIIS Error
 ---------------------------------------
    1    -119.1058680694      4.21E-03
    2    -119.1278515491      5.77E-04 Done RCA. Switching to DIIS
    3    -119.1286815087      3.91E-04
    4    -119.1295214281      4.64E-05
    5    -119.1295362149      1.29E-05
    6    -119.1295372305      4.19E-06 Convergence criterion met
 ---------------------------------------
 SCF time:  CPU 48.89 s  wall 16.49 s
 SCF   energy in the final basis set = -119.12953723
 Total energy in the final basis set = -119.12953723
 
 --------------------------------------------------------------
 
                    Orbital Energies (a.u.)
 --------------------------------------------------------------
 
 Alpha MOs
 -- Occupied --
-10.2772 -10.2700 -10.2700  -0.8735  -0.7883  -0.6729  -0.5391  -0.5105
 -0.4955  -0.4732  -0.4270  -0.4015  -0.3983
 -- Virtual --
  0.0653   0.0867   0.0945   0.0992   0.1152   0.1287   0.1322   0.1521
  0.1555   0.1745   0.1870   0.2018   0.2309   0.2332   0.2424   0.2615
  0.2665   0.2808   0.2873   0.3064   0.3241   0.3651   0.4610   0.4684
  0.4837   0.4994   0.5215   0.5316   0.5450   0.5717   0.5795   0.5910
  0.5973   0.6030   0.6355   0.6470   0.6505   0.6678   0.6972   0.7177
  0.7328   0.7858   0.8000   0.8398   0.8621   0.8713   0.9304   0.9627
  0.9754   1.0108   1.0397   1.1261   1.1461   1.1507   1.1575   1.1964
  1.2343   1.2661   1.2726   1.2767   1.2906   1.2968   1.2973   1.3098
  1.3736   1.3808   1.3809   1.4534   1.4570   1.4665   1.4691   1.4822
  1.4991   1.5758   1.6027   1.6390   1.6614   1.6752   1.6773   1.6967
  1.7846   2.4012   2.4630   2.4831   2.4921   2.5323   2.5502   2.5967
  2.6420   2.6701   2.7603   2.8236   2.8593   2.8900   2.9299   2.9317
  2.9547   2.9879   3.0026   3.0181   3.0507   3.0658   3.0850   3.1086
  3.1349   3.1442   3.1563   3.1745   3.1867   3.1885   3.2066   3.2808
  3.2917   3.3177   3.3287   3.3370   3.3455   3.3562   3.3793   3.4029
  3.4484   3.4824   3.4917   3.5607   3.5639   3.5983   3.5984   3.6179
  3.6489   3.6496   3.6566   3.7271   3.7387   3.7673   3.7956   3.8562
  3.8874   3.8985   3.9020   3.9547   3.9663   3.9723   3.9842   4.0454
  4.0931   4.1252   4.1366   4.1478   4.1571   4.1677   4.1703   4.1876
  4.2338   4.2895   4.2956   4.3355   4.3417   4.4276   4.4537   4.4661
  4.4662   4.5081   4.5578   4.6081   4.7838   4.8079   4.8584   4.8697
  4.9085   4.9455   4.9642   4.9692   5.0066   5.0281   5.0612   5.0972
  5.1273   5.1356   5.2248   5.2497   5.2954   5.3072   5.3081   5.3309
  5.3500   5.3855   5.4485   5.4658   5.5864   5.6046   5.6456   5.8417
  5.9164   6.3691   6.3776   6.3955   6.3977   6.4639  25.2055  25.3994
 25.4335
 --------------------------------------------------------------
 
 -----------------------------------------------------------------
                    Cartesian Multipole Moments
 -----------------------------------------------------------------
    Charge (ESU x 10^10)
                 0.0000
    Dipole Moment (Debye)
         X       0.0000      Y      -0.0027      Z      -0.1772
       Tot       0.1772
    Quadrupole Moments (Debye-Ang)
        XX     -21.9352     XY      -0.0000     YY     -21.4246
        XZ       0.0000     YZ      -0.0063     ZZ     -21.7912
    Octopole Moments (Debye-Ang^2)
       XXX       0.0000    XXY       0.0340    XYY       0.0000
       YYY       0.0280    XXZ      -2.0609    XYZ       0.0000
       YYZ      -0.3917    XZZ       0.0000    YZZ      -0.1456
       ZZZ      -3.8275
    Hexadecapole Moments (Debye-Ang^3)
      XXXX    -251.1346   XXXY      -0.0000   XXYY     -47.7643
      XYYY      -0.0000   YYYY     -44.0817   XXXZ       0.0000
      XXYZ       0.2575   XYYZ      -0.0000   YYYZ       0.1637
      XXZZ     -48.6743   XYZZ      -0.0000   YYZZ     -15.6315
      XZZZ      -0.0000   YZZZ       0.1795   ZZZZ     -60.3353
 -----------------------------------------------------------------
Archival summary:
1\1\centos77-c4\SP\ProcedureUnspecified\BasisUnspecified\38\shihchen\TueJul701:04:232020TueJul701:04:232020\0\\#,ProcedureUnspecified,BasisUnspecified,\\0,1\C\H,1,1.09435\H,1,1.09468,2,103.284\C,1,1.54327,2,104.16,3,-108.061,0\H,4,1.0909,1,114.716,2,173.423,0\H,4,1.09113,1,114.792,2,-59.969,0\H,4,1.0928,1,103.85,2,56.5555,0\C,1,1.54327,2,104.16,3,108.061,0\H,8,1.09091,1,114.716,2,-173.423,0\H,8,1.09113,1,114.792,2,59.9689,0\H,8,1.0928,1,103.85,2,-56.5556,0\\\@

 Total job time:  26.10s(wall), 71.15s(cpu) 
 Tue Jul  7 01:04:23 2020

        *************************************************************
        *                                                           *
        *  Thank you very much for using Q-Chem.  Have a nice day.  *
        *                                                           *
        *************************************************************


