                  Welcome to Q-Chem
     A Quantum Leap Into The Future Of Chemistry


 Q-Chem 5.3 (devel), Q-Chem, Inc., Pleasanton, CA (2020)

 Yihan Shao,  Zhengting Gan,  E. Epifanovsky,  A. T. B. Gilbert,  M. Wormit,  
 J. Kussmann,  A. W. Lange,  A. Behn,  Jia Deng,  Xintian Feng,  D. Ghosh,  
 M. Goldey,  P. R. Horn,  L. D. Jacobson,  I. Kaliman,  T. Kus,  A. Landau,  
 Jie Liu,  E. I. Proynov,  R. M. Richard,  R. P. Steele,  E. J. Sundstrom,  
 H. L. Woodcock III,  P. M. Zimmerman,  D. Zuev,  B. Alam,  B. Albrecht,  
 E. Alguire,  S. A. Baeppler,  D. Barton,  Z. Benda,  Y. A. Bernard,  
 E. J. Berquist,  K. B. Bravaya,  H. Burton,  K. Carter-Fenk,  D. Casanova,  
 Chun-Min Chang,  Yunqing Chen,  A. Chien,  K. D. Closser,  M. P. Coons,  
 S. Coriani,  S. Dasgupta,  A. L. Dempwolff,  M. Diedenhofen,  Hainam Do,  
 R. G. Edgar,  Po-Tung Fang,  S. Faraji,  S. Fatehi,  Qingguo Feng,  
 J. Fosso-Tande,  J. Gayvert,  Qinghui Ge,  A. Ghysels,  G. Gidofalvi,  
 J. Gomes,  J. Gonthier,  A. Gunina,  D. Hait,  M. W. D. Hanson-Heine,  
 P. H. P. Harbach,  A. W. Hauser,  M. F. Herbst,  J. E. Herr,  
 E. G. Hohenstein,  Z. C. Holden,  Kerwin Hui,  B. C. Huynh,  T.-C. Jagau,  
 Hyunjun Ji,  B. Kaduk,  K. Khistyaev,  Jaehoon Kim,  P. Klunzinger,  K. Koh,  
 D. Kosenkov,  L. Koulias,  T. Kowalczyk,  C. M. Krauter,  A. Kunitsa,  
 Ka Un Lao,  A. Laurent,  K. V. Lawler,  Joonho Lee,  D. Lefrancois,  
 S. Lehtola,  D. S. Levine,  Yi-Pei Li,  You-Sheng Lin,  Fenglai Liu,  
 Kuan-Yu Liu,  E. Livshits,  M. Loipersberger,  A. Luenser,  P. Manohar,  
 E. Mansoor,  S. F. Manzer,  Shan-Ping Mao,  Yuezhi Mao,  N. Mardirossian,  
 A. V. Marenich,  T. Markovich,  L. A. Martinez-Martinez,  S. A. Maurer,  
 N. J. Mayhall,  S. C. McKenzie,  J.-M. Mewes,  P. Morgante,  A. F. Morrison,  
 J. W. Mullinax,  K. Nanda,  T. S. Nguyen-Beck,  R. Olivares-Amaya,  
 K. J. Oosterbaan,  J. A. Parkhill,  S. K. Paul,  F. Pavosevic,  Zheng Pei,  
 T. M. Perrine,  F. Plasser,  P. Pokhilko,  S. Prager,  A. Prociuk,  
 E. Ramos,  B. Rana,  D. R. Rehn,  F. Rob,  M. Scheurer,  M. Schneider,  
 N. Sergueev,  S. M. Sharada,  S. Sharma,  D. W. Small,  T. Stauch,  
 C. J. Stein,  T. Stein,  Yu-Chuan Su,  S. P. Veccham,  Zhen Tao,  
 A. J. W. Thom,  A. Tkatchenko,  T. Tsuchimochi,  N. M. Tubman,  L. Vogt,  
 M. L. Vidal,  O. Vydrov,  M. A. Watson,  J. Wenzel,  M. de Wergifosse,  
 T. A. Wesolowski,  A. White,  J. Witte,  A. Yamada,  Jun Yang,  K. Yao,  
 S. Yeganeh,  S. R. Yost,  Zhi-Qiang You,  A. Zech,  Igor Ying Zhang,  
 Xing Zhang,  Yan Zhao,  Ying Zhu,  B. R. Brooks,  G. K. L. Chan,  
 C. J. Cramer,  M. S. Gordon,  W. J. Hehre,  A. Klamt,  M. W. Schmidt,  
 C. D. Sherrill,  D. G. Truhlar,  A. Aspuru-Guzik,  R. Baer,  A. T. Bell,  
 N. A. Besley,  Jeng-Da Chai,  A. E. DePrince, III,  R. A. DiStasio Jr.,  
 A. Dreuw,  B. D. Dunietz,  T. R. Furlani,  Chao-Ping Hsu,  Yousung Jung,  
 Jing Kong,  D. S. Lambrecht,  WanZhen Liang,  C. Ochsenfeld,  
 V. A. Rassolov,  L. V. Slipchenko,  J. E. Subotnik,  T. Van Voorhis,  
 J. M. Herbert,  A. I. Krylov,  P. M. W. Gill,  M. Head-Gordon

 Contributors to earlier versions of Q-Chem not listed above: 
 R. D. Adamson,  B. Austin,  J. Baker,  G. J. O. Beran,  K. Brandhorst,  
 S. T. Brown,  E. F. C. Byrd,  A. K. Chakraborty,  C.-L. Cheng,  
 Siu Hung Chien,  D. M. Chipman,  D. L. Crittenden,  H. Dachsel,  
 R. J. Doerksen,  A. D. Dutoi,  L. Fusti-Molnar,  W. A. Goddard III,  
 A. Golubeva-Zadorozhnaya,  S. R. Gwaltney,  G. Hawkins,  A. Heyden,  
 S. Hirata,  G. Kedziora,  F. J. Keil,  C. Kelley,  Jihan Kim,  R. A. King,  
 R. Z. Khaliullin,  P. P. Korambath,  W. Kurlancheek,  A. M. Lee,  M. S. Lee,  
 S. V. Levchenko,  Ching Yeh Lin,  D. Liotard,  R. C. Lochan,  I. Lotan,  
 P. E. Maslen,  N. Nair,  D. P. O'Neill,  D. Neuhauser,  E. Neuscamman,  
 C. M. Oana,  R. Olson,  B. Peters,  R. Peverati,  P. A. Pieniazek,  
 Y. M. Rhee,  J. Ritchie,  M. A. Rohrdanz,  E. Rosta,  N. J. Russ,  
 H. F. Schaefer III,  N. E. Schultz,  N. Shenvi,  A. C. Simmonett,  A. Sodt,  
 D. Stuck,  K. S. Thanthiriwatte,  V. Vanovschi,  Tao Wang,  A. Warshel,  
 C. F. Williams,  Q. Wu,  X. Xu,  W. Zhang

 Please cite Q-Chem as follows:
 Y. Shao et al., Mol. Phys. 113, 184-215 (2015)
 DOI: 10.1080/00268976.2014.952696

 Q-Chem 5.3.0 for Intel X86 EM64T Linux

 Parts of Q-Chem use Armadillo 9.800.1 (Horizon Scraper).
 http://arma.sourceforge.net/

 Q-Chem begins on Tue Jul  7 02:08:05 2020  

Host: centos77-c4
0

     Scratch files written to /tmp/26964.centos77-h1/qchem108365//
Processing $rem in /opt/qchem-5.3.0-intel2020u1//config/preferences:
Processing $rem in /home/shihchengli/.qchemrc:

Checking the input file for inconsistencies... 	...done.

--------------------------------------------------------------
User input:
--------------------------------------------------------------
$rem
   JOBTYPE  sp
   EXCHANGE   omegaB97X-D
   BASIS   6-311+G(2df,2pd)
   UNRESTRICTED   False
   max_scf_cycles   250
   geom_opt_max_cycles   1500
   basis2 6-31G*
   scf_algorithm rca_diis
   SYM_IGNORE  TRUE
   print_input   true
   geom_opt_dmax   80
   pop_mulliken false
   XC_GRID 000075000302
$end

$molecule
0 1
C       1.2669745383     0.0170058130     0.2688463753
C       -0.0000001685     0.0074241323     -0.5597787065
H       1.3429570618     -0.8460535445     0.9365121487
H       1.2438391607     0.8484227467     0.9760204836
H       2.1474223790     -0.0139796302     -0.3697640936
C       -1.2669749170     0.0170076537     0.2688460647
H       -0.0000008053     -0.7588530887     -1.3452912846
H       0.0000009065     0.7406409317     -1.3771158258
H       -1.3429621848     -0.8460505011     0.9365132635
H       -2.1474218593     -0.0139868958     -0.3697650309
H       -1.2438341719     0.8484230488     0.9760216245
$end
--------------------------------------------------------------
 ----------------------------------------------------------------
             Standard Nuclear Orientation (Angstroms)
    I     Atom           X                Y                Z
 ----------------------------------------------------------------
    1      C       1.2669745383     0.0170058130     0.2688463753
    2      C      -0.0000001685     0.0074241323    -0.5597787065
    3      H       1.3429570618    -0.8460535445     0.9365121487
    4      H       1.2438391607     0.8484227467     0.9760204836
    5      H       2.1474223790    -0.0139796302    -0.3697640936
    6      C      -1.2669749170     0.0170076537     0.2688460647
    7      H      -0.0000008053    -0.7588530887    -1.3452912846
    8      H       0.0000009065     0.7406409317    -1.3771158258
    9      H      -1.3429621848    -0.8460505011     0.9365132635
   10      H      -2.1474218593    -0.0139868958    -0.3697650309
   11      H      -1.2438341719     0.8484230488     0.9760216245
 ----------------------------------------------------------------
 Nuclear Repulsion Energy =          82.83415607 hartrees
 There are       13 alpha and       13 beta electrons
 Requested basis set is 6-311+G(2df,2pd)
 There are 72 shells and 214 basis functions

 Total QAlloc Memory Limit   2000 MB
 Mega-Array Size       188 MB
 MEM_STATIC part       192 MB

                       Distance Matrix (Angstroms)
             C (  1)   C (  2)   H (  3)   H (  4)   H (  5)   C (  6)
   C (  2)  1.513914
   H (  3)  1.093811  2.184226
   H (  4)  1.091735  2.147811  1.697832
   H (  5)  1.088105  2.155919  1.745242  1.836120
   C (  6)  2.533949  1.513914  2.828851  2.737797  3.473743
   H (  7)  2.193769  1.097365  2.649107  3.085281  2.473442  2.193769
   H (  8)  2.199559  1.098020  3.110306  2.663832  2.489102  2.199560
   H (  9)  2.828854  2.184229  2.685919  3.092627  3.818571  1.093811
   H ( 10)  3.473743  2.155918  3.818565  3.749072  4.294844  1.088105
   H ( 11)  2.737793  2.147809  3.092620  2.487673  3.749066  1.091735
             H (  7)   H (  8)   H (  9)   H ( 10)
   H (  8)  1.499832
   H (  9)  2.649109  3.110309
   H ( 10)  2.473438  2.489105  1.745236
   H ( 11)  3.085280  2.663832  1.697830  1.836127
 
 A cutoff of  1.0D-09 yielded   2532 shell pairs
 There are     22578 function pairs (     27759 Cartesian)
 Smallest overlap matrix eigenvalue = 9.29E-05

 Scale SEOQF with 1.000000e-01/1.000000e-01/1.000000e-01

 Standard Electronic Orientation quadrupole field applied
 Nucleus-field energy     =     0.0000000004 hartrees
 Requested basis set is 6-31G(d)
 There are 28 shells and 58 basis functions
 A cutoff of  1.0D-09 yielded    402 shell pairs
 There are      1773 function pairs (      1968 Cartesian)
 Smallest overlap matrix eigenvalue = 7.07E-03
 Guess from superposition of atomic densities
 Warning:  Energy on first SCF cycle will be non-variational
 SAD guess density has 26.000000 electrons
 Long-range K will be added via erf
 Coulomb attenuation parameter = 0.2 bohr**(-1)
 A restricted hybrid HF-DFT SCF calculation will be
 performed using Relaxed Constraint Minimization + Pulay DIIS
 Exchange:     0.2220 Hartree-Fock + 1.0000 wB97X-D + LR-HF
 Correlation:  1.0000 wB97X-D
 Using Euler-Maclaurin-Lebedev (75,302) quadrature formula
 Dispersion:   Grimme D
 SCF converges when DIIS error is below 1.0E-04
 using 3 threads for integral computing
 -------------------------------------------------------
 OpenMP Integral computing Module                
 Release: version 1.0, May 2013, Q-Chem Inc. Pittsburgh 
 -------------------------------------------------------
 using 3 threads for integral computing
 -------------------------------------------------------
 OpenMP Integral computing Module                
 Release: version 1.0, May 2013, Q-Chem Inc. Pittsburgh 
 -------------------------------------------------------
 ---------------------------------------
  Cycle       Energy         DIIS Error
 ---------------------------------------
    1    -119.6436065420      1.01E-01
    2    -119.0507664307      9.06E-03
    3    -119.0720319099      2.44E-03
    4    -119.0865020561      1.67E-03
    5    -119.0871855151      2.48E-04 Done RCA. Switching to DIIS
    6    -119.0877063236      1.84E-04
    7    -119.0877211068      5.41E-06 Convergence criterion met
 ---------------------------------------
 SCF time:  CPU 19.24 s  wall 6.87 s
 SCF   energy in the small basis set = -119.08772111
 Total energy in the small basis set = -119.08772111
 ----------------------------------------------------
  Cycle       Energy    
 ----------------------------------------------------
    1     -16.5392483681     -1.65E+01
 Long-range K will be added via erf
 Coulomb attenuation parameter = 0.2 bohr**(-1)
 A restricted hybrid HF-DFT SCF calculation will be
 performed using Relaxed Constraint Minimization + Pulay DIIS
 Exchange:     0.2220 Hartree-Fock + 1.0000 wB97X-D + LR-HF
 Correlation:  1.0000 wB97X-D
 Using Euler-Maclaurin-Lebedev (75,302) quadrature formula
 Dispersion:   Grimme D
 SCF converges when DIIS error is below 1.0E-05
 Basis2 calculation detected. Using small basis as guess for larger.
 SCFMinFind is unable to tell whether the solution found is close.
 Resetting ReadMinima to 0 and attempting to follow guess.
 SCFMinFind following SCF Guess.
 using 3 threads for integral computing
 -------------------------------------------------------
 OpenMP Integral computing Module                
 Release: version 1.0, May 2013, Q-Chem Inc. Pittsburgh 
 -------------------------------------------------------
 using 3 threads for integral computing
 -------------------------------------------------------
 OpenMP Integral computing Module                
 Release: version 1.0, May 2013, Q-Chem Inc. Pittsburgh 
 -------------------------------------------------------
 ---------------------------------------
  Cycle       Energy         DIIS Error
 ---------------------------------------
    1    -119.1078554070      4.21E-03
    2    -119.1298002997      5.98E-04 Done RCA. Switching to DIIS
    3    -119.1306031826      4.26E-04
    4    -119.1315984909      4.85E-05
    5    -119.1316146288      1.14E-05
    6    -119.1316154708      4.06E-06 Convergence criterion met
 ---------------------------------------
 SCF time:  CPU 51.50 s  wall 17.32 s
 SCF   energy in the final basis set = -119.13161547
 Total energy in the final basis set = -119.13161547
 
 --------------------------------------------------------------
 
                    Orbital Energies (a.u.)
 --------------------------------------------------------------
 
 Alpha MOs
 -- Occupied --
-10.2736 -10.2667 -10.2667  -0.8828  -0.7789  -0.6894  -0.5386  -0.5208
 -0.4949  -0.4549  -0.4430  -0.4188  -0.3794
 -- Virtual --
  0.0673   0.0859   0.0870   0.1026   0.1228   0.1270   0.1353   0.1457
  0.1482   0.1703   0.1715   0.1937   0.2234   0.2406   0.2408   0.2520
  0.2833   0.2853   0.3102   0.3173   0.3333   0.3547   0.4574   0.4684
  0.4743   0.5154   0.5158   0.5305   0.5399   0.5712   0.5805   0.5822
  0.6176   0.6246   0.6263   0.6489   0.6654   0.6783   0.7064   0.7244
  0.7248   0.7656   0.8012   0.8638   0.8699   0.8796   0.9009   0.9456
  0.9981   1.0560   1.0909   1.1111   1.1311   1.1831   1.2017   1.2252
  1.2277   1.2350   1.2421   1.2518   1.3098   1.3129   1.3419   1.3691
  1.3820   1.3879   1.4038   1.4401   1.4553   1.4788   1.4823   1.5111
  1.5120   1.5683   1.6049   1.6250   1.6258   1.6431   1.6839   1.7082
  1.8051   2.3735   2.4720   2.4776   2.4801   2.5513   2.5637   2.6017
  2.6361   2.7332   2.7855   2.8089   2.8356   2.9029   2.9198   2.9292
  2.9365   2.9538   2.9765   3.0078   3.0511   3.0772   3.0943   3.1101
  3.1219   3.1540   3.1809   3.2068   3.2206   3.2320   3.2489   3.2816
  3.3086   3.3185   3.3499   3.3633   3.3997   3.4046   3.4230   3.4381
  3.4788   3.4873   3.5180   3.5577   3.5750   3.5761   3.6027   3.6125
  3.6321   3.6346   3.6514   3.6604   3.7324   3.8053   3.8282   3.8398
  3.8980   3.9265   3.9423   3.9547   3.9895   4.0048   4.0429   4.0647
  4.0977   4.1011   4.1205   4.1284   4.1574   4.1772   4.1822   4.2343
  4.2456   4.2742   4.3266   4.3375   4.3914   4.3961   4.4102   4.4394
  4.4969   4.5490   4.5517   4.5741   4.6626   4.7513   4.8189   4.8321
  4.8842   4.9052   4.9583   5.0017   5.0092   5.0478   5.0833   5.1525
  5.2154   5.2360   5.2727   5.2972   5.3052   5.3281   5.3719   5.3838
  5.3983   5.4229   5.5149   5.5313   5.5564   5.6209   5.6685   5.7915
  5.9809   6.3402   6.3909   6.4178   6.4185   6.4521  25.1868  25.4412
 25.4592
 --------------------------------------------------------------
 
 -----------------------------------------------------------------
                    Cartesian Multipole Moments
 -----------------------------------------------------------------
    Charge (ESU x 10^10)
                 0.0000
    Dipole Moment (Debye)
         X       0.0000      Y      -0.0739      Z      -0.1289
       Tot       0.1486
    Quadrupole Moments (Debye-Ang)
        XX     -22.0916     XY       0.0000     YY     -22.3290
        XZ      -0.0000     YZ       0.1063     ZZ     -20.8223
    Octopole Moments (Debye-Ang^2)
       XXX       0.0000    XXY      -1.1340    XYY       0.0000
       YYY      -0.6740    XXZ      -1.8745    XYZ      -0.0000
       YYZ       0.8285    XZZ      -0.0000    YZZ      -0.0419
       ZZZ      -1.8483
    Hexadecapole Moments (Debye-Ang^3)
      XXXX    -200.6456   XXXY       0.0002   XXYY     -42.3089
      XYYY       0.0000   YYYY     -43.8499   XXXZ      -0.0000
      XXYZ      -0.2360   XYYZ       0.0000   YYYZ      -0.1589
      XXZZ     -44.8758   XYZZ       0.0000   YYZZ     -17.9601
      XZZZ      -0.0000   YZZZ      -0.0648   ZZZZ     -71.9239
 -----------------------------------------------------------------
Archival summary:
1\1\centos77-c4\SP\ProcedureUnspecified\BasisUnspecified\38\shihchen\TueJul702:08:322020TueJul702:08:322020\0\\#,ProcedureUnspecified,BasisUnspecified,\\0,1\C\H,1,1.09737\H,1,1.09802,2,86.1845\C,1,1.51391,2,113.342,3,114.289,0\H,4,1.0881,1,110.84,2,-47.3872,0\H,4,1.09173,1,109.976,2,-175.369,0\H,4,1.09381,1,112.783,2,71.5811,0\C,1,1.51391,2,113.342,3,-114.289,0\H,8,1.0881,1,110.84,2,47.3878,0\H,8,1.09173,1,109.976,2,175.369,0\H,8,1.09381,1,112.783,2,-71.5811,0\\\@

 Total job time:  27.09s(wall), 74.31s(cpu) 
 Tue Jul  7 02:08:32 2020

        *************************************************************
        *                                                           *
        *  Thank you very much for using Q-Chem.  Have a nice day.  *
        *                                                           *
        *************************************************************


