                  Welcome to Q-Chem
     A Quantum Leap Into The Future Of Chemistry


 Q-Chem 5.3 (devel), Q-Chem, Inc., Pleasanton, CA (2020)

 Yihan Shao,  Zhengting Gan,  E. Epifanovsky,  A. T. B. Gilbert,  M. Wormit,  
 J. Kussmann,  A. W. Lange,  A. Behn,  Jia Deng,  Xintian Feng,  D. Ghosh,  
 M. Goldey,  P. R. Horn,  L. D. Jacobson,  I. Kaliman,  T. Kus,  A. Landau,  
 Jie Liu,  E. I. Proynov,  R. M. Richard,  R. P. Steele,  E. J. Sundstrom,  
 H. L. Woodcock III,  P. M. Zimmerman,  D. Zuev,  B. Alam,  B. Albrecht,  
 E. Alguire,  S. A. Baeppler,  D. Barton,  Z. Benda,  Y. A. Bernard,  
 E. J. Berquist,  K. B. Bravaya,  H. Burton,  K. Carter-Fenk,  D. Casanova,  
 Chun-Min Chang,  Yunqing Chen,  A. Chien,  K. D. Closser,  M. P. Coons,  
 S. Coriani,  S. Dasgupta,  A. L. Dempwolff,  M. Diedenhofen,  Hainam Do,  
 R. G. Edgar,  Po-Tung Fang,  S. Faraji,  S. Fatehi,  Qingguo Feng,  
 J. Fosso-Tande,  J. Gayvert,  Qinghui Ge,  A. Ghysels,  G. Gidofalvi,  
 J. Gomes,  J. Gonthier,  A. Gunina,  D. Hait,  M. W. D. Hanson-Heine,  
 P. H. P. Harbach,  A. W. Hauser,  M. F. Herbst,  J. E. Herr,  
 E. G. Hohenstein,  Z. C. Holden,  Kerwin Hui,  B. C. Huynh,  T.-C. Jagau,  
 Hyunjun Ji,  B. Kaduk,  K. Khistyaev,  Jaehoon Kim,  P. Klunzinger,  K. Koh,  
 D. Kosenkov,  L. Koulias,  T. Kowalczyk,  C. M. Krauter,  A. Kunitsa,  
 Ka Un Lao,  A. Laurent,  K. V. Lawler,  Joonho Lee,  D. Lefrancois,  
 S. Lehtola,  D. S. Levine,  Yi-Pei Li,  You-Sheng Lin,  Fenglai Liu,  
 Kuan-Yu Liu,  E. Livshits,  M. Loipersberger,  A. Luenser,  P. Manohar,  
 E. Mansoor,  S. F. Manzer,  Shan-Ping Mao,  Yuezhi Mao,  N. Mardirossian,  
 A. V. Marenich,  T. Markovich,  L. A. Martinez-Martinez,  S. A. Maurer,  
 N. J. Mayhall,  S. C. McKenzie,  J.-M. Mewes,  P. Morgante,  A. F. Morrison,  
 J. W. Mullinax,  K. Nanda,  T. S. Nguyen-Beck,  R. Olivares-Amaya,  
 K. J. Oosterbaan,  J. A. Parkhill,  S. K. Paul,  F. Pavosevic,  Zheng Pei,  
 T. M. Perrine,  F. Plasser,  P. Pokhilko,  S. Prager,  A. Prociuk,  
 E. Ramos,  B. Rana,  D. R. Rehn,  F. Rob,  M. Scheurer,  M. Schneider,  
 N. Sergueev,  S. M. Sharada,  S. Sharma,  D. W. Small,  T. Stauch,  
 C. J. Stein,  T. Stein,  Yu-Chuan Su,  S. P. Veccham,  Zhen Tao,  
 A. J. W. Thom,  A. Tkatchenko,  T. Tsuchimochi,  N. M. Tubman,  L. Vogt,  
 M. L. Vidal,  O. Vydrov,  M. A. Watson,  J. Wenzel,  M. de Wergifosse,  
 T. A. Wesolowski,  A. White,  J. Witte,  A. Yamada,  Jun Yang,  K. Yao,  
 S. Yeganeh,  S. R. Yost,  Zhi-Qiang You,  A. Zech,  Igor Ying Zhang,  
 Xing Zhang,  Yan Zhao,  Ying Zhu,  B. R. Brooks,  G. K. L. Chan,  
 C. J. Cramer,  M. S. Gordon,  W. J. Hehre,  A. Klamt,  M. W. Schmidt,  
 C. D. Sherrill,  D. G. Truhlar,  A. Aspuru-Guzik,  R. Baer,  A. T. Bell,  
 N. A. Besley,  Jeng-Da Chai,  A. E. DePrince, III,  R. A. DiStasio Jr.,  
 A. Dreuw,  B. D. Dunietz,  T. R. Furlani,  Chao-Ping Hsu,  Yousung Jung,  
 Jing Kong,  D. S. Lambrecht,  WanZhen Liang,  C. Ochsenfeld,  
 V. A. Rassolov,  L. V. Slipchenko,  J. E. Subotnik,  T. Van Voorhis,  
 J. M. Herbert,  A. I. Krylov,  P. M. W. Gill,  M. Head-Gordon

 Contributors to earlier versions of Q-Chem not listed above: 
 R. D. Adamson,  B. Austin,  J. Baker,  G. J. O. Beran,  K. Brandhorst,  
 S. T. Brown,  E. F. C. Byrd,  A. K. Chakraborty,  C.-L. Cheng,  
 Siu Hung Chien,  D. M. Chipman,  D. L. Crittenden,  H. Dachsel,  
 R. J. Doerksen,  A. D. Dutoi,  L. Fusti-Molnar,  W. A. Goddard III,  
 A. Golubeva-Zadorozhnaya,  S. R. Gwaltney,  G. Hawkins,  A. Heyden,  
 S. Hirata,  G. Kedziora,  F. J. Keil,  C. Kelley,  Jihan Kim,  R. A. King,  
 R. Z. Khaliullin,  P. P. Korambath,  W. Kurlancheek,  A. M. Lee,  M. S. Lee,  
 S. V. Levchenko,  Ching Yeh Lin,  D. Liotard,  R. C. Lochan,  I. Lotan,  
 P. E. Maslen,  N. Nair,  D. P. O'Neill,  D. Neuhauser,  E. Neuscamman,  
 C. M. Oana,  R. Olson,  B. Peters,  R. Peverati,  P. A. Pieniazek,  
 Y. M. Rhee,  J. Ritchie,  M. A. Rohrdanz,  E. Rosta,  N. J. Russ,  
 H. F. Schaefer III,  N. E. Schultz,  N. Shenvi,  A. C. Simmonett,  A. Sodt,  
 D. Stuck,  K. S. Thanthiriwatte,  V. Vanovschi,  Tao Wang,  A. Warshel,  
 C. F. Williams,  Q. Wu,  X. Xu,  W. Zhang

 Please cite Q-Chem as follows:
 Y. Shao et al., Mol. Phys. 113, 184-215 (2015)
 DOI: 10.1080/00268976.2014.952696

 Q-Chem 5.3.0 for Intel X86 EM64T Linux

 Parts of Q-Chem use Armadillo 9.800.1 (Horizon Scraper).
 http://arma.sourceforge.net/

 Q-Chem begins on Tue Jul  7 01:09:23 2020  

Host: centos77-c4
0

     Scratch files written to /tmp/26964.centos77-h1/qchem97358//
Processing $rem in /opt/qchem-5.3.0-intel2020u1//config/preferences:
Processing $rem in /home/shihchengli/.qchemrc:

Checking the input file for inconsistencies... 	...done.

--------------------------------------------------------------
User input:
--------------------------------------------------------------
$rem
   JOBTYPE  sp
   EXCHANGE   omegaB97X-D
   BASIS   6-311+G(2df,2pd)
   UNRESTRICTED   False
   max_scf_cycles   250
   geom_opt_max_cycles   1500
   basis2 6-31G*
   scf_algorithm rca_diis
   SYM_IGNORE  TRUE
   print_input   true
   geom_opt_dmax   80
   pop_mulliken false
   XC_GRID 000075000302
$end

$molecule
0 1
C       1.2458711161     -0.1346960529     0.2486019095
C       0.0000000287     -0.2954413909     -0.6215054526
H       1.5257892984     -0.7386299435     1.1091053998
H       0.8894472700     0.8154885537     0.6647636288
H       2.1145974285     0.1507561161     -0.3439705460
C       -1.2458707735     -0.1346960635     0.2486024641
H       -0.0000000937     -0.6853469723     -1.6355015942
H       -0.0000003697     0.7949499977     -0.7589488822
H       -1.5257892995     -0.7386294139     1.1091060932
H       -2.1145967443     0.1507561386     -0.3439705140
H       -0.8894479214     0.8154896968     0.6647625124
$end
--------------------------------------------------------------
 ----------------------------------------------------------------
             Standard Nuclear Orientation (Angstroms)
    I     Atom           X                Y                Z
 ----------------------------------------------------------------
    1      C       1.2458711161    -0.1346960529     0.2486019095
    2      C       0.0000000287    -0.2954413909    -0.6215054526
    3      H       1.5257892984    -0.7386299435     1.1091053998
    4      H       0.8894472700     0.8154885537     0.6647636288
    5      H       2.1145974285     0.1507561161    -0.3439705460
    6      C      -1.2458707735    -0.1346960635     0.2486024641
    7      H      -0.0000000937    -0.6853469723    -1.6355015942
    8      H      -0.0000003697     0.7949499977    -0.7589488822
    9      H      -1.5257892995    -0.7386294139     1.1091060932
   10      H      -2.1145967443     0.1507561386    -0.3439705140
   11      H      -0.8894479214     0.8154896968     0.6647625124
 ----------------------------------------------------------------
 Nuclear Repulsion Energy =          83.84839195 hartrees
 There are       13 alpha and       13 beta electrons
 Requested basis set is 6-311+G(2df,2pd)
 There are 72 shells and 214 basis functions

 Total QAlloc Memory Limit   2000 MB
 Mega-Array Size       188 MB
 MEM_STATIC part       192 MB

                       Distance Matrix (Angstroms)
             C (  1)   C (  2)   H (  3)   H (  4)   H (  5)   C (  6)
   C (  2)  1.528110
   H (  3)  1.087914  2.349354
   H (  4)  1.096850  1.918273  1.737140
   H (  5)  1.089638  2.178908  1.802535  1.720583
   C (  6)  2.491742  1.528110  2.964338  2.373947  3.424233
   H (  7)  2.324921  1.086377  3.140659  2.887013  2.615080  2.324921
   H (  8)  1.852457  1.099020  2.858239  1.678838  2.249159  1.852456
   H (  9)  2.964339  2.349354  3.051579  2.906216  4.019310  1.087914
   H ( 10)  3.424233  2.178907  4.019309  3.237853  4.229194  1.089638
   H ( 11)  2.373948  1.918273  2.906217  1.778895  3.237854  1.096850
             H (  7)   H (  8)   H (  9)   H ( 10)
   H (  8)  1.720356
   H (  9)  3.140660  2.858238
   H ( 10)  2.615079  2.249158  1.802535
   H ( 11)  2.887013  1.678837  1.737141  1.720582
 
 A cutoff of  1.0D-09 yielded   2547 shell pairs
 There are     22663 function pairs (     27874 Cartesian)
 Smallest overlap matrix eigenvalue = 1.18E-04

 Scale SEOQF with 1.000000e-01/1.000000e-01/1.000000e-01

 Standard Electronic Orientation quadrupole field applied
 Nucleus-field energy     =     0.0000000005 hartrees
 Requested basis set is 6-31G(d)
 There are 28 shells and 58 basis functions
 A cutoff of  1.0D-09 yielded    402 shell pairs
 There are      1773 function pairs (      1968 Cartesian)
 Smallest overlap matrix eigenvalue = 5.65E-03
 Guess from superposition of atomic densities
 Warning:  Energy on first SCF cycle will be non-variational
 SAD guess density has 26.000000 electrons
 Long-range K will be added via erf
 Coulomb attenuation parameter = 0.2 bohr**(-1)
 A restricted hybrid HF-DFT SCF calculation will be
 performed using Relaxed Constraint Minimization + Pulay DIIS
 Exchange:     0.2220 Hartree-Fock + 1.0000 wB97X-D + LR-HF
 Correlation:  1.0000 wB97X-D
 Using Euler-Maclaurin-Lebedev (75,302) quadrature formula
 Dispersion:   Grimme D
 SCF converges when DIIS error is below 1.0E-04
 using 3 threads for integral computing
 -------------------------------------------------------
 OpenMP Integral computing Module                
 Release: version 1.0, May 2013, Q-Chem Inc. Pittsburgh 
 -------------------------------------------------------
 using 3 threads for integral computing
 -------------------------------------------------------
 OpenMP Integral computing Module                
 Release: version 1.0, May 2013, Q-Chem Inc. Pittsburgh 
 -------------------------------------------------------
 ---------------------------------------
  Cycle       Energy         DIIS Error
 ---------------------------------------
    1    -119.7546937804      1.03E-01
    2    -118.9894128279      8.92E-03
    3    -119.0103527973      2.64E-03
    4    -119.0240408890      1.83E-03
    5    -119.0248612350      2.82E-04 Done RCA. Switching to DIIS
    6    -119.0254765616      2.11E-04
    7    -119.0254958323      5.95E-06 Convergence criterion met
 ---------------------------------------
 SCF time:  CPU 21.72 s  wall 8.24 s
 SCF   energy in the small basis set = -119.02549583
 Total energy in the small basis set = -119.02549583
 ----------------------------------------------------
  Cycle       Energy    
 ----------------------------------------------------
    1     -16.5531880126     -1.66E+01
 Long-range K will be added via erf
 Coulomb attenuation parameter = 0.2 bohr**(-1)
 A restricted hybrid HF-DFT SCF calculation will be
 performed using Relaxed Constraint Minimization + Pulay DIIS
 Exchange:     0.2220 Hartree-Fock + 1.0000 wB97X-D + LR-HF
 Correlation:  1.0000 wB97X-D
 Using Euler-Maclaurin-Lebedev (75,302) quadrature formula
 Dispersion:   Grimme D
 SCF converges when DIIS error is below 1.0E-05
 Basis2 calculation detected. Using small basis as guess for larger.
 SCFMinFind is unable to tell whether the solution found is close.
 Resetting ReadMinima to 0 and attempting to follow guess.
 SCFMinFind following SCF Guess.
 using 3 threads for integral computing
 -------------------------------------------------------
 OpenMP Integral computing Module                
 Release: version 1.0, May 2013, Q-Chem Inc. Pittsburgh 
 -------------------------------------------------------
 using 3 threads for integral computing
 -------------------------------------------------------
 OpenMP Integral computing Module                
 Release: version 1.0, May 2013, Q-Chem Inc. Pittsburgh 
 -------------------------------------------------------
 ---------------------------------------
  Cycle       Energy         DIIS Error
 ---------------------------------------
    1    -119.0484344829      4.21E-03
    2    -119.0701924964      5.98E-04 Done RCA. Switching to DIIS
    3    -119.0710310812      4.19E-04
    4    -119.0719844777      4.88E-05
    5    -119.0720011252      1.25E-05
    6    -119.0720021863      4.03E-06 Convergence criterion met
 ---------------------------------------
 SCF time:  CPU 50.35 s  wall 16.81 s
 SCF   energy in the final basis set = -119.07200219
 Total energy in the final basis set = -119.07200219
 
 --------------------------------------------------------------
 
                    Orbital Energies (a.u.)
 --------------------------------------------------------------
 
 Alpha MOs
 -- Occupied --
-10.2804 -10.2711 -10.2711  -0.9065  -0.7788  -0.6780  -0.5676  -0.5238
 -0.4991  -0.4359  -0.4352  -0.4189  -0.3722
 -- Virtual --
  0.0665   0.0862   0.0871   0.0940   0.1253   0.1270   0.1274   0.1344
  0.1426   0.1716   0.1765   0.1957   0.2058   0.2397   0.2456   0.2534
  0.2792   0.2919   0.3110   0.3166   0.3353   0.3585   0.4508   0.4596
  0.4655   0.4835   0.5101   0.5112   0.5479   0.5501   0.5699   0.5959
  0.5988   0.6275   0.6339   0.6506   0.6692   0.6918   0.6965   0.7236
  0.7330   0.7888   0.8386   0.8555   0.8704   0.8981   0.9623   0.9690
  1.0176   1.0266   1.0526   1.1048   1.1214   1.1776   1.2124   1.2199
  1.2274   1.2435   1.3064   1.3188   1.3320   1.3468   1.3623   1.3672
  1.3973   1.4041   1.4123   1.4348   1.4455   1.4850   1.5108   1.5469
  1.5622   1.5727   1.5815   1.6045   1.6294   1.6627   1.6797   1.7254
  1.7474   2.3752   2.4062   2.4246   2.5255   2.5886   2.6131   2.6327
  2.6516   2.6860   2.7806   2.8271   2.8576   2.8599   2.8879   2.9231
  2.9729   2.9762   3.0177   3.0200   3.0508   3.0737   3.0773   3.1022
  3.1682   3.1810   3.1841   3.2083   3.2414   3.2467   3.2906   3.2923
  3.3174   3.3229   3.3541   3.3735   3.3872   3.4287   3.4686   3.5010
  3.5352   3.5469   3.5530   3.5670   3.5756   3.5853   3.5868   3.6088
  3.6389   3.6530   3.6687   3.6955   3.7204   3.7855   3.7859   3.8414
  3.9103   3.9202   3.9273   3.9634   3.9895   4.0010   4.0446   4.0882
  4.1426   4.1476   4.1528   4.1720   4.2213   4.2299   4.2596   4.2903
  4.2941   4.3011   4.3686   4.3870   4.4064   4.4418   4.4742   4.5039
  4.5981   4.6144   4.6146   4.8018   4.8192   4.8684   4.8963   4.9157
  4.9175   4.9726   4.9768   4.9910   5.0215   5.0978   5.1480   5.1540
  5.1766   5.2274   5.2601   5.2973   5.3041   5.3095   5.3895   5.3908
  5.4284   5.4441   5.4833   5.6004   5.6168   5.7194   5.7620   5.8257
  5.9666   6.4091   6.4281   6.4452   6.5065   6.6070  25.1729  25.4239
 25.4521
 --------------------------------------------------------------
 
 -----------------------------------------------------------------
                    Cartesian Multipole Moments
 -----------------------------------------------------------------
    Charge (ESU x 10^10)
                -0.0000
    Dipole Moment (Debye)
         X      -0.0000      Y       0.4574      Z      -0.1218
       Tot       0.4733
    Quadrupole Moments (Debye-Ang)
        XX     -22.1920     XY      -0.0000     YY     -22.3032
        XZ      -0.0000     YZ      -0.3761     ZZ     -21.4468
    Octopole Moments (Debye-Ang^2)
       XXX       0.0000    XXY       2.7068    XYY      -0.0000
       YYY       8.6460    XXZ      -0.5910    XYZ       0.0000
       YYZ       0.6391    XZZ      -0.0000    YZZ       0.8646
       ZZZ      -0.2665
    Hexadecapole Moments (Debye-Ang^3)
      XXXX    -192.8414   XXXY       0.0000   XXYY     -41.8066
      XYYY       0.0000   YYYY     -45.2400   XXXZ      -0.0000
      XXYZ      -3.0142   XYYZ       0.0000   YYYZ      -2.0925
      XXZZ     -42.9120   XYZZ       0.0000   YYZZ     -19.0954
      XZZZ       0.0000   YZZZ      -1.3964   ZZZZ     -68.9854
 -----------------------------------------------------------------
Archival summary:
1\1\centos77-c4\SP\ProcedureUnspecified\BasisUnspecified\38\shihchen\TueJul701:09:512020TueJul701:09:512020\0\\#,ProcedureUnspecified,BasisUnspecified,\\0,1\C\H,1,1.08638\H,1,1.09902,2,103.849\C,1,1.52811,2,124.696,3,-97.4199,0\H,4,1.08791,1,126.996,2,-107.412,0\H,4,1.08964,1,111.587,2,35.4244,0\H,4,1.09685,1,92.4204,2,141.292,0\C,1,1.52811,2,124.696,3,97.4199,0\H,8,1.08791,1,126.996,2,107.412,0\H,8,1.08964,1,111.587,2,-35.4244,0\H,8,1.09685,1,92.4204,2,-141.291,0\\\@

 Total job time:  27.97s(wall), 75.66s(cpu) 
 Tue Jul  7 01:09:51 2020

        *************************************************************
        *                                                           *
        *  Thank you very much for using Q-Chem.  Have a nice day.  *
        *                                                           *
        *************************************************************


