                  Welcome to Q-Chem
     A Quantum Leap Into The Future Of Chemistry


 Q-Chem 5.3 (devel), Q-Chem, Inc., Pleasanton, CA (2020)

 Yihan Shao,  Zhengting Gan,  E. Epifanovsky,  A. T. B. Gilbert,  M. Wormit,  
 J. Kussmann,  A. W. Lange,  A. Behn,  Jia Deng,  Xintian Feng,  D. Ghosh,  
 M. Goldey,  P. R. Horn,  L. D. Jacobson,  I. Kaliman,  T. Kus,  A. Landau,  
 Jie Liu,  E. I. Proynov,  R. M. Richard,  R. P. Steele,  E. J. Sundstrom,  
 H. L. Woodcock III,  P. M. Zimmerman,  D. Zuev,  B. Alam,  B. Albrecht,  
 E. Alguire,  S. A. Baeppler,  D. Barton,  Z. Benda,  Y. A. Bernard,  
 E. J. Berquist,  K. B. Bravaya,  H. Burton,  K. Carter-Fenk,  D. Casanova,  
 Chun-Min Chang,  Yunqing Chen,  A. Chien,  K. D. Closser,  M. P. Coons,  
 S. Coriani,  S. Dasgupta,  A. L. Dempwolff,  M. Diedenhofen,  Hainam Do,  
 R. G. Edgar,  Po-Tung Fang,  S. Faraji,  S. Fatehi,  Qingguo Feng,  
 J. Fosso-Tande,  J. Gayvert,  Qinghui Ge,  A. Ghysels,  G. Gidofalvi,  
 J. Gomes,  J. Gonthier,  A. Gunina,  D. Hait,  M. W. D. Hanson-Heine,  
 P. H. P. Harbach,  A. W. Hauser,  M. F. Herbst,  J. E. Herr,  
 E. G. Hohenstein,  Z. C. Holden,  Kerwin Hui,  B. C. Huynh,  T.-C. Jagau,  
 Hyunjun Ji,  B. Kaduk,  K. Khistyaev,  Jaehoon Kim,  P. Klunzinger,  K. Koh,  
 D. Kosenkov,  L. Koulias,  T. Kowalczyk,  C. M. Krauter,  A. Kunitsa,  
 Ka Un Lao,  A. Laurent,  K. V. Lawler,  Joonho Lee,  D. Lefrancois,  
 S. Lehtola,  D. S. Levine,  Yi-Pei Li,  You-Sheng Lin,  Fenglai Liu,  
 Kuan-Yu Liu,  E. Livshits,  M. Loipersberger,  A. Luenser,  P. Manohar,  
 E. Mansoor,  S. F. Manzer,  Shan-Ping Mao,  Yuezhi Mao,  N. Mardirossian,  
 A. V. Marenich,  T. Markovich,  L. A. Martinez-Martinez,  S. A. Maurer,  
 N. J. Mayhall,  S. C. McKenzie,  J.-M. Mewes,  P. Morgante,  A. F. Morrison,  
 J. W. Mullinax,  K. Nanda,  T. S. Nguyen-Beck,  R. Olivares-Amaya,  
 K. J. Oosterbaan,  J. A. Parkhill,  S. K. Paul,  F. Pavosevic,  Zheng Pei,  
 T. M. Perrine,  F. Plasser,  P. Pokhilko,  S. Prager,  A. Prociuk,  
 E. Ramos,  B. Rana,  D. R. Rehn,  F. Rob,  M. Scheurer,  M. Schneider,  
 N. Sergueev,  S. M. Sharada,  S. Sharma,  D. W. Small,  T. Stauch,  
 C. J. Stein,  T. Stein,  Yu-Chuan Su,  S. P. Veccham,  Zhen Tao,  
 A. J. W. Thom,  A. Tkatchenko,  T. Tsuchimochi,  N. M. Tubman,  L. Vogt,  
 M. L. Vidal,  O. Vydrov,  M. A. Watson,  J. Wenzel,  M. de Wergifosse,  
 T. A. Wesolowski,  A. White,  J. Witte,  A. Yamada,  Jun Yang,  K. Yao,  
 S. Yeganeh,  S. R. Yost,  Zhi-Qiang You,  A. Zech,  Igor Ying Zhang,  
 Xing Zhang,  Yan Zhao,  Ying Zhu,  B. R. Brooks,  G. K. L. Chan,  
 C. J. Cramer,  M. S. Gordon,  W. J. Hehre,  A. Klamt,  M. W. Schmidt,  
 C. D. Sherrill,  D. G. Truhlar,  A. Aspuru-Guzik,  R. Baer,  A. T. Bell,  
 N. A. Besley,  Jeng-Da Chai,  A. E. DePrince, III,  R. A. DiStasio Jr.,  
 A. Dreuw,  B. D. Dunietz,  T. R. Furlani,  Chao-Ping Hsu,  Yousung Jung,  
 Jing Kong,  D. S. Lambrecht,  WanZhen Liang,  C. Ochsenfeld,  
 V. A. Rassolov,  L. V. Slipchenko,  J. E. Subotnik,  T. Van Voorhis,  
 J. M. Herbert,  A. I. Krylov,  P. M. W. Gill,  M. Head-Gordon

 Contributors to earlier versions of Q-Chem not listed above: 
 R. D. Adamson,  B. Austin,  J. Baker,  G. J. O. Beran,  K. Brandhorst,  
 S. T. Brown,  E. F. C. Byrd,  A. K. Chakraborty,  C.-L. Cheng,  
 Siu Hung Chien,  D. M. Chipman,  D. L. Crittenden,  H. Dachsel,  
 R. J. Doerksen,  A. D. Dutoi,  L. Fusti-Molnar,  W. A. Goddard III,  
 A. Golubeva-Zadorozhnaya,  S. R. Gwaltney,  G. Hawkins,  A. Heyden,  
 S. Hirata,  G. Kedziora,  F. J. Keil,  C. Kelley,  Jihan Kim,  R. A. King,  
 R. Z. Khaliullin,  P. P. Korambath,  W. Kurlancheek,  A. M. Lee,  M. S. Lee,  
 S. V. Levchenko,  Ching Yeh Lin,  D. Liotard,  R. C. Lochan,  I. Lotan,  
 P. E. Maslen,  N. Nair,  D. P. O'Neill,  D. Neuhauser,  E. Neuscamman,  
 C. M. Oana,  R. Olson,  B. Peters,  R. Peverati,  P. A. Pieniazek,  
 Y. M. Rhee,  J. Ritchie,  M. A. Rohrdanz,  E. Rosta,  N. J. Russ,  
 H. F. Schaefer III,  N. E. Schultz,  N. Shenvi,  A. C. Simmonett,  A. Sodt,  
 D. Stuck,  K. S. Thanthiriwatte,  V. Vanovschi,  Tao Wang,  A. Warshel,  
 C. F. Williams,  Q. Wu,  X. Xu,  W. Zhang

 Please cite Q-Chem as follows:
 Y. Shao et al., Mol. Phys. 113, 184-215 (2015)
 DOI: 10.1080/00268976.2014.952696

 Q-Chem 5.3.0 for Intel X86 EM64T Linux

 Parts of Q-Chem use Armadillo 9.800.1 (Horizon Scraper).
 http://arma.sourceforge.net/

 Q-Chem begins on Tue Jul  7 01:57:31 2020  

Host: centos77-c4
0

     Scratch files written to /tmp/26964.centos77-h1/qchem106277//
Processing $rem in /opt/qchem-5.3.0-intel2020u1//config/preferences:
Processing $rem in /home/shihchengli/.qchemrc:

Checking the input file for inconsistencies... 	...done.

--------------------------------------------------------------
User input:
--------------------------------------------------------------
$rem
   JOBTYPE  sp
   EXCHANGE   omegaB97X-D
   BASIS   6-311+G(2df,2pd)
   UNRESTRICTED   False
   max_scf_cycles   250
   geom_opt_max_cycles   1500
   basis2 6-31G*
   scf_algorithm rca_diis
   SYM_IGNORE  TRUE
   print_input   true
   geom_opt_dmax   80
   pop_mulliken false
   XC_GRID 000075000302
$end

$molecule
0 1
C       1.2329049291     0.0008061559     0.1957839952
C       -0.0000004687     -0.0015565405     -0.6227236453
H       1.4391616572     -0.8091741871     0.9045804728
H       1.4281706193     0.8074922702     0.9113146607
H       2.2289189324     0.0060866812     -0.2581632259
C       -1.2329059404     0.0008059150     0.1957842719
H       0.0000003793     -0.8809049951     -1.2677154014
H       -0.0000006266     0.8720403574     -1.2755479764
H       -1.4391608449     -0.8091752351     0.9045802742
H       -2.2289186863     0.0060895953     -0.2581652474
H       -1.4281700110     0.8074906489     0.9113168405
$end
--------------------------------------------------------------
 ----------------------------------------------------------------
             Standard Nuclear Orientation (Angstroms)
    I     Atom           X                Y                Z
 ----------------------------------------------------------------
    1      C       1.2329049291     0.0008061559     0.1957839952
    2      C      -0.0000004687    -0.0015565405    -0.6227236453
    3      H       1.4391616572    -0.8091741871     0.9045804728
    4      H       1.4281706193     0.8074922702     0.9113146607
    5      H       2.2289189324     0.0060866812    -0.2581632259
    6      C      -1.2329059404     0.0008059150     0.1957842719
    7      H       0.0000003793    -0.8809049951    -1.2677154014
    8      H      -0.0000006266     0.8720403574    -1.2755479764
    9      H      -1.4391608449    -0.8091752351     0.9045802742
   10      H      -2.2289186863     0.0060895953    -0.2581652474
   11      H      -1.4281700110     0.8074906489     0.9113168405
 ----------------------------------------------------------------
 Nuclear Repulsion Energy =          83.31731187 hartrees
 There are       13 alpha and       13 beta electrons
 Requested basis set is 6-311+G(2df,2pd)
 There are 72 shells and 214 basis functions

 Total QAlloc Memory Limit   2000 MB
 Mega-Array Size       188 MB
 MEM_STATIC part       192 MB

                       Distance Matrix (Angstroms)
             C (  1)   C (  2)   H (  3)   H (  4)   H (  5)   C (  6)
   C (  2)  1.479870
   H (  3)  1.095903  2.248575
   H (  4)  1.095835  2.246666  1.616718
   H (  5)  1.094596  2.258549  1.624912  1.628228
   C (  6)  2.465811  1.479870  2.880695  2.871246  3.491465
   H (  7)  2.106964  1.090536  2.606760  3.104598  2.602696  2.106965
   H (  8)  2.108061  1.090574  3.106546  2.612701  2.598659  2.108062
   H (  9)  2.880694  2.248575  2.878323  3.291694  3.933374  1.095903
   H ( 10)  3.491464  2.258548  3.933376  3.922274  4.457838  1.094596
   H ( 11)  2.871245  2.246665  3.291693  2.856341  3.922274  1.095835
             H (  7)   H (  8)   H (  9)   H ( 10)
   H (  8)  1.752963
   H (  9)  2.606760  3.106546
   H ( 10)  2.602697  2.598656  1.624916
   H ( 11)  3.104599  2.612702  1.616717  1.628229
 
 A cutoff of  1.0D-09 yielded   2522 shell pairs
 There are     22492 function pairs (     27661 Cartesian)
 Smallest overlap matrix eigenvalue = 8.13E-05

 Scale SEOQF with 1.000000e-01/1.000000e-01/1.000000e-01

 Standard Electronic Orientation quadrupole field applied
 Nucleus-field energy     =     0.0000000006 hartrees
 Requested basis set is 6-31G(d)
 There are 28 shells and 58 basis functions
 A cutoff of  1.0D-09 yielded    402 shell pairs
 There are      1773 function pairs (      1968 Cartesian)
 Smallest overlap matrix eigenvalue = 7.05E-03
 Guess from superposition of atomic densities
 Warning:  Energy on first SCF cycle will be non-variational
 SAD guess density has 26.000000 electrons
 Long-range K will be added via erf
 Coulomb attenuation parameter = 0.2 bohr**(-1)
 A restricted hybrid HF-DFT SCF calculation will be
 performed using Relaxed Constraint Minimization + Pulay DIIS
 Exchange:     0.2220 Hartree-Fock + 1.0000 wB97X-D + LR-HF
 Correlation:  1.0000 wB97X-D
 Using Euler-Maclaurin-Lebedev (75,302) quadrature formula
 Dispersion:   Grimme D
 SCF converges when DIIS error is below 1.0E-04
 using 3 threads for integral computing
 -------------------------------------------------------
 OpenMP Integral computing Module                
 Release: version 1.0, May 2013, Q-Chem Inc. Pittsburgh 
 -------------------------------------------------------
 using 3 threads for integral computing
 -------------------------------------------------------
 OpenMP Integral computing Module                
 Release: version 1.0, May 2013, Q-Chem Inc. Pittsburgh 
 -------------------------------------------------------
 ---------------------------------------
  Cycle       Energy         DIIS Error
 ---------------------------------------
    1    -119.7310105734      1.04E-01
    2    -119.0357597626      9.26E-03
    3    -119.0572247174      2.35E-03
    4    -119.0729192991      1.58E-03
    5    -119.0735154991      2.10E-04 Done RCA. Switching to DIIS
    6    -119.0739957574      1.51E-04
    7    -119.0740059354      4.75E-06 Convergence criterion met
 ---------------------------------------
 SCF time:  CPU 21.91 s  wall 8.38 s
 SCF   energy in the small basis set = -119.07400594
 Total energy in the small basis set = -119.07400594
 ----------------------------------------------------
  Cycle       Energy    
 ----------------------------------------------------
    1     -16.5578223922     -1.66E+01
 Long-range K will be added via erf
 Coulomb attenuation parameter = 0.2 bohr**(-1)
 A restricted hybrid HF-DFT SCF calculation will be
 performed using Relaxed Constraint Minimization + Pulay DIIS
 Exchange:     0.2220 Hartree-Fock + 1.0000 wB97X-D + LR-HF
 Correlation:  1.0000 wB97X-D
 Using Euler-Maclaurin-Lebedev (75,302) quadrature formula
 Dispersion:   Grimme D
 SCF converges when DIIS error is below 1.0E-05
 Basis2 calculation detected. Using small basis as guess for larger.
 SCFMinFind is unable to tell whether the solution found is close.
 Resetting ReadMinima to 0 and attempting to follow guess.
 SCFMinFind following SCF Guess.
 using 3 threads for integral computing
 -------------------------------------------------------
 OpenMP Integral computing Module                
 Release: version 1.0, May 2013, Q-Chem Inc. Pittsburgh 
 -------------------------------------------------------
 using 3 threads for integral computing
 -------------------------------------------------------
 OpenMP Integral computing Module                
 Release: version 1.0, May 2013, Q-Chem Inc. Pittsburgh 
 -------------------------------------------------------
 ---------------------------------------
  Cycle       Energy         DIIS Error
 ---------------------------------------
    1    -119.0953251310      4.20E-03
    2    -119.1172645908      5.84E-04 Done RCA. Switching to DIIS
    3    -119.1180133909      4.16E-04
    4    -119.1189540882      5.20E-05
    5    -119.1189723512      1.04E-05
    6    -119.1189731226      3.94E-06 Convergence criterion met
 ---------------------------------------
 SCF time:  CPU 48.93 s  wall 16.34 s
 SCF   energy in the final basis set = -119.11897312
 Total energy in the final basis set = -119.11897312
 
 --------------------------------------------------------------
 
                    Orbital Energies (a.u.)
 --------------------------------------------------------------
 
 Alpha MOs
 -- Occupied --
-10.2812 -10.2637 -10.2637  -0.8911  -0.7858  -0.6984  -0.5418  -0.5289
 -0.5008  -0.4424  -0.4213  -0.4187  -0.3968
 -- Virtual --
  0.0662   0.0811   0.0904   0.1023   0.1271   0.1272   0.1360   0.1415
  0.1486   0.1714   0.1727   0.1954   0.2326   0.2349   0.2358   0.2758
  0.2784   0.2841   0.2982   0.3193   0.3309   0.3790   0.4558   0.4661
  0.4831   0.5142   0.5167   0.5378   0.5705   0.5712   0.5752   0.5756
  0.6352   0.6363   0.6537   0.6537   0.6551   0.6575   0.7140   0.7260
  0.7298   0.7682   0.8223   0.8312   0.8447   0.8826   0.9021   1.0012
  1.0222   1.0281   1.0515   1.1133   1.1221   1.1891   1.2229   1.2441
  1.2453   1.2584   1.2639   1.2932   1.2939   1.3226   1.3409   1.3470
  1.3617   1.4078   1.4187   1.4560   1.4655   1.4842   1.4871   1.5115
  1.5389   1.5877   1.6114   1.6311   1.6523   1.7075   1.7158   1.7727
  1.8162   2.3873   2.4060   2.4520   2.4576   2.5289   2.5362   2.5776
  2.5828   2.7245   2.7861   2.8017   2.8143   2.8482   2.8690   2.9243
  2.9256   2.9368   2.9724   3.0569   3.0921   3.1093   3.1460   3.1501
  3.1591   3.1725   3.1769   3.2012   3.2306   3.2336   3.2501   3.2826
  3.3429   3.3624   3.4085   3.4211   3.4393   3.4551   3.4739   3.4801
  3.4936   3.5160   3.5346   3.5422   3.5533   3.5543   3.5605   3.5882
  3.5944   3.6030   3.6234   3.6400   3.7239   3.7288   3.7754   3.8187
  3.8704   3.9088   3.9154   3.9324   3.9600   4.0436   4.0593   4.0786
  4.1074   4.1347   4.1921   4.1942   4.2146   4.2308   4.2483   4.2627
  4.2707   4.3572   4.3847   4.3892   4.4209   4.4324   4.4345   4.4381
  4.4840   4.5632   4.6058   4.6445   4.6458   4.6459   4.7194   4.7669
  4.8782   4.9380   4.9616   4.9972   5.0201   5.0274   5.0490   5.0591
  5.1879   5.1886   5.1973   5.2423   5.3441   5.3789   5.3963   5.5053
  5.5184   5.5338   5.5819   5.6147   5.6708   5.6932   5.7107   5.8494
  6.0122   6.4260   6.4511   6.4529   6.4953   6.5061  25.2583  25.4456
 25.4614
 --------------------------------------------------------------
 
 -----------------------------------------------------------------
                    Cartesian Multipole Moments
 -----------------------------------------------------------------
    Charge (ESU x 10^10)
                 0.0000
    Dipole Moment (Debye)
         X       0.0000      Y      -0.0025      Z       0.0186
       Tot       0.0187
    Quadrupole Moments (Debye-Ang)
        XX     -21.0079     XY      -0.0000     YY     -22.0104
        XZ       0.0000     YZ       0.0025     ZZ     -21.6711
    Octopole Moments (Debye-Ang^2)
       XXX       0.0000    XXY      -0.0267    XYY       0.0000
       YYY      -0.0211    XXZ       2.3528    XYZ       0.0000
       YYZ       0.3658    XZZ      -0.0000    YZZ       0.0200
       ZZZ       1.7536
    Hexadecapole Moments (Debye-Ang^3)
      XXXX    -196.6982   XXXY      -0.0000   XXYY     -43.1090
      XYYY       0.0000   YYYY     -43.8045   XXXZ       0.0000
      XXYZ      -0.0403   XYYZ      -0.0000   YYYZ      -0.0290
      XXZZ     -44.9653   XYZZ      -0.0000   YYZZ     -16.9616
      XZZZ      -0.0000   YZZZ      -0.0421   ZZZZ     -70.8916
 -----------------------------------------------------------------
Archival summary:
1\1\centos77-c4\SP\ProcedureUnspecified\BasisUnspecified\38\shihchen\TueJul701:57:582020TueJul701:57:582020\0\\#,ProcedureUnspecified,BasisUnspecified,\\0,1\C\H,1,1.09054\H,1,1.09057,2,106.97\C,1,1.47987,2,109.172,3,-118.111,0\H,4,1.0946,1,121.919,2,58.8237,0\H,4,1.09584,1,120.715,2,179.761,0\H,4,1.0959,1,120.887,2,-61.8813,0\C,1,1.47987,2,109.172,3,118.111,0\H,8,1.0946,1,121.919,2,-58.824,0\H,8,1.09584,1,120.715,2,-179.761,0\H,8,1.0959,1,120.887,2,61.8812,0\\\@

 Total job time:  27.57s(wall), 74.34s(cpu) 
 Tue Jul  7 01:57:58 2020

        *************************************************************
        *                                                           *
        *  Thank you very much for using Q-Chem.  Have a nice day.  *
        *                                                           *
        *************************************************************


