                  Welcome to Q-Chem
     A Quantum Leap Into The Future Of Chemistry


 Q-Chem 5.3 (devel), Q-Chem, Inc., Pleasanton, CA (2020)

 Yihan Shao,  Zhengting Gan,  E. Epifanovsky,  A. T. B. Gilbert,  M. Wormit,  
 J. Kussmann,  A. W. Lange,  A. Behn,  Jia Deng,  Xintian Feng,  D. Ghosh,  
 M. Goldey,  P. R. Horn,  L. D. Jacobson,  I. Kaliman,  T. Kus,  A. Landau,  
 Jie Liu,  E. I. Proynov,  R. M. Richard,  R. P. Steele,  E. J. Sundstrom,  
 H. L. Woodcock III,  P. M. Zimmerman,  D. Zuev,  B. Alam,  B. Albrecht,  
 E. Alguire,  S. A. Baeppler,  D. Barton,  Z. Benda,  Y. A. Bernard,  
 E. J. Berquist,  K. B. Bravaya,  H. Burton,  K. Carter-Fenk,  D. Casanova,  
 Chun-Min Chang,  Yunqing Chen,  A. Chien,  K. D. Closser,  M. P. Coons,  
 S. Coriani,  S. Dasgupta,  A. L. Dempwolff,  M. Diedenhofen,  Hainam Do,  
 R. G. Edgar,  Po-Tung Fang,  S. Faraji,  S. Fatehi,  Qingguo Feng,  
 J. Fosso-Tande,  J. Gayvert,  Qinghui Ge,  A. Ghysels,  G. Gidofalvi,  
 J. Gomes,  J. Gonthier,  A. Gunina,  D. Hait,  M. W. D. Hanson-Heine,  
 P. H. P. Harbach,  A. W. Hauser,  M. F. Herbst,  J. E. Herr,  
 E. G. Hohenstein,  Z. C. Holden,  Kerwin Hui,  B. C. Huynh,  T.-C. Jagau,  
 Hyunjun Ji,  B. Kaduk,  K. Khistyaev,  Jaehoon Kim,  P. Klunzinger,  K. Koh,  
 D. Kosenkov,  L. Koulias,  T. Kowalczyk,  C. M. Krauter,  A. Kunitsa,  
 Ka Un Lao,  A. Laurent,  K. V. Lawler,  Joonho Lee,  D. Lefrancois,  
 S. Lehtola,  D. S. Levine,  Yi-Pei Li,  You-Sheng Lin,  Fenglai Liu,  
 Kuan-Yu Liu,  E. Livshits,  M. Loipersberger,  A. Luenser,  P. Manohar,  
 E. Mansoor,  S. F. Manzer,  Shan-Ping Mao,  Yuezhi Mao,  N. Mardirossian,  
 A. V. Marenich,  T. Markovich,  L. A. Martinez-Martinez,  S. A. Maurer,  
 N. J. Mayhall,  S. C. McKenzie,  J.-M. Mewes,  P. Morgante,  A. F. Morrison,  
 J. W. Mullinax,  K. Nanda,  T. S. Nguyen-Beck,  R. Olivares-Amaya,  
 K. J. Oosterbaan,  J. A. Parkhill,  S. K. Paul,  F. Pavosevic,  Zheng Pei,  
 T. M. Perrine,  F. Plasser,  P. Pokhilko,  S. Prager,  A. Prociuk,  
 E. Ramos,  B. Rana,  D. R. Rehn,  F. Rob,  M. Scheurer,  M. Schneider,  
 N. Sergueev,  S. M. Sharada,  S. Sharma,  D. W. Small,  T. Stauch,  
 C. J. Stein,  T. Stein,  Yu-Chuan Su,  S. P. Veccham,  Zhen Tao,  
 A. J. W. Thom,  A. Tkatchenko,  T. Tsuchimochi,  N. M. Tubman,  L. Vogt,  
 M. L. Vidal,  O. Vydrov,  M. A. Watson,  J. Wenzel,  M. de Wergifosse,  
 T. A. Wesolowski,  A. White,  J. Witte,  A. Yamada,  Jun Yang,  K. Yao,  
 S. Yeganeh,  S. R. Yost,  Zhi-Qiang You,  A. Zech,  Igor Ying Zhang,  
 Xing Zhang,  Yan Zhao,  Ying Zhu,  B. R. Brooks,  G. K. L. Chan,  
 C. J. Cramer,  M. S. Gordon,  W. J. Hehre,  A. Klamt,  M. W. Schmidt,  
 C. D. Sherrill,  D. G. Truhlar,  A. Aspuru-Guzik,  R. Baer,  A. T. Bell,  
 N. A. Besley,  Jeng-Da Chai,  A. E. DePrince, III,  R. A. DiStasio Jr.,  
 A. Dreuw,  B. D. Dunietz,  T. R. Furlani,  Chao-Ping Hsu,  Yousung Jung,  
 Jing Kong,  D. S. Lambrecht,  WanZhen Liang,  C. Ochsenfeld,  
 V. A. Rassolov,  L. V. Slipchenko,  J. E. Subotnik,  T. Van Voorhis,  
 J. M. Herbert,  A. I. Krylov,  P. M. W. Gill,  M. Head-Gordon

 Contributors to earlier versions of Q-Chem not listed above: 
 R. D. Adamson,  B. Austin,  J. Baker,  G. J. O. Beran,  K. Brandhorst,  
 S. T. Brown,  E. F. C. Byrd,  A. K. Chakraborty,  C.-L. Cheng,  
 Siu Hung Chien,  D. M. Chipman,  D. L. Crittenden,  H. Dachsel,  
 R. J. Doerksen,  A. D. Dutoi,  L. Fusti-Molnar,  W. A. Goddard III,  
 A. Golubeva-Zadorozhnaya,  S. R. Gwaltney,  G. Hawkins,  A. Heyden,  
 S. Hirata,  G. Kedziora,  F. J. Keil,  C. Kelley,  Jihan Kim,  R. A. King,  
 R. Z. Khaliullin,  P. P. Korambath,  W. Kurlancheek,  A. M. Lee,  M. S. Lee,  
 S. V. Levchenko,  Ching Yeh Lin,  D. Liotard,  R. C. Lochan,  I. Lotan,  
 P. E. Maslen,  N. Nair,  D. P. O'Neill,  D. Neuhauser,  E. Neuscamman,  
 C. M. Oana,  R. Olson,  B. Peters,  R. Peverati,  P. A. Pieniazek,  
 Y. M. Rhee,  J. Ritchie,  M. A. Rohrdanz,  E. Rosta,  N. J. Russ,  
 H. F. Schaefer III,  N. E. Schultz,  N. Shenvi,  A. C. Simmonett,  A. Sodt,  
 D. Stuck,  K. S. Thanthiriwatte,  V. Vanovschi,  Tao Wang,  A. Warshel,  
 C. F. Williams,  Q. Wu,  X. Xu,  W. Zhang

 Please cite Q-Chem as follows:
 Y. Shao et al., Mol. Phys. 113, 184-215 (2015)
 DOI: 10.1080/00268976.2014.952696

 Q-Chem 5.3.0 for Intel X86 EM64T Linux

 Parts of Q-Chem use Armadillo 9.800.1 (Horizon Scraper).
 http://arma.sourceforge.net/

 Q-Chem begins on Tue Jul  7 02:46:36 2020  

Host: centos77-c4
0

     Scratch files written to /tmp/26964.centos77-h1/qchem114602//
Processing $rem in /opt/qchem-5.3.0-intel2020u1//config/preferences:
Processing $rem in /home/shihchengli/.qchemrc:

Checking the input file for inconsistencies... 	...done.

--------------------------------------------------------------
User input:
--------------------------------------------------------------
$rem
   JOBTYPE  sp
   EXCHANGE   omegaB97X-D
   BASIS   6-311+G(2df,2pd)
   UNRESTRICTED   False
   max_scf_cycles   250
   geom_opt_max_cycles   1500
   basis2 6-31G*
   scf_algorithm rca_diis
   SYM_IGNORE  TRUE
   print_input   true
   geom_opt_dmax   80
   pop_mulliken false
   XC_GRID 000075000302
$end

$molecule
0 1
C       1.2787357045     -0.0002053855     0.2102802871
C       0.0000001936     -0.0060545563     -0.6245463517
H       1.3177342473     -0.9419348129     0.9028882161
H       1.3007826150     0.9430931993     0.9216577164
H       2.0182397755     0.0105416120     -0.2937961143
C       -1.2787343836     -0.0002052801     0.2102816712
H       -0.0000000445     -0.8568694888     -1.2501228641
H       -0.0000000365     0.8399343378     -1.2663439088
H       -1.3177324887     -0.9419323349     0.9028881282
H       -2.0182442357     0.0105419630     -0.2937981928
H       -1.3007814076     0.9430914125     0.9216564316
$end
--------------------------------------------------------------
 ----------------------------------------------------------------
             Standard Nuclear Orientation (Angstroms)
    I     Atom           X                Y                Z
 ----------------------------------------------------------------
    1      C       1.2787357045    -0.0002053855     0.2102802871
    2      C       0.0000001936    -0.0060545563    -0.6245463517
    3      H       1.3177342473    -0.9419348129     0.9028882161
    4      H       1.3007826150     0.9430931993     0.9216577164
    5      H       2.0182397755     0.0105416120    -0.2937961143
    6      C      -1.2787343836    -0.0002052801     0.2102816712
    7      H      -0.0000000445    -0.8568694888    -1.2501228641
    8      H      -0.0000000365     0.8399343378    -1.2663439088
    9      H      -1.3177324887    -0.9419323349     0.9028881282
   10      H      -2.0182442357     0.0105419630    -0.2937981928
   11      H      -1.3007814076     0.9430914125     0.9216564316
 ----------------------------------------------------------------
 Nuclear Repulsion Energy =          83.41520416 hartrees
 There are       13 alpha and       13 beta electrons
 Requested basis set is 6-311+G(2df,2pd)
 There are 72 shells and 214 basis functions

 Total QAlloc Memory Limit   2000 MB
 Mega-Array Size       188 MB
 MEM_STATIC part       192 MB

                       Distance Matrix (Angstroms)
             C (  1)   C (  2)   H (  3)   H (  4)   H (  5)   C (  6)
   C (  2)  1.527133
   H (  3)  1.169650  2.223815
   H (  4)  1.181675  2.232412  1.885198
   H (  5)  0.895028  2.045229  1.682252  1.691663
   C (  6)  2.557470  1.527133  2.847491  2.837213  3.335303
   H (  7)  2.121748  1.056045  2.525691  3.106209  2.395883  2.121748
   H (  8)  2.126363  1.061886  3.101137  2.547553  2.388940  2.126363
   H (  9)  2.847491  2.223813  2.635467  3.226499  3.669873  1.169647
   H ( 10)  3.335309  2.045234  3.669880  3.655533  4.036484  0.895035
   H ( 11)  2.837212  2.232410  3.226500  2.601564  3.655527  1.181672
             H (  7)   H (  8)   H (  9)   H ( 10)
   H (  8)  1.696881
   H (  9)  2.525690  3.101135
   H ( 10)  2.395886  2.388943  1.682255
   H ( 11)  3.106206  2.547552  1.885193  1.691665
 
 A cutoff of  1.0D-09 yielded   2532 shell pairs
 There are     22622 function pairs (     27837 Cartesian)
 Smallest overlap matrix eigenvalue = 9.11E-05

 Scale SEOQF with 1.000000e-01/1.000000e-01/1.000000e-01

 Standard Electronic Orientation quadrupole field applied
 Nucleus-field energy     =     0.0000000006 hartrees
 Requested basis set is 6-31G(d)
 There are 28 shells and 58 basis functions
 A cutoff of  1.0D-09 yielded    403 shell pairs
 There are      1774 function pairs (      1969 Cartesian)
 Smallest overlap matrix eigenvalue = 6.42E-03
 Guess from superposition of atomic densities
 Warning:  Energy on first SCF cycle will be non-variational
 SAD guess density has 26.000000 electrons
 Long-range K will be added via erf
 Coulomb attenuation parameter = 0.2 bohr**(-1)
 A restricted hybrid HF-DFT SCF calculation will be
 performed using Relaxed Constraint Minimization + Pulay DIIS
 Exchange:     0.2220 Hartree-Fock + 1.0000 wB97X-D + LR-HF
 Correlation:  1.0000 wB97X-D
 Using Euler-Maclaurin-Lebedev (75,302) quadrature formula
 Dispersion:   Grimme D
 SCF converges when DIIS error is below 1.0E-04
 using 3 threads for integral computing
 -------------------------------------------------------
 OpenMP Integral computing Module                
 Release: version 1.0, May 2013, Q-Chem Inc. Pittsburgh 
 -------------------------------------------------------
 using 3 threads for integral computing
 -------------------------------------------------------
 OpenMP Integral computing Module                
 Release: version 1.0, May 2013, Q-Chem Inc. Pittsburgh 
 -------------------------------------------------------
 ---------------------------------------
  Cycle       Energy         DIIS Error
 ---------------------------------------
    1    -119.6537608912      1.05E-01
    2    -118.9699264781      9.82E-03
    3    -118.9959789302      2.87E-03
    4    -119.0121578654      1.95E-03
    5    -119.0131148494      3.42E-04 Done RCA. Switching to DIIS
    6    -119.0137865296      2.47E-04
    7    -119.0138130521      6.70E-06 Convergence criterion met
 ---------------------------------------
 SCF time:  CPU 20.32 s  wall 7.56 s
 SCF   energy in the small basis set = -119.01381305
 Total energy in the small basis set = -119.01381305
 ----------------------------------------------------
  Cycle       Energy    
 ----------------------------------------------------
    1     -16.6060457579     -1.66E+01
 Long-range K will be added via erf
 Coulomb attenuation parameter = 0.2 bohr**(-1)
 A restricted hybrid HF-DFT SCF calculation will be
 performed using Relaxed Constraint Minimization + Pulay DIIS
 Exchange:     0.2220 Hartree-Fock + 1.0000 wB97X-D + LR-HF
 Correlation:  1.0000 wB97X-D
 Using Euler-Maclaurin-Lebedev (75,302) quadrature formula
 Dispersion:   Grimme D
 SCF converges when DIIS error is below 1.0E-05
 Basis2 calculation detected. Using small basis as guess for larger.
 SCFMinFind is unable to tell whether the solution found is close.
 Resetting ReadMinima to 0 and attempting to follow guess.
 SCFMinFind following SCF Guess.
 using 3 threads for integral computing
 -------------------------------------------------------
 OpenMP Integral computing Module                
 Release: version 1.0, May 2013, Q-Chem Inc. Pittsburgh 
 -------------------------------------------------------
 using 3 threads for integral computing
 -------------------------------------------------------
 OpenMP Integral computing Module                
 Release: version 1.0, May 2013, Q-Chem Inc. Pittsburgh 
 -------------------------------------------------------
 ---------------------------------------
  Cycle       Energy         DIIS Error
 ---------------------------------------
    1    -119.0376741975      4.22E-03
    2    -119.0596198720      5.86E-04 Done RCA. Switching to DIIS
    3    -119.0604557673      4.01E-04
    4    -119.0613340593      4.37E-05
    5    -119.0613478970      8.57E-06 Convergence criterion met
 ---------------------------------------
 SCF time:  CPU 42.51 s  wall 14.20 s
 SCF   energy in the final basis set = -119.06134790
 Total energy in the final basis set = -119.06134790
 
 --------------------------------------------------------------
 
                    Orbital Energies (a.u.)
 --------------------------------------------------------------
 
 Alpha MOs
 -- Occupied --
-10.2684 -10.2595 -10.2595  -0.8857  -0.7926  -0.6871  -0.5525  -0.5410
 -0.4812  -0.4436  -0.4382  -0.4174  -0.4025
 -- Virtual --
  0.0700   0.0821   0.0920   0.0998   0.1224   0.1305   0.1357   0.1404
  0.1431   0.1711   0.1751   0.1894   0.2150   0.2216   0.2597   0.2701
  0.2767   0.2991   0.3126   0.3135   0.3489   0.3493   0.4466   0.4626
  0.4795   0.5077   0.5160   0.5245   0.5434   0.5643   0.5686   0.5729
  0.6297   0.6360   0.6406   0.6547   0.6641   0.6749   0.7153   0.7466
  0.7565   0.7738   0.8205   0.8561   0.8590   0.8882   0.8929   0.9468
  1.0160   1.0458   1.0785   1.1536   1.1729   1.1943   1.1971   1.1975
  1.2271   1.2289   1.2672   1.2778   1.2817   1.2915   1.3285   1.3807
  1.3875   1.4189   1.4333   1.4395   1.4495   1.4618   1.4671   1.5067
  1.5253   1.5546   1.5881   1.6249   1.6495   1.6808   1.7223   1.7440
  1.7773   2.3549   2.3570   2.4471   2.4714   2.5490   2.5721   2.6586
  2.7073   2.7233   2.8286   2.8343   2.8730   2.8775   2.9226   2.9353
  2.9470   2.9552   2.9686   3.0256   3.0398   3.0477   3.0502   3.1035
  3.1670   3.1845   3.1855   3.2258   3.2331   3.2468   3.2899   3.2905
  3.3174   3.3264   3.3329   3.3356   3.3427   3.3484   3.3844   3.4749
  3.4782   3.4939   3.5092   3.5162   3.5446   3.5525   3.5780   3.6076
  3.6357   3.6936   3.7121   3.7447   3.7808   3.7928   3.8743   3.9088
  3.9243   3.9271   3.9391   3.9541   3.9898   3.9962   4.0327   4.0555
  4.0882   4.1117   4.1265   4.1578   4.1671   4.2155   4.2200   4.2377
  4.2457   4.2522   4.3302   4.3314   4.3521   4.3695   4.4543   4.4637
  4.5556   4.5687   4.5784   4.5811   4.6255   4.7333   4.8090   4.8249
  4.8479   4.9168   4.9782   4.9990   5.0263   5.0959   5.1212   5.1605
  5.2183   5.2230   5.2673   5.2848   5.2964   5.4138   5.5064   5.5217
  5.5635   5.6770   5.7256   5.7804   5.8470   5.8676   5.8729   5.9515
  6.0567   6.1775   6.1977   6.5366   6.7202   6.7554  25.2794  25.3234
 25.3708
 --------------------------------------------------------------
 
 -----------------------------------------------------------------
                    Cartesian Multipole Moments
 -----------------------------------------------------------------
    Charge (ESU x 10^10)
                 0.0000
    Dipole Moment (Debye)
         X       0.0000      Y      -0.0203      Z      -0.3899
       Tot       0.3905
    Quadrupole Moments (Debye-Ang)
        XX     -21.7504     XY      -0.0000     YY     -21.2788
        XZ      -0.0000     YZ      -0.0058     ZZ     -21.8649
    Octopole Moments (Debye-Ang^2)
       XXX      -0.0000    XXY      -0.0250    XYY      -0.0000
       YYY      -0.0371    XXZ      -1.6591    XYZ       0.0000
       YYZ       0.6593    XZZ      -0.0000    YZZ       0.0298
       ZZZ      -0.2781
    Hexadecapole Moments (Debye-Ang^3)
      XXXX    -192.2531   XXXY      -0.0000   XXYY     -41.0024
      XYYY       0.0000   YYYY     -47.2194   XXXZ      -0.0000
      XXYZ      -0.1480   XYYZ      -0.0000   YYYZ      -0.1881
      XXZZ     -44.4481   XYZZ       0.0000   YYZZ     -17.5347
      XZZZ      -0.0000   YZZZ      -0.1881   ZZZZ     -73.2912
 -----------------------------------------------------------------
Archival summary:
1\1\centos77-c4\SP\ProcedureUnspecified\BasisUnspecified\38\shihchen\TueJul702:47:002020TueJul702:47:002020\0\\#,ProcedureUnspecified,BasisUnspecified,\\0,1\C\H,1,1.05605\H,1,1.06189,2,106.489\C,1,1.52713,2,109.082,3,117.622,0\H,4,0.895035,1,112.582,2,-58.9946,0\H,4,1.16965,1,110.398,2,62.2939,0\H,4,1.18167,1,110.351,2,179.872,0\C,1,1.52713,2,109.082,3,-117.622,0\H,8,0.895028,1,112.582,2,58.9946,0\H,8,1.16965,1,110.398,2,-62.2939,0\H,8,1.18168,1,110.351,2,-179.871,0\\\@

 Total job time:  24.73s(wall), 66.58s(cpu) 
 Tue Jul  7 02:47:00 2020

        *************************************************************
        *                                                           *
        *  Thank you very much for using Q-Chem.  Have a nice day.  *
        *                                                           *
        *************************************************************


