                  Welcome to Q-Chem
     A Quantum Leap Into The Future Of Chemistry


 Q-Chem 5.3 (devel), Q-Chem, Inc., Pleasanton, CA (2020)

 Yihan Shao,  Zhengting Gan,  E. Epifanovsky,  A. T. B. Gilbert,  M. Wormit,  
 J. Kussmann,  A. W. Lange,  A. Behn,  Jia Deng,  Xintian Feng,  D. Ghosh,  
 M. Goldey,  P. R. Horn,  L. D. Jacobson,  I. Kaliman,  T. Kus,  A. Landau,  
 Jie Liu,  E. I. Proynov,  R. M. Richard,  R. P. Steele,  E. J. Sundstrom,  
 H. L. Woodcock III,  P. M. Zimmerman,  D. Zuev,  B. Alam,  B. Albrecht,  
 E. Alguire,  S. A. Baeppler,  D. Barton,  Z. Benda,  Y. A. Bernard,  
 E. J. Berquist,  K. B. Bravaya,  H. Burton,  K. Carter-Fenk,  D. Casanova,  
 Chun-Min Chang,  Yunqing Chen,  A. Chien,  K. D. Closser,  M. P. Coons,  
 S. Coriani,  S. Dasgupta,  A. L. Dempwolff,  M. Diedenhofen,  Hainam Do,  
 R. G. Edgar,  Po-Tung Fang,  S. Faraji,  S. Fatehi,  Qingguo Feng,  
 J. Fosso-Tande,  J. Gayvert,  Qinghui Ge,  A. Ghysels,  G. Gidofalvi,  
 J. Gomes,  J. Gonthier,  A. Gunina,  D. Hait,  M. W. D. Hanson-Heine,  
 P. H. P. Harbach,  A. W. Hauser,  M. F. Herbst,  J. E. Herr,  
 E. G. Hohenstein,  Z. C. Holden,  Kerwin Hui,  B. C. Huynh,  T.-C. Jagau,  
 Hyunjun Ji,  B. Kaduk,  K. Khistyaev,  Jaehoon Kim,  P. Klunzinger,  K. Koh,  
 D. Kosenkov,  L. Koulias,  T. Kowalczyk,  C. M. Krauter,  A. Kunitsa,  
 Ka Un Lao,  A. Laurent,  K. V. Lawler,  Joonho Lee,  D. Lefrancois,  
 S. Lehtola,  D. S. Levine,  Yi-Pei Li,  You-Sheng Lin,  Fenglai Liu,  
 Kuan-Yu Liu,  E. Livshits,  M. Loipersberger,  A. Luenser,  P. Manohar,  
 E. Mansoor,  S. F. Manzer,  Shan-Ping Mao,  Yuezhi Mao,  N. Mardirossian,  
 A. V. Marenich,  T. Markovich,  L. A. Martinez-Martinez,  S. A. Maurer,  
 N. J. Mayhall,  S. C. McKenzie,  J.-M. Mewes,  P. Morgante,  A. F. Morrison,  
 J. W. Mullinax,  K. Nanda,  T. S. Nguyen-Beck,  R. Olivares-Amaya,  
 K. J. Oosterbaan,  J. A. Parkhill,  S. K. Paul,  F. Pavosevic,  Zheng Pei,  
 T. M. Perrine,  F. Plasser,  P. Pokhilko,  S. Prager,  A. Prociuk,  
 E. Ramos,  B. Rana,  D. R. Rehn,  F. Rob,  M. Scheurer,  M. Schneider,  
 N. Sergueev,  S. M. Sharada,  S. Sharma,  D. W. Small,  T. Stauch,  
 C. J. Stein,  T. Stein,  Yu-Chuan Su,  S. P. Veccham,  Zhen Tao,  
 A. J. W. Thom,  A. Tkatchenko,  T. Tsuchimochi,  N. M. Tubman,  L. Vogt,  
 M. L. Vidal,  O. Vydrov,  M. A. Watson,  J. Wenzel,  M. de Wergifosse,  
 T. A. Wesolowski,  A. White,  J. Witte,  A. Yamada,  Jun Yang,  K. Yao,  
 S. Yeganeh,  S. R. Yost,  Zhi-Qiang You,  A. Zech,  Igor Ying Zhang,  
 Xing Zhang,  Yan Zhao,  Ying Zhu,  B. R. Brooks,  G. K. L. Chan,  
 C. J. Cramer,  M. S. Gordon,  W. J. Hehre,  A. Klamt,  M. W. Schmidt,  
 C. D. Sherrill,  D. G. Truhlar,  A. Aspuru-Guzik,  R. Baer,  A. T. Bell,  
 N. A. Besley,  Jeng-Da Chai,  A. E. DePrince, III,  R. A. DiStasio Jr.,  
 A. Dreuw,  B. D. Dunietz,  T. R. Furlani,  Chao-Ping Hsu,  Yousung Jung,  
 Jing Kong,  D. S. Lambrecht,  WanZhen Liang,  C. Ochsenfeld,  
 V. A. Rassolov,  L. V. Slipchenko,  J. E. Subotnik,  T. Van Voorhis,  
 J. M. Herbert,  A. I. Krylov,  P. M. W. Gill,  M. Head-Gordon

 Contributors to earlier versions of Q-Chem not listed above: 
 R. D. Adamson,  B. Austin,  J. Baker,  G. J. O. Beran,  K. Brandhorst,  
 S. T. Brown,  E. F. C. Byrd,  A. K. Chakraborty,  C.-L. Cheng,  
 Siu Hung Chien,  D. M. Chipman,  D. L. Crittenden,  H. Dachsel,  
 R. J. Doerksen,  A. D. Dutoi,  L. Fusti-Molnar,  W. A. Goddard III,  
 A. Golubeva-Zadorozhnaya,  S. R. Gwaltney,  G. Hawkins,  A. Heyden,  
 S. Hirata,  G. Kedziora,  F. J. Keil,  C. Kelley,  Jihan Kim,  R. A. King,  
 R. Z. Khaliullin,  P. P. Korambath,  W. Kurlancheek,  A. M. Lee,  M. S. Lee,  
 S. V. Levchenko,  Ching Yeh Lin,  D. Liotard,  R. C. Lochan,  I. Lotan,  
 P. E. Maslen,  N. Nair,  D. P. O'Neill,  D. Neuhauser,  E. Neuscamman,  
 C. M. Oana,  R. Olson,  B. Peters,  R. Peverati,  P. A. Pieniazek,  
 Y. M. Rhee,  J. Ritchie,  M. A. Rohrdanz,  E. Rosta,  N. J. Russ,  
 H. F. Schaefer III,  N. E. Schultz,  N. Shenvi,  A. C. Simmonett,  A. Sodt,  
 D. Stuck,  K. S. Thanthiriwatte,  V. Vanovschi,  Tao Wang,  A. Warshel,  
 C. F. Williams,  Q. Wu,  X. Xu,  W. Zhang

 Please cite Q-Chem as follows:
 Y. Shao et al., Mol. Phys. 113, 184-215 (2015)
 DOI: 10.1080/00268976.2014.952696

 Q-Chem 5.3.0 for Intel X86 EM64T Linux

 Parts of Q-Chem use Armadillo 9.800.1 (Horizon Scraper).
 http://arma.sourceforge.net/

 Q-Chem begins on Tue Jul  7 02:12:06 2020  

Host: centos77-c4
0

     Scratch files written to /tmp/26964.centos77-h1/qchem109118//
Processing $rem in /opt/qchem-5.3.0-intel2020u1//config/preferences:
Processing $rem in /home/shihchengli/.qchemrc:

Checking the input file for inconsistencies... 	...done.

--------------------------------------------------------------
User input:
--------------------------------------------------------------
$rem
   JOBTYPE  sp
   EXCHANGE   omegaB97X-D
   BASIS   6-311+G(2df,2pd)
   UNRESTRICTED   False
   max_scf_cycles   250
   geom_opt_max_cycles   1500
   basis2 6-31G*
   scf_algorithm rca_diis
   SYM_IGNORE  TRUE
   print_input   true
   geom_opt_dmax   80
   pop_mulliken false
   XC_GRID 000075000302
$end

$molecule
0 1
C       1.2628198011     -0.0260339925     0.2840755610
C       -0.0000000123     -0.0252053565     -0.5515798053
H       1.2430383771     -0.9241355102     0.8989406331
H       1.3905688867     0.8968484973     0.8553938865
H       2.1803781323     0.0845705780     -0.2973385599
C       -1.2628197468     -0.0260344658     0.2840755257
H       0.0000004109     -0.8227043067     -1.3027163713
H       -0.0000001772     0.7854102197     -1.2868022952
H       -1.2430376124     -0.9241360147     0.8989403860
H       -2.1803779800     0.0845734136     -0.2973382646
H       -1.3905701399     0.8968476036     0.8553943227
$end
--------------------------------------------------------------
 ----------------------------------------------------------------
             Standard Nuclear Orientation (Angstroms)
    I     Atom           X                Y                Z
 ----------------------------------------------------------------
    1      C       1.2628198011    -0.0260339925     0.2840755610
    2      C      -0.0000000123    -0.0252053565    -0.5515798053
    3      H       1.2430383771    -0.9241355102     0.8989406331
    4      H       1.3905688867     0.8968484973     0.8553938865
    5      H       2.1803781323     0.0845705780    -0.2973385599
    6      C      -1.2628197468    -0.0260344658     0.2840755257
    7      H       0.0000004109    -0.8227043067    -1.3027163713
    8      H      -0.0000001772     0.7854102197    -1.2868022952
    9      H      -1.2430376124    -0.9241360147     0.8989403860
   10      H      -2.1803779800     0.0845734136    -0.2973382646
   11      H      -1.3905701399     0.8968476036     0.8553943227
 ----------------------------------------------------------------
 Nuclear Repulsion Energy =          82.87383482 hartrees
 There are       13 alpha and       13 beta electrons
 Requested basis set is 6-311+G(2df,2pd)
 There are 72 shells and 214 basis functions

 Total QAlloc Memory Limit   2000 MB
 Mega-Array Size       188 MB
 MEM_STATIC part       192 MB

                       Distance Matrix (Angstroms)
             C (  1)   C (  2)   H (  3)   H (  4)   H (  5)   C (  6)
   C (  2)  1.514277
   H (  3)  1.088594  2.111215
   H (  4)  1.092903  2.182531  1.827469
   H (  5)  1.091874  2.197894  1.824055  1.616288
   C (  6)  2.525640  1.514277  2.732027  2.866808  3.493693
   H (  7)  2.178831  1.095541  2.530361  3.089981  2.566706  2.178831
   H (  8)  2.172743  1.094372  3.040586  2.556385  2.494848  2.172743
   H (  9)  2.732026  2.111215  2.486076  3.202150  3.764087  1.088594
   H ( 10)  3.493692  2.197894  3.764088  3.839303  4.360756  1.091874
   H ( 11)  2.866809  2.182531  3.202151  2.781139  3.839304  1.092903
             H (  7)   H (  8)   H (  9)   H ( 10)
   H (  8)  1.608193
   H (  9)  2.530361  3.040586
   H ( 10)  2.566708  2.494846  1.824057
   H ( 11)  3.089982  2.556386  1.827469  1.616285
 
 A cutoff of  1.0D-09 yielded   2534 shell pairs
 There are     22580 function pairs (     27761 Cartesian)
 Smallest overlap matrix eigenvalue = 9.20E-05

 Scale SEOQF with 1.000000e-01/1.000000e-01/1.000000e-01

 Standard Electronic Orientation quadrupole field applied
 Nucleus-field energy     =     0.0000000006 hartrees
 Requested basis set is 6-31G(d)
 There are 28 shells and 58 basis functions
 A cutoff of  1.0D-09 yielded    402 shell pairs
 There are      1773 function pairs (      1968 Cartesian)
 Smallest overlap matrix eigenvalue = 7.12E-03
 Guess from superposition of atomic densities
 Warning:  Energy on first SCF cycle will be non-variational
 SAD guess density has 26.000000 electrons
 Long-range K will be added via erf
 Coulomb attenuation parameter = 0.2 bohr**(-1)
 A restricted hybrid HF-DFT SCF calculation will be
 performed using Relaxed Constraint Minimization + Pulay DIIS
 Exchange:     0.2220 Hartree-Fock + 1.0000 wB97X-D + LR-HF
 Correlation:  1.0000 wB97X-D
 Using Euler-Maclaurin-Lebedev (75,302) quadrature formula
 Dispersion:   Grimme D
 SCF converges when DIIS error is below 1.0E-04
 using 3 threads for integral computing
 -------------------------------------------------------
 OpenMP Integral computing Module                
 Release: version 1.0, May 2013, Q-Chem Inc. Pittsburgh 
 -------------------------------------------------------
 using 3 threads for integral computing
 -------------------------------------------------------
 OpenMP Integral computing Module                
 Release: version 1.0, May 2013, Q-Chem Inc. Pittsburgh 
 -------------------------------------------------------
 ---------------------------------------
  Cycle       Energy         DIIS Error
 ---------------------------------------
    1    -119.6465852439      1.01E-01
    2    -119.0509415432      9.12E-03
    3    -119.0723960824      2.45E-03
    4    -119.0869876032      1.69E-03
    5    -119.0876802405      2.49E-04 Done RCA. Switching to DIIS
    6    -119.0882081811      1.84E-04
    7    -119.0882229976      5.55E-06 Convergence criterion met
 ---------------------------------------
 SCF time:  CPU 19.39 s  wall 7.13 s
 SCF   energy in the small basis set = -119.08822300
 Total energy in the small basis set = -119.08822300
 ----------------------------------------------------
  Cycle       Energy    
 ----------------------------------------------------
    1     -16.5422772662     -1.65E+01
 Long-range K will be added via erf
 Coulomb attenuation parameter = 0.2 bohr**(-1)
 A restricted hybrid HF-DFT SCF calculation will be
 performed using Relaxed Constraint Minimization + Pulay DIIS
 Exchange:     0.2220 Hartree-Fock + 1.0000 wB97X-D + LR-HF
 Correlation:  1.0000 wB97X-D
 Using Euler-Maclaurin-Lebedev (75,302) quadrature formula
 Dispersion:   Grimme D
 SCF converges when DIIS error is below 1.0E-05
 Basis2 calculation detected. Using small basis as guess for larger.
 SCFMinFind is unable to tell whether the solution found is close.
 Resetting ReadMinima to 0 and attempting to follow guess.
 SCFMinFind following SCF Guess.
 using 3 threads for integral computing
 -------------------------------------------------------
 OpenMP Integral computing Module                
 Release: version 1.0, May 2013, Q-Chem Inc. Pittsburgh 
 -------------------------------------------------------
 using 3 threads for integral computing
 -------------------------------------------------------
 OpenMP Integral computing Module                
 Release: version 1.0, May 2013, Q-Chem Inc. Pittsburgh 
 -------------------------------------------------------
 ---------------------------------------
  Cycle       Energy         DIIS Error
 ---------------------------------------
    1    -119.1082427797      4.21E-03
    2    -119.1302375394      5.99E-04 Done RCA. Switching to DIIS
    3    -119.1310501890      4.26E-04
    4    -119.1320413793      4.90E-05
    5    -119.1320578757      1.13E-05
    6    -119.1320587453      3.78E-06 Convergence criterion met
 ---------------------------------------
 SCF time:  CPU 51.05 s  wall 17.29 s
 SCF   energy in the final basis set = -119.13205875
 Total energy in the final basis set = -119.13205875
 
 --------------------------------------------------------------
 
                    Orbital Energies (a.u.)
 --------------------------------------------------------------
 
 Alpha MOs
 -- Occupied --
-10.2728 -10.2658 -10.2658  -0.8831  -0.7798  -0.6825  -0.5545  -0.5202
 -0.4830  -0.4689  -0.4172  -0.4157  -0.3955
 -- Virtual --
  0.0690   0.0851   0.0906   0.0982   0.1268   0.1305   0.1339   0.1419
  0.1452   0.1702   0.1722   0.1899   0.2281   0.2452   0.2473   0.2513
  0.2857   0.2857   0.3137   0.3163   0.3362   0.3439   0.4550   0.4717
  0.4742   0.5045   0.5132   0.5290   0.5543   0.5592   0.5824   0.5881
  0.6275   0.6281   0.6317   0.6393   0.6578   0.6651   0.7041   0.7252
  0.7325   0.7739   0.8051   0.8539   0.8642   0.8656   0.8936   0.9573
  1.0028   1.0409   1.0714   1.1293   1.1635   1.1696   1.1858   1.2051
  1.2245   1.2490   1.2571   1.2907   1.2926   1.3155   1.3257   1.3692
  1.3781   1.3885   1.3959   1.4495   1.4695   1.4743   1.4882   1.4990
  1.5030   1.5563   1.6055   1.6315   1.6388   1.6519   1.6939   1.7303
  1.7402   2.3754   2.4611   2.4868   2.4937   2.5513   2.5524   2.6023
  2.6318   2.6975   2.8102   2.8182   2.8317   2.8961   2.8981   2.9186
  2.9280   2.9615   3.0116   3.0169   3.0615   3.0647   3.0910   3.1208
  3.1400   3.1560   3.1574   3.1927   3.2089   3.2293   3.2539   3.2747
  3.3097   3.3305   3.3369   3.3699   3.3996   3.4398   3.4415   3.4628
  3.4710   3.4839   3.5170   3.5199   3.5539   3.5681   3.5701   3.5942
  3.6271   3.6323   3.6792   3.6881   3.7410   3.7430   3.8123   3.8623
  3.9166   3.9227   3.9333   3.9595   3.9732   3.9905   4.0390   4.0811
  4.0821   4.0851   4.1268   4.1339   4.1515   4.1662   4.2049   4.2172
  4.2510   4.2622   4.2676   4.3534   4.4074   4.4145   4.4299   4.4474
  4.5278   4.5413   4.5858   4.6236   4.6719   4.7578   4.7833   4.8246
  4.9137   4.9393   4.9608   4.9711   5.0259   5.0719   5.0849   5.1439
  5.1548   5.1679   5.2070   5.3080   5.3225   5.3651   5.3901   5.4087
  5.4352   5.4764   5.5008   5.5531   5.5695   5.6108   5.6803   5.7798
  5.9651   6.3251   6.3479   6.4163   6.4290   6.4846  25.2043  25.4472
 25.4624
 --------------------------------------------------------------
 
 -----------------------------------------------------------------
                    Cartesian Multipole Moments
 -----------------------------------------------------------------
    Charge (ESU x 10^10)
                -0.0000
    Dipole Moment (Debye)
         X      -0.0000      Y       0.1359      Z      -0.1673
       Tot       0.2155
    Quadrupole Moments (Debye-Ang)
        XX     -21.8285     XY      -0.0000     YY     -21.3470
        XZ      -0.0000     YZ      -0.2508     ZZ     -22.0233
    Octopole Moments (Debye-Ang^2)
       XXX      -0.0000    XXY       2.5579    XYY      -0.0000
       YYY       1.0210    XXZ      -1.4337    XYZ       0.0000
       YYZ       0.6156    XZZ       0.0000    YZZ       0.0236
       ZZZ      -2.8305
    Hexadecapole Moments (Debye-Ang^3)
      XXXX    -200.4512   XXXY      -0.0000   XXYY     -41.3154
      XYYY       0.0000   YYYY     -44.1213   XXXZ      -0.0000
      XXYZ       0.1067   XYYZ       0.0000   YYYZ      -0.0960
      XXZZ     -46.3838   XYZZ      -0.0000   YYZZ     -17.4667
      XZZZ      -0.0000   YZZZ      -0.1091   ZZZZ     -71.5129
 -----------------------------------------------------------------
Archival summary:
1\1\centos77-c4\SP\ProcedureUnspecified\BasisUnspecified\38\shihchen\TueJul702:12:332020TueJul702:12:332020\0\\#,ProcedureUnspecified,BasisUnspecified,\\0,1\C\H,1,1.09437\H,1,1.09554,2,94.507\C,1,1.51428,2,111.787,3,-116.092,0\H,4,1.08859,1,107.277,2,173.14,0\H,4,1.09187,1,114.01,2,46.5083,0\H,4,1.0929,1,112.675,2,-60.8487,0\C,1,1.51428,2,111.787,3,116.092,0\H,8,1.08859,1,107.277,2,-173.14,0\H,8,1.09187,1,114.01,2,-46.5085,0\H,8,1.0929,1,112.675,2,60.8487,0\\\@

 Total job time:  27.32s(wall), 74.02s(cpu) 
 Tue Jul  7 02:12:33 2020

        *************************************************************
        *                                                           *
        *  Thank you very much for using Q-Chem.  Have a nice day.  *
        *                                                           *
        *************************************************************


