                  Welcome to Q-Chem
     A Quantum Leap Into The Future Of Chemistry


 Q-Chem 5.3 (devel), Q-Chem, Inc., Pleasanton, CA (2020)

 Yihan Shao,  Zhengting Gan,  E. Epifanovsky,  A. T. B. Gilbert,  M. Wormit,  
 J. Kussmann,  A. W. Lange,  A. Behn,  Jia Deng,  Xintian Feng,  D. Ghosh,  
 M. Goldey,  P. R. Horn,  L. D. Jacobson,  I. Kaliman,  T. Kus,  A. Landau,  
 Jie Liu,  E. I. Proynov,  R. M. Richard,  R. P. Steele,  E. J. Sundstrom,  
 H. L. Woodcock III,  P. M. Zimmerman,  D. Zuev,  B. Alam,  B. Albrecht,  
 E. Alguire,  S. A. Baeppler,  D. Barton,  Z. Benda,  Y. A. Bernard,  
 E. J. Berquist,  K. B. Bravaya,  H. Burton,  K. Carter-Fenk,  D. Casanova,  
 Chun-Min Chang,  Yunqing Chen,  A. Chien,  K. D. Closser,  M. P. Coons,  
 S. Coriani,  S. Dasgupta,  A. L. Dempwolff,  M. Diedenhofen,  Hainam Do,  
 R. G. Edgar,  Po-Tung Fang,  S. Faraji,  S. Fatehi,  Qingguo Feng,  
 J. Fosso-Tande,  J. Gayvert,  Qinghui Ge,  A. Ghysels,  G. Gidofalvi,  
 J. Gomes,  J. Gonthier,  A. Gunina,  D. Hait,  M. W. D. Hanson-Heine,  
 P. H. P. Harbach,  A. W. Hauser,  M. F. Herbst,  J. E. Herr,  
 E. G. Hohenstein,  Z. C. Holden,  Kerwin Hui,  B. C. Huynh,  T.-C. Jagau,  
 Hyunjun Ji,  B. Kaduk,  K. Khistyaev,  Jaehoon Kim,  P. Klunzinger,  K. Koh,  
 D. Kosenkov,  L. Koulias,  T. Kowalczyk,  C. M. Krauter,  A. Kunitsa,  
 Ka Un Lao,  A. Laurent,  K. V. Lawler,  Joonho Lee,  D. Lefrancois,  
 S. Lehtola,  D. S. Levine,  Yi-Pei Li,  You-Sheng Lin,  Fenglai Liu,  
 Kuan-Yu Liu,  E. Livshits,  M. Loipersberger,  A. Luenser,  P. Manohar,  
 E. Mansoor,  S. F. Manzer,  Shan-Ping Mao,  Yuezhi Mao,  N. Mardirossian,  
 A. V. Marenich,  T. Markovich,  L. A. Martinez-Martinez,  S. A. Maurer,  
 N. J. Mayhall,  S. C. McKenzie,  J.-M. Mewes,  P. Morgante,  A. F. Morrison,  
 J. W. Mullinax,  K. Nanda,  T. S. Nguyen-Beck,  R. Olivares-Amaya,  
 K. J. Oosterbaan,  J. A. Parkhill,  S. K. Paul,  F. Pavosevic,  Zheng Pei,  
 T. M. Perrine,  F. Plasser,  P. Pokhilko,  S. Prager,  A. Prociuk,  
 E. Ramos,  B. Rana,  D. R. Rehn,  F. Rob,  M. Scheurer,  M. Schneider,  
 N. Sergueev,  S. M. Sharada,  S. Sharma,  D. W. Small,  T. Stauch,  
 C. J. Stein,  T. Stein,  Yu-Chuan Su,  S. P. Veccham,  Zhen Tao,  
 A. J. W. Thom,  A. Tkatchenko,  T. Tsuchimochi,  N. M. Tubman,  L. Vogt,  
 M. L. Vidal,  O. Vydrov,  M. A. Watson,  J. Wenzel,  M. de Wergifosse,  
 T. A. Wesolowski,  A. White,  J. Witte,  A. Yamada,  Jun Yang,  K. Yao,  
 S. Yeganeh,  S. R. Yost,  Zhi-Qiang You,  A. Zech,  Igor Ying Zhang,  
 Xing Zhang,  Yan Zhao,  Ying Zhu,  B. R. Brooks,  G. K. L. Chan,  
 C. J. Cramer,  M. S. Gordon,  W. J. Hehre,  A. Klamt,  M. W. Schmidt,  
 C. D. Sherrill,  D. G. Truhlar,  A. Aspuru-Guzik,  R. Baer,  A. T. Bell,  
 N. A. Besley,  Jeng-Da Chai,  A. E. DePrince, III,  R. A. DiStasio Jr.,  
 A. Dreuw,  B. D. Dunietz,  T. R. Furlani,  Chao-Ping Hsu,  Yousung Jung,  
 Jing Kong,  D. S. Lambrecht,  WanZhen Liang,  C. Ochsenfeld,  
 V. A. Rassolov,  L. V. Slipchenko,  J. E. Subotnik,  T. Van Voorhis,  
 J. M. Herbert,  A. I. Krylov,  P. M. W. Gill,  M. Head-Gordon

 Contributors to earlier versions of Q-Chem not listed above: 
 R. D. Adamson,  B. Austin,  J. Baker,  G. J. O. Beran,  K. Brandhorst,  
 S. T. Brown,  E. F. C. Byrd,  A. K. Chakraborty,  C.-L. Cheng,  
 Siu Hung Chien,  D. M. Chipman,  D. L. Crittenden,  H. Dachsel,  
 R. J. Doerksen,  A. D. Dutoi,  L. Fusti-Molnar,  W. A. Goddard III,  
 A. Golubeva-Zadorozhnaya,  S. R. Gwaltney,  G. Hawkins,  A. Heyden,  
 S. Hirata,  G. Kedziora,  F. J. Keil,  C. Kelley,  Jihan Kim,  R. A. King,  
 R. Z. Khaliullin,  P. P. Korambath,  W. Kurlancheek,  A. M. Lee,  M. S. Lee,  
 S. V. Levchenko,  Ching Yeh Lin,  D. Liotard,  R. C. Lochan,  I. Lotan,  
 P. E. Maslen,  N. Nair,  D. P. O'Neill,  D. Neuhauser,  E. Neuscamman,  
 C. M. Oana,  R. Olson,  B. Peters,  R. Peverati,  P. A. Pieniazek,  
 Y. M. Rhee,  J. Ritchie,  M. A. Rohrdanz,  E. Rosta,  N. J. Russ,  
 H. F. Schaefer III,  N. E. Schultz,  N. Shenvi,  A. C. Simmonett,  A. Sodt,  
 D. Stuck,  K. S. Thanthiriwatte,  V. Vanovschi,  Tao Wang,  A. Warshel,  
 C. F. Williams,  Q. Wu,  X. Xu,  W. Zhang

 Please cite Q-Chem as follows:
 Y. Shao et al., Mol. Phys. 113, 184-215 (2015)
 DOI: 10.1080/00268976.2014.952696

 Q-Chem 5.3.0 for Intel X86 EM64T Linux

 Parts of Q-Chem use Armadillo 9.800.1 (Horizon Scraper).
 http://arma.sourceforge.net/

 Q-Chem begins on Tue Jul  7 02:11:38 2020  

Host: centos77-c4
0

     Scratch files written to /tmp/26964.centos77-h1/qchem109028//
Processing $rem in /opt/qchem-5.3.0-intel2020u1//config/preferences:
Processing $rem in /home/shihchengli/.qchemrc:

Checking the input file for inconsistencies... 	...done.

--------------------------------------------------------------
User input:
--------------------------------------------------------------
$rem
   JOBTYPE  sp
   EXCHANGE   omegaB97X-D
   BASIS   6-311+G(2df,2pd)
   UNRESTRICTED   False
   max_scf_cycles   250
   geom_opt_max_cycles   1500
   basis2 6-31G*
   scf_algorithm rca_diis
   SYM_IGNORE  TRUE
   print_input   true
   geom_opt_dmax   80
   pop_mulliken false
   XC_GRID 000075000302
$end

$molecule
0 1
C       1.2651780186     -0.0133499887     0.2720245279
C       -0.0000000056     -0.0127656551     -0.5689142109
H       1.2743999850     -0.9033362156     0.9016615713
H       1.3480455247     0.8900990087     0.8804804076
H       2.1735115936     0.0426412789     -0.3300139381
C       -1.2651779810     -0.0133502366     0.2720245244
H       0.0000002076     -0.8498811602     -1.2733424614
H       -0.0000001255     0.8305384909     -1.2650036677
H       -1.2743995861     -0.9033364806     0.9016614660
H       -2.1735115497     0.0426430423     -0.3300138335
H       -1.3480461423     0.8900985820     0.8804806334
$end
--------------------------------------------------------------
 ----------------------------------------------------------------
             Standard Nuclear Orientation (Angstroms)
    I     Atom           X                Y                Z
 ----------------------------------------------------------------
    1      C       1.2651780186    -0.0133499887     0.2720245279
    2      C      -0.0000000056    -0.0127656551    -0.5689142109
    3      H       1.2743999850    -0.9033362156     0.9016615713
    4      H       1.3480455247     0.8900990087     0.8804804076
    5      H       2.1735115936     0.0426412789    -0.3300139381
    6      C      -1.2651779810    -0.0133502366     0.2720245244
    7      H       0.0000002076    -0.8498811602    -1.2733424614
    8      H      -0.0000001255     0.8305384909    -1.2650036677
    9      H      -1.2743995861    -0.9033364806     0.9016614660
   10      H      -2.1735115497     0.0426430423    -0.3300138335
   11      H      -1.3480461423     0.8900985820     0.8804806334
 ----------------------------------------------------------------
 Nuclear Repulsion Energy =          82.79123323 hartrees
 There are       13 alpha and       13 beta electrons
 Requested basis set is 6-311+G(2df,2pd)
 There are 72 shells and 214 basis functions

 Total QAlloc Memory Limit   2000 MB
 Mega-Array Size       188 MB
 MEM_STATIC part       192 MB

                       Distance Matrix (Angstroms)
             C (  1)   C (  2)   H (  3)   H (  4)   H (  5)   C (  6)
   C (  2)  1.519162
   H (  3)  1.090231  2.140048
   H (  4)  1.092385  2.175577  1.795072
   H (  5)  1.091171  2.187303  1.794519  1.692594
   C (  6)  2.530356  1.519162  2.763688  2.831144  3.491443
   H (  7)  2.165322  1.094067  2.521427  3.079563  2.531920  2.165322
   H (  8)  2.162239  1.093482  3.053663  2.534537  2.493821  2.162239
   H (  9)  2.763688  2.140048  2.548800  3.177118  3.781533  1.090231
   H ( 10)  3.491443  2.187303  3.781533  3.819011  4.347023  1.091172
   H ( 11)  2.831144  2.175578  3.177118  2.696092  3.819012  1.092385
             H (  7)   H (  8)   H (  9)   H ( 10)
   H (  8)  1.680440
   H (  9)  2.521427  3.053662
   H ( 10)  2.531921  2.493820  1.794520
   H ( 11)  3.079564  2.534537  1.795072  1.692593
 
 A cutoff of  1.0D-09 yielded   2532 shell pairs
 There are     22578 function pairs (     27759 Cartesian)
 Smallest overlap matrix eigenvalue = 8.89E-05

 Scale SEOQF with 1.000000e-01/1.000000e-01/1.000000e-01

 Standard Electronic Orientation quadrupole field applied
 Nucleus-field energy     =     0.0000000006 hartrees
 Requested basis set is 6-31G(d)
 There are 28 shells and 58 basis functions
 A cutoff of  1.0D-09 yielded    402 shell pairs
 There are      1773 function pairs (      1968 Cartesian)
 Smallest overlap matrix eigenvalue = 6.94E-03
 Guess from superposition of atomic densities
 Warning:  Energy on first SCF cycle will be non-variational
 SAD guess density has 26.000000 electrons
 Long-range K will be added via erf
 Coulomb attenuation parameter = 0.2 bohr**(-1)
 A restricted hybrid HF-DFT SCF calculation will be
 performed using Relaxed Constraint Minimization + Pulay DIIS
 Exchange:     0.2220 Hartree-Fock + 1.0000 wB97X-D + LR-HF
 Correlation:  1.0000 wB97X-D
 Using Euler-Maclaurin-Lebedev (75,302) quadrature formula
 Dispersion:   Grimme D
 SCF converges when DIIS error is below 1.0E-04
 using 3 threads for integral computing
 -------------------------------------------------------
 OpenMP Integral computing Module                
 Release: version 1.0, May 2013, Q-Chem Inc. Pittsburgh 
 -------------------------------------------------------
 using 3 threads for integral computing
 -------------------------------------------------------
 OpenMP Integral computing Module                
 Release: version 1.0, May 2013, Q-Chem Inc. Pittsburgh 
 -------------------------------------------------------
 ---------------------------------------
  Cycle       Energy         DIIS Error
 ---------------------------------------
    1    -119.6300576629      1.01E-01
    2    -119.0630278307      9.03E-03
    3    -119.0841331192      2.45E-03
    4    -119.0982124745      1.68E-03
    5    -119.0989041778      2.58E-04 Done RCA. Switching to DIIS
    6    -119.0994197979      1.91E-04
    7    -119.0994356244      4.80E-06 Convergence criterion met
 ---------------------------------------
 SCF time:  CPU 19.38 s  wall 7.15 s
 SCF   energy in the small basis set = -119.09943562
 Total energy in the small basis set = -119.09943562
 ----------------------------------------------------
  Cycle       Energy    
 ----------------------------------------------------
    1     -16.5411923329     -1.65E+01
 Long-range K will be added via erf
 Coulomb attenuation parameter = 0.2 bohr**(-1)
 A restricted hybrid HF-DFT SCF calculation will be
 performed using Relaxed Constraint Minimization + Pulay DIIS
 Exchange:     0.2220 Hartree-Fock + 1.0000 wB97X-D + LR-HF
 Correlation:  1.0000 wB97X-D
 Using Euler-Maclaurin-Lebedev (75,302) quadrature formula
 Dispersion:   Grimme D
 SCF converges when DIIS error is below 1.0E-05
 Basis2 calculation detected. Using small basis as guess for larger.
 SCFMinFind is unable to tell whether the solution found is close.
 Resetting ReadMinima to 0 and attempting to follow guess.
 SCFMinFind following SCF Guess.
 using 3 threads for integral computing
 -------------------------------------------------------
 OpenMP Integral computing Module                
 Release: version 1.0, May 2013, Q-Chem Inc. Pittsburgh 
 -------------------------------------------------------
 using 3 threads for integral computing
 -------------------------------------------------------
 OpenMP Integral computing Module                
 Release: version 1.0, May 2013, Q-Chem Inc. Pittsburgh 
 -------------------------------------------------------
 ---------------------------------------
  Cycle       Energy         DIIS Error
 ---------------------------------------
    1    -119.1187669075      4.21E-03
    2    -119.1408045747      5.95E-04 Done RCA. Switching to DIIS
    3    -119.1416233546      4.19E-04
    4    -119.1425827123      4.71E-05
    5    -119.1425981678      1.06E-05
    6    -119.1425989295      3.81E-06 Convergence criterion met
 ---------------------------------------
 SCF time:  CPU 51.69 s  wall 17.56 s
 SCF   energy in the final basis set = -119.14259893
 Total energy in the final basis set = -119.14259893
 
 --------------------------------------------------------------
 
                    Orbital Energies (a.u.)
 --------------------------------------------------------------
 
 Alpha MOs
 -- Occupied --
-10.2733 -10.2654 -10.2654  -0.8819  -0.7782  -0.6796  -0.5473  -0.5239
 -0.4777  -0.4698  -0.4192  -0.4179  -0.4028
 -- Virtual --
  0.0691   0.0856   0.0909   0.0987   0.1260   0.1308   0.1332   0.1425
  0.1442   0.1705   0.1721   0.1904   0.2318   0.2428   0.2464   0.2583
  0.2827   0.2849   0.3145   0.3147   0.3338   0.3475   0.4568   0.4688
  0.4720   0.5088   0.5154   0.5198   0.5495   0.5589   0.5830   0.5864
  0.6267   0.6274   0.6381   0.6399   0.6575   0.6597   0.7070   0.7268
  0.7292   0.7690   0.8139   0.8594   0.8659   0.8686   0.8857   0.9584
  1.0039   1.0501   1.0669   1.1353   1.1518   1.1803   1.1821   1.2059
  1.2265   1.2415   1.2620   1.2832   1.2888   1.2999   1.3244   1.3734
  1.3804   1.3909   1.3998   1.4474   1.4694   1.4779   1.4805   1.4913
  1.5069   1.5678   1.6096   1.6288   1.6392   1.6516   1.6874   1.7132
  1.7440   2.3718   2.4628   2.4813   2.4962   2.5451   2.5543   2.6006
  2.6296   2.7054   2.8248   2.8265   2.8309   2.9062   2.9143   2.9266
  2.9293   2.9533   3.0022   3.0214   3.0567   3.0693   3.0959   3.1093
  3.1364   3.1591   3.1776   3.1790   3.1947   3.2198   3.2792   3.2908
  3.3128   3.3366   3.3509   3.3748   3.3917   3.3955   3.4287   3.4383
  3.4830   3.4857   3.4893   3.4929   3.5592   3.5725   3.5922   3.6143
  3.6221   3.6458   3.6886   3.7003   3.7652   3.7705   3.8474   3.9089
  3.9112   3.9344   3.9408   3.9592   3.9635   3.9910   4.0544   4.0707
  4.0839   4.0978   4.1284   4.1395   4.1422   4.1843   4.1866   4.2092
  4.2460   4.2514   4.2641   4.3619   4.4053   4.4153   4.4239   4.4249
  4.4756   4.5520   4.5841   4.6088   4.6702   4.8046   4.8126   4.8242
  4.9228   4.9494   4.9758   5.0111   5.0228   5.0282   5.0895   5.1095
  5.1371   5.2153   5.2536   5.2731   5.2963   5.3573   5.3644   5.3896
  5.3983   5.4392   5.4672   5.5156   5.5440   5.5769   5.6388   5.7568
  5.9522   6.3536   6.3674   6.4197   6.4232   6.4807  25.2047  25.4456
 25.4563
 --------------------------------------------------------------
 
 -----------------------------------------------------------------
                    Cartesian Multipole Moments
 -----------------------------------------------------------------
    Charge (ESU x 10^10)
                -0.0000
    Dipole Moment (Debye)
         X      -0.0000      Y       0.0667      Z      -0.1256
       Tot       0.1422
    Quadrupole Moments (Debye-Ang)
        XX     -21.9996     XY      -0.0000     YY     -21.3424
        XZ      -0.0000     YZ      -0.1231     ZZ     -21.9236
    Octopole Moments (Debye-Ang^2)
       XXX      -0.0000    XXY       1.2631    XYY      -0.0000
       YYY       0.5253    XXZ      -1.5266    XYZ       0.0000
       YYZ       0.5564    XZZ       0.0000    YZZ       0.0215
       ZZZ      -1.6182
    Hexadecapole Moments (Debye-Ang^3)
      XXXX    -201.3459   XXXY      -0.0000   XXYY     -41.7757
      XYYY       0.0000   YYYY     -44.0854   XXXZ      -0.0000
      XXYZ       0.0334   XYYZ       0.0000   YYYZ      -0.0263
      XXZZ     -45.8138   XYZZ       0.0000   YYZZ     -17.2107
      XZZZ      -0.0000   YZZZ      -0.0575   ZZZZ     -71.8079
 -----------------------------------------------------------------
Archival summary:
1\1\centos77-c4\SP\ProcedureUnspecified\BasisUnspecified\38\shihchen\TueJul702:12:052020TueJul702:12:052020\0\\#,ProcedureUnspecified,BasisUnspecified,\\0,1\C\H,1,1.09348\H,1,1.09407,2,100.382\C,1,1.51916,2,110.651,3,-117.127,0\H,4,1.09023,1,109.09,2,175.755,0\H,4,1.09117,1,112.82,2,52.2888,0\H,4,1.09239,1,111.789,2,-61.5331,0\C,1,1.51916,2,110.651,3,117.127,0\H,8,1.09023,1,109.09,2,-175.755,0\H,8,1.09117,1,112.82,2,-52.2889,0\H,8,1.09239,1,111.789,2,61.5331,0\\\@

 Total job time:  27.61s(wall), 74.63s(cpu) 
 Tue Jul  7 02:12:06 2020

        *************************************************************
        *                                                           *
        *  Thank you very much for using Q-Chem.  Have a nice day.  *
        *                                                           *
        *************************************************************


