                  Welcome to Q-Chem
     A Quantum Leap Into The Future Of Chemistry


 Q-Chem 5.3 (devel), Q-Chem, Inc., Pleasanton, CA (2020)

 Yihan Shao,  Zhengting Gan,  E. Epifanovsky,  A. T. B. Gilbert,  M. Wormit,  
 J. Kussmann,  A. W. Lange,  A. Behn,  Jia Deng,  Xintian Feng,  D. Ghosh,  
 M. Goldey,  P. R. Horn,  L. D. Jacobson,  I. Kaliman,  T. Kus,  A. Landau,  
 Jie Liu,  E. I. Proynov,  R. M. Richard,  R. P. Steele,  E. J. Sundstrom,  
 H. L. Woodcock III,  P. M. Zimmerman,  D. Zuev,  B. Alam,  B. Albrecht,  
 E. Alguire,  S. A. Baeppler,  D. Barton,  Z. Benda,  Y. A. Bernard,  
 E. J. Berquist,  K. B. Bravaya,  H. Burton,  K. Carter-Fenk,  D. Casanova,  
 Chun-Min Chang,  Yunqing Chen,  A. Chien,  K. D. Closser,  M. P. Coons,  
 S. Coriani,  S. Dasgupta,  A. L. Dempwolff,  M. Diedenhofen,  Hainam Do,  
 R. G. Edgar,  Po-Tung Fang,  S. Faraji,  S. Fatehi,  Qingguo Feng,  
 J. Fosso-Tande,  J. Gayvert,  Qinghui Ge,  A. Ghysels,  G. Gidofalvi,  
 J. Gomes,  J. Gonthier,  A. Gunina,  D. Hait,  M. W. D. Hanson-Heine,  
 P. H. P. Harbach,  A. W. Hauser,  M. F. Herbst,  J. E. Herr,  
 E. G. Hohenstein,  Z. C. Holden,  Kerwin Hui,  B. C. Huynh,  T.-C. Jagau,  
 Hyunjun Ji,  B. Kaduk,  K. Khistyaev,  Jaehoon Kim,  P. Klunzinger,  K. Koh,  
 D. Kosenkov,  L. Koulias,  T. Kowalczyk,  C. M. Krauter,  A. Kunitsa,  
 Ka Un Lao,  A. Laurent,  K. V. Lawler,  Joonho Lee,  D. Lefrancois,  
 S. Lehtola,  D. S. Levine,  Yi-Pei Li,  You-Sheng Lin,  Fenglai Liu,  
 Kuan-Yu Liu,  E. Livshits,  M. Loipersberger,  A. Luenser,  P. Manohar,  
 E. Mansoor,  S. F. Manzer,  Shan-Ping Mao,  Yuezhi Mao,  N. Mardirossian,  
 A. V. Marenich,  T. Markovich,  L. A. Martinez-Martinez,  S. A. Maurer,  
 N. J. Mayhall,  S. C. McKenzie,  J.-M. Mewes,  P. Morgante,  A. F. Morrison,  
 J. W. Mullinax,  K. Nanda,  T. S. Nguyen-Beck,  R. Olivares-Amaya,  
 K. J. Oosterbaan,  J. A. Parkhill,  S. K. Paul,  F. Pavosevic,  Zheng Pei,  
 T. M. Perrine,  F. Plasser,  P. Pokhilko,  S. Prager,  A. Prociuk,  
 E. Ramos,  B. Rana,  D. R. Rehn,  F. Rob,  M. Scheurer,  M. Schneider,  
 N. Sergueev,  S. M. Sharada,  S. Sharma,  D. W. Small,  T. Stauch,  
 C. J. Stein,  T. Stein,  Yu-Chuan Su,  S. P. Veccham,  Zhen Tao,  
 A. J. W. Thom,  A. Tkatchenko,  T. Tsuchimochi,  N. M. Tubman,  L. Vogt,  
 M. L. Vidal,  O. Vydrov,  M. A. Watson,  J. Wenzel,  M. de Wergifosse,  
 T. A. Wesolowski,  A. White,  J. Witte,  A. Yamada,  Jun Yang,  K. Yao,  
 S. Yeganeh,  S. R. Yost,  Zhi-Qiang You,  A. Zech,  Igor Ying Zhang,  
 Xing Zhang,  Yan Zhao,  Ying Zhu,  B. R. Brooks,  G. K. L. Chan,  
 C. J. Cramer,  M. S. Gordon,  W. J. Hehre,  A. Klamt,  M. W. Schmidt,  
 C. D. Sherrill,  D. G. Truhlar,  A. Aspuru-Guzik,  R. Baer,  A. T. Bell,  
 N. A. Besley,  Jeng-Da Chai,  A. E. DePrince, III,  R. A. DiStasio Jr.,  
 A. Dreuw,  B. D. Dunietz,  T. R. Furlani,  Chao-Ping Hsu,  Yousung Jung,  
 Jing Kong,  D. S. Lambrecht,  WanZhen Liang,  C. Ochsenfeld,  
 V. A. Rassolov,  L. V. Slipchenko,  J. E. Subotnik,  T. Van Voorhis,  
 J. M. Herbert,  A. I. Krylov,  P. M. W. Gill,  M. Head-Gordon

 Contributors to earlier versions of Q-Chem not listed above: 
 R. D. Adamson,  B. Austin,  J. Baker,  G. J. O. Beran,  K. Brandhorst,  
 S. T. Brown,  E. F. C. Byrd,  A. K. Chakraborty,  C.-L. Cheng,  
 Siu Hung Chien,  D. M. Chipman,  D. L. Crittenden,  H. Dachsel,  
 R. J. Doerksen,  A. D. Dutoi,  L. Fusti-Molnar,  W. A. Goddard III,  
 A. Golubeva-Zadorozhnaya,  S. R. Gwaltney,  G. Hawkins,  A. Heyden,  
 S. Hirata,  G. Kedziora,  F. J. Keil,  C. Kelley,  Jihan Kim,  R. A. King,  
 R. Z. Khaliullin,  P. P. Korambath,  W. Kurlancheek,  A. M. Lee,  M. S. Lee,  
 S. V. Levchenko,  Ching Yeh Lin,  D. Liotard,  R. C. Lochan,  I. Lotan,  
 P. E. Maslen,  N. Nair,  D. P. O'Neill,  D. Neuhauser,  E. Neuscamman,  
 C. M. Oana,  R. Olson,  B. Peters,  R. Peverati,  P. A. Pieniazek,  
 Y. M. Rhee,  J. Ritchie,  M. A. Rohrdanz,  E. Rosta,  N. J. Russ,  
 H. F. Schaefer III,  N. E. Schultz,  N. Shenvi,  A. C. Simmonett,  A. Sodt,  
 D. Stuck,  K. S. Thanthiriwatte,  V. Vanovschi,  Tao Wang,  A. Warshel,  
 C. F. Williams,  Q. Wu,  X. Xu,  W. Zhang

 Please cite Q-Chem as follows:
 Y. Shao et al., Mol. Phys. 113, 184-215 (2015)
 DOI: 10.1080/00268976.2014.952696

 Q-Chem 5.3.0 for Intel X86 EM64T Linux

 Parts of Q-Chem use Armadillo 9.800.1 (Horizon Scraper).
 http://arma.sourceforge.net/

 Q-Chem begins on Tue Jul  7 01:42:07 2020  

Host: centos77-c4
0

     Scratch files written to /tmp/26964.centos77-h1/qchem103252//
Processing $rem in /opt/qchem-5.3.0-intel2020u1//config/preferences:
Processing $rem in /home/shihchengli/.qchemrc:

Checking the input file for inconsistencies... 	...done.

--------------------------------------------------------------
User input:
--------------------------------------------------------------
$rem
   JOBTYPE  sp
   EXCHANGE   omegaB97X-D
   BASIS   6-311+G(2df,2pd)
   UNRESTRICTED   False
   max_scf_cycles   250
   geom_opt_max_cycles   1500
   basis2 6-31G*
   scf_algorithm rca_diis
   SYM_IGNORE  TRUE
   print_input   true
   geom_opt_dmax   80
   pop_mulliken false
   XC_GRID 000075000302
$end

$molecule
0 1
C       1.2649486447     -0.0516574347     0.2162055620
C       0.0000000942     0.0445071848     -0.5926953215
H       1.4837295097     -0.9326098659     0.8160548155
H       0.9483153676     0.7506975522     0.8921074273
H       2.1718455605     0.3550530015     -0.2311426726
C       -1.2649485682     -0.0516576299     0.2162054043
H       0.0000009111     -0.9771636887     -0.9805802268
H       -0.0000009711     0.6896888909     -1.4721300144
H       -1.4837293843     -0.9326100743     0.8160546252
H       -2.1718449650     0.3550549335     -0.2311419875
H       -0.9483162599     0.7506977966     0.8921074074
$end
--------------------------------------------------------------
 ----------------------------------------------------------------
             Standard Nuclear Orientation (Angstroms)
    I     Atom           X                Y                Z
 ----------------------------------------------------------------
    1      C       1.2649486447    -0.0516574347     0.2162055620
    2      C       0.0000000942     0.0445071848    -0.5926953215
    3      H       1.4837295097    -0.9326098659     0.8160548155
    4      H       0.9483153676     0.7506975522     0.8921074273
    5      H       2.1718455605     0.3550530015    -0.2311426726
    6      C      -1.2649485682    -0.0516576299     0.2162054043
    7      H       0.0000009111    -0.9771636887    -0.9805802268
    8      H      -0.0000009711     0.6896888909    -1.4721300144
    9      H      -1.4837293843    -0.9326100743     0.8160546252
   10      H      -2.1718449650     0.3550549335    -0.2311419875
   11      H      -0.9483162599     0.7506977966     0.8921074074
 ----------------------------------------------------------------
 Nuclear Repulsion Energy =          83.79157144 hartrees
 There are       13 alpha and       13 beta electrons
 Requested basis set is 6-311+G(2df,2pd)
 There are 72 shells and 214 basis functions

 Total QAlloc Memory Limit   2000 MB
 Mega-Array Size       188 MB
 MEM_STATIC part       192 MB

                       Distance Matrix (Angstroms)
             C (  1)   C (  2)   H (  3)   H (  4)   H (  5)   C (  6)
   C (  2)  1.504547
   H (  3)  1.088008  2.267331
   H (  4)  1.095844  1.898064  1.768043
   H (  5)  1.089952  2.223527  1.796720  1.707411
   C (  6)  2.529897  1.504547  2.948072  2.449317  3.489568
   H (  7)  1.972042  1.092825  2.330522  2.718780  2.655818  1.972043
   H (  8)  2.236106  1.090718  3.173184  2.548067  2.523677  2.236105
   H (  9)  2.948072  2.267331  2.967459  2.958741  4.014714  1.088008
   H ( 10)  3.489568  2.223527  4.014714  3.339704  4.343691  1.089952
   H ( 11)  2.449318  1.898064  2.958742  1.896632  3.339706  1.095844
             H (  7)   H (  8)   H (  9)   H ( 10)
   H (  8)  1.737820
   H (  9)  2.330523  3.173183
   H ( 10)  2.655820  2.523675  1.796721
   H ( 11)  2.718781  2.548066  1.768043  1.707409
 
 A cutoff of  1.0D-09 yielded   2543 shell pairs
 There are     22635 function pairs (     27836 Cartesian)
 Smallest overlap matrix eigenvalue = 9.58E-05

 Scale SEOQF with 1.000000e-01/1.000000e-01/1.000000e-01

 Standard Electronic Orientation quadrupole field applied
 Nucleus-field energy     =     0.0000000006 hartrees
 Requested basis set is 6-31G(d)
 There are 28 shells and 58 basis functions
 A cutoff of  1.0D-09 yielded    402 shell pairs
 There are      1773 function pairs (      1968 Cartesian)
 Smallest overlap matrix eigenvalue = 6.12E-03
 Guess from superposition of atomic densities
 Warning:  Energy on first SCF cycle will be non-variational
 SAD guess density has 26.000000 electrons
 Long-range K will be added via erf
 Coulomb attenuation parameter = 0.2 bohr**(-1)
 A restricted hybrid HF-DFT SCF calculation will be
 performed using Relaxed Constraint Minimization + Pulay DIIS
 Exchange:     0.2220 Hartree-Fock + 1.0000 wB97X-D + LR-HF
 Correlation:  1.0000 wB97X-D
 Using Euler-Maclaurin-Lebedev (75,302) quadrature formula
 Dispersion:   Grimme D
 SCF converges when DIIS error is below 1.0E-04
 using 3 threads for integral computing
 -------------------------------------------------------
 OpenMP Integral computing Module                
 Release: version 1.0, May 2013, Q-Chem Inc. Pittsburgh 
 -------------------------------------------------------
 using 3 threads for integral computing
 -------------------------------------------------------
 OpenMP Integral computing Module                
 Release: version 1.0, May 2013, Q-Chem Inc. Pittsburgh 
 -------------------------------------------------------
 ---------------------------------------
  Cycle       Energy         DIIS Error
 ---------------------------------------
    1    -119.7358897408      1.04E-01
    2    -119.0133334138      9.17E-03
    3    -119.0352882042      2.58E-03
    4    -119.0495835796      1.79E-03
    5    -119.0503664709      2.82E-04 Done RCA. Switching to DIIS
    6    -119.0509423335      2.11E-04
    7    -119.0509617040      5.82E-06 Convergence criterion met
 ---------------------------------------
 SCF time:  CPU 20.64 s  wall 7.70 s
 SCF   energy in the small basis set = -119.05096170
 Total energy in the small basis set = -119.05096170
 ----------------------------------------------------
  Cycle       Energy    
 ----------------------------------------------------
    1     -16.5596694229     -1.66E+01
 Long-range K will be added via erf
 Coulomb attenuation parameter = 0.2 bohr**(-1)
 A restricted hybrid HF-DFT SCF calculation will be
 performed using Relaxed Constraint Minimization + Pulay DIIS
 Exchange:     0.2220 Hartree-Fock + 1.0000 wB97X-D + LR-HF
 Correlation:  1.0000 wB97X-D
 Using Euler-Maclaurin-Lebedev (75,302) quadrature formula
 Dispersion:   Grimme D
 SCF converges when DIIS error is below 1.0E-05
 Basis2 calculation detected. Using small basis as guess for larger.
 SCFMinFind is unable to tell whether the solution found is close.
 Resetting ReadMinima to 0 and attempting to follow guess.
 SCFMinFind following SCF Guess.
 using 3 threads for integral computing
 -------------------------------------------------------
 OpenMP Integral computing Module                
 Release: version 1.0, May 2013, Q-Chem Inc. Pittsburgh 
 -------------------------------------------------------
 using 3 threads for integral computing
 -------------------------------------------------------
 OpenMP Integral computing Module                
 Release: version 1.0, May 2013, Q-Chem Inc. Pittsburgh 
 -------------------------------------------------------
 ---------------------------------------
  Cycle       Energy         DIIS Error
 ---------------------------------------
    1    -119.0721213054      4.21E-03
    2    -119.0942569367      6.30E-04 Done RCA. Switching to DIIS
    3    -119.0951484393      4.50E-04
    4    -119.0962584890      4.71E-05
    5    -119.0962745963      1.25E-05
    6    -119.0962756256      4.67E-06 Convergence criterion met
 ---------------------------------------
 SCF time:  CPU 51.13 s  wall 17.19 s
 SCF   energy in the final basis set = -119.09627563
 Total energy in the final basis set = -119.09627563
 
 --------------------------------------------------------------
 
                    Orbital Energies (a.u.)
 --------------------------------------------------------------
 
 Alpha MOs
 -- Occupied --
-10.2736 -10.2663 -10.2663  -0.8974  -0.7810  -0.6788  -0.5571  -0.5420
 -0.4931  -0.4400  -0.4376  -0.4343  -0.3565
 -- Virtual --
  0.0709   0.0862   0.0903   0.0960   0.1232   0.1280   0.1321   0.1345
  0.1451   0.1726   0.1731   0.1928   0.1956   0.2289   0.2430   0.2672
  0.2928   0.2961   0.3161   0.3284   0.3298   0.3578   0.4471   0.4641
  0.4780   0.4923   0.4998   0.5081   0.5547   0.5689   0.5882   0.5953
  0.6035   0.6268   0.6390   0.6409   0.6677   0.6826   0.7045   0.7125
  0.7343   0.7551   0.8303   0.8589   0.8935   0.9053   0.9522   0.9604
  1.0044   1.0083   1.0391   1.1361   1.1424   1.1858   1.2002   1.2049
  1.2394   1.2460   1.2804   1.2947   1.2998   1.3211   1.3694   1.3777
  1.3886   1.4351   1.4486   1.4527   1.4546   1.4673   1.4840   1.5051
  1.5222   1.5458   1.5593   1.6216   1.6420   1.6542   1.6604   1.7667
  1.7717   2.3919   2.4090   2.4518   2.5034   2.5431   2.5561   2.6078
  2.6209   2.7350   2.7553   2.7941   2.8656   2.8835   2.9160   2.9222
  2.9634   2.9761   3.0281   3.0288   3.0682   3.0776   3.0930   3.1554
  3.1622   3.1793   3.1887   3.2034   3.2396   3.2541   3.2809   3.3153
  3.3158   3.3208   3.3374   3.3661   3.3713   3.4166   3.4597   3.4735
  3.4968   3.4973   3.5203   3.5446   3.5645   3.5869   3.5919   3.6102
  3.6350   3.6713   3.6871   3.7142   3.7316   3.7783   3.8263   3.8836
  3.9034   3.9077   3.9428   3.9448   3.9760   4.0120   4.0700   4.0759
  4.1299   4.1647   4.1739   4.1885   4.2061   4.2079   4.2402   4.2800
  4.2846   4.3217   4.3238   4.3607   4.3851   4.4057   4.4247   4.4405
  4.5311   4.6084   4.6093   4.6331   4.7224   4.7773   4.7847   4.8822
  4.8970   4.9626   4.9954   5.0000   5.0247   5.1159   5.1255   5.1630
  5.1776   5.1970   5.2556   5.2617   5.2681   5.2717   5.3678   5.3699
  5.4264   5.4480   5.5297   5.5430   5.5750   5.6923   5.7614   5.7930
  6.0324   6.3692   6.3846   6.4167   6.4328   6.5439  25.1793  25.4409
 25.4611
 --------------------------------------------------------------
 
 -----------------------------------------------------------------
                    Cartesian Multipole Moments
 -----------------------------------------------------------------
    Charge (ESU x 10^10)
                -0.0000
    Dipole Moment (Debye)
         X       0.0000      Y      -0.0199      Z      -0.1067
       Tot       0.1085
    Quadrupole Moments (Debye-Ang)
        XX     -21.7257     XY      -0.0000     YY     -21.3997
        XZ      -0.0000     YZ      -1.2770     ZZ     -22.5395
    Octopole Moments (Debye-Ang^2)
       XXX       0.0000    XXY       0.1328    XYY      -0.0000
       YYY      -0.2942    XXZ      -0.5910    XYZ       0.0000
       YYZ       0.7989    XZZ      -0.0000    YZZ       0.5077
       ZZZ      -0.2759
    Hexadecapole Moments (Debye-Ang^3)
      XXXX    -192.9007   XXXY      -0.0000   XXYY     -40.3364
      XYYY       0.0000   YYYY     -44.5267   XXXZ      -0.0000
      XXYZ      -3.1882   XYYZ      -0.0000   YYYZ      -0.2315
      XXZZ     -45.8017   XYZZ      -0.0000   YYZZ     -17.8510
      XZZZ       0.0000   YZZZ      -2.3560   ZZZZ     -70.2059
 -----------------------------------------------------------------
Archival summary:
1\1\centos77-c4\SP\ProcedureUnspecified\BasisUnspecified\38\shihchen\TueJul701:42:352020TueJul701:42:352020\0\\#,ProcedureUnspecified,BasisUnspecified,\\0,1\C\H,1,1.09072\H,1,1.09282,2,105.475\C,1,1.50455,2,118.119,3,107.587,0\H,4,1.08801,1,121.147,2,-154.221,0\H,4,1.08995,1,117.067,2,-12.7176,0\H,4,1.09584,1,92.4004,2,92.8927,0\C,1,1.50455,2,118.119,3,-107.587,0\H,8,1.08801,1,121.147,2,154.221,0\H,8,1.08995,1,117.067,2,12.7174,0\H,8,1.09584,1,92.4005,2,-92.8927,0\\\@

 Total job time:  27.83s(wall), 75.44s(cpu) 
 Tue Jul  7 01:42:35 2020

        *************************************************************
        *                                                           *
        *  Thank you very much for using Q-Chem.  Have a nice day.  *
        *                                                           *
        *************************************************************


