                  Welcome to Q-Chem
     A Quantum Leap Into The Future Of Chemistry


 Q-Chem 5.3 (devel), Q-Chem, Inc., Pleasanton, CA (2020)

 Yihan Shao,  Zhengting Gan,  E. Epifanovsky,  A. T. B. Gilbert,  M. Wormit,  
 J. Kussmann,  A. W. Lange,  A. Behn,  Jia Deng,  Xintian Feng,  D. Ghosh,  
 M. Goldey,  P. R. Horn,  L. D. Jacobson,  I. Kaliman,  T. Kus,  A. Landau,  
 Jie Liu,  E. I. Proynov,  R. M. Richard,  R. P. Steele,  E. J. Sundstrom,  
 H. L. Woodcock III,  P. M. Zimmerman,  D. Zuev,  B. Alam,  B. Albrecht,  
 E. Alguire,  S. A. Baeppler,  D. Barton,  Z. Benda,  Y. A. Bernard,  
 E. J. Berquist,  K. B. Bravaya,  H. Burton,  K. Carter-Fenk,  D. Casanova,  
 Chun-Min Chang,  Yunqing Chen,  A. Chien,  K. D. Closser,  M. P. Coons,  
 S. Coriani,  S. Dasgupta,  A. L. Dempwolff,  M. Diedenhofen,  Hainam Do,  
 R. G. Edgar,  Po-Tung Fang,  S. Faraji,  S. Fatehi,  Qingguo Feng,  
 J. Fosso-Tande,  J. Gayvert,  Qinghui Ge,  A. Ghysels,  G. Gidofalvi,  
 J. Gomes,  J. Gonthier,  A. Gunina,  D. Hait,  M. W. D. Hanson-Heine,  
 P. H. P. Harbach,  A. W. Hauser,  M. F. Herbst,  J. E. Herr,  
 E. G. Hohenstein,  Z. C. Holden,  Kerwin Hui,  B. C. Huynh,  T.-C. Jagau,  
 Hyunjun Ji,  B. Kaduk,  K. Khistyaev,  Jaehoon Kim,  P. Klunzinger,  K. Koh,  
 D. Kosenkov,  L. Koulias,  T. Kowalczyk,  C. M. Krauter,  A. Kunitsa,  
 Ka Un Lao,  A. Laurent,  K. V. Lawler,  Joonho Lee,  D. Lefrancois,  
 S. Lehtola,  D. S. Levine,  Yi-Pei Li,  You-Sheng Lin,  Fenglai Liu,  
 Kuan-Yu Liu,  E. Livshits,  M. Loipersberger,  A. Luenser,  P. Manohar,  
 E. Mansoor,  S. F. Manzer,  Shan-Ping Mao,  Yuezhi Mao,  N. Mardirossian,  
 A. V. Marenich,  T. Markovich,  L. A. Martinez-Martinez,  S. A. Maurer,  
 N. J. Mayhall,  S. C. McKenzie,  J.-M. Mewes,  P. Morgante,  A. F. Morrison,  
 J. W. Mullinax,  K. Nanda,  T. S. Nguyen-Beck,  R. Olivares-Amaya,  
 K. J. Oosterbaan,  J. A. Parkhill,  S. K. Paul,  F. Pavosevic,  Zheng Pei,  
 T. M. Perrine,  F. Plasser,  P. Pokhilko,  S. Prager,  A. Prociuk,  
 E. Ramos,  B. Rana,  D. R. Rehn,  F. Rob,  M. Scheurer,  M. Schneider,  
 N. Sergueev,  S. M. Sharada,  S. Sharma,  D. W. Small,  T. Stauch,  
 C. J. Stein,  T. Stein,  Yu-Chuan Su,  S. P. Veccham,  Zhen Tao,  
 A. J. W. Thom,  A. Tkatchenko,  T. Tsuchimochi,  N. M. Tubman,  L. Vogt,  
 M. L. Vidal,  O. Vydrov,  M. A. Watson,  J. Wenzel,  M. de Wergifosse,  
 T. A. Wesolowski,  A. White,  J. Witte,  A. Yamada,  Jun Yang,  K. Yao,  
 S. Yeganeh,  S. R. Yost,  Zhi-Qiang You,  A. Zech,  Igor Ying Zhang,  
 Xing Zhang,  Yan Zhao,  Ying Zhu,  B. R. Brooks,  G. K. L. Chan,  
 C. J. Cramer,  M. S. Gordon,  W. J. Hehre,  A. Klamt,  M. W. Schmidt,  
 C. D. Sherrill,  D. G. Truhlar,  A. Aspuru-Guzik,  R. Baer,  A. T. Bell,  
 N. A. Besley,  Jeng-Da Chai,  A. E. DePrince, III,  R. A. DiStasio Jr.,  
 A. Dreuw,  B. D. Dunietz,  T. R. Furlani,  Chao-Ping Hsu,  Yousung Jung,  
 Jing Kong,  D. S. Lambrecht,  WanZhen Liang,  C. Ochsenfeld,  
 V. A. Rassolov,  L. V. Slipchenko,  J. E. Subotnik,  T. Van Voorhis,  
 J. M. Herbert,  A. I. Krylov,  P. M. W. Gill,  M. Head-Gordon

 Contributors to earlier versions of Q-Chem not listed above: 
 R. D. Adamson,  B. Austin,  J. Baker,  G. J. O. Beran,  K. Brandhorst,  
 S. T. Brown,  E. F. C. Byrd,  A. K. Chakraborty,  C.-L. Cheng,  
 Siu Hung Chien,  D. M. Chipman,  D. L. Crittenden,  H. Dachsel,  
 R. J. Doerksen,  A. D. Dutoi,  L. Fusti-Molnar,  W. A. Goddard III,  
 A. Golubeva-Zadorozhnaya,  S. R. Gwaltney,  G. Hawkins,  A. Heyden,  
 S. Hirata,  G. Kedziora,  F. J. Keil,  C. Kelley,  Jihan Kim,  R. A. King,  
 R. Z. Khaliullin,  P. P. Korambath,  W. Kurlancheek,  A. M. Lee,  M. S. Lee,  
 S. V. Levchenko,  Ching Yeh Lin,  D. Liotard,  R. C. Lochan,  I. Lotan,  
 P. E. Maslen,  N. Nair,  D. P. O'Neill,  D. Neuhauser,  E. Neuscamman,  
 C. M. Oana,  R. Olson,  B. Peters,  R. Peverati,  P. A. Pieniazek,  
 Y. M. Rhee,  J. Ritchie,  M. A. Rohrdanz,  E. Rosta,  N. J. Russ,  
 H. F. Schaefer III,  N. E. Schultz,  N. Shenvi,  A. C. Simmonett,  A. Sodt,  
 D. Stuck,  K. S. Thanthiriwatte,  V. Vanovschi,  Tao Wang,  A. Warshel,  
 C. F. Williams,  Q. Wu,  X. Xu,  W. Zhang

 Please cite Q-Chem as follows:
 Y. Shao et al., Mol. Phys. 113, 184-215 (2015)
 DOI: 10.1080/00268976.2014.952696

 Q-Chem 5.3.0 for Intel X86 EM64T Linux

 Parts of Q-Chem use Armadillo 9.800.1 (Horizon Scraper).
 http://arma.sourceforge.net/

 Q-Chem begins on Tue Jul  7 01:34:05 2020  

Host: centos77-c4
0

     Scratch files written to /tmp/26964.centos77-h1/qchem101597//
Processing $rem in /opt/qchem-5.3.0-intel2020u1//config/preferences:
Processing $rem in /home/shihchengli/.qchemrc:

Checking the input file for inconsistencies... 	...done.

--------------------------------------------------------------
User input:
--------------------------------------------------------------
$rem
   JOBTYPE  sp
   EXCHANGE   omegaB97X-D
   BASIS   6-311+G(2df,2pd)
   UNRESTRICTED   False
   max_scf_cycles   250
   geom_opt_max_cycles   1500
   basis2 6-31G*
   scf_algorithm rca_diis
   SYM_IGNORE  TRUE
   print_input   true
   geom_opt_dmax   80
   pop_mulliken false
   XC_GRID 000075000302
$end

$molecule
0 1
C       1.2558975535     -0.0212802926     0.3094395674
C       0.0000000442     0.0335622053     -0.6113035932
H       1.3786084954     -0.8928852937     0.9519563477
H       1.4064979293     0.8915792512     0.8887789568
H       2.0792483261     -0.0311861304     -0.4096140483
C       -1.2558976027     -0.0212803490     0.3094396258
H       -0.0000002179     -0.8399012890     -1.2695748345
H       0.0000000585     0.9138842088     -1.2591982798
H       -1.3786084372     -0.8928853702     0.9519563563
H       -2.0792481915     -0.0311854154     -0.4096141717
H       -1.4064980185     0.8915791410     0.8887790924
$end
--------------------------------------------------------------
 ----------------------------------------------------------------
             Standard Nuclear Orientation (Angstroms)
    I     Atom           X                Y                Z
 ----------------------------------------------------------------
    1      C       1.2558975535    -0.0212802926     0.3094395674
    2      C       0.0000000442     0.0335622053    -0.6113035932
    3      H       1.3786084954    -0.8928852937     0.9519563477
    4      H       1.4064979293     0.8915792512     0.8887789568
    5      H       2.0792483261    -0.0311861304    -0.4096140483
    6      C      -1.2558976027    -0.0212803490     0.3094396258
    7      H      -0.0000002179    -0.8399012890    -1.2695748345
    8      H       0.0000000585     0.9138842088    -1.2591982798
    9      H      -1.3786084372    -0.8928853702     0.9519563563
   10      H      -2.0792481915    -0.0311854154    -0.4096141717
   11      H      -1.4064980185     0.8915791410     0.8887790924
 ----------------------------------------------------------------
 Nuclear Repulsion Energy =          81.90521087 hartrees
 There are       13 alpha and       13 beta electrons
 Requested basis set is 6-311+G(2df,2pd)
 There are 72 shells and 214 basis functions

 Total QAlloc Memory Limit   2000 MB
 Mega-Array Size       188 MB
 MEM_STATIC part       192 MB

                       Distance Matrix (Angstroms)
             C (  1)   C (  2)   H (  3)   H (  4)   H (  5)   C (  6)
   C (  2)  1.558221
   H (  3)  1.089762  2.280931
   H (  4)  1.091617  2.228156  1.785800
   H (  5)  1.093180  2.090011  1.757070  1.729137
   C (  6)  2.511795  1.558222  2.848358  2.873551  3.411793
   H (  7)  2.177316  1.093736  2.615066  3.103990  2.390989  2.177316
   H (  8)  2.216402  1.093039  3.170833  2.567594  2.436847  2.216402
   H (  9)  2.848358  2.280931  2.757217  3.308341  3.814862  1.089762
   H ( 10)  3.411793  2.090011  3.814862  3.832459  4.158497  1.093180
   H ( 11)  2.873551  2.228156  3.308341  2.812996  3.832460  1.091617
             H (  7)   H (  8)   H (  9)   H ( 10)
   H (  8)  1.753816
   H (  9)  2.615066  3.170833
   H ( 10)  2.390988  2.436847  1.757071
   H ( 11)  3.103990  2.567594  1.785800  1.729136
 
 A cutoff of  1.0D-09 yielded   2524 shell pairs
 There are     22510 function pairs (     27681 Cartesian)
 Smallest overlap matrix eigenvalue = 9.32E-05

 Scale SEOQF with 1.000000e-01/1.000000e-01/1.000000e-01

 Standard Electronic Orientation quadrupole field applied
 Nucleus-field energy     =     0.0000000005 hartrees
 Requested basis set is 6-31G(d)
 There are 28 shells and 58 basis functions
 A cutoff of  1.0D-09 yielded    402 shell pairs
 There are      1773 function pairs (      1968 Cartesian)
 Smallest overlap matrix eigenvalue = 6.97E-03
 Guess from superposition of atomic densities
 Warning:  Energy on first SCF cycle will be non-variational
 SAD guess density has 26.000000 electrons
 Long-range K will be added via erf
 Coulomb attenuation parameter = 0.2 bohr**(-1)
 A restricted hybrid HF-DFT SCF calculation will be
 performed using Relaxed Constraint Minimization + Pulay DIIS
 Exchange:     0.2220 Hartree-Fock + 1.0000 wB97X-D + LR-HF
 Correlation:  1.0000 wB97X-D
 Using Euler-Maclaurin-Lebedev (75,302) quadrature formula
 Dispersion:   Grimme D
 SCF converges when DIIS error is below 1.0E-04
 using 3 threads for integral computing
 -------------------------------------------------------
 OpenMP Integral computing Module                
 Release: version 1.0, May 2013, Q-Chem Inc. Pittsburgh 
 -------------------------------------------------------
 using 3 threads for integral computing
 -------------------------------------------------------
 OpenMP Integral computing Module                
 Release: version 1.0, May 2013, Q-Chem Inc. Pittsburgh 
 -------------------------------------------------------
 ---------------------------------------
  Cycle       Energy         DIIS Error
 ---------------------------------------
    1    -119.5324518292      9.76E-02
    2    -119.0571992112      8.86E-03
    3    -119.0775655821      2.43E-03
    4    -119.0910442661      1.66E-03
    5    -119.0917221443      2.63E-04 Done RCA. Switching to DIIS
    6    -119.0922197910      1.92E-04
    7    -119.0922357464      1.33E-06 Convergence criterion met
 ---------------------------------------
 SCF time:  CPU 19.91 s  wall 7.30 s
 SCF   energy in the small basis set = -119.09223575
 Total energy in the small basis set = -119.09223575
 ----------------------------------------------------
  Cycle       Energy    
 ----------------------------------------------------
    1     -16.5134303356     -1.65E+01
 Long-range K will be added via erf
 Coulomb attenuation parameter = 0.2 bohr**(-1)
 A restricted hybrid HF-DFT SCF calculation will be
 performed using Relaxed Constraint Minimization + Pulay DIIS
 Exchange:     0.2220 Hartree-Fock + 1.0000 wB97X-D + LR-HF
 Correlation:  1.0000 wB97X-D
 Using Euler-Maclaurin-Lebedev (75,302) quadrature formula
 Dispersion:   Grimme D
 SCF converges when DIIS error is below 1.0E-05
 Basis2 calculation detected. Using small basis as guess for larger.
 SCFMinFind is unable to tell whether the solution found is close.
 Resetting ReadMinima to 0 and attempting to follow guess.
 SCFMinFind following SCF Guess.
 using 3 threads for integral computing
 -------------------------------------------------------
 OpenMP Integral computing Module                
 Release: version 1.0, May 2013, Q-Chem Inc. Pittsburgh 
 -------------------------------------------------------
 using 3 threads for integral computing
 -------------------------------------------------------
 OpenMP Integral computing Module                
 Release: version 1.0, May 2013, Q-Chem Inc. Pittsburgh 
 -------------------------------------------------------
 ---------------------------------------
  Cycle       Energy         DIIS Error
 ---------------------------------------
    1    -119.1112022289      4.21E-03
    2    -119.1332558943      6.02E-04 Done RCA. Switching to DIIS
    3    -119.1340984715      4.22E-04
    4    -119.1350751223      4.58E-05
    5    -119.1350901667      8.52E-06 Convergence criterion met
 ---------------------------------------
 SCF time:  CPU 42.80 s  wall 14.31 s
 SCF   energy in the final basis set = -119.13509017
 Total energy in the final basis set = -119.13509017
 
 --------------------------------------------------------------
 
                    Orbital Energies (a.u.)
 --------------------------------------------------------------
 
 Alpha MOs
 -- Occupied --
-10.2820 -10.2650 -10.2650  -0.8730  -0.7738  -0.6807  -0.5412  -0.5101
 -0.4876  -0.4664  -0.4343  -0.4140  -0.3866
 -- Virtual --
  0.0681   0.0858   0.0895   0.1001   0.1265   0.1303   0.1331   0.1387
  0.1439   0.1695   0.1715   0.1901   0.2355   0.2419   0.2440   0.2726
  0.2827   0.2849   0.2927   0.3093   0.3414   0.3431   0.4541   0.4592
  0.4748   0.5160   0.5164   0.5321   0.5353   0.5586   0.5864   0.5868
  0.6053   0.6058   0.6507   0.6527   0.6573   0.6665   0.7043   0.7247
  0.7298   0.7698   0.8037   0.8416   0.8698   0.8775   0.8989   0.9538
  0.9906   1.0463   1.0588   1.1490   1.1653   1.1717   1.1928   1.2033
  1.2187   1.2356   1.2469   1.2604   1.2675   1.2749   1.3149   1.3706
  1.3879   1.4054   1.4316   1.4592   1.4618   1.4684   1.4766   1.4984
  1.5122   1.5725   1.5931   1.5973   1.6348   1.6607   1.6848   1.6884
  1.7173   2.3574   2.4492   2.4539   2.5196   2.5427   2.5622   2.5748
  2.6248   2.6851   2.7930   2.8180   2.8398   2.8897   2.8988   2.9293
  2.9359   2.9389   2.9971   3.0204   3.0601   3.0643   3.0798   3.1078
  3.1212   3.1571   3.1795   3.1873   3.2031   3.2432   3.2680   3.2984
  3.3090   3.3271   3.3385   3.3477   3.3581   3.3833   3.3845   3.4311
  3.4429   3.4870   3.5162   3.5280   3.5579   3.5750   3.6037   3.6221
  3.6333   3.6448   3.6801   3.7042   3.7613   3.8226   3.8437   3.8561
  3.8673   3.8913   3.9020   3.9484   3.9951   4.0175   4.0281   4.0590
  4.0632   4.0725   4.1042   4.1303   4.1387   4.1654   4.1724   4.1890
  4.2118   4.2315   4.2601   4.3070   4.3324   4.3953   4.4143   4.4519
  4.4860   4.4985   4.5344   4.5697   4.6810   4.8107   4.8441   4.8700
  4.8737   4.9270   4.9696   4.9957   5.0017   5.0344   5.0876   5.1226
  5.1606   5.2158   5.2263   5.2450   5.3100   5.3178   5.3218   5.3644
  5.3986   5.4429   5.4446   5.4733   5.4862   5.4984   5.5727   5.6510
  5.9040   6.3556   6.3901   6.4035   6.4296   6.4484  25.1460  25.4043
 25.4433
 --------------------------------------------------------------
 
 -----------------------------------------------------------------
                    Cartesian Multipole Moments
 -----------------------------------------------------------------
    Charge (ESU x 10^10)
                 0.0000
    Dipole Moment (Debye)
         X       0.0000      Y       0.0123      Z      -0.1619
       Tot       0.1623
    Quadrupole Moments (Debye-Ang)
        XX     -22.8050     XY      -0.0000     YY     -21.1786
        XZ       0.0000     YZ      -0.2285     ZZ     -21.4438
    Octopole Moments (Debye-Ang^2)
       XXX       0.0000    XXY       0.0158    XYY       0.0000
       YYY       0.2374    XXZ      -0.8546    XYZ       0.0000
       YYZ       0.2248    XZZ      -0.0000    YZZ      -0.0939
       ZZZ      -1.7334
    Hexadecapole Moments (Debye-Ang^3)
      XXXX    -211.4458   XXXY      -0.0000   XXYY     -41.3022
      XYYY       0.0000   YYYY     -43.9516   XXXZ       0.0000
      XXYZ      -0.0196   XYYZ       0.0000   YYYZ       0.5492
      XXZZ     -44.8691   XYZZ       0.0000   YYZZ     -17.2800
      XZZZ       0.0000   YZZZ       0.1927   ZZZZ     -75.0335
 -----------------------------------------------------------------
Archival summary:
1\1\centos77-c4\SP\ProcedureUnspecified\BasisUnspecified\38\shihchen\TueJul701:34:302020TueJul701:34:302020\0\\#,ProcedureUnspecified,BasisUnspecified,\\0,1\C\H,1,1.09304\H,1,1.09374,2,106.645\C,1,1.55822,2,112.247,3,119.448,0\H,4,1.08976,1,117.859,2,-176.453,0\H,4,1.09162,1,113.288,2,53.2553,0\H,4,1.09318,1,102.632,2,-58.9834,0\C,1,1.55822,2,112.247,3,-119.448,0\H,8,1.08976,1,117.859,2,176.453,0\H,8,1.09162,1,113.288,2,-53.2553,0\H,8,1.09318,1,102.632,2,58.9834,0\\\@

 Total job time:  24.54s(wall), 66.40s(cpu) 
 Tue Jul  7 01:34:30 2020

        *************************************************************
        *                                                           *
        *  Thank you very much for using Q-Chem.  Have a nice day.  *
        *                                                           *
        *************************************************************


