                  Welcome to Q-Chem
     A Quantum Leap Into The Future Of Chemistry


 Q-Chem 5.3 (devel), Q-Chem, Inc., Pleasanton, CA (2020)

 Yihan Shao,  Zhengting Gan,  E. Epifanovsky,  A. T. B. Gilbert,  M. Wormit,  
 J. Kussmann,  A. W. Lange,  A. Behn,  Jia Deng,  Xintian Feng,  D. Ghosh,  
 M. Goldey,  P. R. Horn,  L. D. Jacobson,  I. Kaliman,  T. Kus,  A. Landau,  
 Jie Liu,  E. I. Proynov,  R. M. Richard,  R. P. Steele,  E. J. Sundstrom,  
 H. L. Woodcock III,  P. M. Zimmerman,  D. Zuev,  B. Alam,  B. Albrecht,  
 E. Alguire,  S. A. Baeppler,  D. Barton,  Z. Benda,  Y. A. Bernard,  
 E. J. Berquist,  K. B. Bravaya,  H. Burton,  K. Carter-Fenk,  D. Casanova,  
 Chun-Min Chang,  Yunqing Chen,  A. Chien,  K. D. Closser,  M. P. Coons,  
 S. Coriani,  S. Dasgupta,  A. L. Dempwolff,  M. Diedenhofen,  Hainam Do,  
 R. G. Edgar,  Po-Tung Fang,  S. Faraji,  S. Fatehi,  Qingguo Feng,  
 J. Fosso-Tande,  J. Gayvert,  Qinghui Ge,  A. Ghysels,  G. Gidofalvi,  
 J. Gomes,  J. Gonthier,  A. Gunina,  D. Hait,  M. W. D. Hanson-Heine,  
 P. H. P. Harbach,  A. W. Hauser,  M. F. Herbst,  J. E. Herr,  
 E. G. Hohenstein,  Z. C. Holden,  Kerwin Hui,  B. C. Huynh,  T.-C. Jagau,  
 Hyunjun Ji,  B. Kaduk,  K. Khistyaev,  Jaehoon Kim,  P. Klunzinger,  K. Koh,  
 D. Kosenkov,  L. Koulias,  T. Kowalczyk,  C. M. Krauter,  A. Kunitsa,  
 Ka Un Lao,  A. Laurent,  K. V. Lawler,  Joonho Lee,  D. Lefrancois,  
 S. Lehtola,  D. S. Levine,  Yi-Pei Li,  You-Sheng Lin,  Fenglai Liu,  
 Kuan-Yu Liu,  E. Livshits,  M. Loipersberger,  A. Luenser,  P. Manohar,  
 E. Mansoor,  S. F. Manzer,  Shan-Ping Mao,  Yuezhi Mao,  N. Mardirossian,  
 A. V. Marenich,  T. Markovich,  L. A. Martinez-Martinez,  S. A. Maurer,  
 N. J. Mayhall,  S. C. McKenzie,  J.-M. Mewes,  P. Morgante,  A. F. Morrison,  
 J. W. Mullinax,  K. Nanda,  T. S. Nguyen-Beck,  R. Olivares-Amaya,  
 K. J. Oosterbaan,  J. A. Parkhill,  S. K. Paul,  F. Pavosevic,  Zheng Pei,  
 T. M. Perrine,  F. Plasser,  P. Pokhilko,  S. Prager,  A. Prociuk,  
 E. Ramos,  B. Rana,  D. R. Rehn,  F. Rob,  M. Scheurer,  M. Schneider,  
 N. Sergueev,  S. M. Sharada,  S. Sharma,  D. W. Small,  T. Stauch,  
 C. J. Stein,  T. Stein,  Yu-Chuan Su,  S. P. Veccham,  Zhen Tao,  
 A. J. W. Thom,  A. Tkatchenko,  T. Tsuchimochi,  N. M. Tubman,  L. Vogt,  
 M. L. Vidal,  O. Vydrov,  M. A. Watson,  J. Wenzel,  M. de Wergifosse,  
 T. A. Wesolowski,  A. White,  J. Witte,  A. Yamada,  Jun Yang,  K. Yao,  
 S. Yeganeh,  S. R. Yost,  Zhi-Qiang You,  A. Zech,  Igor Ying Zhang,  
 Xing Zhang,  Yan Zhao,  Ying Zhu,  B. R. Brooks,  G. K. L. Chan,  
 C. J. Cramer,  M. S. Gordon,  W. J. Hehre,  A. Klamt,  M. W. Schmidt,  
 C. D. Sherrill,  D. G. Truhlar,  A. Aspuru-Guzik,  R. Baer,  A. T. Bell,  
 N. A. Besley,  Jeng-Da Chai,  A. E. DePrince, III,  R. A. DiStasio Jr.,  
 A. Dreuw,  B. D. Dunietz,  T. R. Furlani,  Chao-Ping Hsu,  Yousung Jung,  
 Jing Kong,  D. S. Lambrecht,  WanZhen Liang,  C. Ochsenfeld,  
 V. A. Rassolov,  L. V. Slipchenko,  J. E. Subotnik,  T. Van Voorhis,  
 J. M. Herbert,  A. I. Krylov,  P. M. W. Gill,  M. Head-Gordon

 Contributors to earlier versions of Q-Chem not listed above: 
 R. D. Adamson,  B. Austin,  J. Baker,  G. J. O. Beran,  K. Brandhorst,  
 S. T. Brown,  E. F. C. Byrd,  A. K. Chakraborty,  C.-L. Cheng,  
 Siu Hung Chien,  D. M. Chipman,  D. L. Crittenden,  H. Dachsel,  
 R. J. Doerksen,  A. D. Dutoi,  L. Fusti-Molnar,  W. A. Goddard III,  
 A. Golubeva-Zadorozhnaya,  S. R. Gwaltney,  G. Hawkins,  A. Heyden,  
 S. Hirata,  G. Kedziora,  F. J. Keil,  C. Kelley,  Jihan Kim,  R. A. King,  
 R. Z. Khaliullin,  P. P. Korambath,  W. Kurlancheek,  A. M. Lee,  M. S. Lee,  
 S. V. Levchenko,  Ching Yeh Lin,  D. Liotard,  R. C. Lochan,  I. Lotan,  
 P. E. Maslen,  N. Nair,  D. P. O'Neill,  D. Neuhauser,  E. Neuscamman,  
 C. M. Oana,  R. Olson,  B. Peters,  R. Peverati,  P. A. Pieniazek,  
 Y. M. Rhee,  J. Ritchie,  M. A. Rohrdanz,  E. Rosta,  N. J. Russ,  
 H. F. Schaefer III,  N. E. Schultz,  N. Shenvi,  A. C. Simmonett,  A. Sodt,  
 D. Stuck,  K. S. Thanthiriwatte,  V. Vanovschi,  Tao Wang,  A. Warshel,  
 C. F. Williams,  Q. Wu,  X. Xu,  W. Zhang

 Please cite Q-Chem as follows:
 Y. Shao et al., Mol. Phys. 113, 184-215 (2015)
 DOI: 10.1080/00268976.2014.952696

 Q-Chem 5.3.0 for Intel X86 EM64T Linux

 Parts of Q-Chem use Armadillo 9.800.1 (Horizon Scraper).
 http://arma.sourceforge.net/

 Q-Chem begins on Tue Jul  7 01:20:15 2020  

Host: centos77-c4
0

     Scratch files written to /tmp/26964.centos77-h1/qchem99216//
Processing $rem in /opt/qchem-5.3.0-intel2020u1//config/preferences:
Processing $rem in /home/shihchengli/.qchemrc:

Checking the input file for inconsistencies... 	...done.

--------------------------------------------------------------
User input:
--------------------------------------------------------------
$rem
   JOBTYPE  sp
   EXCHANGE   omegaB97X-D
   BASIS   6-311+G(2df,2pd)
   UNRESTRICTED   False
   max_scf_cycles   250
   geom_opt_max_cycles   1500
   basis2 6-31G*
   scf_algorithm rca_diis
   SYM_IGNORE  TRUE
   print_input   true
   geom_opt_dmax   80
   pop_mulliken false
   XC_GRID 000075000302
$end

$molecule
0 1
C       1.2290826418     -0.1337150335     0.3068971575
C       -0.0174333377     -0.0030540613     -0.5838986833
H       1.5437772401     -0.8314612597     1.0784899706
H       1.0808558763     0.8534308290     0.7577711292
H       2.0521802398     0.0621597978     -0.3836155736
C       -1.2910402531     0.1602998242     0.2115015693
H       -0.3104978716     -0.8314568114     -1.2332205029
H       0.4094192879     0.7645889739     -1.2337275733
H       -1.0330036444     -0.8125967093     0.6474516066
H       -2.2310159729     -0.0351100834     -0.3021580328
H       -1.4323242668     0.8069151999     1.0755539517
$end
--------------------------------------------------------------
 ----------------------------------------------------------------
             Standard Nuclear Orientation (Angstroms)
    I     Atom           X                Y                Z
 ----------------------------------------------------------------
    1      C       1.2290826418    -0.1337150335     0.3068971575
    2      C      -0.0174333377    -0.0030540613    -0.5838986833
    3      H       1.5437772401    -0.8314612597     1.0784899706
    4      H       1.0808558763     0.8534308290     0.7577711292
    5      H       2.0521802398     0.0621597978    -0.3836155736
    6      C      -1.2910402531     0.1602998242     0.2115015693
    7      H      -0.3104978716    -0.8314568114    -1.2332205029
    8      H       0.4094192879     0.7645889739    -1.2337275733
    9      H      -1.0330036444    -0.8125967093     0.6474516066
   10      H      -2.2310159729    -0.0351100834    -0.3021580328
   11      H      -1.4323242668     0.8069151999     1.0755539517
 ----------------------------------------------------------------
 Nuclear Repulsion Energy =          83.33282568 hartrees
 There are       13 alpha and       13 beta electrons
 Requested basis set is 6-311+G(2df,2pd)
 There are 72 shells and 214 basis functions

 Total QAlloc Memory Limit   2000 MB
 Mega-Array Size       188 MB
 MEM_STATIC part       192 MB

                       Distance Matrix (Angstroms)
             C (  1)   C (  2)   H (  3)   H (  4)   H (  5)   C (  6)
   C (  2)  1.537658
   H (  3)  1.086848  2.426350
   H (  4)  1.095315  1.933878  1.776519
   H (  5)  1.092092  2.080304  1.787396  1.694799
   C (  6)  2.539009  1.510437  3.125932  2.530757  3.397193
   H (  7)  2.286726  1.092592  2.963502  2.956139  2.665075  2.008050
   H (  8)  1.962733  1.092592  3.029933  2.103518  1.978575  2.312015
   H (  9)  2.386188  1.789683  2.612652  2.693737  3.368480  1.096888
   H ( 10)  3.514677  2.231671  4.097490  3.589074  4.285075  1.088846
   H ( 11)  2.925526  2.326317  3.397273  2.533619  3.850404  1.088420
             H (  7)   H (  8)   H (  9)   H ( 10)
   H (  8)  1.750898
   H (  9)  2.014770  2.847268
   H ( 10)  2.278033  2.911913  1.715074
   H ( 11)  3.045192  2.954081  1.722076  1.801390
 
 A cutoff of  1.0D-09 yielded   2535 shell pairs
 There are     22540 function pairs (     27723 Cartesian)
 Smallest overlap matrix eigenvalue = 1.03E-04

 Scale SEOQF with 1.000000e-01/1.000000e-01/1.000000e-01

 Standard Electronic Orientation quadrupole field applied
 Nucleus-field energy     =     0.0000000005 hartrees
 Requested basis set is 6-31G(d)
 There are 28 shells and 58 basis functions
 A cutoff of  1.0D-09 yielded    401 shell pairs
 There are      1772 function pairs (      1967 Cartesian)
 Smallest overlap matrix eigenvalue = 7.15E-03
 Guess from superposition of atomic densities
 Warning:  Energy on first SCF cycle will be non-variational
 SAD guess density has 26.000000 electrons
 Long-range K will be added via erf
 Coulomb attenuation parameter = 0.2 bohr**(-1)
 A restricted hybrid HF-DFT SCF calculation will be
 performed using Relaxed Constraint Minimization + Pulay DIIS
 Exchange:     0.2220 Hartree-Fock + 1.0000 wB97X-D + LR-HF
 Correlation:  1.0000 wB97X-D
 Using Euler-Maclaurin-Lebedev (75,302) quadrature formula
 Dispersion:   Grimme D
 SCF converges when DIIS error is below 1.0E-04
 using 3 threads for integral computing
 -------------------------------------------------------
 OpenMP Integral computing Module                
 Release: version 1.0, May 2013, Q-Chem Inc. Pittsburgh 
 -------------------------------------------------------
 using 3 threads for integral computing
 -------------------------------------------------------
 OpenMP Integral computing Module                
 Release: version 1.0, May 2013, Q-Chem Inc. Pittsburgh 
 -------------------------------------------------------
 ---------------------------------------
  Cycle       Energy         DIIS Error
 ---------------------------------------
    1    -119.7031601642      1.03E-01
    2    -119.0099236089      8.91E-03
    3    -119.0309986385      2.66E-03
    4    -119.0442497774      1.84E-03
    5    -119.0450882714      3.01E-04 Done RCA. Switching to DIIS
    6    -119.0456958274      2.23E-04
    7    -119.0457173892      5.54E-06 Convergence criterion met
 ---------------------------------------
 SCF time:  CPU 21.67 s  wall 8.11 s
 SCF   energy in the small basis set = -119.04571739
 Total energy in the small basis set = -119.04571739
 ----------------------------------------------------
  Cycle       Energy    
 ----------------------------------------------------
    1     -16.5456584195     -1.65E+01
 Long-range K will be added via erf
 Coulomb attenuation parameter = 0.2 bohr**(-1)
 A restricted hybrid HF-DFT SCF calculation will be
 performed using Relaxed Constraint Minimization + Pulay DIIS
 Exchange:     0.2220 Hartree-Fock + 1.0000 wB97X-D + LR-HF
 Correlation:  1.0000 wB97X-D
 Using Euler-Maclaurin-Lebedev (75,302) quadrature formula
 Dispersion:   Grimme D
 SCF converges when DIIS error is below 1.0E-05
 Basis2 calculation detected. Using small basis as guess for larger.
 SCFMinFind is unable to tell whether the solution found is close.
 Resetting ReadMinima to 0 and attempting to follow guess.
 SCFMinFind following SCF Guess.
 using 3 threads for integral computing
 -------------------------------------------------------
 OpenMP Integral computing Module                
 Release: version 1.0, May 2013, Q-Chem Inc. Pittsburgh 
 -------------------------------------------------------
 using 3 threads for integral computing
 -------------------------------------------------------
 OpenMP Integral computing Module                
 Release: version 1.0, May 2013, Q-Chem Inc. Pittsburgh 
 -------------------------------------------------------
 ---------------------------------------
  Cycle       Energy         DIIS Error
 ---------------------------------------
    1    -119.0667879502      4.21E-03
    2    -119.0887996131      6.13E-04 Done RCA. Switching to DIIS
    3    -119.0896804156      4.32E-04
    4    -119.0906998197      4.68E-05
    5    -119.0907155376      1.22E-05
    6    -119.0907164958      4.58E-06 Convergence criterion met
 ---------------------------------------
 SCF time:  CPU 50.03 s  wall 16.70 s
 SCF   energy in the final basis set = -119.09071650
 Total energy in the final basis set = -119.09071650
 
 --------------------------------------------------------------
 
                    Orbital Energies (a.u.)
 --------------------------------------------------------------
 
 Alpha MOs
 -- Occupied --
-10.2855 -10.2684 -10.2663  -0.8965  -0.7863  -0.6780  -0.5606  -0.5360
 -0.4778  -0.4673  -0.4227  -0.4034  -0.3873
 -- Virtual --
  0.0699   0.0850   0.0888   0.0968   0.1220   0.1283   0.1314   0.1382
  0.1411   0.1720   0.1741   0.1991   0.2180   0.2280   0.2445   0.2556
  0.2818   0.2846   0.2966   0.3194   0.3309   0.3516   0.4558   0.4664
  0.4745   0.4981   0.5087   0.5187   0.5509   0.5664   0.5904   0.6010
  0.6109   0.6210   0.6444   0.6603   0.6630   0.6812   0.7033   0.7086
  0.7192   0.7639   0.7873   0.8394   0.8438   0.9211   0.9417   0.9669
  0.9882   1.0480   1.0658   1.0949   1.1229   1.1453   1.1557   1.2058
  1.2438   1.2556   1.2885   1.3042   1.3211   1.3368   1.3521   1.3648
  1.3688   1.4314   1.4469   1.4563   1.4815   1.4886   1.5056   1.5097
  1.5536   1.5627   1.5787   1.6027   1.6325   1.6512   1.6747   1.6926
  1.7266   2.3477   2.4418   2.5142   2.5345   2.5893   2.6131   2.6303
  2.6479   2.6845   2.7254   2.8194   2.8673   2.9007   2.9073   2.9601
  2.9707   2.9870   3.0180   3.0263   3.0569   3.0766   3.0833   3.0941
  3.1370   3.1611   3.1764   3.1871   3.2211   3.2539   3.2754   3.2981
  3.3075   3.3116   3.3319   3.3555   3.3674   3.4237   3.4586   3.4696
  3.4885   3.5114   3.5345   3.5372   3.5606   3.5691   3.6024   3.6100
  3.6256   3.6348   3.6476   3.7006   3.7158   3.7282   3.7811   3.8028
  3.8860   3.9122   3.9383   3.9868   4.0025   4.0264   4.0562   4.0645
  4.0676   4.1221   4.1477   4.1838   4.2037   4.2195   4.2262   4.2400
  4.2740   4.3044   4.3388   4.3751   4.4387   4.4509   4.4683   4.5046
  4.5688   4.5912   4.6271   4.6622   4.7013   4.7618   4.7804   4.8454
  4.8851   4.9336   4.9743   5.0106   5.0440   5.0994   5.1238   5.1317
  5.1815   5.2230   5.2367   5.2712   5.2838   5.3138   5.3460   5.3687
  5.4060   5.4258   5.4787   5.5697   5.6067   5.7088   5.7651   5.8941
  6.1715   6.4142   6.4341   6.4388   6.4971   6.5610  25.1599  25.4251
 25.4536
 --------------------------------------------------------------
 
 -----------------------------------------------------------------
                    Cartesian Multipole Moments
 -----------------------------------------------------------------
    Charge (ESU x 10^10)
                 0.0000
    Dipole Moment (Debye)
         X       0.0437      Y      -0.0987      Z       0.0106
       Tot       0.1084
    Quadrupole Moments (Debye-Ang)
        XX     -21.8491     XY       0.2411     YY     -22.0461
        XZ       0.0316     YZ       0.1291     ZZ     -21.8408
    Octopole Moments (Debye-Ang^2)
       XXX      -0.0861    XXY      -0.4885    XYY       0.7262
       YYY      -0.5209    XXZ      -0.9878    XYZ      -1.9062
       YYZ       0.4545    XZZ       0.7271    YZZ      -0.1935
       ZZZ       0.1471
    Hexadecapole Moments (Debye-Ang^3)
      XXXX    -198.6726   XXXY       4.7998   XXYY     -42.2554
      XYYY       5.9725   YYYY     -44.5616   XXXZ      -0.9074
      XXYZ      -0.3939   XYYZ      -0.2702   YYYZ      -0.0251
      XXZZ     -43.5839   XYZZ       0.6370   YYZZ     -17.8275
      XZZZ      -1.9394   YZZZ       0.0911   ZZZZ     -71.5458
 -----------------------------------------------------------------
Archival summary:
1\1\centos77-c4\SP\ProcedureUnspecified\BasisUnspecified\38\shihchen\TueJul701:20:422020TueJul701:20:422020\0\\#,ProcedureUnspecified,BasisUnspecified,\\0,1\C\H,1,1.09259\H,1,1.09259,2,106.501\C,1,1.51044,2,124.516,3,-114.668,0\H,4,1.08842,1,126.281,2,-69.7551,0\H,4,1.08885,1,117.393,2,83.8855,0\H,4,1.09689,1,85.1246,2,-173.56,0\C,1,1.53766,2,95.0227,3,123.141,0\H,8,1.08685,1,134.472,2,-169.452,0\H,8,1.09209,1,103.265,2,-32.6238,0\H,8,1.09532,1,92.9912,2,70.0101,0\\\@

 Total job time:  27.77s(wall), 75.33s(cpu) 
 Tue Jul  7 01:20:42 2020

        *************************************************************
        *                                                           *
        *  Thank you very much for using Q-Chem.  Have a nice day.  *
        *                                                           *
        *************************************************************


