                  Welcome to Q-Chem
     A Quantum Leap Into The Future Of Chemistry


 Q-Chem 5.3 (devel), Q-Chem, Inc., Pleasanton, CA (2020)

 Yihan Shao,  Zhengting Gan,  E. Epifanovsky,  A. T. B. Gilbert,  M. Wormit,  
 J. Kussmann,  A. W. Lange,  A. Behn,  Jia Deng,  Xintian Feng,  D. Ghosh,  
 M. Goldey,  P. R. Horn,  L. D. Jacobson,  I. Kaliman,  T. Kus,  A. Landau,  
 Jie Liu,  E. I. Proynov,  R. M. Richard,  R. P. Steele,  E. J. Sundstrom,  
 H. L. Woodcock III,  P. M. Zimmerman,  D. Zuev,  B. Alam,  B. Albrecht,  
 E. Alguire,  S. A. Baeppler,  D. Barton,  Z. Benda,  Y. A. Bernard,  
 E. J. Berquist,  K. B. Bravaya,  H. Burton,  K. Carter-Fenk,  D. Casanova,  
 Chun-Min Chang,  Yunqing Chen,  A. Chien,  K. D. Closser,  M. P. Coons,  
 S. Coriani,  S. Dasgupta,  A. L. Dempwolff,  M. Diedenhofen,  Hainam Do,  
 R. G. Edgar,  Po-Tung Fang,  S. Faraji,  S. Fatehi,  Qingguo Feng,  
 J. Fosso-Tande,  J. Gayvert,  Qinghui Ge,  A. Ghysels,  G. Gidofalvi,  
 J. Gomes,  J. Gonthier,  A. Gunina,  D. Hait,  M. W. D. Hanson-Heine,  
 P. H. P. Harbach,  A. W. Hauser,  M. F. Herbst,  J. E. Herr,  
 E. G. Hohenstein,  Z. C. Holden,  Kerwin Hui,  B. C. Huynh,  T.-C. Jagau,  
 Hyunjun Ji,  B. Kaduk,  K. Khistyaev,  Jaehoon Kim,  P. Klunzinger,  K. Koh,  
 D. Kosenkov,  L. Koulias,  T. Kowalczyk,  C. M. Krauter,  A. Kunitsa,  
 Ka Un Lao,  A. Laurent,  K. V. Lawler,  Joonho Lee,  D. Lefrancois,  
 S. Lehtola,  D. S. Levine,  Yi-Pei Li,  You-Sheng Lin,  Fenglai Liu,  
 Kuan-Yu Liu,  E. Livshits,  M. Loipersberger,  A. Luenser,  P. Manohar,  
 E. Mansoor,  S. F. Manzer,  Shan-Ping Mao,  Yuezhi Mao,  N. Mardirossian,  
 A. V. Marenich,  T. Markovich,  L. A. Martinez-Martinez,  S. A. Maurer,  
 N. J. Mayhall,  S. C. McKenzie,  J.-M. Mewes,  P. Morgante,  A. F. Morrison,  
 J. W. Mullinax,  K. Nanda,  T. S. Nguyen-Beck,  R. Olivares-Amaya,  
 K. J. Oosterbaan,  J. A. Parkhill,  S. K. Paul,  F. Pavosevic,  Zheng Pei,  
 T. M. Perrine,  F. Plasser,  P. Pokhilko,  S. Prager,  A. Prociuk,  
 E. Ramos,  B. Rana,  D. R. Rehn,  F. Rob,  M. Scheurer,  M. Schneider,  
 N. Sergueev,  S. M. Sharada,  S. Sharma,  D. W. Small,  T. Stauch,  
 C. J. Stein,  T. Stein,  Yu-Chuan Su,  S. P. Veccham,  Zhen Tao,  
 A. J. W. Thom,  A. Tkatchenko,  T. Tsuchimochi,  N. M. Tubman,  L. Vogt,  
 M. L. Vidal,  O. Vydrov,  M. A. Watson,  J. Wenzel,  M. de Wergifosse,  
 T. A. Wesolowski,  A. White,  J. Witte,  A. Yamada,  Jun Yang,  K. Yao,  
 S. Yeganeh,  S. R. Yost,  Zhi-Qiang You,  A. Zech,  Igor Ying Zhang,  
 Xing Zhang,  Yan Zhao,  Ying Zhu,  B. R. Brooks,  G. K. L. Chan,  
 C. J. Cramer,  M. S. Gordon,  W. J. Hehre,  A. Klamt,  M. W. Schmidt,  
 C. D. Sherrill,  D. G. Truhlar,  A. Aspuru-Guzik,  R. Baer,  A. T. Bell,  
 N. A. Besley,  Jeng-Da Chai,  A. E. DePrince, III,  R. A. DiStasio Jr.,  
 A. Dreuw,  B. D. Dunietz,  T. R. Furlani,  Chao-Ping Hsu,  Yousung Jung,  
 Jing Kong,  D. S. Lambrecht,  WanZhen Liang,  C. Ochsenfeld,  
 V. A. Rassolov,  L. V. Slipchenko,  J. E. Subotnik,  T. Van Voorhis,  
 J. M. Herbert,  A. I. Krylov,  P. M. W. Gill,  M. Head-Gordon

 Contributors to earlier versions of Q-Chem not listed above: 
 R. D. Adamson,  B. Austin,  J. Baker,  G. J. O. Beran,  K. Brandhorst,  
 S. T. Brown,  E. F. C. Byrd,  A. K. Chakraborty,  C.-L. Cheng,  
 Siu Hung Chien,  D. M. Chipman,  D. L. Crittenden,  H. Dachsel,  
 R. J. Doerksen,  A. D. Dutoi,  L. Fusti-Molnar,  W. A. Goddard III,  
 A. Golubeva-Zadorozhnaya,  S. R. Gwaltney,  G. Hawkins,  A. Heyden,  
 S. Hirata,  G. Kedziora,  F. J. Keil,  C. Kelley,  Jihan Kim,  R. A. King,  
 R. Z. Khaliullin,  P. P. Korambath,  W. Kurlancheek,  A. M. Lee,  M. S. Lee,  
 S. V. Levchenko,  Ching Yeh Lin,  D. Liotard,  R. C. Lochan,  I. Lotan,  
 P. E. Maslen,  N. Nair,  D. P. O'Neill,  D. Neuhauser,  E. Neuscamman,  
 C. M. Oana,  R. Olson,  B. Peters,  R. Peverati,  P. A. Pieniazek,  
 Y. M. Rhee,  J. Ritchie,  M. A. Rohrdanz,  E. Rosta,  N. J. Russ,  
 H. F. Schaefer III,  N. E. Schultz,  N. Shenvi,  A. C. Simmonett,  A. Sodt,  
 D. Stuck,  K. S. Thanthiriwatte,  V. Vanovschi,  Tao Wang,  A. Warshel,  
 C. F. Williams,  Q. Wu,  X. Xu,  W. Zhang

 Please cite Q-Chem as follows:
 Y. Shao et al., Mol. Phys. 113, 184-215 (2015)
 DOI: 10.1080/00268976.2014.952696

 Q-Chem 5.3.0 for Intel X86 EM64T Linux

 Parts of Q-Chem use Armadillo 9.800.1 (Horizon Scraper).
 http://arma.sourceforge.net/

 Q-Chem begins on Tue Jul  7 01:47:11 2020  

Host: centos77-c4
0

     Scratch files written to /tmp/26964.centos77-h1/qchem104235//
Processing $rem in /opt/qchem-5.3.0-intel2020u1//config/preferences:
Processing $rem in /home/shihchengli/.qchemrc:

Checking the input file for inconsistencies... 	...done.

--------------------------------------------------------------
User input:
--------------------------------------------------------------
$rem
   JOBTYPE  sp
   EXCHANGE   omegaB97X-D
   BASIS   6-311+G(2df,2pd)
   UNRESTRICTED   False
   max_scf_cycles   250
   geom_opt_max_cycles   1500
   basis2 6-31G*
   scf_algorithm rca_diis
   SYM_IGNORE  TRUE
   print_input   true
   geom_opt_dmax   80
   pop_mulliken false
   XC_GRID 000075000302
$end

$molecule
0 1
C       1.2673734497     0.1191866793     0.2576938018
C       0.0048066989     -0.0042510448     -0.5829846801
H       1.2650841665     -0.7996628607     0.8484985028
H       1.3439245158     0.9658770487     0.9411498595
H       2.1653012489     0.0102969036     -0.3518913922
C       -1.2681845297     -0.1185270770     0.2511811841
H       -0.3353479023     -0.8185929507     -1.2271110846
H       0.3225399645     0.8097007309     -1.2389456094
H       -1.3552023104     -0.9573851991     0.9438256165
H       -2.1582043285     0.0078945276     -0.3655861773
H       -1.2520910339     0.7854639082     0.8652149980
$end
--------------------------------------------------------------
 ----------------------------------------------------------------
             Standard Nuclear Orientation (Angstroms)
    I     Atom           X                Y                Z
 ----------------------------------------------------------------
    1      C       1.2673734497     0.1191866793     0.2576938018
    2      C       0.0048066989    -0.0042510448    -0.5829846801
    3      H       1.2650841665    -0.7996628607     0.8484985028
    4      H       1.3439245158     0.9658770487     0.9411498595
    5      H       2.1653012489     0.0102969036    -0.3518913922
    6      C      -1.2681845297    -0.1185270770     0.2511811841
    7      H      -0.3353479023    -0.8185929507    -1.2271110846
    8      H       0.3225399645     0.8097007309    -1.2389456094
    9      H      -1.3552023104    -0.9573851991     0.9438256165
   10      H      -2.1582043285     0.0078945276    -0.3655861773
   11      H      -1.2520910339     0.7854639082     0.8652149980
 ----------------------------------------------------------------
 Nuclear Repulsion Energy =          82.89430769 hartrees
 There are       13 alpha and       13 beta electrons
 Requested basis set is 6-311+G(2df,2pd)
 There are 72 shells and 214 basis functions

 Total QAlloc Memory Limit   2000 MB
 Mega-Array Size       188 MB
 MEM_STATIC part       192 MB

                       Distance Matrix (Angstroms)
             C (  1)   C (  2)   H (  3)   H (  4)   H (  5)   C (  6)
   C (  2)  1.521858
   H (  3)  1.092401  2.066428
   H (  4)  1.090806  2.248860  1.769726
   H (  5)  1.090745  2.172867  1.705099  1.805477
   C (  6)  2.546685  1.526237  2.690387  2.911203  3.488426
   H (  7)  2.377560  1.092592  2.621049  3.271948  2.776025  1.882983
   H (  8)  1.899855  1.092592  2.799261  2.412558  2.195833  2.369069
   H (  9)  2.916794  2.255934  2.626759  3.314247  3.874176  1.091335
   H ( 10)  3.483597  2.173943  3.720894  3.858782  4.323528  1.090192
   H ( 11)  2.675950  2.073819  2.974740  2.603385  3.709555  1.092930
             H (  7)   H (  8)   H (  9)   H ( 10)
   H (  8)  1.756217
   H (  9)  2.402568  3.271376
   H ( 10)  2.179016  2.749499  1.814149
   H ( 11)  2.791280  2.628220  1.747665  1.714796
 
 A cutoff of  1.0D-09 yielded   2531 shell pairs
 There are     22491 function pairs (     27652 Cartesian)
 Smallest overlap matrix eigenvalue = 1.21E-04

 Scale SEOQF with 1.000000e-01/1.000000e-01/1.000000e-01

 Standard Electronic Orientation quadrupole field applied
 Nucleus-field energy     =     0.0000000006 hartrees
 Requested basis set is 6-31G(d)
 There are 28 shells and 58 basis functions
 A cutoff of  1.0D-09 yielded    402 shell pairs
 There are      1773 function pairs (      1968 Cartesian)
 Smallest overlap matrix eigenvalue = 7.51E-03
 Guess from superposition of atomic densities
 Warning:  Energy on first SCF cycle will be non-variational
 SAD guess density has 26.000000 electrons
 Long-range K will be added via erf
 Coulomb attenuation parameter = 0.2 bohr**(-1)
 A restricted hybrid HF-DFT SCF calculation will be
 performed using Relaxed Constraint Minimization + Pulay DIIS
 Exchange:     0.2220 Hartree-Fock + 1.0000 wB97X-D + LR-HF
 Correlation:  1.0000 wB97X-D
 Using Euler-Maclaurin-Lebedev (75,302) quadrature formula
 Dispersion:   Grimme D
 SCF converges when DIIS error is below 1.0E-04
 using 3 threads for integral computing
 -------------------------------------------------------
 OpenMP Integral computing Module                
 Release: version 1.0, May 2013, Q-Chem Inc. Pittsburgh 
 -------------------------------------------------------
 using 3 threads for integral computing
 -------------------------------------------------------
 OpenMP Integral computing Module                
 Release: version 1.0, May 2013, Q-Chem Inc. Pittsburgh 
 -------------------------------------------------------
 ---------------------------------------
  Cycle       Energy         DIIS Error
 ---------------------------------------
    1    -119.6552645317      1.01E-01
    2    -119.0161972780      9.04E-03
    3    -119.0376187281      2.56E-03
    4    -119.0515977405      1.77E-03
    5    -119.0523710851      2.81E-04 Done RCA. Switching to DIIS
    6    -119.0529423721      2.08E-04
    7    -119.0529613701      6.33E-06 Convergence criterion met
 ---------------------------------------
 SCF time:  CPU 19.45 s  wall 6.99 s
 SCF   energy in the small basis set = -119.05296137
 Total energy in the small basis set = -119.05296137
 ----------------------------------------------------
  Cycle       Energy    
 ----------------------------------------------------
    1     -16.5387516479     -1.65E+01
 Long-range K will be added via erf
 Coulomb attenuation parameter = 0.2 bohr**(-1)
 A restricted hybrid HF-DFT SCF calculation will be
 performed using Relaxed Constraint Minimization + Pulay DIIS
 Exchange:     0.2220 Hartree-Fock + 1.0000 wB97X-D + LR-HF
 Correlation:  1.0000 wB97X-D
 Using Euler-Maclaurin-Lebedev (75,302) quadrature formula
 Dispersion:   Grimme D
 SCF converges when DIIS error is below 1.0E-05
 Basis2 calculation detected. Using small basis as guess for larger.
 SCFMinFind is unable to tell whether the solution found is close.
 Resetting ReadMinima to 0 and attempting to follow guess.
 SCFMinFind following SCF Guess.
 using 3 threads for integral computing
 -------------------------------------------------------
 OpenMP Integral computing Module                
 Release: version 1.0, May 2013, Q-Chem Inc. Pittsburgh 
 -------------------------------------------------------
 using 3 threads for integral computing
 -------------------------------------------------------
 OpenMP Integral computing Module                
 Release: version 1.0, May 2013, Q-Chem Inc. Pittsburgh 
 -------------------------------------------------------
 ---------------------------------------
  Cycle       Energy         DIIS Error
 ---------------------------------------
    1    -119.0734903023      4.21E-03
    2    -119.0956528804      6.29E-04 Done RCA. Switching to DIIS
    3    -119.0965510288      4.51E-04
    4    -119.0976669915      4.71E-05
    5    -119.0976832766      1.20E-05
    6    -119.0976842350      4.51E-06 Convergence criterion met
 ---------------------------------------
 SCF time:  CPU 51.49 s  wall 17.36 s
 SCF   energy in the final basis set = -119.09768424
 Total energy in the final basis set = -119.09768424
 
 --------------------------------------------------------------
 
                    Orbital Energies (a.u.)
 --------------------------------------------------------------
 
 Alpha MOs
 -- Occupied --
-10.2733 -10.2685 -10.2684  -0.8866  -0.7839  -0.6781  -0.5498  -0.5279
 -0.5031  -0.4725  -0.4338  -0.4042  -0.3586
 -- Virtual --
  0.0686   0.0838   0.0902   0.0993   0.1242   0.1259   0.1305   0.1435
  0.1486   0.1647   0.1790   0.1917   0.2226   0.2278   0.2307   0.2442
  0.2827   0.2882   0.3135   0.3213   0.3269   0.3421   0.4586   0.4682
  0.4765   0.5037   0.5229   0.5277   0.5521   0.5538   0.5838   0.6021
  0.6043   0.6129   0.6423   0.6463   0.6589   0.6969   0.7022   0.7133
  0.7227   0.7781   0.7844   0.8135   0.8467   0.8986   0.9201   0.9695
  1.0053   1.0362   1.0644   1.1135   1.1210   1.1511   1.1742   1.2166
  1.2220   1.2319   1.2778   1.2844   1.3235   1.3402   1.3584   1.3626
  1.3861   1.3927   1.4085   1.4251   1.4561   1.4662   1.4867   1.4998
  1.5283   1.5643   1.5964   1.6077   1.6327   1.6437   1.6713   1.7198
  1.7487   2.4016   2.4405   2.4643   2.4692   2.5314   2.5886   2.6177
  2.6665   2.7230   2.7635   2.7824   2.8220   2.8632   2.9117   2.9286
  2.9325   3.0093   3.0432   3.0468   3.0523   3.0587   3.0910   3.0980
  3.1198   3.1289   3.1578   3.1701   3.2515   3.2726   3.2911   3.3125
  3.3171   3.3426   3.3488   3.3619   3.3923   3.4264   3.4340   3.4442
  3.4648   3.4969   3.5388   3.5490   3.5632   3.5736   3.6042   3.6265
  3.6344   3.6408   3.6695   3.6796   3.7128   3.7158   3.7781   3.8354
  3.8479   3.8870   3.9215   3.9469   3.9598   3.9943   4.0303   4.0726
  4.0836   4.1005   4.1399   4.1517   4.1716   4.1866   4.1913   4.2017
  4.2402   4.2655   4.2937   4.3394   4.3619   4.3985   4.4439   4.4741
  4.4807   4.5092   4.5754   4.6559   4.7694   4.7897   4.8231   4.8973
  4.9359   4.9738   4.9902   5.0353   5.0365   5.0494   5.0880   5.1498
  5.1902   5.2041   5.2121   5.2427   5.2940   5.3085   5.3398   5.3645
  5.4054   5.4362   5.4673   5.5270   5.5799   5.6046   5.6360   5.7616
  6.0892   6.3657   6.3694   6.4066   6.4443   6.5028  25.1904  25.4313
 25.4375
 --------------------------------------------------------------
 
 -----------------------------------------------------------------
                    Cartesian Multipole Moments
 -----------------------------------------------------------------
    Charge (ESU x 10^10)
                -0.0000
    Dipole Moment (Debye)
         X       0.0014      Y       0.0036      Z      -0.0114
       Tot       0.0121
    Quadrupole Moments (Debye-Ang)
        XX     -21.8624     XY       0.8910     YY     -21.6635
        XZ       0.0238     YZ      -0.0130     ZZ     -22.0831
    Octopole Moments (Debye-Ang^2)
       XXX       0.0139    XXY       0.0199    XYY       0.0600
       YYY       0.0660    XXZ      -1.8776    XYZ       0.3025
       YYZ       1.0685    XZZ      -0.1105    YZZ       0.0514
       ZZZ       0.0977
    Hexadecapole Moments (Debye-Ang^3)
      XXXX    -202.9275   XXXY      -6.8630   XXYY     -42.0617
      XYYY      -5.9573   YYYY     -45.1426   XXXZ      -0.0220
      XXYZ      -0.0617   XYYZ       0.0395   YYYZ      -0.0741
      XXZZ     -44.9401   XYZZ       0.0237   YYZZ     -17.7488
      XZZZ      -0.1570   YZZZ      -0.1195   ZZZZ     -72.8890
 -----------------------------------------------------------------
Archival summary:
1\1\centos77-c4\SP\ProcedureUnspecified\BasisUnspecified\38\shihchen\TueJul701:47:382020TueJul701:47:382020\0\\#,ProcedureUnspecified,BasisUnspecified,\\0,1\C\H,1,1.09259\H,1,1.09259,2,106.968\C,1,1.52186,2,91.717,3,133.093,0\H,4,1.09075,1,111.478,2,-56.6365,0\H,4,1.09081,1,117.859,2,74.4776,0\H,4,1.0924,1,103.226,2,-166.23,0\C,1,1.52624,2,128.79,3,-104.731,0\H,8,1.09019,1,111.287,2,55.0489,0\H,8,1.09133,1,118.095,2,-172.569,0\H,8,1.09293,1,103.465,2,-55.5282,0\\\@

 Total job time:  27.31s(wall), 74.64s(cpu) 
 Tue Jul  7 01:47:38 2020

        *************************************************************
        *                                                           *
        *  Thank you very much for using Q-Chem.  Have a nice day.  *
        *                                                           *
        *************************************************************


