                  Welcome to Q-Chem
     A Quantum Leap Into The Future Of Chemistry


 Q-Chem 5.3 (devel), Q-Chem, Inc., Pleasanton, CA (2020)

 Yihan Shao,  Zhengting Gan,  E. Epifanovsky,  A. T. B. Gilbert,  M. Wormit,  
 J. Kussmann,  A. W. Lange,  A. Behn,  Jia Deng,  Xintian Feng,  D. Ghosh,  
 M. Goldey,  P. R. Horn,  L. D. Jacobson,  I. Kaliman,  T. Kus,  A. Landau,  
 Jie Liu,  E. I. Proynov,  R. M. Richard,  R. P. Steele,  E. J. Sundstrom,  
 H. L. Woodcock III,  P. M. Zimmerman,  D. Zuev,  B. Alam,  B. Albrecht,  
 E. Alguire,  S. A. Baeppler,  D. Barton,  Z. Benda,  Y. A. Bernard,  
 E. J. Berquist,  K. B. Bravaya,  H. Burton,  K. Carter-Fenk,  D. Casanova,  
 Chun-Min Chang,  Yunqing Chen,  A. Chien,  K. D. Closser,  M. P. Coons,  
 S. Coriani,  S. Dasgupta,  A. L. Dempwolff,  M. Diedenhofen,  Hainam Do,  
 R. G. Edgar,  Po-Tung Fang,  S. Faraji,  S. Fatehi,  Qingguo Feng,  
 J. Fosso-Tande,  J. Gayvert,  Qinghui Ge,  A. Ghysels,  G. Gidofalvi,  
 J. Gomes,  J. Gonthier,  A. Gunina,  D. Hait,  M. W. D. Hanson-Heine,  
 P. H. P. Harbach,  A. W. Hauser,  M. F. Herbst,  J. E. Herr,  
 E. G. Hohenstein,  Z. C. Holden,  Kerwin Hui,  B. C. Huynh,  T.-C. Jagau,  
 Hyunjun Ji,  B. Kaduk,  K. Khistyaev,  Jaehoon Kim,  P. Klunzinger,  K. Koh,  
 D. Kosenkov,  L. Koulias,  T. Kowalczyk,  C. M. Krauter,  A. Kunitsa,  
 Ka Un Lao,  A. Laurent,  K. V. Lawler,  Joonho Lee,  D. Lefrancois,  
 S. Lehtola,  D. S. Levine,  Yi-Pei Li,  You-Sheng Lin,  Fenglai Liu,  
 Kuan-Yu Liu,  E. Livshits,  M. Loipersberger,  A. Luenser,  P. Manohar,  
 E. Mansoor,  S. F. Manzer,  Shan-Ping Mao,  Yuezhi Mao,  N. Mardirossian,  
 A. V. Marenich,  T. Markovich,  L. A. Martinez-Martinez,  S. A. Maurer,  
 N. J. Mayhall,  S. C. McKenzie,  J.-M. Mewes,  P. Morgante,  A. F. Morrison,  
 J. W. Mullinax,  K. Nanda,  T. S. Nguyen-Beck,  R. Olivares-Amaya,  
 K. J. Oosterbaan,  J. A. Parkhill,  S. K. Paul,  F. Pavosevic,  Zheng Pei,  
 T. M. Perrine,  F. Plasser,  P. Pokhilko,  S. Prager,  A. Prociuk,  
 E. Ramos,  B. Rana,  D. R. Rehn,  F. Rob,  M. Scheurer,  M. Schneider,  
 N. Sergueev,  S. M. Sharada,  S. Sharma,  D. W. Small,  T. Stauch,  
 C. J. Stein,  T. Stein,  Yu-Chuan Su,  S. P. Veccham,  Zhen Tao,  
 A. J. W. Thom,  A. Tkatchenko,  T. Tsuchimochi,  N. M. Tubman,  L. Vogt,  
 M. L. Vidal,  O. Vydrov,  M. A. Watson,  J. Wenzel,  M. de Wergifosse,  
 T. A. Wesolowski,  A. White,  J. Witte,  A. Yamada,  Jun Yang,  K. Yao,  
 S. Yeganeh,  S. R. Yost,  Zhi-Qiang You,  A. Zech,  Igor Ying Zhang,  
 Xing Zhang,  Yan Zhao,  Ying Zhu,  B. R. Brooks,  G. K. L. Chan,  
 C. J. Cramer,  M. S. Gordon,  W. J. Hehre,  A. Klamt,  M. W. Schmidt,  
 C. D. Sherrill,  D. G. Truhlar,  A. Aspuru-Guzik,  R. Baer,  A. T. Bell,  
 N. A. Besley,  Jeng-Da Chai,  A. E. DePrince, III,  R. A. DiStasio Jr.,  
 A. Dreuw,  B. D. Dunietz,  T. R. Furlani,  Chao-Ping Hsu,  Yousung Jung,  
 Jing Kong,  D. S. Lambrecht,  WanZhen Liang,  C. Ochsenfeld,  
 V. A. Rassolov,  L. V. Slipchenko,  J. E. Subotnik,  T. Van Voorhis,  
 J. M. Herbert,  A. I. Krylov,  P. M. W. Gill,  M. Head-Gordon

 Contributors to earlier versions of Q-Chem not listed above: 
 R. D. Adamson,  B. Austin,  J. Baker,  G. J. O. Beran,  K. Brandhorst,  
 S. T. Brown,  E. F. C. Byrd,  A. K. Chakraborty,  C.-L. Cheng,  
 Siu Hung Chien,  D. M. Chipman,  D. L. Crittenden,  H. Dachsel,  
 R. J. Doerksen,  A. D. Dutoi,  L. Fusti-Molnar,  W. A. Goddard III,  
 A. Golubeva-Zadorozhnaya,  S. R. Gwaltney,  G. Hawkins,  A. Heyden,  
 S. Hirata,  G. Kedziora,  F. J. Keil,  C. Kelley,  Jihan Kim,  R. A. King,  
 R. Z. Khaliullin,  P. P. Korambath,  W. Kurlancheek,  A. M. Lee,  M. S. Lee,  
 S. V. Levchenko,  Ching Yeh Lin,  D. Liotard,  R. C. Lochan,  I. Lotan,  
 P. E. Maslen,  N. Nair,  D. P. O'Neill,  D. Neuhauser,  E. Neuscamman,  
 C. M. Oana,  R. Olson,  B. Peters,  R. Peverati,  P. A. Pieniazek,  
 Y. M. Rhee,  J. Ritchie,  M. A. Rohrdanz,  E. Rosta,  N. J. Russ,  
 H. F. Schaefer III,  N. E. Schultz,  N. Shenvi,  A. C. Simmonett,  A. Sodt,  
 D. Stuck,  K. S. Thanthiriwatte,  V. Vanovschi,  Tao Wang,  A. Warshel,  
 C. F. Williams,  Q. Wu,  X. Xu,  W. Zhang

 Please cite Q-Chem as follows:
 Y. Shao et al., Mol. Phys. 113, 184-215 (2015)
 DOI: 10.1080/00268976.2014.952696

 Q-Chem 5.3.0 for Intel X86 EM64T Linux

 Parts of Q-Chem use Armadillo 9.800.1 (Horizon Scraper).
 http://arma.sourceforge.net/

 Q-Chem begins on Tue Jul  7 02:39:24 2020  

Host: centos77-c4
0

     Scratch files written to /tmp/26964.centos77-h1/qchem113651//
Processing $rem in /opt/qchem-5.3.0-intel2020u1//config/preferences:
Processing $rem in /home/shihchengli/.qchemrc:

Checking the input file for inconsistencies... 	...done.

--------------------------------------------------------------
User input:
--------------------------------------------------------------
$rem
   JOBTYPE  sp
   EXCHANGE   omegaB97X-D
   BASIS   6-311+G(2df,2pd)
   UNRESTRICTED   False
   max_scf_cycles   250
   geom_opt_max_cycles   1500
   basis2 6-31G*
   scf_algorithm rca_diis
   SYM_IGNORE  TRUE
   print_input   true
   geom_opt_dmax   80
   pop_mulliken false
   XC_GRID 000075000302
$end

$molecule
0 1
C       1.3056076756     -0.0012943066     0.2197147621
C       0.0118013334     0.0007217214     -0.5874531215
H       1.3550387988     -0.9563441049     0.9097938692
H       1.3418307476     0.9291339922     0.9328813030
H       2.0335315127     0.0109626246     -0.2959096899
C       -1.2275755895     0.0032272212     0.2979409055
H       -0.0018897179     -0.8733649457     -1.2428712055
H       0.0019739486     0.8743677648     -1.2434812385
H       -1.2550260365     -0.8032312664     0.8961132617
H       -2.2968520210     -0.0158890343     -0.4213129047
H       -1.2684407125     0.8317109999     0.8756290775
$end
--------------------------------------------------------------
 ----------------------------------------------------------------
             Standard Nuclear Orientation (Angstroms)
    I     Atom           X                Y                Z
 ----------------------------------------------------------------
    1      C       1.3056076756    -0.0012943066     0.2197147621
    2      C       0.0118013334     0.0007217214    -0.5874531215
    3      H       1.3550387988    -0.9563441049     0.9097938692
    4      H       1.3418307476     0.9291339922     0.9328813030
    5      H       2.0335315127     0.0109626246    -0.2959096899
    6      C      -1.2275755895     0.0032272212     0.2979409055
    7      H      -0.0018897179    -0.8733649457    -1.2428712055
    8      H       0.0019739486     0.8743677648    -1.2434812385
    9      H      -1.2550260365    -0.8032312664     0.8961132617
   10      H      -2.2968520210    -0.0158890343    -0.4213129047
   11      H      -1.2684407125     0.8317109999     0.8756290775
 ----------------------------------------------------------------
 Nuclear Repulsion Energy =          83.01832585 hartrees
 There are       13 alpha and       13 beta electrons
 Requested basis set is 6-311+G(2df,2pd)
 There are 72 shells and 214 basis functions

 Total QAlloc Memory Limit   2000 MB
 Mega-Array Size       188 MB
 MEM_STATIC part       192 MB

                       Distance Matrix (Angstroms)
             C (  1)   C (  2)   H (  3)   H (  4)   H (  5)   C (  6)
   C (  2)  1.524946
   H (  3)  1.179310  2.227557
   H (  4)  1.172866  2.223138  1.885666
   H (  5)  0.892128  2.042669  1.688122  1.682681
   C (  6)  2.534395  1.523149  2.822240  2.803980  3.314746
   H (  7)  2.146908  1.092606  2.545998  3.128656  2.412822  2.155185
   H (  8)  2.146436  1.092578  3.133510  2.556320  2.402204  2.155611
   H (  9)  2.767212  2.110015  2.614588  3.121875  3.591440  1.004460
   H ( 10)  3.659077  2.314683  3.999076  3.995863  4.332282  1.288815
   H ( 11)  2.783855  2.114278  3.175052  2.612716  3.598493  1.010831
             H (  7)   H (  8)   H (  9)   H ( 10)
   H (  8)  1.747737
   H (  9)  2.480025  2.995372
   H ( 10)  2.584004  2.598676  1.854972
   H ( 11)  2.999913  2.471113  1.635126  1.859601
 
 A cutoff of  1.0D-09 yielded   2536 shell pairs
 There are     22606 function pairs (     27785 Cartesian)
 Smallest overlap matrix eigenvalue = 8.65E-05

 Scale SEOQF with 1.000000e-01/1.000000e-01/1.000000e-01

 Standard Electronic Orientation quadrupole field applied
 Nucleus-field energy     =     0.0000000006 hartrees
 Requested basis set is 6-31G(d)
 There are 28 shells and 58 basis functions
 A cutoff of  1.0D-09 yielded    402 shell pairs
 There are      1773 function pairs (      1968 Cartesian)
 Smallest overlap matrix eigenvalue = 6.62E-03
 Guess from superposition of atomic densities
 Warning:  Energy on first SCF cycle will be non-variational
 SAD guess density has 26.000000 electrons
 Long-range K will be added via erf
 Coulomb attenuation parameter = 0.2 bohr**(-1)
 A restricted hybrid HF-DFT SCF calculation will be
 performed using Relaxed Constraint Minimization + Pulay DIIS
 Exchange:     0.2220 Hartree-Fock + 1.0000 wB97X-D + LR-HF
 Correlation:  1.0000 wB97X-D
 Using Euler-Maclaurin-Lebedev (75,302) quadrature formula
 Dispersion:   Grimme D
 SCF converges when DIIS error is below 1.0E-04
 using 3 threads for integral computing
 -------------------------------------------------------
 OpenMP Integral computing Module                
 Release: version 1.0, May 2013, Q-Chem Inc. Pittsburgh 
 -------------------------------------------------------
 using 3 threads for integral computing
 -------------------------------------------------------
 OpenMP Integral computing Module                
 Release: version 1.0, May 2013, Q-Chem Inc. Pittsburgh 
 -------------------------------------------------------
 ---------------------------------------
  Cycle       Energy         DIIS Error
 ---------------------------------------
    1    -119.6062257695      1.03E-01
    2    -118.9886421272      9.60E-03
    3    -119.0131270047      2.63E-03
    4    -119.0295092005      1.79E-03
    5    -119.0303007941      2.82E-04 Done RCA. Switching to DIIS
    6    -119.0308883870      2.06E-04
    7    -119.0309070804      6.04E-06 Convergence criterion met
 ---------------------------------------
 SCF time:  CPU 18.89 s  wall 6.71 s
 SCF   energy in the small basis set = -119.03090708
 Total energy in the small basis set = -119.03090708
 ----------------------------------------------------
  Cycle       Energy    
 ----------------------------------------------------
    1     -16.5659350046     -1.66E+01
 Long-range K will be added via erf
 Coulomb attenuation parameter = 0.2 bohr**(-1)
 A restricted hybrid HF-DFT SCF calculation will be
 performed using Relaxed Constraint Minimization + Pulay DIIS
 Exchange:     0.2220 Hartree-Fock + 1.0000 wB97X-D + LR-HF
 Correlation:  1.0000 wB97X-D
 Using Euler-Maclaurin-Lebedev (75,302) quadrature formula
 Dispersion:   Grimme D
 SCF converges when DIIS error is below 1.0E-05
 Basis2 calculation detected. Using small basis as guess for larger.
 SCFMinFind is unable to tell whether the solution found is close.
 Resetting ReadMinima to 0 and attempting to follow guess.
 SCFMinFind following SCF Guess.
 using 3 threads for integral computing
 -------------------------------------------------------
 OpenMP Integral computing Module                
 Release: version 1.0, May 2013, Q-Chem Inc. Pittsburgh 
 -------------------------------------------------------
 using 3 threads for integral computing
 -------------------------------------------------------
 OpenMP Integral computing Module                
 Release: version 1.0, May 2013, Q-Chem Inc. Pittsburgh 
 -------------------------------------------------------
 ---------------------------------------
  Cycle       Energy         DIIS Error
 ---------------------------------------
    1    -119.0532289452      4.21E-03
    2    -119.0751533533      5.76E-04 Done RCA. Switching to DIIS
    3    -119.0759296154      4.04E-04
    4    -119.0768291051      4.61E-05
    5    -119.0768442771      9.14E-06 Convergence criterion met
 ---------------------------------------
 SCF time:  CPU 42.36 s  wall 14.15 s
 SCF   energy in the final basis set = -119.07684428
 Total energy in the final basis set = -119.07684428
 
 --------------------------------------------------------------
 
                    Orbital Energies (a.u.)
 --------------------------------------------------------------
 
 Alpha MOs
 -- Occupied --
-10.2757 -10.2659 -10.2619  -0.8856  -0.7879  -0.6845  -0.5499  -0.5343
 -0.4782  -0.4671  -0.4277  -0.4063  -0.4052
 -- Virtual --
  0.0680   0.0847   0.0906   0.0984   0.1244   0.1290   0.1332   0.1417
  0.1428   0.1659   0.1716   0.1906   0.2158   0.2189   0.2583   0.2638
  0.2743   0.2917   0.3102   0.3152   0.3395   0.3551   0.4558   0.4609
  0.4725   0.5087   0.5164   0.5193   0.5441   0.5639   0.5657   0.5975
  0.5994   0.6271   0.6375   0.6450   0.6632   0.6686   0.7118   0.7427
  0.7533   0.7692   0.8202   0.8632   0.8662   0.8718   0.8899   0.9556
  0.9920   1.0529   1.0571   1.1150   1.1498   1.1864   1.1911   1.2127
  1.2300   1.2323   1.2696   1.2742   1.2815   1.2937   1.3172   1.3384
  1.3759   1.3905   1.4318   1.4390   1.4472   1.4749   1.4786   1.4881
  1.5242   1.5506   1.5857   1.6184   1.6506   1.6970   1.7059   1.7440
  1.7621   2.3361   2.3620   2.4907   2.5213   2.5430   2.5954   2.6338
  2.6553   2.7296   2.8148   2.8311   2.8313   2.8953   2.8992   2.9099
  2.9389   2.9433   2.9814   2.9922   3.0393   3.0690   3.0853   3.0931
  3.1350   3.1425   3.1711   3.1980   3.2235   3.2598   3.2679   3.2805
  3.2973   3.3029   3.3325   3.3397   3.3612   3.3757   3.3837   3.4049
  3.4663   3.4691   3.4835   3.4885   3.5351   3.5526   3.6055   3.6165
  3.6357   3.6595   3.6715   3.7245   3.7711   3.7861   3.8424   3.8601
  3.9273   3.9420   3.9447   3.9680   3.9916   4.0158   4.0352   4.0719
  4.0751   4.0932   4.1183   4.1338   4.1677   4.1692   4.2051   4.2117
  4.2373   4.2427   4.2650   4.3381   4.3481   4.3933   4.4223   4.4333
  4.4406   4.5380   4.5649   4.6030   4.6213   4.7490   4.8036   4.8267
  4.8404   4.8795   4.9097   4.9469   5.0048   5.0298   5.1164   5.1378
  5.1666   5.1708   5.2833   5.2971   5.3540   5.4120   5.4360   5.4519
  5.4909   5.4969   5.6228   5.7028   5.7239   5.8129   5.8323   5.9094
  5.9542   6.1824   6.2097   6.4566   6.5743   6.7372  25.1999  25.3375
 25.3852
 --------------------------------------------------------------
 
 -----------------------------------------------------------------
                    Cartesian Multipole Moments
 -----------------------------------------------------------------
    Charge (ESU x 10^10)
                 0.0000
    Dipole Moment (Debye)
         X       0.2455      Y       0.0070      Z      -0.0639
       Tot       0.2538
    Quadrupole Moments (Debye-Ang)
        XX     -22.4452     XY       0.0144     YY     -21.3542
        XZ      -0.3807     YZ       0.0058     ZZ     -21.7675
    Octopole Moments (Debye-Ang^2)
       XXX       1.3711    XXY       0.0107    XYY       0.1141
       YYY      -0.0045    XXZ      -1.5013    XYZ      -0.0215
       YYZ       0.5126    XZZ      -0.3212    YZZ       0.0023
       ZZZ      -0.3168
    Hexadecapole Moments (Debye-Ang^3)
      XXXX    -205.6064   XXXY       0.3444   XXYY     -42.6582
      XYYY       0.1152   YYYY     -44.3558   XXXZ      -2.0069
      XXYZ       0.0208   XYYZ      -0.6657   YYYZ      -0.0273
      XXZZ     -45.6062   XYZZ       0.1150   YYZZ     -17.0751
      XZZZ      -2.5932   YZZZ      -0.0055   ZZZZ     -72.1606
 -----------------------------------------------------------------
Archival summary:
1\1\centos77-c4\SP\ProcedureUnspecified\BasisUnspecified\38\shihchen\TueJul702:39:482020TueJul702:39:482020\0\\#,ProcedureUnspecified,BasisUnspecified,\\0,1\C\H,1,1.09258\H,1,1.09261,2,106.224\C,1,1.52315,2,109.901,3,-118.799,0\H,4,1.00446,1,111.536,2,178.576,0\H,4,1.01083,1,111.497,2,-60.0085,0\H,4,1.28881,1,110.528,2,59.2634,0\C,1,1.52495,2,109.057,3,117.447,0\H,8,0.892128,1,112.726,2,-56.8433,0\H,8,1.17287,1,110.304,2,64.4555,0\H,8,1.17931,1,110.265,2,-178.098,0\\\@

 Total job time:  23.82s(wall), 64.97s(cpu) 
 Tue Jul  7 02:39:48 2020

        *************************************************************
        *                                                           *
        *  Thank you very much for using Q-Chem.  Have a nice day.  *
        *                                                           *
        *************************************************************


