                  Welcome to Q-Chem
     A Quantum Leap Into The Future Of Chemistry


 Q-Chem 5.3 (devel), Q-Chem, Inc., Pleasanton, CA (2020)

 Yihan Shao,  Zhengting Gan,  E. Epifanovsky,  A. T. B. Gilbert,  M. Wormit,  
 J. Kussmann,  A. W. Lange,  A. Behn,  Jia Deng,  Xintian Feng,  D. Ghosh,  
 M. Goldey,  P. R. Horn,  L. D. Jacobson,  I. Kaliman,  T. Kus,  A. Landau,  
 Jie Liu,  E. I. Proynov,  R. M. Richard,  R. P. Steele,  E. J. Sundstrom,  
 H. L. Woodcock III,  P. M. Zimmerman,  D. Zuev,  B. Alam,  B. Albrecht,  
 E. Alguire,  S. A. Baeppler,  D. Barton,  Z. Benda,  Y. A. Bernard,  
 E. J. Berquist,  K. B. Bravaya,  H. Burton,  K. Carter-Fenk,  D. Casanova,  
 Chun-Min Chang,  Yunqing Chen,  A. Chien,  K. D. Closser,  M. P. Coons,  
 S. Coriani,  S. Dasgupta,  A. L. Dempwolff,  M. Diedenhofen,  Hainam Do,  
 R. G. Edgar,  Po-Tung Fang,  S. Faraji,  S. Fatehi,  Qingguo Feng,  
 J. Fosso-Tande,  J. Gayvert,  Qinghui Ge,  A. Ghysels,  G. Gidofalvi,  
 J. Gomes,  J. Gonthier,  A. Gunina,  D. Hait,  M. W. D. Hanson-Heine,  
 P. H. P. Harbach,  A. W. Hauser,  M. F. Herbst,  J. E. Herr,  
 E. G. Hohenstein,  Z. C. Holden,  Kerwin Hui,  B. C. Huynh,  T.-C. Jagau,  
 Hyunjun Ji,  B. Kaduk,  K. Khistyaev,  Jaehoon Kim,  P. Klunzinger,  K. Koh,  
 D. Kosenkov,  L. Koulias,  T. Kowalczyk,  C. M. Krauter,  A. Kunitsa,  
 Ka Un Lao,  A. Laurent,  K. V. Lawler,  Joonho Lee,  D. Lefrancois,  
 S. Lehtola,  D. S. Levine,  Yi-Pei Li,  You-Sheng Lin,  Fenglai Liu,  
 Kuan-Yu Liu,  E. Livshits,  M. Loipersberger,  A. Luenser,  P. Manohar,  
 E. Mansoor,  S. F. Manzer,  Shan-Ping Mao,  Yuezhi Mao,  N. Mardirossian,  
 A. V. Marenich,  T. Markovich,  L. A. Martinez-Martinez,  S. A. Maurer,  
 N. J. Mayhall,  S. C. McKenzie,  J.-M. Mewes,  P. Morgante,  A. F. Morrison,  
 J. W. Mullinax,  K. Nanda,  T. S. Nguyen-Beck,  R. Olivares-Amaya,  
 K. J. Oosterbaan,  J. A. Parkhill,  S. K. Paul,  F. Pavosevic,  Zheng Pei,  
 T. M. Perrine,  F. Plasser,  P. Pokhilko,  S. Prager,  A. Prociuk,  
 E. Ramos,  B. Rana,  D. R. Rehn,  F. Rob,  M. Scheurer,  M. Schneider,  
 N. Sergueev,  S. M. Sharada,  S. Sharma,  D. W. Small,  T. Stauch,  
 C. J. Stein,  T. Stein,  Yu-Chuan Su,  S. P. Veccham,  Zhen Tao,  
 A. J. W. Thom,  A. Tkatchenko,  T. Tsuchimochi,  N. M. Tubman,  L. Vogt,  
 M. L. Vidal,  O. Vydrov,  M. A. Watson,  J. Wenzel,  M. de Wergifosse,  
 T. A. Wesolowski,  A. White,  J. Witte,  A. Yamada,  Jun Yang,  K. Yao,  
 S. Yeganeh,  S. R. Yost,  Zhi-Qiang You,  A. Zech,  Igor Ying Zhang,  
 Xing Zhang,  Yan Zhao,  Ying Zhu,  B. R. Brooks,  G. K. L. Chan,  
 C. J. Cramer,  M. S. Gordon,  W. J. Hehre,  A. Klamt,  M. W. Schmidt,  
 C. D. Sherrill,  D. G. Truhlar,  A. Aspuru-Guzik,  R. Baer,  A. T. Bell,  
 N. A. Besley,  Jeng-Da Chai,  A. E. DePrince, III,  R. A. DiStasio Jr.,  
 A. Dreuw,  B. D. Dunietz,  T. R. Furlani,  Chao-Ping Hsu,  Yousung Jung,  
 Jing Kong,  D. S. Lambrecht,  WanZhen Liang,  C. Ochsenfeld,  
 V. A. Rassolov,  L. V. Slipchenko,  J. E. Subotnik,  T. Van Voorhis,  
 J. M. Herbert,  A. I. Krylov,  P. M. W. Gill,  M. Head-Gordon

 Contributors to earlier versions of Q-Chem not listed above: 
 R. D. Adamson,  B. Austin,  J. Baker,  G. J. O. Beran,  K. Brandhorst,  
 S. T. Brown,  E. F. C. Byrd,  A. K. Chakraborty,  C.-L. Cheng,  
 Siu Hung Chien,  D. M. Chipman,  D. L. Crittenden,  H. Dachsel,  
 R. J. Doerksen,  A. D. Dutoi,  L. Fusti-Molnar,  W. A. Goddard III,  
 A. Golubeva-Zadorozhnaya,  S. R. Gwaltney,  G. Hawkins,  A. Heyden,  
 S. Hirata,  G. Kedziora,  F. J. Keil,  C. Kelley,  Jihan Kim,  R. A. King,  
 R. Z. Khaliullin,  P. P. Korambath,  W. Kurlancheek,  A. M. Lee,  M. S. Lee,  
 S. V. Levchenko,  Ching Yeh Lin,  D. Liotard,  R. C. Lochan,  I. Lotan,  
 P. E. Maslen,  N. Nair,  D. P. O'Neill,  D. Neuhauser,  E. Neuscamman,  
 C. M. Oana,  R. Olson,  B. Peters,  R. Peverati,  P. A. Pieniazek,  
 Y. M. Rhee,  J. Ritchie,  M. A. Rohrdanz,  E. Rosta,  N. J. Russ,  
 H. F. Schaefer III,  N. E. Schultz,  N. Shenvi,  A. C. Simmonett,  A. Sodt,  
 D. Stuck,  K. S. Thanthiriwatte,  V. Vanovschi,  Tao Wang,  A. Warshel,  
 C. F. Williams,  Q. Wu,  X. Xu,  W. Zhang

 Please cite Q-Chem as follows:
 Y. Shao et al., Mol. Phys. 113, 184-215 (2015)
 DOI: 10.1080/00268976.2014.952696

 Q-Chem 5.3.0 for Intel X86 EM64T Linux

 Parts of Q-Chem use Armadillo 9.800.1 (Horizon Scraper).
 http://arma.sourceforge.net/

 Q-Chem begins on Tue Jul  7 01:03:02 2020  

Host: centos77-c4
0

     Scratch files written to /tmp/26964.centos77-h1/qchem96290//
Processing $rem in /opt/qchem-5.3.0-intel2020u1//config/preferences:
Processing $rem in /home/shihchengli/.qchemrc:

Checking the input file for inconsistencies... 	...done.

--------------------------------------------------------------
User input:
--------------------------------------------------------------
$rem
   JOBTYPE  sp
   EXCHANGE   omegaB97X-D
   BASIS   6-311+G(2df,2pd)
   UNRESTRICTED   False
   max_scf_cycles   250
   geom_opt_max_cycles   1500
   basis2 6-31G*
   scf_algorithm rca_diis
   SYM_IGNORE  TRUE
   print_input   true
   geom_opt_dmax   80
   pop_mulliken false
   XC_GRID 000075000302
$end

$molecule
0 1
C       1.3665187554     -0.0030801806     0.2613146587
C       -0.0000000303     0.0098306209     -0.4390213221
H       1.5185290551     -0.8807853273     0.8917436311
H       1.5483656806     0.8858014973     0.8679680158
H       2.1264053399     -0.0243682881     -0.5224570544
C       -1.3665188963     -0.0030804149     0.2613144713
H       0.0000003273     -0.8472770805     -1.1186302704
H       -0.0000001995     0.8823114569     -1.0984417590
H       -1.5185292274     -0.8807855390     0.8917434468
H       -2.1264056346     -0.0243672006     -0.5224570056
H       -1.5483652307     0.8858011219     0.8679682066
$end
--------------------------------------------------------------
 ----------------------------------------------------------------
             Standard Nuclear Orientation (Angstroms)
    I     Atom           X                Y                Z
 ----------------------------------------------------------------
    1      C       1.3665187554    -0.0030801806     0.2613146587
    2      C      -0.0000000303     0.0098306209    -0.4390213221
    3      H       1.5185290551    -0.8807853273     0.8917436311
    4      H       1.5483656806     0.8858014973     0.8679680158
    5      H       2.1264053399    -0.0243682881    -0.5224570544
    6      C      -1.3665188963    -0.0030804149     0.2613144713
    7      H       0.0000003273    -0.8472770805    -1.1186302704
    8      H      -0.0000001995     0.8823114569    -1.0984417590
    9      H      -1.5185292274    -0.8807855390     0.8917434468
   10      H      -2.1264056346    -0.0243672006    -0.5224570056
   11      H      -1.5483652307     0.8858011219     0.8679682066
 ----------------------------------------------------------------
 Nuclear Repulsion Energy =          81.47669440 hartrees
 There are       13 alpha and       13 beta electrons
 Requested basis set is 6-311+G(2df,2pd)
 There are 72 shells and 214 basis functions

 Total QAlloc Memory Limit   2000 MB
 Mega-Array Size       188 MB
 MEM_STATIC part       192 MB

                       Distance Matrix (Angstroms)
             C (  1)   C (  2)   H (  3)   H (  4)   H (  5)   C (  6)
   C (  2)  1.535582
   H (  3)  1.091290  2.206822
   H (  4)  1.091424  2.207483  1.766999
   H (  5)  1.091869  2.128316  1.761513  1.759494
   C (  6)  2.733038  1.535582  3.080797  3.107200  3.579842
   H (  7)  2.117614  1.093847  2.519654  3.057379  2.356735  2.117614
   H (  8)  2.121375  1.093644  3.061908  2.502842  2.382315  2.121374
   H (  9)  3.080797  2.206822  3.037058  3.539384  4.002369  1.091290
   H ( 10)  3.579842  2.128317  4.002370  4.033067  4.252811  1.091869
   H ( 11)  3.107199  2.207483  3.539383  3.096731  4.033067  1.091424
             H (  7)   H (  8)   H (  9)   H ( 10)
   H (  8)  1.729706
   H (  9)  2.519654  3.061908
   H ( 10)  2.356736  2.382315  1.761513
   H ( 11)  3.057380  2.502841  1.766999  1.759494
 
 A cutoff of  1.0D-09 yielded   2498 shell pairs
 There are     22266 function pairs (     27393 Cartesian)
 Smallest overlap matrix eigenvalue = 8.72E-05

 Scale SEOQF with 1.000000e-01/1.000000e-01/1.000000e-01

 Standard Electronic Orientation quadrupole field applied
 Nucleus-field energy     =     0.0000000009 hartrees
 Requested basis set is 6-31G(d)
 There are 28 shells and 58 basis functions
 A cutoff of  1.0D-09 yielded    402 shell pairs
 There are      1773 function pairs (      1968 Cartesian)
 Smallest overlap matrix eigenvalue = 7.06E-03
 Guess from superposition of atomic densities
 Warning:  Energy on first SCF cycle will be non-variational
 SAD guess density has 26.000000 electrons
 Long-range K will be added via erf
 Coulomb attenuation parameter = 0.2 bohr**(-1)
 A restricted hybrid HF-DFT SCF calculation will be
 performed using Relaxed Constraint Minimization + Pulay DIIS
 Exchange:     0.2220 Hartree-Fock + 1.0000 wB97X-D + LR-HF
 Correlation:  1.0000 wB97X-D
 Using Euler-Maclaurin-Lebedev (75,302) quadrature formula
 Dispersion:   Grimme D
 SCF converges when DIIS error is below 1.0E-04
 using 3 threads for integral computing
 -------------------------------------------------------
 OpenMP Integral computing Module                
 Release: version 1.0, May 2013, Q-Chem Inc. Pittsburgh 
 -------------------------------------------------------
 using 3 threads for integral computing
 -------------------------------------------------------
 OpenMP Integral computing Module                
 Release: version 1.0, May 2013, Q-Chem Inc. Pittsburgh 
 -------------------------------------------------------
 ---------------------------------------
  Cycle       Energy         DIIS Error
 ---------------------------------------
    1    -119.5824527251      9.93E-02
    2    -119.0623422463      8.75E-03
    3    -119.0826501259      2.53E-03
    4    -119.0954643736      1.73E-03
    5    -119.0962114082      2.89E-04 Done RCA. Switching to DIIS
    6    -119.0967468578      2.14E-04
    7    -119.0967668208      4.19E-06 Convergence criterion met
 ---------------------------------------
 SCF time:  CPU 20.43 s  wall 7.60 s
 SCF   energy in the small basis set = -119.09676682
 Total energy in the small basis set = -119.09676682
 ----------------------------------------------------
  Cycle       Energy    
 ----------------------------------------------------
    1     -16.5272876169     -1.65E+01
 Long-range K will be added via erf
 Coulomb attenuation parameter = 0.2 bohr**(-1)
 A restricted hybrid HF-DFT SCF calculation will be
 performed using Relaxed Constraint Minimization + Pulay DIIS
 Exchange:     0.2220 Hartree-Fock + 1.0000 wB97X-D + LR-HF
 Correlation:  1.0000 wB97X-D
 Using Euler-Maclaurin-Lebedev (75,302) quadrature formula
 Dispersion:   Grimme D
 SCF converges when DIIS error is below 1.0E-05
 Basis2 calculation detected. Using small basis as guess for larger.
 SCFMinFind is unable to tell whether the solution found is close.
 Resetting ReadMinima to 0 and attempting to follow guess.
 SCFMinFind following SCF Guess.
 using 3 threads for integral computing
 -------------------------------------------------------
 OpenMP Integral computing Module                
 Release: version 1.0, May 2013, Q-Chem Inc. Pittsburgh 
 -------------------------------------------------------
 using 3 threads for integral computing
 -------------------------------------------------------
 OpenMP Integral computing Module                
 Release: version 1.0, May 2013, Q-Chem Inc. Pittsburgh 
 -------------------------------------------------------
 ---------------------------------------
  Cycle       Energy         DIIS Error
 ---------------------------------------
    1    -119.1159207141      4.21E-03
    2    -119.1379373064      5.83E-04 Done RCA. Switching to DIIS
    3    -119.1387722837      3.98E-04
    4    -119.1396447222      4.59E-05
    5    -119.1396594188      1.19E-05
    6    -119.1396602933      4.15E-06 Convergence criterion met
 ---------------------------------------
 SCF time:  CPU 48.79 s  wall 16.31 s
 SCF   energy in the final basis set = -119.13966029
 Total energy in the final basis set = -119.13966029
 
 --------------------------------------------------------------
 
                    Orbital Energies (a.u.)
 --------------------------------------------------------------
 
 Alpha MOs
 -- Occupied --
-10.2757 -10.2677 -10.2677  -0.8750  -0.7846  -0.6743  -0.5409  -0.5152
 -0.4912  -0.4702  -0.4249  -0.4062  -0.4030
 -- Virtual --
  0.0669   0.0868   0.0934   0.0991   0.1192   0.1292   0.1327   0.1486
  0.1501   0.1739   0.1789   0.1950   0.2355   0.2364   0.2474   0.2541
  0.2734   0.2866   0.2966   0.3090   0.3287   0.3581   0.4604   0.4610
  0.4801   0.5076   0.5198   0.5272   0.5383   0.5739   0.5766   0.5911
  0.6087   0.6094   0.6399   0.6470   0.6476   0.6585   0.7001   0.7232
  0.7334   0.7656   0.8299   0.8464   0.8518   0.8670   0.9040   0.9678
  0.9724   1.0302   1.0498   1.1341   1.1546   1.1618   1.1712   1.2044
  1.2318   1.2476   1.2720   1.2793   1.2799   1.2806   1.3311   1.3380
  1.3702   1.3761   1.3834   1.4568   1.4599   1.4765   1.4808   1.4885
  1.5227   1.5579   1.6023   1.6357   1.6411   1.6589   1.6787   1.6895
  1.7663   2.3737   2.4769   2.4848   2.4854   2.5248   2.5563   2.5750
  2.6399   2.6946   2.7918   2.8326   2.8427   2.8991   2.9307   2.9429
  2.9517   2.9794   2.9819   3.0036   3.0499   3.0848   3.0998   3.1182
  3.1373   3.1375   3.1471   3.1822   3.1936   3.1952   3.2264   3.2888
  3.3106   3.3270   3.3295   3.3398   3.3584   3.3654   3.4010   3.4087
  3.4584   3.4603   3.5128   3.5542   3.5624   3.6023   3.6073   3.6140
  3.6341   3.6348   3.6664   3.7208   3.7422   3.8009   3.8324   3.8660
  3.8875   3.9069   3.9141   3.9412   3.9743   3.9867   4.0171   4.0356
  4.0894   4.1169   4.1190   4.1559   4.1565   4.1695   4.1757   4.1786
  4.2101   4.2802   4.2805   4.3613   4.4074   4.4150   4.4210   4.4601
  4.4662   4.5147   4.5663   4.5830   4.7467   4.8018   4.8239   4.8796
  4.9215   4.9253   4.9814   4.9817   5.0046   5.0492   5.0641   5.1012
  5.1310   5.1815   5.2351   5.2498   5.3019   5.3143   5.3202   5.3315
  5.3575   5.3819   5.4230   5.4647   5.5693   5.5969   5.6147   5.7883
  5.9337   6.3698   6.3778   6.3961   6.3993   6.4666  25.2117  25.4192
 25.4413
 --------------------------------------------------------------
 
 -----------------------------------------------------------------
                    Cartesian Multipole Moments
 -----------------------------------------------------------------
    Charge (ESU x 10^10)
                 0.0000
    Dipole Moment (Debye)
         X       0.0000      Y      -0.0006      Z      -0.1292
       Tot       0.1292
    Quadrupole Moments (Debye-Ang)
        XX     -22.0247     XY      -0.0000     YY     -21.4035
        XZ       0.0000     YZ      -0.0027     ZZ     -21.7913
    Octopole Moments (Debye-Ang^2)
       XXX       0.0000    XXY       0.0045    XYY       0.0000
       YYY       0.0252    XXZ      -1.9888    XYZ       0.0000
       YYZ       0.0111    XZZ       0.0000    YZZ      -0.0784
       ZZZ      -2.2823
    Hexadecapole Moments (Debye-Ang^3)
      XXXX    -233.0482   XXXY      -0.0000   XXYY     -45.8283
      XYYY      -0.0000   YYYY     -44.1325   XXXZ       0.0000
      XXYZ       0.1858   XYYZ      -0.0000   YYYZ       0.1295
      XXZZ     -47.2937   XYZZ      -0.0000   YYZZ     -16.1421
      XZZZ      -0.0000   YZZZ       0.1276   ZZZZ     -64.9397
 -----------------------------------------------------------------
Archival summary:
1\1\centos77-c4\SP\ProcedureUnspecified\BasisUnspecified\38\shihchen\TueJul701:03:292020TueJul701:03:292020\0\\#,ProcedureUnspecified,BasisUnspecified,\\0,1\C\H,1,1.09364\H,1,1.09385,2,104.507\C,1,1.53558,2,106.362,3,-111.957,0\H,4,1.09129,1,113.215,2,175.355,0\H,4,1.09142,1,113.261,2,-61.1139,0\H,4,1.09187,1,106.984,2,57.0177,0\C,1,1.53558,2,106.362,3,111.957,0\H,8,1.09129,1,113.215,2,-175.355,0\H,8,1.09142,1,113.261,2,61.1139,0\H,8,1.09187,1,106.984,2,-57.0177,0\\\@

 Total job time:  26.80s(wall), 72.75s(cpu) 
 Tue Jul  7 01:03:29 2020

        *************************************************************
        *                                                           *
        *  Thank you very much for using Q-Chem.  Have a nice day.  *
        *                                                           *
        *************************************************************


