                  Welcome to Q-Chem
     A Quantum Leap Into The Future Of Chemistry


 Q-Chem 5.3 (devel), Q-Chem, Inc., Pleasanton, CA (2020)

 Yihan Shao,  Zhengting Gan,  E. Epifanovsky,  A. T. B. Gilbert,  M. Wormit,  
 J. Kussmann,  A. W. Lange,  A. Behn,  Jia Deng,  Xintian Feng,  D. Ghosh,  
 M. Goldey,  P. R. Horn,  L. D. Jacobson,  I. Kaliman,  T. Kus,  A. Landau,  
 Jie Liu,  E. I. Proynov,  R. M. Richard,  R. P. Steele,  E. J. Sundstrom,  
 H. L. Woodcock III,  P. M. Zimmerman,  D. Zuev,  B. Alam,  B. Albrecht,  
 E. Alguire,  S. A. Baeppler,  D. Barton,  Z. Benda,  Y. A. Bernard,  
 E. J. Berquist,  K. B. Bravaya,  H. Burton,  K. Carter-Fenk,  D. Casanova,  
 Chun-Min Chang,  Yunqing Chen,  A. Chien,  K. D. Closser,  M. P. Coons,  
 S. Coriani,  S. Dasgupta,  A. L. Dempwolff,  M. Diedenhofen,  Hainam Do,  
 R. G. Edgar,  Po-Tung Fang,  S. Faraji,  S. Fatehi,  Qingguo Feng,  
 J. Fosso-Tande,  J. Gayvert,  Qinghui Ge,  A. Ghysels,  G. Gidofalvi,  
 J. Gomes,  J. Gonthier,  A. Gunina,  D. Hait,  M. W. D. Hanson-Heine,  
 P. H. P. Harbach,  A. W. Hauser,  M. F. Herbst,  J. E. Herr,  
 E. G. Hohenstein,  Z. C. Holden,  Kerwin Hui,  B. C. Huynh,  T.-C. Jagau,  
 Hyunjun Ji,  B. Kaduk,  K. Khistyaev,  Jaehoon Kim,  P. Klunzinger,  K. Koh,  
 D. Kosenkov,  L. Koulias,  T. Kowalczyk,  C. M. Krauter,  A. Kunitsa,  
 Ka Un Lao,  A. Laurent,  K. V. Lawler,  Joonho Lee,  D. Lefrancois,  
 S. Lehtola,  D. S. Levine,  Yi-Pei Li,  You-Sheng Lin,  Fenglai Liu,  
 Kuan-Yu Liu,  E. Livshits,  M. Loipersberger,  A. Luenser,  P. Manohar,  
 E. Mansoor,  S. F. Manzer,  Shan-Ping Mao,  Yuezhi Mao,  N. Mardirossian,  
 A. V. Marenich,  T. Markovich,  L. A. Martinez-Martinez,  S. A. Maurer,  
 N. J. Mayhall,  S. C. McKenzie,  J.-M. Mewes,  P. Morgante,  A. F. Morrison,  
 J. W. Mullinax,  K. Nanda,  T. S. Nguyen-Beck,  R. Olivares-Amaya,  
 K. J. Oosterbaan,  J. A. Parkhill,  S. K. Paul,  F. Pavosevic,  Zheng Pei,  
 T. M. Perrine,  F. Plasser,  P. Pokhilko,  S. Prager,  A. Prociuk,  
 E. Ramos,  B. Rana,  D. R. Rehn,  F. Rob,  M. Scheurer,  M. Schneider,  
 N. Sergueev,  S. M. Sharada,  S. Sharma,  D. W. Small,  T. Stauch,  
 C. J. Stein,  T. Stein,  Yu-Chuan Su,  S. P. Veccham,  Zhen Tao,  
 A. J. W. Thom,  A. Tkatchenko,  T. Tsuchimochi,  N. M. Tubman,  L. Vogt,  
 M. L. Vidal,  O. Vydrov,  M. A. Watson,  J. Wenzel,  M. de Wergifosse,  
 T. A. Wesolowski,  A. White,  J. Witte,  A. Yamada,  Jun Yang,  K. Yao,  
 S. Yeganeh,  S. R. Yost,  Zhi-Qiang You,  A. Zech,  Igor Ying Zhang,  
 Xing Zhang,  Yan Zhao,  Ying Zhu,  B. R. Brooks,  G. K. L. Chan,  
 C. J. Cramer,  M. S. Gordon,  W. J. Hehre,  A. Klamt,  M. W. Schmidt,  
 C. D. Sherrill,  D. G. Truhlar,  A. Aspuru-Guzik,  R. Baer,  A. T. Bell,  
 N. A. Besley,  Jeng-Da Chai,  A. E. DePrince, III,  R. A. DiStasio Jr.,  
 A. Dreuw,  B. D. Dunietz,  T. R. Furlani,  Chao-Ping Hsu,  Yousung Jung,  
 Jing Kong,  D. S. Lambrecht,  WanZhen Liang,  C. Ochsenfeld,  
 V. A. Rassolov,  L. V. Slipchenko,  J. E. Subotnik,  T. Van Voorhis,  
 J. M. Herbert,  A. I. Krylov,  P. M. W. Gill,  M. Head-Gordon

 Contributors to earlier versions of Q-Chem not listed above: 
 R. D. Adamson,  B. Austin,  J. Baker,  G. J. O. Beran,  K. Brandhorst,  
 S. T. Brown,  E. F. C. Byrd,  A. K. Chakraborty,  C.-L. Cheng,  
 Siu Hung Chien,  D. M. Chipman,  D. L. Crittenden,  H. Dachsel,  
 R. J. Doerksen,  A. D. Dutoi,  L. Fusti-Molnar,  W. A. Goddard III,  
 A. Golubeva-Zadorozhnaya,  S. R. Gwaltney,  G. Hawkins,  A. Heyden,  
 S. Hirata,  G. Kedziora,  F. J. Keil,  C. Kelley,  Jihan Kim,  R. A. King,  
 R. Z. Khaliullin,  P. P. Korambath,  W. Kurlancheek,  A. M. Lee,  M. S. Lee,  
 S. V. Levchenko,  Ching Yeh Lin,  D. Liotard,  R. C. Lochan,  I. Lotan,  
 P. E. Maslen,  N. Nair,  D. P. O'Neill,  D. Neuhauser,  E. Neuscamman,  
 C. M. Oana,  R. Olson,  B. Peters,  R. Peverati,  P. A. Pieniazek,  
 Y. M. Rhee,  J. Ritchie,  M. A. Rohrdanz,  E. Rosta,  N. J. Russ,  
 H. F. Schaefer III,  N. E. Schultz,  N. Shenvi,  A. C. Simmonett,  A. Sodt,  
 D. Stuck,  K. S. Thanthiriwatte,  V. Vanovschi,  Tao Wang,  A. Warshel,  
 C. F. Williams,  Q. Wu,  X. Xu,  W. Zhang

 Please cite Q-Chem as follows:
 Y. Shao et al., Mol. Phys. 113, 184-215 (2015)
 DOI: 10.1080/00268976.2014.952696

 Q-Chem 5.3.0 for Intel X86 EM64T Linux

 Parts of Q-Chem use Armadillo 9.800.1 (Horizon Scraper).
 http://arma.sourceforge.net/

 Q-Chem begins on Tue Jul  7 01:02:35 2020  

Host: centos77-c4
0

     Scratch files written to /tmp/26964.centos77-h1/qchem96210//
Processing $rem in /opt/qchem-5.3.0-intel2020u1//config/preferences:
Processing $rem in /home/shihchengli/.qchemrc:

Checking the input file for inconsistencies... 	...done.

--------------------------------------------------------------
User input:
--------------------------------------------------------------
$rem
   JOBTYPE  sp
   EXCHANGE   omegaB97X-D
   BASIS   6-311+G(2df,2pd)
   UNRESTRICTED   False
   max_scf_cycles   250
   geom_opt_max_cycles   1500
   basis2 6-31G*
   scf_algorithm rca_diis
   SYM_IGNORE  TRUE
   print_input   true
   geom_opt_dmax   80
   pop_mulliken false
   XC_GRID 000075000302
$end

$molecule
0 1
C       1.3354100762     -0.0021319359     0.2605052877
C       -0.0000000209     0.0066753289     -0.4897081274
H       1.4495692884     -0.8806329409     0.8981087106
H       1.4703897841     0.8843728001     0.8829357842
H       2.1446828975     -0.0165761841     -0.4716343795
C       -1.3354101754     -0.0021320946     0.2605051671
H       0.0000002192     -0.8563387149     -1.1611195239
H       -0.0000001550     0.8796001688     -1.1479580467
H       -1.4495694056     -0.8806330760     0.8981085974
H       -2.1446830861     -0.0165752361     -0.4716343353
H       -1.4703894831     0.8843725506     0.8829358846
$end
--------------------------------------------------------------
 ----------------------------------------------------------------
             Standard Nuclear Orientation (Angstroms)
    I     Atom           X                Y                Z
 ----------------------------------------------------------------
    1      C       1.3354100762    -0.0021319359     0.2605052877
    2      C      -0.0000000209     0.0066753289    -0.4897081274
    3      H       1.4495692884    -0.8806329409     0.8981087106
    4      H       1.4703897841     0.8843728001     0.8829357842
    5      H       2.1446828975    -0.0165761841    -0.4716343795
    6      C      -1.3354101754    -0.0021320946     0.2605051671
    7      H       0.0000002192    -0.8563387149    -1.1611195239
    8      H      -0.0000001550     0.8796001688    -1.1479580467
    9      H      -1.4495694056    -0.8806330760     0.8981085974
   10      H      -2.1446830861    -0.0165752361    -0.4716343353
   11      H      -1.4703894831     0.8843725506     0.8829358846
 ----------------------------------------------------------------
 Nuclear Repulsion Energy =          81.84345322 hartrees
 There are       13 alpha and       13 beta electrons
 Requested basis set is 6-311+G(2df,2pd)
 There are 72 shells and 214 basis functions

 Total QAlloc Memory Limit   2000 MB
 Mega-Array Size       188 MB
 MEM_STATIC part       192 MB

                       Distance Matrix (Angstroms)
             C (  1)   C (  2)   H (  3)   H (  4)   H (  5)   C (  6)
   C (  2)  1.531737
   H (  3)  1.091483  2.194220
   H (  4)  1.091572  2.194664  1.765194
   H (  5)  1.091403  2.144885  1.762377  1.761034
   C (  6)  2.670820  1.531737  2.989049  3.007628  3.556302
   H (  7)  2.129321  1.093429  2.518385  3.061092  2.404216  2.129321
   H (  8)  2.131793  1.093294  3.063668  2.507309  2.420787  2.131793
   H (  9)  2.989049  2.194220  2.899139  3.411984  3.942263  1.091483
   H ( 10)  3.556302  2.144885  3.942264  3.964255  4.289366  1.091403
   H ( 11)  3.007627  2.194664  3.411984  2.940779  3.964255  1.091572
             H (  7)   H (  8)   H (  9)   H ( 10)
   H (  8)  1.735989
   H (  9)  2.518385  3.063668
   H ( 10)  2.404217  2.420787  1.762378
   H ( 11)  3.061092  2.507309  1.765194  1.761034
 
 A cutoff of  1.0D-09 yielded   2512 shell pairs
 There are     22404 function pairs (     27565 Cartesian)
 Smallest overlap matrix eigenvalue = 8.76E-05

 Scale SEOQF with 1.000000e-01/1.000000e-01/1.000000e-01

 Standard Electronic Orientation quadrupole field applied
 Nucleus-field energy     =     0.0000000008 hartrees
 Requested basis set is 6-31G(d)
 There are 28 shells and 58 basis functions
 A cutoff of  1.0D-09 yielded    402 shell pairs
 There are      1773 function pairs (      1968 Cartesian)
 Smallest overlap matrix eigenvalue = 6.93E-03
 Guess from superposition of atomic densities
 Warning:  Energy on first SCF cycle will be non-variational
 SAD guess density has 26.000000 electrons
 Long-range K will be added via erf
 Coulomb attenuation parameter = 0.2 bohr**(-1)
 A restricted hybrid HF-DFT SCF calculation will be
 performed using Relaxed Constraint Minimization + Pulay DIIS
 Exchange:     0.2220 Hartree-Fock + 1.0000 wB97X-D + LR-HF
 Correlation:  1.0000 wB97X-D
 Using Euler-Maclaurin-Lebedev (75,302) quadrature formula
 Dispersion:   Grimme D
 SCF converges when DIIS error is below 1.0E-04
 using 3 threads for integral computing
 -------------------------------------------------------
 OpenMP Integral computing Module                
 Release: version 1.0, May 2013, Q-Chem Inc. Pittsburgh 
 -------------------------------------------------------
 using 3 threads for integral computing
 -------------------------------------------------------
 OpenMP Integral computing Module                
 Release: version 1.0, May 2013, Q-Chem Inc. Pittsburgh 
 -------------------------------------------------------
 ---------------------------------------
  Cycle       Energy         DIIS Error
 ---------------------------------------
    1    -119.5912641818      9.96E-02
    2    -119.0651940181      8.84E-03
    3    -119.0857736046      2.50E-03
    4    -119.0989288973      1.71E-03
    5    -119.0996590246      2.82E-04 Done RCA. Switching to DIIS
    6    -119.1001851465      2.09E-04
    7    -119.1002041504      4.28E-06 Convergence criterion met
 ---------------------------------------
 SCF time:  CPU 20.76 s  wall 7.82 s
 SCF   energy in the small basis set = -119.10020415
 Total energy in the small basis set = -119.10020415
 ----------------------------------------------------
  Cycle       Energy    
 ----------------------------------------------------
    1     -16.5308120264     -1.65E+01
 Long-range K will be added via erf
 Coulomb attenuation parameter = 0.2 bohr**(-1)
 A restricted hybrid HF-DFT SCF calculation will be
 performed using Relaxed Constraint Minimization + Pulay DIIS
 Exchange:     0.2220 Hartree-Fock + 1.0000 wB97X-D + LR-HF
 Correlation:  1.0000 wB97X-D
 Using Euler-Maclaurin-Lebedev (75,302) quadrature formula
 Dispersion:   Grimme D
 SCF converges when DIIS error is below 1.0E-05
 Basis2 calculation detected. Using small basis as guess for larger.
 SCFMinFind is unable to tell whether the solution found is close.
 Resetting ReadMinima to 0 and attempting to follow guess.
 SCFMinFind following SCF Guess.
 using 3 threads for integral computing
 -------------------------------------------------------
 OpenMP Integral computing Module                
 Release: version 1.0, May 2013, Q-Chem Inc. Pittsburgh 
 -------------------------------------------------------
 using 3 threads for integral computing
 -------------------------------------------------------
 OpenMP Integral computing Module                
 Release: version 1.0, May 2013, Q-Chem Inc. Pittsburgh 
 -------------------------------------------------------
 ---------------------------------------
  Cycle       Energy         DIIS Error
 ---------------------------------------
    1    -119.1192919212      4.21E-03
    2    -119.1413217222      5.87E-04 Done RCA. Switching to DIIS
    3    -119.1421577976      4.04E-04
    4    -119.1430538366      4.57E-05
    5    -119.1430685160      1.13E-05
    6    -119.1430693275      4.10E-06 Convergence criterion met
 ---------------------------------------
 SCF time:  CPU 48.70 s  wall 16.28 s
 SCF   energy in the final basis set = -119.14306933
 Total energy in the final basis set = -119.14306933
 
 --------------------------------------------------------------
 
                    Orbital Energies (a.u.)
 --------------------------------------------------------------
 
 Alpha MOs
 -- Occupied --
-10.2751 -10.2667 -10.2667  -0.8765  -0.7824  -0.6752  -0.5422  -0.5180
 -0.4887  -0.4684  -0.4233  -0.4098  -0.4043
 -- Virtual --
  0.0676   0.0867   0.0927   0.0991   0.1213   0.1293   0.1329   0.1467
  0.1476   0.1734   0.1755   0.1928   0.2377   0.2383   0.2440   0.2561
  0.2771   0.2860   0.3021   0.3103   0.3310   0.3548   0.4580   0.4620
  0.4771   0.5126   0.5188   0.5225   0.5369   0.5704   0.5794   0.5884
  0.6135   0.6159   0.6415   0.6488   0.6492   0.6537   0.7021   0.7250
  0.7318   0.7619   0.8430   0.8464   0.8523   0.8668   0.8903   0.9695
  0.9745   1.0383   1.0535   1.1347   1.1608   1.1696   1.1726   1.2074
  1.2320   1.2391   1.2720   1.2725   1.2776   1.2818   1.3361   1.3582
  1.3736   1.3764   1.3854   1.4571   1.4599   1.4772   1.4807   1.4977
  1.5284   1.5590   1.6046   1.6157   1.6409   1.6560   1.6808   1.6889
  1.7573   2.3656   2.4770   2.4844   2.4873   2.5380   2.5572   2.5650
  2.6409   2.7050   2.8058   2.8334   2.8364   2.9031   2.9310   2.9424
  2.9487   2.9642   2.9861   3.0035   3.0506   3.0850   3.0988   3.1109
  3.1375   3.1419   3.1550   3.1854   3.1956   3.2009   3.2444   3.2978
  3.3203   3.3274   3.3317   3.3440   3.3597   3.3603   3.4110   3.4339
  3.4524   3.4585   3.5189   3.5347   3.5611   3.5940   3.6026   3.6130
  3.6289   3.6487   3.6730   3.7083   3.7552   3.8458   3.8476   3.8516
  3.8887   3.9214   3.9256   3.9406   3.9661   4.0066   4.0193   4.0372
  4.0839   4.1097   4.1110   4.1552   4.1660   4.1670   4.1829   4.1837
  4.1935   4.2656   4.2732   4.3821   4.4011   4.4055   4.4370   4.4459
  4.4553   4.5422   4.5594   4.5884   4.7179   4.8067   4.8083   4.8828
  4.9228   4.9347   4.9769   4.9800   5.0121   5.0479   5.0695   5.1114
  5.1273   5.2236   5.2396   5.2491   5.3059   5.3233   5.3290   5.3380
  5.3752   5.3824   5.4069   5.4691   5.5574   5.5970   5.6054   5.7694
  5.9403   6.3706   6.3834   6.3971   6.4003   6.4663  25.2120  25.4317
 25.4435
 --------------------------------------------------------------
 
 -----------------------------------------------------------------
                    Cartesian Multipole Moments
 -----------------------------------------------------------------
    Charge (ESU x 10^10)
                 0.0000
    Dipole Moment (Debye)
         X       0.0000      Y       0.0001      Z      -0.1117
       Tot       0.1117
    Quadrupole Moments (Debye-Ang)
        XX     -22.0659     XY      -0.0000     YY     -21.3923
        XZ       0.0000     YZ      -0.0017     ZZ     -21.8054
    Octopole Moments (Debye-Ang^2)
       XXX       0.0000    XXY      -0.0027    XYY       0.0000
       YYY       0.0198    XXZ      -1.8924    XYZ       0.0000
       YYZ       0.1866    XZZ       0.0000    YZZ      -0.0484
       ZZZ      -1.5970
    Hexadecapole Moments (Debye-Ang^3)
      XXXX    -223.1308   XXXY      -0.0000   XXYY     -44.7126
      XYYY       0.0000   YYYY     -44.1458   XXXZ       0.0000
      XXYZ       0.1298   XYYZ      -0.0000   YYYZ       0.0962
      XXZZ     -46.6390   XYZZ      -0.0000   YYZZ     -16.4340
      XZZZ      -0.0000   YZZZ       0.0916   ZZZZ     -67.3380
 -----------------------------------------------------------------
Archival summary:
1\1\centos77-c4\SP\ProcedureUnspecified\BasisUnspecified\38\shihchen\TueJul701:03:022020TueJul701:03:022020\0\\#,ProcedureUnspecified,BasisUnspecified,\\0,1\C\H,1,1.09329\H,1,1.09343,2,105.099\C,1,1.53174,2,107.426,3,-113.969,0\H,4,1.0914,1,108.541,2,57.3106,0\H,4,1.09148,1,112.453,2,176.334,0\H,4,1.09157,1,112.483,2,-61.5744,0\C,1,1.53174,2,107.426,3,113.969,0\H,8,1.0914,1,108.541,2,-57.3107,0\H,8,1.09148,1,112.453,2,-176.334,0\H,8,1.09157,1,112.483,2,61.5744,0\\\@

 Total job time:  26.93s(wall), 72.94s(cpu) 
 Tue Jul  7 01:03:02 2020

        *************************************************************
        *                                                           *
        *  Thank you very much for using Q-Chem.  Have a nice day.  *
        *                                                           *
        *************************************************************


