                  Welcome to Q-Chem
     A Quantum Leap Into The Future Of Chemistry


 Q-Chem 5.3 (devel), Q-Chem, Inc., Pleasanton, CA (2020)

 Yihan Shao,  Zhengting Gan,  E. Epifanovsky,  A. T. B. Gilbert,  M. Wormit,  
 J. Kussmann,  A. W. Lange,  A. Behn,  Jia Deng,  Xintian Feng,  D. Ghosh,  
 M. Goldey,  P. R. Horn,  L. D. Jacobson,  I. Kaliman,  T. Kus,  A. Landau,  
 Jie Liu,  E. I. Proynov,  R. M. Richard,  R. P. Steele,  E. J. Sundstrom,  
 H. L. Woodcock III,  P. M. Zimmerman,  D. Zuev,  B. Alam,  B. Albrecht,  
 E. Alguire,  S. A. Baeppler,  D. Barton,  Z. Benda,  Y. A. Bernard,  
 E. J. Berquist,  K. B. Bravaya,  H. Burton,  K. Carter-Fenk,  D. Casanova,  
 Chun-Min Chang,  Yunqing Chen,  A. Chien,  K. D. Closser,  M. P. Coons,  
 S. Coriani,  S. Dasgupta,  A. L. Dempwolff,  M. Diedenhofen,  Hainam Do,  
 R. G. Edgar,  Po-Tung Fang,  S. Faraji,  S. Fatehi,  Qingguo Feng,  
 J. Fosso-Tande,  J. Gayvert,  Qinghui Ge,  A. Ghysels,  G. Gidofalvi,  
 J. Gomes,  J. Gonthier,  A. Gunina,  D. Hait,  M. W. D. Hanson-Heine,  
 P. H. P. Harbach,  A. W. Hauser,  M. F. Herbst,  J. E. Herr,  
 E. G. Hohenstein,  Z. C. Holden,  Kerwin Hui,  B. C. Huynh,  T.-C. Jagau,  
 Hyunjun Ji,  B. Kaduk,  K. Khistyaev,  Jaehoon Kim,  P. Klunzinger,  K. Koh,  
 D. Kosenkov,  L. Koulias,  T. Kowalczyk,  C. M. Krauter,  A. Kunitsa,  
 Ka Un Lao,  A. Laurent,  K. V. Lawler,  Joonho Lee,  D. Lefrancois,  
 S. Lehtola,  D. S. Levine,  Yi-Pei Li,  You-Sheng Lin,  Fenglai Liu,  
 Kuan-Yu Liu,  E. Livshits,  M. Loipersberger,  A. Luenser,  P. Manohar,  
 E. Mansoor,  S. F. Manzer,  Shan-Ping Mao,  Yuezhi Mao,  N. Mardirossian,  
 A. V. Marenich,  T. Markovich,  L. A. Martinez-Martinez,  S. A. Maurer,  
 N. J. Mayhall,  S. C. McKenzie,  J.-M. Mewes,  P. Morgante,  A. F. Morrison,  
 J. W. Mullinax,  K. Nanda,  T. S. Nguyen-Beck,  R. Olivares-Amaya,  
 K. J. Oosterbaan,  J. A. Parkhill,  S. K. Paul,  F. Pavosevic,  Zheng Pei,  
 T. M. Perrine,  F. Plasser,  P. Pokhilko,  S. Prager,  A. Prociuk,  
 E. Ramos,  B. Rana,  D. R. Rehn,  F. Rob,  M. Scheurer,  M. Schneider,  
 N. Sergueev,  S. M. Sharada,  S. Sharma,  D. W. Small,  T. Stauch,  
 C. J. Stein,  T. Stein,  Yu-Chuan Su,  S. P. Veccham,  Zhen Tao,  
 A. J. W. Thom,  A. Tkatchenko,  T. Tsuchimochi,  N. M. Tubman,  L. Vogt,  
 M. L. Vidal,  O. Vydrov,  M. A. Watson,  J. Wenzel,  M. de Wergifosse,  
 T. A. Wesolowski,  A. White,  J. Witte,  A. Yamada,  Jun Yang,  K. Yao,  
 S. Yeganeh,  S. R. Yost,  Zhi-Qiang You,  A. Zech,  Igor Ying Zhang,  
 Xing Zhang,  Yan Zhao,  Ying Zhu,  B. R. Brooks,  G. K. L. Chan,  
 C. J. Cramer,  M. S. Gordon,  W. J. Hehre,  A. Klamt,  M. W. Schmidt,  
 C. D. Sherrill,  D. G. Truhlar,  A. Aspuru-Guzik,  R. Baer,  A. T. Bell,  
 N. A. Besley,  Jeng-Da Chai,  A. E. DePrince, III,  R. A. DiStasio Jr.,  
 A. Dreuw,  B. D. Dunietz,  T. R. Furlani,  Chao-Ping Hsu,  Yousung Jung,  
 Jing Kong,  D. S. Lambrecht,  WanZhen Liang,  C. Ochsenfeld,  
 V. A. Rassolov,  L. V. Slipchenko,  J. E. Subotnik,  T. Van Voorhis,  
 J. M. Herbert,  A. I. Krylov,  P. M. W. Gill,  M. Head-Gordon

 Contributors to earlier versions of Q-Chem not listed above: 
 R. D. Adamson,  B. Austin,  J. Baker,  G. J. O. Beran,  K. Brandhorst,  
 S. T. Brown,  E. F. C. Byrd,  A. K. Chakraborty,  C.-L. Cheng,  
 Siu Hung Chien,  D. M. Chipman,  D. L. Crittenden,  H. Dachsel,  
 R. J. Doerksen,  A. D. Dutoi,  L. Fusti-Molnar,  W. A. Goddard III,  
 A. Golubeva-Zadorozhnaya,  S. R. Gwaltney,  G. Hawkins,  A. Heyden,  
 S. Hirata,  G. Kedziora,  F. J. Keil,  C. Kelley,  Jihan Kim,  R. A. King,  
 R. Z. Khaliullin,  P. P. Korambath,  W. Kurlancheek,  A. M. Lee,  M. S. Lee,  
 S. V. Levchenko,  Ching Yeh Lin,  D. Liotard,  R. C. Lochan,  I. Lotan,  
 P. E. Maslen,  N. Nair,  D. P. O'Neill,  D. Neuhauser,  E. Neuscamman,  
 C. M. Oana,  R. Olson,  B. Peters,  R. Peverati,  P. A. Pieniazek,  
 Y. M. Rhee,  J. Ritchie,  M. A. Rohrdanz,  E. Rosta,  N. J. Russ,  
 H. F. Schaefer III,  N. E. Schultz,  N. Shenvi,  A. C. Simmonett,  A. Sodt,  
 D. Stuck,  K. S. Thanthiriwatte,  V. Vanovschi,  Tao Wang,  A. Warshel,  
 C. F. Williams,  Q. Wu,  X. Xu,  W. Zhang

 Please cite Q-Chem as follows:
 Y. Shao et al., Mol. Phys. 113, 184-215 (2015)
 DOI: 10.1080/00268976.2014.952696

 Q-Chem 5.3.0 for Intel X86 EM64T Linux

 Parts of Q-Chem use Armadillo 9.800.1 (Horizon Scraper).
 http://arma.sourceforge.net/

 Q-Chem begins on Tue Jul  7 02:01:15 2020  

Host: centos77-c4
0

     Scratch files written to /tmp/26964.centos77-h1/qchem107073//
Processing $rem in /opt/qchem-5.3.0-intel2020u1//config/preferences:
Processing $rem in /home/shihchengli/.qchemrc:

Checking the input file for inconsistencies... 	...done.

--------------------------------------------------------------
User input:
--------------------------------------------------------------
$rem
   JOBTYPE  sp
   EXCHANGE   omegaB97X-D
   BASIS   6-311+G(2df,2pd)
   UNRESTRICTED   False
   max_scf_cycles   250
   geom_opt_max_cycles   1500
   basis2 6-31G*
   scf_algorithm rca_diis
   SYM_IGNORE  TRUE
   print_input   true
   geom_opt_dmax   80
   pop_mulliken false
   XC_GRID 000075000302
$end

$molecule
0 1
C       1.2618701889     -0.0118447308     0.2635977635
C       -0.0056121978     0.0003385670     -0.5875752338
H       1.2565358940     -0.9016300684     0.8924036375
H       1.3518842768     0.8923208860     0.8713208325
H       2.1691745717     0.0558654418     -0.3391868916
C       -1.2723913605     0.0128781208     0.2546925973
H       -0.0078489703     -0.8737112122     -1.2431578385
H       0.0171031649     0.8738505290     -1.2434848383
H       -1.3536955910     -0.8565667752     0.9139900181
H       -2.1577466470     -0.0567178325     -0.3765076473
H       -1.2592733903     0.8652177405     0.9349526195
$end
--------------------------------------------------------------
 ----------------------------------------------------------------
             Standard Nuclear Orientation (Angstroms)
    I     Atom           X                Y                Z
 ----------------------------------------------------------------
    1      C       1.2618701889    -0.0118447308     0.2635977635
    2      C      -0.0056121978     0.0003385670    -0.5875752338
    3      H       1.2565358940    -0.9016300684     0.8924036375
    4      H       1.3518842768     0.8923208860     0.8713208325
    5      H       2.1691745717     0.0558654418    -0.3391868916
    6      C      -1.2723913605     0.0128781208     0.2546925973
    7      H      -0.0078489703    -0.8737112122    -1.2431578385
    8      H       0.0171031649     0.8738505290    -1.2434848383
    9      H      -1.3536955910    -0.8565667752     0.9139900181
   10      H      -2.1577466470    -0.0567178325    -0.3765076473
   11      H      -1.2592733903     0.8652177405     0.9349526195
 ----------------------------------------------------------------
 Nuclear Repulsion Energy =          82.73782127 hartrees
 There are       13 alpha and       13 beta electrons
 Requested basis set is 6-311+G(2df,2pd)
 There are 72 shells and 214 basis functions

 Total QAlloc Memory Limit   2000 MB
 Mega-Array Size       188 MB
 MEM_STATIC part       192 MB

                       Distance Matrix (Angstroms)
             C (  1)   C (  2)   H (  3)   H (  4)   H (  5)   C (  6)
   C (  2)  1.526812
   H (  3)  1.089561  2.144039
   H (  4)  1.093136  2.183302  1.796607
   H (  5)  1.091391  2.189630  1.807352  1.683137
   C (  6)  2.534398  1.521283  2.763779  2.835573  3.492695
   H (  7)  2.150654  1.092592  2.481949  3.072257  2.533912  2.151433
   H (  8)  2.145973  1.092592  3.041471  2.500877  2.473513  2.156062
   H (  9)  2.824491  2.192331  2.610710  3.221892  3.848844  1.094175
   H ( 10)  3.479300  2.163212  3.739163  3.843860  4.328547  1.089546
   H ( 11)  2.752475  2.153549  3.074550  2.612073  3.746030  1.090600
             H (  7)   H (  8)   H (  9)   H ( 10)
   H (  8)  1.747740
   H (  9)  2.542614  3.086767
   H ( 10)  2.457767  2.519440  1.718034
   H ( 11)  3.055176  2.524837  1.724499  1.837702
 
 A cutoff of  1.0D-09 yielded   2531 shell pairs
 There are     22549 function pairs (     27724 Cartesian)
 Smallest overlap matrix eigenvalue = 8.70E-05

 Scale SEOQF with 1.000000e-01/1.000000e-01/1.000000e-01

 Standard Electronic Orientation quadrupole field applied
 Nucleus-field energy     =     0.0000000006 hartrees
 Requested basis set is 6-31G(d)
 There are 28 shells and 58 basis functions
 A cutoff of  1.0D-09 yielded    402 shell pairs
 There are      1773 function pairs (      1968 Cartesian)
 Smallest overlap matrix eigenvalue = 6.80E-03
 Guess from superposition of atomic densities
 Warning:  Energy on first SCF cycle will be non-variational
 SAD guess density has 26.000000 electrons
 Long-range K will be added via erf
 Coulomb attenuation parameter = 0.2 bohr**(-1)
 A restricted hybrid HF-DFT SCF calculation will be
 performed using Relaxed Constraint Minimization + Pulay DIIS
 Exchange:     0.2220 Hartree-Fock + 1.0000 wB97X-D + LR-HF
 Correlation:  1.0000 wB97X-D
 Using Euler-Maclaurin-Lebedev (75,302) quadrature formula
 Dispersion:   Grimme D
 SCF converges when DIIS error is below 1.0E-04
 using 3 threads for integral computing
 -------------------------------------------------------
 OpenMP Integral computing Module                
 Release: version 1.0, May 2013, Q-Chem Inc. Pittsburgh 
 -------------------------------------------------------
 using 3 threads for integral computing
 -------------------------------------------------------
 OpenMP Integral computing Module                
 Release: version 1.0, May 2013, Q-Chem Inc. Pittsburgh 
 -------------------------------------------------------
 ---------------------------------------
  Cycle       Energy         DIIS Error
 ---------------------------------------
    1    -119.6200692211      1.00E-01
    2    -119.0631513169      9.02E-03
    3    -119.0843480800      2.47E-03
    4    -119.0983195226      1.69E-03
    5    -119.0990211595      2.68E-04 Done RCA. Switching to DIIS
    6    -119.0995356578      1.98E-04
    7    -119.0995526568      4.70E-06 Convergence criterion met
 ---------------------------------------
 SCF time:  CPU 21.96 s  wall 8.34 s
 SCF   energy in the small basis set = -119.09955266
 Total energy in the small basis set = -119.09955266
 ----------------------------------------------------
  Cycle       Energy    
 ----------------------------------------------------
    1     -16.5388789367     -1.65E+01
 Long-range K will be added via erf
 Coulomb attenuation parameter = 0.2 bohr**(-1)
 A restricted hybrid HF-DFT SCF calculation will be
 performed using Relaxed Constraint Minimization + Pulay DIIS
 Exchange:     0.2220 Hartree-Fock + 1.0000 wB97X-D + LR-HF
 Correlation:  1.0000 wB97X-D
 Using Euler-Maclaurin-Lebedev (75,302) quadrature formula
 Dispersion:   Grimme D
 SCF converges when DIIS error is below 1.0E-05
 Basis2 calculation detected. Using small basis as guess for larger.
 SCFMinFind is unable to tell whether the solution found is close.
 Resetting ReadMinima to 0 and attempting to follow guess.
 SCFMinFind following SCF Guess.
 using 3 threads for integral computing
 -------------------------------------------------------
 OpenMP Integral computing Module                
 Release: version 1.0, May 2013, Q-Chem Inc. Pittsburgh 
 -------------------------------------------------------
 using 3 threads for integral computing
 -------------------------------------------------------
 OpenMP Integral computing Module                
 Release: version 1.0, May 2013, Q-Chem Inc. Pittsburgh 
 -------------------------------------------------------
 ---------------------------------------
  Cycle       Energy         DIIS Error
 ---------------------------------------
    1    -119.1187930632      4.21E-03
    2    -119.1408341251      5.99E-04 Done RCA. Switching to DIIS
    3    -119.1416710796      4.21E-04
    4    -119.1426401958      4.56E-05
    5    -119.1426550085      1.01E-05
    6    -119.1426556997      3.89E-06 Convergence criterion met
 ---------------------------------------
 SCF time:  CPU 51.19 s  wall 17.26 s
 SCF   energy in the final basis set = -119.14265570
 Total energy in the final basis set = -119.14265570
 
 --------------------------------------------------------------
 
                    Orbital Energies (a.u.)
 --------------------------------------------------------------
 
 Alpha MOs
 -- Occupied --
-10.2740 -10.2652 -10.2652  -0.8813  -0.7775  -0.6781  -0.5466  -0.5266
 -0.4825  -0.4613  -0.4224  -0.4168  -0.4028
 -- Virtual --
  0.0691   0.0857   0.0909   0.0991   0.1247   0.1301   0.1334   0.1427
  0.1429   0.1703   0.1724   0.1916   0.2305   0.2359   0.2505   0.2629
  0.2809   0.2858   0.3102   0.3133   0.3343   0.3497   0.4589   0.4660
  0.4713   0.5094   0.5139   0.5183   0.5454   0.5607   0.5817   0.5879
  0.6220   0.6267   0.6385   0.6483   0.6516   0.6619   0.7102   0.7259
  0.7270   0.7671   0.8177   0.8652   0.8682   0.8726   0.8829   0.9557
  0.9980   1.0523   1.0558   1.1363   1.1442   1.1716   1.1894   1.2135
  1.2346   1.2354   1.2676   1.2723   1.2866   1.3002   1.3299   1.3668
  1.3771   1.3939   1.4133   1.4471   1.4653   1.4718   1.4738   1.4849
  1.5192   1.5766   1.6123   1.6236   1.6368   1.6459   1.6853   1.6955
  1.7495   2.3792   2.4677   2.4790   2.5002   2.5450   2.5593   2.5996
  2.6295   2.7125   2.8221   2.8269   2.8386   2.9046   2.9192   2.9260
  2.9436   2.9495   3.0001   3.0201   3.0548   3.0603   3.0738   3.1030
  3.1375   3.1408   3.1767   3.1884   3.1987   3.2209   3.2781   3.3001
  3.3095   3.3445   3.3529   3.3595   3.3801   3.3967   3.4135   3.4405
  3.4704   3.4826   3.5085   3.5222   3.5626   3.5774   3.5841   3.6182
  3.6226   3.6654   3.6768   3.7029   3.7712   3.7835   3.8783   3.8889
  3.8995   3.9345   3.9485   3.9588   3.9696   3.9901   4.0193   4.0602
  4.0685   4.1047   4.1199   4.1392   4.1585   4.1736   4.1898   4.2170
  4.2187   4.2387   4.2703   4.3693   4.3875   4.4170   4.4220   4.4290
  4.4386   4.5841   4.5945   4.6022   4.6735   4.7979   4.8040   4.8859
  4.9252   4.9483   4.9623   4.9937   5.0285   5.0333   5.0572   5.0773
  5.1617   5.2332   5.2461   5.2748   5.2994   5.3137   5.3825   5.3884
  5.4030   5.4233   5.4694   5.5156   5.5705   5.5750   5.6511   5.7476
  5.9555   6.3572   6.3598   6.4122   6.4329   6.4650  25.2048  25.4430
 25.4547
 --------------------------------------------------------------
 
 -----------------------------------------------------------------
                    Cartesian Multipole Moments
 -----------------------------------------------------------------
    Charge (ESU x 10^10)
                -0.0000
    Dipole Moment (Debye)
         X       0.0170      Y      -0.0021      Z      -0.0826
       Tot       0.0843
    Quadrupole Moments (Debye-Ang)
        XX     -22.1625     XY       0.4776     YY     -21.3728
        XZ      -0.0166     YZ      -0.0006     ZZ     -21.8562
    Octopole Moments (Debye-Ang^2)
       XXX       0.3991    XXY       0.0110    XYY       0.3644
       YYY      -0.0343    XXZ      -1.4953    XYZ      -0.1408
       YYZ       0.4631    XZZ      -0.2393    YZZ      -0.0107
       ZZZ      -0.3946
    Hexadecapole Moments (Debye-Ang^3)
      XXXX    -202.3261   XXXY       2.5657   XXYY     -42.1963
      XYYY      -0.0524   YYYY     -44.1628   XXXZ       0.2633
      XXYZ       0.0143   XYYZ       0.0805   YYYZ      -0.0189
      XXZZ     -45.3639   XYZZ      -0.0459   YYZZ     -17.1038
      XZZZ      -0.4469   YZZZ       0.0014   ZZZZ     -72.2198
 -----------------------------------------------------------------
Archival summary:
1\1\centos77-c4\SP\ProcedureUnspecified\BasisUnspecified\38\shihchen\TueJul702:01:442020TueJul702:01:442020\0\\#,ProcedureUnspecified,BasisUnspecified,\\0,1\C\H,1,1.09259\H,1,1.09259,2,106.225\C,1,1.52128,2,110.066,3,-118.689,0\H,4,1.08955,1,110.816,2,62.769,0\H,4,1.0906,1,109.985,2,-65.3704,0\H,4,1.09417,1,112.888,2,178.67,0\C,1,1.52681,2,108.892,3,117.558,0\H,8,1.08956,1,108.916,2,-178.005,0\H,8,1.09139,1,112.441,2,-53.3461,0\H,8,1.09314,1,111.82,2,59.2119,0\\\@

 Total job time:  28.50s(wall), 76.75s(cpu) 
 Tue Jul  7 02:01:44 2020

        *************************************************************
        *                                                           *
        *  Thank you very much for using Q-Chem.  Have a nice day.  *
        *                                                           *
        *************************************************************


