                  Welcome to Q-Chem
     A Quantum Leap Into The Future Of Chemistry


 Q-Chem 5.3 (devel), Q-Chem, Inc., Pleasanton, CA (2020)

 Yihan Shao,  Zhengting Gan,  E. Epifanovsky,  A. T. B. Gilbert,  M. Wormit,  
 J. Kussmann,  A. W. Lange,  A. Behn,  Jia Deng,  Xintian Feng,  D. Ghosh,  
 M. Goldey,  P. R. Horn,  L. D. Jacobson,  I. Kaliman,  T. Kus,  A. Landau,  
 Jie Liu,  E. I. Proynov,  R. M. Richard,  R. P. Steele,  E. J. Sundstrom,  
 H. L. Woodcock III,  P. M. Zimmerman,  D. Zuev,  B. Alam,  B. Albrecht,  
 E. Alguire,  S. A. Baeppler,  D. Barton,  Z. Benda,  Y. A. Bernard,  
 E. J. Berquist,  K. B. Bravaya,  H. Burton,  K. Carter-Fenk,  D. Casanova,  
 Chun-Min Chang,  Yunqing Chen,  A. Chien,  K. D. Closser,  M. P. Coons,  
 S. Coriani,  S. Dasgupta,  A. L. Dempwolff,  M. Diedenhofen,  Hainam Do,  
 R. G. Edgar,  Po-Tung Fang,  S. Faraji,  S. Fatehi,  Qingguo Feng,  
 J. Fosso-Tande,  J. Gayvert,  Qinghui Ge,  A. Ghysels,  G. Gidofalvi,  
 J. Gomes,  J. Gonthier,  A. Gunina,  D. Hait,  M. W. D. Hanson-Heine,  
 P. H. P. Harbach,  A. W. Hauser,  M. F. Herbst,  J. E. Herr,  
 E. G. Hohenstein,  Z. C. Holden,  Kerwin Hui,  B. C. Huynh,  T.-C. Jagau,  
 Hyunjun Ji,  B. Kaduk,  K. Khistyaev,  Jaehoon Kim,  P. Klunzinger,  K. Koh,  
 D. Kosenkov,  L. Koulias,  T. Kowalczyk,  C. M. Krauter,  A. Kunitsa,  
 Ka Un Lao,  A. Laurent,  K. V. Lawler,  Joonho Lee,  D. Lefrancois,  
 S. Lehtola,  D. S. Levine,  Yi-Pei Li,  You-Sheng Lin,  Fenglai Liu,  
 Kuan-Yu Liu,  E. Livshits,  M. Loipersberger,  A. Luenser,  P. Manohar,  
 E. Mansoor,  S. F. Manzer,  Shan-Ping Mao,  Yuezhi Mao,  N. Mardirossian,  
 A. V. Marenich,  T. Markovich,  L. A. Martinez-Martinez,  S. A. Maurer,  
 N. J. Mayhall,  S. C. McKenzie,  J.-M. Mewes,  P. Morgante,  A. F. Morrison,  
 J. W. Mullinax,  K. Nanda,  T. S. Nguyen-Beck,  R. Olivares-Amaya,  
 K. J. Oosterbaan,  J. A. Parkhill,  S. K. Paul,  F. Pavosevic,  Zheng Pei,  
 T. M. Perrine,  F. Plasser,  P. Pokhilko,  S. Prager,  A. Prociuk,  
 E. Ramos,  B. Rana,  D. R. Rehn,  F. Rob,  M. Scheurer,  M. Schneider,  
 N. Sergueev,  S. M. Sharada,  S. Sharma,  D. W. Small,  T. Stauch,  
 C. J. Stein,  T. Stein,  Yu-Chuan Su,  S. P. Veccham,  Zhen Tao,  
 A. J. W. Thom,  A. Tkatchenko,  T. Tsuchimochi,  N. M. Tubman,  L. Vogt,  
 M. L. Vidal,  O. Vydrov,  M. A. Watson,  J. Wenzel,  M. de Wergifosse,  
 T. A. Wesolowski,  A. White,  J. Witte,  A. Yamada,  Jun Yang,  K. Yao,  
 S. Yeganeh,  S. R. Yost,  Zhi-Qiang You,  A. Zech,  Igor Ying Zhang,  
 Xing Zhang,  Yan Zhao,  Ying Zhu,  B. R. Brooks,  G. K. L. Chan,  
 C. J. Cramer,  M. S. Gordon,  W. J. Hehre,  A. Klamt,  M. W. Schmidt,  
 C. D. Sherrill,  D. G. Truhlar,  A. Aspuru-Guzik,  R. Baer,  A. T. Bell,  
 N. A. Besley,  Jeng-Da Chai,  A. E. DePrince, III,  R. A. DiStasio Jr.,  
 A. Dreuw,  B. D. Dunietz,  T. R. Furlani,  Chao-Ping Hsu,  Yousung Jung,  
 Jing Kong,  D. S. Lambrecht,  WanZhen Liang,  C. Ochsenfeld,  
 V. A. Rassolov,  L. V. Slipchenko,  J. E. Subotnik,  T. Van Voorhis,  
 J. M. Herbert,  A. I. Krylov,  P. M. W. Gill,  M. Head-Gordon

 Contributors to earlier versions of Q-Chem not listed above: 
 R. D. Adamson,  B. Austin,  J. Baker,  G. J. O. Beran,  K. Brandhorst,  
 S. T. Brown,  E. F. C. Byrd,  A. K. Chakraborty,  C.-L. Cheng,  
 Siu Hung Chien,  D. M. Chipman,  D. L. Crittenden,  H. Dachsel,  
 R. J. Doerksen,  A. D. Dutoi,  L. Fusti-Molnar,  W. A. Goddard III,  
 A. Golubeva-Zadorozhnaya,  S. R. Gwaltney,  G. Hawkins,  A. Heyden,  
 S. Hirata,  G. Kedziora,  F. J. Keil,  C. Kelley,  Jihan Kim,  R. A. King,  
 R. Z. Khaliullin,  P. P. Korambath,  W. Kurlancheek,  A. M. Lee,  M. S. Lee,  
 S. V. Levchenko,  Ching Yeh Lin,  D. Liotard,  R. C. Lochan,  I. Lotan,  
 P. E. Maslen,  N. Nair,  D. P. O'Neill,  D. Neuhauser,  E. Neuscamman,  
 C. M. Oana,  R. Olson,  B. Peters,  R. Peverati,  P. A. Pieniazek,  
 Y. M. Rhee,  J. Ritchie,  M. A. Rohrdanz,  E. Rosta,  N. J. Russ,  
 H. F. Schaefer III,  N. E. Schultz,  N. Shenvi,  A. C. Simmonett,  A. Sodt,  
 D. Stuck,  K. S. Thanthiriwatte,  V. Vanovschi,  Tao Wang,  A. Warshel,  
 C. F. Williams,  Q. Wu,  X. Xu,  W. Zhang

 Please cite Q-Chem as follows:
 Y. Shao et al., Mol. Phys. 113, 184-215 (2015)
 DOI: 10.1080/00268976.2014.952696

 Q-Chem 5.3.0 for Intel X86 EM64T Linux

 Parts of Q-Chem use Armadillo 9.800.1 (Horizon Scraper).
 http://arma.sourceforge.net/

 Q-Chem begins on Tue Jul  7 02:19:55 2020  

Host: centos77-c4
0

     Scratch files written to /tmp/26964.centos77-h1/qchem110683//
Processing $rem in /opt/qchem-5.3.0-intel2020u1//config/preferences:
Processing $rem in /home/shihchengli/.qchemrc:

Checking the input file for inconsistencies... 	...done.

--------------------------------------------------------------
User input:
--------------------------------------------------------------
$rem
   JOBTYPE  sp
   EXCHANGE   omegaB97X-D
   BASIS   6-311+G(2df,2pd)
   UNRESTRICTED   False
   max_scf_cycles   250
   geom_opt_max_cycles   1500
   basis2 6-31G*
   scf_algorithm rca_diis
   SYM_IGNORE  TRUE
   print_input   true
   geom_opt_dmax   80
   pop_mulliken false
   XC_GRID 000075000302
$end

$molecule
0 1
C       1.2703616031     -0.0034234175     0.2444711535
C       -0.0000000029     -0.0291528359     -0.6011490878
H       1.3065548544     -0.8652602712     0.9141538167
H       1.2810439266     0.8304767988     0.9518842146
H       2.1457786508     0.1061712933     -0.3939063292
C       -1.2703615159     -0.0034230100     0.2444713626
H       -0.0000002533     -0.9347323042     -1.2124905182
H       0.0000001034     0.8279559433     -1.2785207540
H       -1.3065552914     -0.8652597388     0.9141541863
H       -2.1457787846     0.1061699299     -0.3939061722
H       -1.2810433507     0.8304782783     0.9518831465
$end
--------------------------------------------------------------
 ----------------------------------------------------------------
             Standard Nuclear Orientation (Angstroms)
    I     Atom           X                Y                Z
 ----------------------------------------------------------------
    1      C       1.2703616031    -0.0034234175     0.2444711535
    2      C      -0.0000000029    -0.0291528359    -0.6011490878
    3      H       1.3065548544    -0.8652602712     0.9141538167
    4      H       1.2810439266     0.8304767988     0.9518842146
    5      H       2.1457786508     0.1061712933    -0.3939063292
    6      C      -1.2703615159    -0.0034230100     0.2444713626
    7      H      -0.0000002533    -0.9347323042    -1.2124905182
    8      H       0.0000001034     0.8279559433    -1.2785207540
    9      H      -1.3065552914    -0.8652597388     0.9141541863
   10      H      -2.1457787846     0.1061699299    -0.3939061722
   11      H      -1.2810433507     0.8304782783     0.9518831465
 ----------------------------------------------------------------
 Nuclear Repulsion Energy =          82.70493207 hartrees
 There are       13 alpha and       13 beta electrons
 Requested basis set is 6-311+G(2df,2pd)
 There are 72 shells and 214 basis functions

 Total QAlloc Memory Limit   2000 MB
 Mega-Array Size       188 MB
 MEM_STATIC part       192 MB

                       Distance Matrix (Angstroms)
             C (  1)   C (  2)   H (  3)   H (  4)   H (  5)   C (  6)
   C (  2)  1.526288
   H (  3)  1.092038  2.168480
   H (  4)  1.093589  2.189052  1.696349
   H (  5)  1.088987  2.160007  1.832757  1.756000
   C (  6)  2.540723  1.526288  2.798524  2.775877  3.477003
   H (  7)  2.145668  1.092617  2.496904  3.072711  2.521493  2.145668
   H (  8)  2.150468  1.092460  3.062987  2.572117  2.430613  2.150468
   H (  9)  2.798524  2.168480  2.613110  3.093964  3.817501  1.092038
   H ( 10)  3.477003  2.160007  3.817500  3.752184  4.291557  1.088987
   H ( 11)  2.775877  2.189052  3.093965  2.562087  3.752183  1.093589
             H (  7)   H (  8)   H (  9)   H ( 10)
   H (  8)  1.763925
   H (  9)  2.496904  3.062987
   H ( 10)  2.521492  2.430614  1.832756
   H ( 11)  3.072711  2.572116  1.696350  1.756001
 
 A cutoff of  1.0D-09 yielded   2534 shell pairs
 There are     22580 function pairs (     27761 Cartesian)
 Smallest overlap matrix eigenvalue = 8.55E-05

 Scale SEOQF with 1.000000e-01/1.000000e-01/1.000000e-01

 Standard Electronic Orientation quadrupole field applied
 Nucleus-field energy     =     0.0000000005 hartrees
 Requested basis set is 6-31G(d)
 There are 28 shells and 58 basis functions
 A cutoff of  1.0D-09 yielded    402 shell pairs
 There are      1773 function pairs (      1968 Cartesian)
 Smallest overlap matrix eigenvalue = 6.68E-03
 Guess from superposition of atomic densities
 Warning:  Energy on first SCF cycle will be non-variational
 SAD guess density has 26.000000 electrons
 Long-range K will be added via erf
 Coulomb attenuation parameter = 0.2 bohr**(-1)
 A restricted hybrid HF-DFT SCF calculation will be
 performed using Relaxed Constraint Minimization + Pulay DIIS
 Exchange:     0.2220 Hartree-Fock + 1.0000 wB97X-D + LR-HF
 Correlation:  1.0000 wB97X-D
 Using Euler-Maclaurin-Lebedev (75,302) quadrature formula
 Dispersion:   Grimme D
 SCF converges when DIIS error is below 1.0E-04
 using 3 threads for integral computing
 -------------------------------------------------------
 OpenMP Integral computing Module                
 Release: version 1.0, May 2013, Q-Chem Inc. Pittsburgh 
 -------------------------------------------------------
 using 3 threads for integral computing
 -------------------------------------------------------
 OpenMP Integral computing Module                
 Release: version 1.0, May 2013, Q-Chem Inc. Pittsburgh 
 -------------------------------------------------------
 ---------------------------------------
  Cycle       Energy         DIIS Error
 ---------------------------------------
    1    -119.6145569509      1.00E-01
    2    -119.0631318070      9.01E-03
    3    -119.0843498266      2.48E-03
    4    -119.0982145164      1.69E-03
    5    -119.0989229062      2.75E-04 Done RCA. Switching to DIIS
    6    -119.0994368072      2.03E-04
    7    -119.0994546113      4.51E-06 Convergence criterion met
 ---------------------------------------
 SCF time:  CPU 21.93 s  wall 8.43 s
 SCF   energy in the small basis set = -119.09945461
 Total energy in the small basis set = -119.09945461
 ----------------------------------------------------
  Cycle       Energy    
 ----------------------------------------------------
    1     -16.5372638225     -1.65E+01
 Long-range K will be added via erf
 Coulomb attenuation parameter = 0.2 bohr**(-1)
 A restricted hybrid HF-DFT SCF calculation will be
 performed using Relaxed Constraint Minimization + Pulay DIIS
 Exchange:     0.2220 Hartree-Fock + 1.0000 wB97X-D + LR-HF
 Correlation:  1.0000 wB97X-D
 Using Euler-Maclaurin-Lebedev (75,302) quadrature formula
 Dispersion:   Grimme D
 SCF converges when DIIS error is below 1.0E-05
 Basis2 calculation detected. Using small basis as guess for larger.
 SCFMinFind is unable to tell whether the solution found is close.
 Resetting ReadMinima to 0 and attempting to follow guess.
 SCFMinFind following SCF Guess.
 using 3 threads for integral computing
 -------------------------------------------------------
 OpenMP Integral computing Module                
 Release: version 1.0, May 2013, Q-Chem Inc. Pittsburgh 
 -------------------------------------------------------
 using 3 threads for integral computing
 -------------------------------------------------------
 OpenMP Integral computing Module                
 Release: version 1.0, May 2013, Q-Chem Inc. Pittsburgh 
 -------------------------------------------------------
 ---------------------------------------
  Cycle       Energy         DIIS Error
 ---------------------------------------
    1    -119.1186696466      4.21E-03
    2    -119.1406994691      6.01E-04 Done RCA. Switching to DIIS
    3    -119.1415457280      4.21E-04
    4    -119.1425154832      4.47E-05
    5    -119.1425298370      9.90E-06 Convergence criterion met
 ---------------------------------------
 SCF time:  CPU 42.75 s  wall 14.28 s
 SCF   energy in the final basis set = -119.14252984
 Total energy in the final basis set = -119.14252984
 
 --------------------------------------------------------------
 
                    Orbital Energies (a.u.)
 --------------------------------------------------------------
 
 Alpha MOs
 -- Occupied --
-10.2748 -10.2651 -10.2650  -0.8810  -0.7770  -0.6788  -0.5442  -0.5228
 -0.4940  -0.4552  -0.4232  -0.4142  -0.4046
 -- Virtual --
  0.0688   0.0863   0.0900   0.1003   0.1231   0.1274   0.1345   0.1423
  0.1449   0.1705   0.1716   0.1933   0.2240   0.2389   0.2426   0.2689
  0.2825   0.2844   0.3092   0.3100   0.3369   0.3539   0.4593   0.4649
  0.4710   0.5097   0.5174   0.5198   0.5415   0.5648   0.5808   0.5819
  0.6203   0.6267   0.6384   0.6410   0.6531   0.6639   0.7121   0.7243
  0.7250   0.7651   0.8250   0.8653   0.8777   0.8791   0.8818   0.9536
  0.9921   1.0341   1.0715   1.1296   1.1355   1.1808   1.1940   1.2278
  1.2297   1.2406   1.2612   1.2634   1.2800   1.3073   1.3384   1.3695
  1.3870   1.3935   1.4083   1.4469   1.4570   1.4611   1.4724   1.4788
  1.5348   1.5702   1.6118   1.6235   1.6277   1.6470   1.6779   1.6832
  1.7662   2.3853   2.4523   2.4892   2.4986   2.5372   2.5639   2.5991
  2.6299   2.7326   2.8156   2.8212   2.8313   2.9106   2.9353   2.9373
  2.9402   2.9438   3.0029   3.0069   3.0470   3.0643   3.0755   3.0970
  3.1307   3.1347   3.1594   3.1718   3.2207   3.2643   3.2726   3.2776
  3.3326   3.3374   3.3397   3.3651   3.3834   3.3977   3.4180   3.4407
  3.4707   3.4769   3.5197   3.5239   3.5656   3.5781   3.5919   3.6208
  3.6261   3.6555   3.6651   3.6847   3.7691   3.8040   3.8426   3.8932
  3.9262   3.9280   3.9404   3.9573   3.9719   3.9948   4.0378   4.0574
  4.0842   4.0904   4.1021   4.1362   4.1659   4.1748   4.1755   4.1818
  4.2439   4.2619   4.2670   4.3733   4.3905   4.3954   4.4017   4.4197
  4.4558   4.5832   4.5868   4.5962   4.6668   4.7915   4.8338   4.8852
  4.9103   4.9219   4.9537   4.9633   5.0212   5.0701   5.0814   5.1008
  5.1247   5.2710   5.2763   5.2790   5.2925   5.3064   5.3310   5.3765
  5.3911   5.4390   5.4859   5.5135   5.5542   5.5703   5.6556   5.7546
  5.9548   6.3437   6.3856   6.4161   6.4207   6.4547  25.1937  25.4392
 25.4537
 --------------------------------------------------------------
 
 -----------------------------------------------------------------
                    Cartesian Multipole Moments
 -----------------------------------------------------------------
    Charge (ESU x 10^10)
                -0.0000
    Dipole Moment (Debye)
         X      -0.0000      Y       0.0467      Z      -0.0360
       Tot       0.0590
    Quadrupole Moments (Debye-Ang)
        XX     -22.3604     XY       0.0000     YY     -21.6416
        XZ       0.0000     YZ      -0.1646     ZZ     -21.4853
    Octopole Moments (Debye-Ang^2)
       XXX      -0.0000    XXY       1.0531    XYY      -0.0000
       YYY       0.2460    XXZ      -1.5649    XYZ      -0.0000
       YYZ       0.4366    XZZ       0.0000    YZZ       0.1909
       ZZZ       0.7383
    Hexadecapole Moments (Debye-Ang^3)
      XXXX    -203.2555   XXXY       0.0000   XXYY     -42.6803
      XYYY       0.0000   YYYY     -44.1797   XXXZ       0.0000
      XXYZ      -0.5922   XYYZ      -0.0000   YYYZ      -0.3584
      XXZZ     -44.6439   XYZZ       0.0000   YYZZ     -17.1434
      XZZZ       0.0000   YZZZ      -0.5050   ZZZZ     -72.6288
 -----------------------------------------------------------------
Archival summary:
1\1\centos77-c4\SP\ProcedureUnspecified\BasisUnspecified\38\shihchen\TueJul702:20:212020TueJul702:20:212020\0\\#,ProcedureUnspecified,BasisUnspecified,\\0,1\C\H,1,1.09246\H,1,1.09262,2,107.658\C,1,1.52629,2,109.287,3,118.138,0\H,4,1.08899,1,110.243,2,-51.0492,0\H,4,1.09204,1,110.735,2,-178.599,0\H,4,1.09359,1,112.295,2,68.33,0\C,1,1.52629,2,109.287,3,-118.138,0\H,8,1.08899,1,110.243,2,51.0493,0\H,8,1.09204,1,110.735,2,178.599,0\H,8,1.09359,1,112.295,2,-68.3299,0\\\@

 Total job time:  25.61s(wall), 68.23s(cpu) 
 Tue Jul  7 02:20:21 2020

        *************************************************************
        *                                                           *
        *  Thank you very much for using Q-Chem.  Have a nice day.  *
        *                                                           *
        *************************************************************


