                  Welcome to Q-Chem
     A Quantum Leap Into The Future Of Chemistry


 Q-Chem 5.3 (devel), Q-Chem, Inc., Pleasanton, CA (2020)

 Yihan Shao,  Zhengting Gan,  E. Epifanovsky,  A. T. B. Gilbert,  M. Wormit,  
 J. Kussmann,  A. W. Lange,  A. Behn,  Jia Deng,  Xintian Feng,  D. Ghosh,  
 M. Goldey,  P. R. Horn,  L. D. Jacobson,  I. Kaliman,  T. Kus,  A. Landau,  
 Jie Liu,  E. I. Proynov,  R. M. Richard,  R. P. Steele,  E. J. Sundstrom,  
 H. L. Woodcock III,  P. M. Zimmerman,  D. Zuev,  B. Alam,  B. Albrecht,  
 E. Alguire,  S. A. Baeppler,  D. Barton,  Z. Benda,  Y. A. Bernard,  
 E. J. Berquist,  K. B. Bravaya,  H. Burton,  K. Carter-Fenk,  D. Casanova,  
 Chun-Min Chang,  Yunqing Chen,  A. Chien,  K. D. Closser,  M. P. Coons,  
 S. Coriani,  S. Dasgupta,  A. L. Dempwolff,  M. Diedenhofen,  Hainam Do,  
 R. G. Edgar,  Po-Tung Fang,  S. Faraji,  S. Fatehi,  Qingguo Feng,  
 J. Fosso-Tande,  J. Gayvert,  Qinghui Ge,  A. Ghysels,  G. Gidofalvi,  
 J. Gomes,  J. Gonthier,  A. Gunina,  D. Hait,  M. W. D. Hanson-Heine,  
 P. H. P. Harbach,  A. W. Hauser,  M. F. Herbst,  J. E. Herr,  
 E. G. Hohenstein,  Z. C. Holden,  Kerwin Hui,  B. C. Huynh,  T.-C. Jagau,  
 Hyunjun Ji,  B. Kaduk,  K. Khistyaev,  Jaehoon Kim,  P. Klunzinger,  K. Koh,  
 D. Kosenkov,  L. Koulias,  T. Kowalczyk,  C. M. Krauter,  A. Kunitsa,  
 Ka Un Lao,  A. Laurent,  K. V. Lawler,  Joonho Lee,  D. Lefrancois,  
 S. Lehtola,  D. S. Levine,  Yi-Pei Li,  You-Sheng Lin,  Fenglai Liu,  
 Kuan-Yu Liu,  E. Livshits,  M. Loipersberger,  A. Luenser,  P. Manohar,  
 E. Mansoor,  S. F. Manzer,  Shan-Ping Mao,  Yuezhi Mao,  N. Mardirossian,  
 A. V. Marenich,  T. Markovich,  L. A. Martinez-Martinez,  S. A. Maurer,  
 N. J. Mayhall,  S. C. McKenzie,  J.-M. Mewes,  P. Morgante,  A. F. Morrison,  
 J. W. Mullinax,  K. Nanda,  T. S. Nguyen-Beck,  R. Olivares-Amaya,  
 K. J. Oosterbaan,  J. A. Parkhill,  S. K. Paul,  F. Pavosevic,  Zheng Pei,  
 T. M. Perrine,  F. Plasser,  P. Pokhilko,  S. Prager,  A. Prociuk,  
 E. Ramos,  B. Rana,  D. R. Rehn,  F. Rob,  M. Scheurer,  M. Schneider,  
 N. Sergueev,  S. M. Sharada,  S. Sharma,  D. W. Small,  T. Stauch,  
 C. J. Stein,  T. Stein,  Yu-Chuan Su,  S. P. Veccham,  Zhen Tao,  
 A. J. W. Thom,  A. Tkatchenko,  T. Tsuchimochi,  N. M. Tubman,  L. Vogt,  
 M. L. Vidal,  O. Vydrov,  M. A. Watson,  J. Wenzel,  M. de Wergifosse,  
 T. A. Wesolowski,  A. White,  J. Witte,  A. Yamada,  Jun Yang,  K. Yao,  
 S. Yeganeh,  S. R. Yost,  Zhi-Qiang You,  A. Zech,  Igor Ying Zhang,  
 Xing Zhang,  Yan Zhao,  Ying Zhu,  B. R. Brooks,  G. K. L. Chan,  
 C. J. Cramer,  M. S. Gordon,  W. J. Hehre,  A. Klamt,  M. W. Schmidt,  
 C. D. Sherrill,  D. G. Truhlar,  A. Aspuru-Guzik,  R. Baer,  A. T. Bell,  
 N. A. Besley,  Jeng-Da Chai,  A. E. DePrince, III,  R. A. DiStasio Jr.,  
 A. Dreuw,  B. D. Dunietz,  T. R. Furlani,  Chao-Ping Hsu,  Yousung Jung,  
 Jing Kong,  D. S. Lambrecht,  WanZhen Liang,  C. Ochsenfeld,  
 V. A. Rassolov,  L. V. Slipchenko,  J. E. Subotnik,  T. Van Voorhis,  
 J. M. Herbert,  A. I. Krylov,  P. M. W. Gill,  M. Head-Gordon

 Contributors to earlier versions of Q-Chem not listed above: 
 R. D. Adamson,  B. Austin,  J. Baker,  G. J. O. Beran,  K. Brandhorst,  
 S. T. Brown,  E. F. C. Byrd,  A. K. Chakraborty,  C.-L. Cheng,  
 Siu Hung Chien,  D. M. Chipman,  D. L. Crittenden,  H. Dachsel,  
 R. J. Doerksen,  A. D. Dutoi,  L. Fusti-Molnar,  W. A. Goddard III,  
 A. Golubeva-Zadorozhnaya,  S. R. Gwaltney,  G. Hawkins,  A. Heyden,  
 S. Hirata,  G. Kedziora,  F. J. Keil,  C. Kelley,  Jihan Kim,  R. A. King,  
 R. Z. Khaliullin,  P. P. Korambath,  W. Kurlancheek,  A. M. Lee,  M. S. Lee,  
 S. V. Levchenko,  Ching Yeh Lin,  D. Liotard,  R. C. Lochan,  I. Lotan,  
 P. E. Maslen,  N. Nair,  D. P. O'Neill,  D. Neuhauser,  E. Neuscamman,  
 C. M. Oana,  R. Olson,  B. Peters,  R. Peverati,  P. A. Pieniazek,  
 Y. M. Rhee,  J. Ritchie,  M. A. Rohrdanz,  E. Rosta,  N. J. Russ,  
 H. F. Schaefer III,  N. E. Schultz,  N. Shenvi,  A. C. Simmonett,  A. Sodt,  
 D. Stuck,  K. S. Thanthiriwatte,  V. Vanovschi,  Tao Wang,  A. Warshel,  
 C. F. Williams,  Q. Wu,  X. Xu,  W. Zhang

 Please cite Q-Chem as follows:
 Y. Shao et al., Mol. Phys. 113, 184-215 (2015)
 DOI: 10.1080/00268976.2014.952696

 Q-Chem 5.3.0 for Intel X86 EM64T Linux

 Parts of Q-Chem use Armadillo 9.800.1 (Horizon Scraper).
 http://arma.sourceforge.net/

 Q-Chem begins on Tue Jul  7 01:30:53 2020  

Host: centos77-c4
0

     Scratch files written to /tmp/26964.centos77-h1/qchem101063//
Processing $rem in /opt/qchem-5.3.0-intel2020u1//config/preferences:
Processing $rem in /home/shihchengli/.qchemrc:

Checking the input file for inconsistencies... 	...done.

--------------------------------------------------------------
User input:
--------------------------------------------------------------
$rem
   JOBTYPE  sp
   EXCHANGE   omegaB97X-D
   BASIS   6-311+G(2df,2pd)
   UNRESTRICTED   False
   max_scf_cycles   250
   geom_opt_max_cycles   1500
   basis2 6-31G*
   scf_algorithm rca_diis
   SYM_IGNORE  TRUE
   print_input   true
   geom_opt_dmax   80
   pop_mulliken false
   XC_GRID 000075000302
$end

$molecule
0 1
C       1.2499017730     0.0015012115     0.2459105409
C       0.0266323938     0.0000319713     -0.5871893510
H       1.2858064215     -0.8777710044     0.8913455525
H       1.2920442502     0.8871925870     0.8820948430
H       2.1413534216     -0.0046245930     -0.3820693274
C       -1.2846991649     -0.0014793981     0.2726249812
H       0.0614674806     -0.8737725436     -1.2421770401
H       0.0590184330     0.8738770383     -1.2422486140
H       -1.3247581992     -0.8835078183     0.9158801684
H       -2.1880447199     0.0044963009     -0.3381888720
H       -1.3187221503     0.8740569145     0.9250621374
$end
--------------------------------------------------------------
 ----------------------------------------------------------------
             Standard Nuclear Orientation (Angstroms)
    I     Atom           X                Y                Z
 ----------------------------------------------------------------
    1      C       1.2499017730     0.0015012115     0.2459105409
    2      C       0.0266323938     0.0000319713    -0.5871893510
    3      H       1.2858064215    -0.8777710044     0.8913455525
    4      H       1.2920442502     0.8871925870     0.8820948430
    5      H       2.1413534216    -0.0046245930    -0.3820693274
    6      C      -1.2846991649    -0.0014793981     0.2726249812
    7      H       0.0614674806    -0.8737725436    -1.2421770401
    8      H       0.0590184330     0.8738770383    -1.2422486140
    9      H      -1.3247581992    -0.8835078183     0.9158801684
   10      H      -2.1880447199     0.0044963009    -0.3381888720
   11      H      -1.3187221503     0.8740569145     0.9250621374
 ----------------------------------------------------------------
 Nuclear Repulsion Energy =          82.75742345 hartrees
 There are       13 alpha and       13 beta electrons
 Requested basis set is 6-311+G(2df,2pd)
 There are 72 shells and 214 basis functions

 Total QAlloc Memory Limit   2000 MB
 Mega-Array Size       188 MB
 MEM_STATIC part       192 MB

                       Distance Matrix (Angstroms)
             C (  1)   C (  2)   H (  3)   H (  4)   H (  5)   C (  6)
   C (  2)  1.480015
   H (  3)  1.091327  2.131226
   H (  4)  1.091309  2.132397  1.764999
   H (  5)  1.090450  2.124651  1.765200  1.764873
   C (  6)  2.534743  1.568080  2.785355  2.792991  3.488047
   H (  7)  2.095921  1.092592  2.459866  3.021233  2.412702  2.206283
   H (  8)  2.096154  1.092592  3.020845  2.456291  2.418221  2.206053
   H (  9)  2.803743  2.205928  2.610686  3.159775  3.804082  1.092408
   H ( 10)  3.487213  2.228635  3.789168  3.792000  4.329630  1.090487
   H ( 11)  2.796503  2.204723  3.139046  2.611153  3.801683  1.092426
             H (  7)   H (  8)   H (  9)   H ( 10)
   H (  8)  1.747651
   H (  9)  2.564942  3.108176
   H ( 10)  2.578538  2.573410  1.762528
   H ( 11)  3.107532  2.568152  1.757599  1.762856
 
 A cutoff of  1.0D-09 yielded   2530 shell pairs
 There are     22576 function pairs (     27757 Cartesian)
 Smallest overlap matrix eigenvalue = 8.48E-05

 Scale SEOQF with 1.000000e-01/1.000000e-01/1.000000e-01

 Standard Electronic Orientation quadrupole field applied
 Nucleus-field energy     =     0.0000000006 hartrees
 Requested basis set is 6-31G(d)
 There are 28 shells and 58 basis functions
 A cutoff of  1.0D-09 yielded    402 shell pairs
 There are      1773 function pairs (      1968 Cartesian)
 Smallest overlap matrix eigenvalue = 6.63E-03
 Guess from superposition of atomic densities
 Warning:  Energy on first SCF cycle will be non-variational
 SAD guess density has 26.000000 electrons
 Long-range K will be added via erf
 Coulomb attenuation parameter = 0.2 bohr**(-1)
 A restricted hybrid HF-DFT SCF calculation will be
 performed using Relaxed Constraint Minimization + Pulay DIIS
 Exchange:     0.2220 Hartree-Fock + 1.0000 wB97X-D + LR-HF
 Correlation:  1.0000 wB97X-D
 Using Euler-Maclaurin-Lebedev (75,302) quadrature formula
 Dispersion:   Grimme D
 SCF converges when DIIS error is below 1.0E-04
 using 3 threads for integral computing
 -------------------------------------------------------
 OpenMP Integral computing Module                
 Release: version 1.0, May 2013, Q-Chem Inc. Pittsburgh 
 -------------------------------------------------------
 using 3 threads for integral computing
 -------------------------------------------------------
 OpenMP Integral computing Module                
 Release: version 1.0, May 2013, Q-Chem Inc. Pittsburgh 
 -------------------------------------------------------
 ---------------------------------------
  Cycle       Energy         DIIS Error
 ---------------------------------------
    1    -119.6239263181      1.01E-01
    2    -119.0641429492      9.04E-03
    3    -119.0853652167      2.46E-03
    4    -119.0993701873      1.68E-03
    5    -119.1000665756      2.66E-04 Done RCA. Switching to DIIS
    6    -119.1005777913      1.97E-04
    7    -119.1005946102      4.60E-06 Convergence criterion met
 ---------------------------------------
 SCF time:  CPU 21.26 s  wall 8.06 s
 SCF   energy in the small basis set = -119.10059461
 Total energy in the small basis set = -119.10059461
 ----------------------------------------------------
  Cycle       Energy    
 ----------------------------------------------------
    1     -16.5408982635     -1.65E+01
 Long-range K will be added via erf
 Coulomb attenuation parameter = 0.2 bohr**(-1)
 A restricted hybrid HF-DFT SCF calculation will be
 performed using Relaxed Constraint Minimization + Pulay DIIS
 Exchange:     0.2220 Hartree-Fock + 1.0000 wB97X-D + LR-HF
 Correlation:  1.0000 wB97X-D
 Using Euler-Maclaurin-Lebedev (75,302) quadrature formula
 Dispersion:   Grimme D
 SCF converges when DIIS error is below 1.0E-05
 Basis2 calculation detected. Using small basis as guess for larger.
 SCFMinFind is unable to tell whether the solution found is close.
 Resetting ReadMinima to 0 and attempting to follow guess.
 SCFMinFind following SCF Guess.
 using 3 threads for integral computing
 -------------------------------------------------------
 OpenMP Integral computing Module                
 Release: version 1.0, May 2013, Q-Chem Inc. Pittsburgh 
 -------------------------------------------------------
 using 3 threads for integral computing
 -------------------------------------------------------
 OpenMP Integral computing Module                
 Release: version 1.0, May 2013, Q-Chem Inc. Pittsburgh 
 -------------------------------------------------------
 ---------------------------------------
  Cycle       Energy         DIIS Error
 ---------------------------------------
    1    -119.1197578789      4.21E-03
    2    -119.1418119653      5.97E-04 Done RCA. Switching to DIIS
    3    -119.1426437846      4.19E-04
    4    -119.1436026753      4.56E-05
    5    -119.1436173970      1.03E-05
    6    -119.1436181000      3.99E-06 Convergence criterion met
 ---------------------------------------
 SCF time:  CPU 51.32 s  wall 17.39 s
 SCF   energy in the final basis set = -119.14361810
 Total energy in the final basis set = -119.14361810
 
 --------------------------------------------------------------
 
                    Orbital Energies (a.u.)
 --------------------------------------------------------------
 
 Alpha MOs
 -- Occupied --
-10.2739 -10.2684 -10.2617  -0.8826  -0.7770  -0.6772  -0.5465  -0.5248
 -0.4824  -0.4637  -0.4247  -0.4114  -0.4070
 -- Virtual --
  0.0691   0.0858   0.0911   0.0990   0.1250   0.1299   0.1334   0.1426
  0.1433   0.1704   0.1723   0.1913   0.2326   0.2412   0.2442   0.2642
  0.2816   0.2843   0.2997   0.3198   0.3347   0.3526   0.4583   0.4654
  0.4721   0.5060   0.5129   0.5215   0.5455   0.5605   0.5824   0.5861
  0.6170   0.6291   0.6413   0.6517   0.6570   0.6577   0.7089   0.7264
  0.7275   0.7675   0.8169   0.8643   0.8699   0.8731   0.8851   0.9592
  1.0022   1.0529   1.0570   1.1376   1.1397   1.1801   1.1809   1.2128
  1.2287   1.2368   1.2734   1.2800   1.2847   1.2915   1.3278   1.3780
  1.3812   1.3917   1.4035   1.4468   1.4598   1.4714   1.4793   1.4854
  1.5226   1.5771   1.6127   1.6219   1.6409   1.6434   1.6849   1.6899
  1.7452   2.3751   2.4636   2.4841   2.5003   2.5457   2.5658   2.6023
  2.6313   2.7108   2.8097   2.8333   2.8346   2.9164   2.9236   2.9315
  2.9423   2.9432   3.0019   3.0181   3.0543   3.0748   3.0760   3.1004
  3.1313   3.1356   3.1823   3.1915   3.2074   3.2222   3.2822   3.3092
  3.3321   3.3348   3.3370   3.3596   3.3613   3.3624   3.3971   3.4484
  3.4725   3.4852   3.4902   3.5192   3.5635   3.5778   3.5991   3.6158
  3.6254   3.6751   3.6943   3.7038   3.7741   3.8085   3.8751   3.8909
  3.9250   3.9288   3.9643   3.9645   3.9811   3.9910   4.0496   4.0651
  4.0714   4.1046   4.1173   4.1488   4.1525   4.1537   4.1899   4.2059
  4.2164   4.2418   4.2634   4.3628   4.3891   4.4096   4.4162   4.4310
  4.4438   4.5750   4.6071   4.6097   4.6807   4.7998   4.8347   4.8955
  4.9459   4.9542   4.9620   4.9637   5.0331   5.0494   5.0587   5.1166
  5.1211   5.2433   5.2439   5.2722   5.3111   5.3468   5.3534   5.3590
  5.3737   5.4083   5.4486   5.4981   5.5553   5.5583   5.6461   5.7153
  5.9923   6.3798   6.3882   6.3920   6.4180   6.4652  25.2004  25.4139
 25.4982
 --------------------------------------------------------------
 
 -----------------------------------------------------------------
                    Cartesian Multipole Moments
 -----------------------------------------------------------------
    Charge (ESU x 10^10)
                 0.0000
    Dipole Moment (Debye)
         X       0.0255      Y      -0.0000      Z      -0.0848
       Tot       0.0886
    Quadrupole Moments (Debye-Ang)
        XX     -22.1584     XY       0.0010     YY     -21.3613
        XZ      -0.2095     YZ      -0.0003     ZZ     -21.8463
    Octopole Moments (Debye-Ang^2)
       XXX      -0.2715    XXY      -0.0007    XYY       0.1696
       YYY      -0.0001    XXZ      -1.5566    XYZ       0.0123
       YYZ       0.4880    XZZ       0.1807    YZZ      -0.0003
       ZZZ      -0.3936
    Hexadecapole Moments (Debye-Ang^3)
      XXXX    -202.3501   XXXY      -0.1126   XXYY     -42.2279
      XYYY      -0.0548   YYYY     -44.1141   XXXZ       1.6439
      XXYZ       0.0006   XYYZ       0.3767   YYYZ       0.0001
      XXZZ     -45.3124   XYZZ      -0.0444   YYZZ     -17.0778
      XZZZ       1.4431   YZZZ       0.0027   ZZZZ     -72.2033
 -----------------------------------------------------------------
Archival summary:
1\1\centos77-c4\SP\ProcedureUnspecified\BasisUnspecified\38\shihchen\TueJul701:31:222020TueJul701:31:222020\0\\#,ProcedureUnspecified,BasisUnspecified,\\0,1\C\H,1,1.09259\H,1,1.09259,2,106.217\C,1,1.48002,2,108.173,3,-115.955,0\H,4,1.09045,1,110.58,2,56.9248,0\H,4,1.09131,1,111.154,2,176.85,0\H,4,1.09133,1,111.057,2,-62.9724,0\C,1,1.56808,2,110.769,3,120.327,0\H,8,1.09049,1,112.682,2,-59.2007,0\H,8,1.09241,1,110.752,2,61.4999,0\H,8,1.09243,1,110.656,2,-179.869,0\\\@

 Total job time:  28.40s(wall), 76.27s(cpu) 
 Tue Jul  7 01:31:22 2020

        *************************************************************
        *                                                           *
        *  Thank you very much for using Q-Chem.  Have a nice day.  *
        *                                                           *
        *************************************************************


