                  Welcome to Q-Chem
     A Quantum Leap Into The Future Of Chemistry


 Q-Chem 5.2 (devel), Q-Chem, Inc., Pleasanton, CA (2019)

 Yihan Shao,  Zhengting Gan,  E. Epifanovsky,  A. T. B. Gilbert,  M. Wormit,  
 J. Kussmann,  A. W. Lange,  A. Behn,  Jia Deng,  Xintian Feng,  D. Ghosh,  
 M. Goldey,  P. R. Horn,  L. D. Jacobson,  I. Kaliman,  T. Kus,  A. Landau,  
 Jie Liu,  E. I. Proynov,  R. M. Richard,  R. P. Steele,  E. J. Sundstrom,  
 H. L. Woodcock III,  P. M. Zimmerman,  D. Zuev,  B. Alam,  B. Albrecht,  
 E. Alguire,  S. A. Baeppler,  D. Barton,  Z. Benda,  Y. A. Bernard,  
 E. J. Berquist,  K. B. Bravaya,  H. Burton,  K. Carter-Fenk,  D. Casanova,  
 Chun-Min Chang,  Yunqing Chen,  A. Chien,  K. D. Closser,  M. P. Coons,  
 S. Coriani,  S. Dasgupta,  A. L. Dempwolff,  M. Diedenhofen,  Hainam Do,  
 R. G. Edgar,  Po-Tung Fang,  S. Faraji,  S. Fatehi,  Qingguo Feng,  
 J. Fosso-Tande,  J. Gayvert,  Qinghui Ge,  A. Ghysels,  G. Gidofalvi,  
 J. Gomes,  J. Gonthier,  A. Gunina,  D. Hait,  M. W. D. Hanson-Heine,  
 P. H. P. Harbach,  A. W. Hauser,  M. F. Herbst,  J. E. Herr,  
 E. G. Hohenstein,  Z. C. Holden,  Kerwin Hui,  B. C. Huynh,  T.-C. Jagau,  
 Hyunjun Ji,  B. Kaduk,  K. Khistyaev,  Jaehoon Kim,  P. Klunzinger,  K. Koh,  
 D. Kosenkov,  L. Koulias,  T. Kowalczyk,  C. M. Krauter,  A. Kunitsa,  
 Ka Un Lao,  A. Laurent,  K. V. Lawler,  Joonho Lee,  D. Lefrancois,  
 S. Lehtola,  D. S. Levine,  Yi-Pei Li,  You-Sheng Lin,  Fenglai Liu,  
 Kuan-Yu Liu,  E. Livshits,  M. Loipersberger,  A. Luenser,  P. Manohar,  
 E. Mansoor,  S. F. Manzer,  Shan-Ping Mao,  Yuezhi Mao,  N. Mardirossian,  
 A. V. Marenich,  T. Markovich,  L. A. Martinez-Martinez,  S. A. Maurer,  
 N. J. Mayhall,  S. C. McKenzie,  J.-M. Mewes,  P. Morgante,  A. F. Morrison,  
 J. W. Mullinax,  K. Nanda,  T. S. Nguyen-Beck,  R. Olivares-Amaya,  
 J. A. Parkhill,  S. K. Paul,  Zheng Pei,  T. M. Perrine,  F. Plasser,  
 P. Pokhilko,  S. Prager,  A. Prociuk,  E. Ramos,  B. Rana,  D. R. Rehn,  
 F. Rob,  M. Scheurer,  M. Schneider,  N. Sergueev,  S. M. Sharada,  
 S. Sharma,  D. W. Small,  T. Stauch,  C. J. Stein,  T. Stein,  Yu-Chuan Su,  
 S. P. Veccham,  A. J. W. Thom,  A. Tkatchenko,  T. Tsuchimochi,  
 N. M. Tubman,  L. Vogt,  M. L. Vidal,  O. Vydrov,  M. A. Watson,  J. Wenzel,  
 M. de Wergifosse,  T. A. Wesolowski,  A. White,  J. Witte,  A. Yamada,  
 Jun Yang,  K. Yao,  S. Yeganeh,  S. R. Yost,  Zhi-Qiang You,  A. Zech,  
 Igor Ying Zhang,  Xing Zhang,  Yan Zhao,  Ying Zhu,  B. R. Brooks,  
 G. K. L. Chan,  C. J. Cramer,  M. S. Gordon,  W. J. Hehre,  A. Klamt,  
 M. W. Schmidt,  C. D. Sherrill,  D. G. Truhlar,  A. Aspuru-Guzik,  R. Baer,  
 A. T. Bell,  N. A. Besley,  Jeng-Da Chai,  A. E. DePrince, III,  
 R. A. DiStasio Jr.,  A. Dreuw,  B. D. Dunietz,  T. R. Furlani,  
 Chao-Ping Hsu,  Yousung Jung,  Jing Kong,  D. S. Lambrecht,  WanZhen Liang,  
 C. Ochsenfeld,  V. A. Rassolov,  L. V. Slipchenko,  J. E. Subotnik,  
 T. Van Voorhis,  J. M. Herbert,  A. I. Krylov,  P. M. W. Gill,  M. Head-Gordon

 Contributors to earlier versions of Q-Chem not listed above: 
 R. D. Adamson,  B. Austin,  J. Baker,  G. J. O. Beran,  K. Brandhorst,  
 S. T. Brown,  E. F. C. Byrd,  A. K. Chakraborty,  C.-L. Cheng,  
 Siu Hung Chien,  D. M. Chipman,  D. L. Crittenden,  H. Dachsel,  
 R. J. Doerksen,  A. D. Dutoi,  L. Fusti-Molnar,  W. A. Goddard III,  
 A. Golubeva-Zadorozhnaya,  S. R. Gwaltney,  G. Hawkins,  A. Heyden,  
 S. Hirata,  G. Kedziora,  F. J. Keil,  C. Kelley,  Jihan Kim,  R. A. King,  
 R. Z. Khaliullin,  P. P. Korambath,  W. Kurlancheek,  A. M. Lee,  M. S. Lee,  
 S. V. Levchenko,  Ching Yeh Lin,  D. Liotard,  R. C. Lochan,  I. Lotan,  
 P. E. Maslen,  N. Nair,  D. P. O'Neill,  D. Neuhauser,  E. Neuscamman,  
 C. M. Oana,  R. Olson,  B. Peters,  R. Peverati,  P. A. Pieniazek,  
 Y. M. Rhee,  J. Ritchie,  M. A. Rohrdanz,  E. Rosta,  N. J. Russ,  
 H. F. Schaefer III,  N. E. Schultz,  N. Shenvi,  A. C. Simmonett,  A. Sodt,  
 D. Stuck,  K. S. Thanthiriwatte,  V. Vanovschi,  Tao Wang,  A. Warshel,  
 C. F. Williams,  Q. Wu,  X. Xu,  W. Zhang

 Please cite Q-Chem as follows:
 Y. Shao et al., Mol. Phys. 113, 184-215 (2015)
 DOI: 10.1080/00268976.2014.952696

 Q-Chem 5.2.2 for Intel X86 EM64T Linux

 Parts of Q-Chem use Armadillo 9.800.1 (Horizon Scraper).
 http://arma.sourceforge.net/

 Q-Chem begins on Sun Apr 12 06:30:45 2020  

Host: cn0821
0

     Scratch files written to /tmp/ypli/6721342.srvc1/qchem178495//
Warning:  Did not find "$end" marker in "$molecule" section

Checking the input file for inconsistencies... 	...done.

--------------------------------------------------------------
User input:
--------------------------------------------------------------
$rem
   JOBTYPE  sp
   EXCHANGE   omegaB97X-D
   BASIS   6-311+G(2df,2pd)
   max_scf_cycles   250
   geom_opt_max_cycles   1500
   basis2 6-31G*
   scf_algorithm rca_diis
   SYM_IGNORE  TRUE
   print_input   true
   geom_opt_dmax   80
   pop_mulliken false
   XC_GRID 000075000302
$end

$molecule
0 1
C       1.2738312841     0.0160126942     0.2119204100
C       -0.0000000463     -0.0151681158     -0.5601576487
H       1.1977665630     -0.8553812386     0.8689325839
H       1.2334316343     0.8701154416     0.8913317589
H       2.2315171687     -0.0200119011     -0.3026246594
C       -1.2738312413     0.0160127644     0.2119203462
H       0.0000002589     -0.8735651158     -1.2342578425
H       -0.0000002150     0.8672629832     -1.2036596116
H       -1.1977666289     -0.8553811417     0.8689325617
H       -2.2315172829     -0.0200112907     -0.3026245237
H       -1.2334315551     0.8701155861     0.8913316441
--------------------------------------------------------------
 ----------------------------------------------------------------
             Standard Nuclear Orientation (Angstroms)
    I     Atom           X                Y                Z
 ----------------------------------------------------------------
    1      C       1.2738312841     0.0160126942     0.2119204100
    2      C      -0.0000000463    -0.0151681158    -0.5601576487
    3      H       1.1977665630    -0.8553812386     0.8689325839
    4      H       1.2334316343     0.8701154416     0.8913317589
    5      H       2.2315171687    -0.0200119011    -0.3026246594
    6      C      -1.2738312413     0.0160127644     0.2119203462
    7      H       0.0000002589    -0.8735651158    -1.2342578425
    8      H      -0.0000002150     0.8672629832    -1.2036596116
    9      H      -1.1977666289    -0.8553811417     0.8689325617
   10      H      -2.2315172829    -0.0200112907    -0.3026245237
   11      H      -1.2334315551     0.8701155861     0.8913316441
 ----------------------------------------------------------------
 Nuclear Repulsion Energy =          83.76260963 hartrees
 There are       13 alpha and       13 beta electrons
 Requested basis set is 6-311+G(2df,2pd)
 There are 72 shells and 214 basis functions

 Total QAlloc Memory Limit   2000 MB
 Mega-Array Size       188 MB
 MEM_STATIC part       192 MB

                       Distance Matrix (Angstroms)
             C (  1)   C (  2)   H (  3)   H (  4)   H (  5)   C (  6)
   C (  2)  1.489873
   H (  3)  1.093974  2.045214
   H (  4)  1.092119  2.100453  1.726011
   H (  5)  1.087758  2.246334  1.771730  1.792773
   C (  6)  2.547663  1.489873  2.701812  2.734494  3.543095
   H (  7)  2.122599  1.091447  2.420410  3.013288  2.564403  2.122599
   H (  8)  2.085939  1.092144  2.949201  2.431121  2.564915  2.085938
   H (  9)  2.701812  2.045214  2.395533  2.981370  3.718921  1.093974
   H ( 10)  3.543095  2.246334  3.718921  3.771436  4.463034  1.087758
   H ( 11)  2.734494  2.100453  2.981370  2.466863  3.771436  1.092119
             H (  7)   H (  8)   H (  9)   H ( 10)
   H (  8)  1.741097
   H (  9)  2.420410  2.949201
   H ( 10)  2.564404  2.564915  1.771731
   H ( 11)  3.013288  2.431121  1.726011  1.792772
 
 A cutoff of  1.0D-09 yielded   2542 shell pairs
 There are     22584 function pairs (     27765 Cartesian)
 Smallest overlap matrix eigenvalue = 8.32E-05

 Scale SEOQF with 1.000000e-01/1.000000e-01/1.000000e-01

 Standard Electronic Orientation quadrupole field applied
 Nucleus-field energy     =     0.0000000007 hartrees
 Requested basis set is 6-31G(d)
 There are 28 shells and 58 basis functions
 A cutoff of  1.0D-09 yielded    402 shell pairs
 There are      1773 function pairs (      1968 Cartesian)
 Smallest overlap matrix eigenvalue = 6.32E-03
 Guess from superposition of atomic densities
 Warning:  Energy on first SCF cycle will be non-variational
 SAD guess density has 26.000000 electrons
 Long-range K will be added via erf
 Coulomb attenuation parameter = 0.2 bohr**(-1)
 A restricted hybrid HF-DFT SCF calculation will be
 performed using Relaxed Constraint Minimization + Pulay DIIS
 Exchange:     0.2220 Hartree-Fock + 1.0000 wB97X-D + LR-HF
 Correlation:  1.0000 wB97X-D
 Using Euler-Maclaurin-Lebedev (75,302) quadrature formula
 Dispersion:   Grimme D
 SCF converges when DIIS error is below 1.0E-04
 using 3 threads for integral computing
 -------------------------------------------------------
 OpenMP Integral computing Module                
 Release: version 1.0, May 2013, Q-Chem Inc. Pittsburgh 
 -------------------------------------------------------
 using 3 threads for integral computing
 -------------------------------------------------------
 OpenMP Integral computing Module                
 Release: version 1.0, May 2013, Q-Chem Inc. Pittsburgh 
 -------------------------------------------------------
 ---------------------------------------
  Cycle       Energy         DIIS Error
 ---------------------------------------
    1    -119.7291851725      1.04E-01
    2    -119.0529928512      9.24E-03
    3    -119.0751723707      2.51E-03
    4    -119.0898517205      1.73E-03
    5    -119.0905824048      2.67E-04 Done RCA. Switching to DIIS
    6    -119.0911253413      2.00E-04
    7    -119.0911426176      4.55E-06 Convergence criterion met
 ---------------------------------------
 SCF time:  CPU 33.46 s  wall 11.56 s
 SCF   energy in the small basis set = -119.09114262
 Total energy in the small basis set = -119.09114262
 ----------------------------------------------------
  Cycle       Energy    
 ----------------------------------------------------
    1     -16.5674789816     -1.66E+01
 Long-range K will be added via erf
 Coulomb attenuation parameter = 0.2 bohr**(-1)
 A restricted hybrid HF-DFT SCF calculation will be
 performed using Relaxed Constraint Minimization + Pulay DIIS
 Exchange:     0.2220 Hartree-Fock + 1.0000 wB97X-D + LR-HF
 Correlation:  1.0000 wB97X-D
 Using Euler-Maclaurin-Lebedev (75,302) quadrature formula
 Dispersion:   Grimme D
 SCF converges when DIIS error is below 1.0E-05
 Basis2 calculation detected. Using small basis as guess for larger.
 SCFMinFind is unable to tell whether the solution found is close.
 Resetting ReadMinima to 0 and attempting to follow guess.
 SCFMinFind following SCF Guess.
 using 3 threads for integral computing
 -------------------------------------------------------
 OpenMP Integral computing Module                
 Release: version 1.0, May 2013, Q-Chem Inc. Pittsburgh 
 -------------------------------------------------------
 using 3 threads for integral computing
 -------------------------------------------------------
 OpenMP Integral computing Module                
 Release: version 1.0, May 2013, Q-Chem Inc. Pittsburgh 
 -------------------------------------------------------
 ---------------------------------------
  Cycle       Energy         DIIS Error
 ---------------------------------------
    1    -119.1109689525      4.21E-03
    2    -119.1330693132      6.06E-04 Done RCA. Switching to DIIS
    3    -119.1339156624      4.28E-04
    4    -119.1349149559      4.63E-05
    5    -119.1349301040      1.19E-05
    6    -119.1349309954      4.15E-06 Convergence criterion met
 ---------------------------------------
 SCF time:  CPU 97.92 s  wall 33.12 s
 SCF   energy in the final basis set = -119.13493100
 Total energy in the final basis set = -119.13493100
 
 --------------------------------------------------------------
 
                    Orbital Energies (a.u.)
 --------------------------------------------------------------
 
 Alpha MOs
 -- Occupied --
-10.2686 -10.2653 -10.2653  -0.8932  -0.7824  -0.6754  -0.5522  -0.5388
 -0.4791  -0.4577  -0.4486  -0.4073  -0.3916
 -- Virtual --
  0.0699   0.0852   0.0919   0.0979   0.1214   0.1295   0.1337   0.1415
  0.1466   0.1718   0.1729   0.1933   0.2182   0.2381   0.2463   0.2660
  0.2743   0.2849   0.3133   0.3276   0.3290   0.3630   0.4541   0.4661
  0.4769   0.5026   0.5040   0.5137   0.5611   0.5666   0.5795   0.5843
  0.6246   0.6337   0.6470   0.6523   0.6550   0.6597   0.7186   0.7240
  0.7257   0.7636   0.8285   0.8395   0.8785   0.8856   0.8993   0.9697
  1.0228   1.0266   1.0548   1.1044   1.1320   1.1565   1.2088   1.2284
  1.2415   1.2719   1.2898   1.2990   1.3073   1.3111   1.3333   1.3531
  1.3561   1.4241   1.4278   1.4313   1.4619   1.4668   1.4753   1.4783
  1.5361   1.5761   1.5963   1.6171   1.6466   1.6473   1.6678   1.6893
  1.8298   2.4146   2.4309   2.5126   2.5155   2.5674   2.5905   2.6131
  2.6222   2.7258   2.7628   2.8302   2.8621   2.9165   2.9386   2.9495
  2.9709   2.9865   2.9935   3.0182   3.0461   3.0734   3.0899   3.1124
  3.1527   3.1562   3.1709   3.1888   3.2058   3.2535   3.2644   3.2888
  3.3368   3.3545   3.3719   3.3848   3.3879   3.3898   3.4005   3.4282
  3.4646   3.4799   3.5272   3.5280   3.5636   3.5758   3.5811   3.6031
  3.6167   3.6740   3.6970   3.7380   3.7463   3.7769   3.7965   3.8955
  3.9099   3.9155   3.9921   3.9958   4.0152   4.0344   4.0379   4.0789
  4.1145   4.1199   4.1463   4.1729   4.1830   4.2233   4.2287   4.2418
  4.2476   4.2759   4.3037   4.3935   4.4048   4.4340   4.4538   4.4616
  4.5442   4.6286   4.6468   4.6669   4.7165   4.7320   4.7733   4.8481
  4.8813   4.9294   4.9493   4.9791   5.0369   5.0701   5.1033   5.1195
  5.1970   5.2177   5.2942   5.3026   5.3068   5.3503   5.3677   5.4011
  5.4264   5.4523   5.5014   5.5080   5.5929   5.7028   5.7141   5.8674
  6.0248   6.3802   6.4013   6.4082   6.4230   6.4870  25.2553  25.4405
 25.5124
 --------------------------------------------------------------
 
 -----------------------------------------------------------------
                    Cartesian Multipole Moments
 -----------------------------------------------------------------
    Charge (ESU x 10^10)
                 0.0000
    Dipole Moment (Debye)
         X      -0.0000      Y      -0.0134      Z      -0.0483
       Tot       0.0501
    Quadrupole Moments (Debye-Ang)
        XX     -21.4814     XY      -0.0000     YY     -21.6092
        XZ      -0.0000     YZ       0.2176     ZZ     -22.3224
    Octopole Moments (Debye-Ang^2)
       XXX      -0.0000    XXY      -0.0790    XYY       0.0000
       YYY      -0.1726    XXZ      -2.0148    XYZ       0.0000
       YYZ       0.6126    XZZ       0.0000    YZZ      -0.0403
       ZZZ       0.6445
    Hexadecapole Moments (Debye-Ang^3)
      XXXX    -191.1251   XXXY      -0.0000   XXYY     -42.8549
      XYYY       0.0000   YYYY     -44.4079   XXXZ      -0.0000
      XXYZ       0.3345   XYYZ      -0.0000   YYYZ      -0.1692
      XXZZ     -45.6786   XYZZ       0.0000   YYZZ     -17.0161
      XZZZ      -0.0000   YZZZ       0.1887   ZZZZ     -69.6951
 -----------------------------------------------------------------
Archival summary:
1\1\cn0821\SP\ProcedureUnspecified\BasisUnspecified\38\r0852400\SunApr1206:31:332020SunApr1206:31:332020\0\\#,ProcedureUnspecified,BasisUnspecified,\\0,1\C\H,1,1.09145\H,1,1.09214,2,105.756\C,1,1.48987,2,109.665,3,114.777,0\H,4,1.08776,1,120.459,2,-52.9742,0\H,4,1.09212,1,107.886,2,178.725,0\H,4,1.09397,1,103.598,2,68.5537,0\C,1,1.48987,2,109.665,3,-114.777,0\H,8,1.08776,1,120.459,2,52.9742,0\H,8,1.09212,1,107.886,2,-178.725,0\H,8,1.09397,1,103.598,2,-68.5538,0\\\@

 Total job time:  48.87s(wall), 136.53s(cpu) 
 Sun Apr 12 06:31:33 2020

        *************************************************************
        *                                                           *
        *  Thank you very much for using Q-Chem.  Have a nice day.  *
        *                                                           *
        *************************************************************


