                  Welcome to Q-Chem
     A Quantum Leap Into The Future Of Chemistry


 Q-Chem 5.3 (devel), Q-Chem, Inc., Pleasanton, CA (2020)

 Yihan Shao,  Zhengting Gan,  E. Epifanovsky,  A. T. B. Gilbert,  M. Wormit,  
 J. Kussmann,  A. W. Lange,  A. Behn,  Jia Deng,  Xintian Feng,  D. Ghosh,  
 M. Goldey,  P. R. Horn,  L. D. Jacobson,  I. Kaliman,  T. Kus,  A. Landau,  
 Jie Liu,  E. I. Proynov,  R. M. Richard,  R. P. Steele,  E. J. Sundstrom,  
 H. L. Woodcock III,  P. M. Zimmerman,  D. Zuev,  B. Alam,  B. Albrecht,  
 E. Alguire,  S. A. Baeppler,  D. Barton,  Z. Benda,  Y. A. Bernard,  
 E. J. Berquist,  K. B. Bravaya,  H. Burton,  K. Carter-Fenk,  D. Casanova,  
 Chun-Min Chang,  Yunqing Chen,  A. Chien,  K. D. Closser,  M. P. Coons,  
 S. Coriani,  S. Dasgupta,  A. L. Dempwolff,  M. Diedenhofen,  Hainam Do,  
 R. G. Edgar,  Po-Tung Fang,  S. Faraji,  S. Fatehi,  Qingguo Feng,  
 J. Fosso-Tande,  J. Gayvert,  Qinghui Ge,  A. Ghysels,  G. Gidofalvi,  
 J. Gomes,  J. Gonthier,  A. Gunina,  D. Hait,  M. W. D. Hanson-Heine,  
 P. H. P. Harbach,  A. W. Hauser,  M. F. Herbst,  J. E. Herr,  
 E. G. Hohenstein,  Z. C. Holden,  Kerwin Hui,  B. C. Huynh,  T.-C. Jagau,  
 Hyunjun Ji,  B. Kaduk,  K. Khistyaev,  Jaehoon Kim,  P. Klunzinger,  K. Koh,  
 D. Kosenkov,  L. Koulias,  T. Kowalczyk,  C. M. Krauter,  A. Kunitsa,  
 Ka Un Lao,  A. Laurent,  K. V. Lawler,  Joonho Lee,  D. Lefrancois,  
 S. Lehtola,  D. S. Levine,  Yi-Pei Li,  You-Sheng Lin,  Fenglai Liu,  
 Kuan-Yu Liu,  E. Livshits,  M. Loipersberger,  A. Luenser,  P. Manohar,  
 E. Mansoor,  S. F. Manzer,  Shan-Ping Mao,  Yuezhi Mao,  N. Mardirossian,  
 A. V. Marenich,  T. Markovich,  L. A. Martinez-Martinez,  S. A. Maurer,  
 N. J. Mayhall,  S. C. McKenzie,  J.-M. Mewes,  P. Morgante,  A. F. Morrison,  
 J. W. Mullinax,  K. Nanda,  T. S. Nguyen-Beck,  R. Olivares-Amaya,  
 K. J. Oosterbaan,  J. A. Parkhill,  S. K. Paul,  F. Pavosevic,  Zheng Pei,  
 T. M. Perrine,  F. Plasser,  P. Pokhilko,  S. Prager,  A. Prociuk,  
 E. Ramos,  B. Rana,  D. R. Rehn,  F. Rob,  M. Scheurer,  M. Schneider,  
 N. Sergueev,  S. M. Sharada,  S. Sharma,  D. W. Small,  T. Stauch,  
 C. J. Stein,  T. Stein,  Yu-Chuan Su,  S. P. Veccham,  Zhen Tao,  
 A. J. W. Thom,  A. Tkatchenko,  T. Tsuchimochi,  N. M. Tubman,  L. Vogt,  
 M. L. Vidal,  O. Vydrov,  M. A. Watson,  J. Wenzel,  M. de Wergifosse,  
 T. A. Wesolowski,  A. White,  J. Witte,  A. Yamada,  Jun Yang,  K. Yao,  
 S. Yeganeh,  S. R. Yost,  Zhi-Qiang You,  A. Zech,  Igor Ying Zhang,  
 Xing Zhang,  Yan Zhao,  Ying Zhu,  B. R. Brooks,  G. K. L. Chan,  
 C. J. Cramer,  M. S. Gordon,  W. J. Hehre,  A. Klamt,  M. W. Schmidt,  
 C. D. Sherrill,  D. G. Truhlar,  A. Aspuru-Guzik,  R. Baer,  A. T. Bell,  
 N. A. Besley,  Jeng-Da Chai,  A. E. DePrince, III,  R. A. DiStasio Jr.,  
 A. Dreuw,  B. D. Dunietz,  T. R. Furlani,  Chao-Ping Hsu,  Yousung Jung,  
 Jing Kong,  D. S. Lambrecht,  WanZhen Liang,  C. Ochsenfeld,  
 V. A. Rassolov,  L. V. Slipchenko,  J. E. Subotnik,  T. Van Voorhis,  
 J. M. Herbert,  A. I. Krylov,  P. M. W. Gill,  M. Head-Gordon

 Contributors to earlier versions of Q-Chem not listed above: 
 R. D. Adamson,  B. Austin,  J. Baker,  G. J. O. Beran,  K. Brandhorst,  
 S. T. Brown,  E. F. C. Byrd,  A. K. Chakraborty,  C.-L. Cheng,  
 Siu Hung Chien,  D. M. Chipman,  D. L. Crittenden,  H. Dachsel,  
 R. J. Doerksen,  A. D. Dutoi,  L. Fusti-Molnar,  W. A. Goddard III,  
 A. Golubeva-Zadorozhnaya,  S. R. Gwaltney,  G. Hawkins,  A. Heyden,  
 S. Hirata,  G. Kedziora,  F. J. Keil,  C. Kelley,  Jihan Kim,  R. A. King,  
 R. Z. Khaliullin,  P. P. Korambath,  W. Kurlancheek,  A. M. Lee,  M. S. Lee,  
 S. V. Levchenko,  Ching Yeh Lin,  D. Liotard,  R. C. Lochan,  I. Lotan,  
 P. E. Maslen,  N. Nair,  D. P. O'Neill,  D. Neuhauser,  E. Neuscamman,  
 C. M. Oana,  R. Olson,  B. Peters,  R. Peverati,  P. A. Pieniazek,  
 Y. M. Rhee,  J. Ritchie,  M. A. Rohrdanz,  E. Rosta,  N. J. Russ,  
 H. F. Schaefer III,  N. E. Schultz,  N. Shenvi,  A. C. Simmonett,  A. Sodt,  
 D. Stuck,  K. S. Thanthiriwatte,  V. Vanovschi,  Tao Wang,  A. Warshel,  
 C. F. Williams,  Q. Wu,  X. Xu,  W. Zhang

 Please cite Q-Chem as follows:
 Y. Shao et al., Mol. Phys. 113, 184-215 (2015)
 DOI: 10.1080/00268976.2014.952696

 Q-Chem 5.3.0 for Intel X86 EM64T Linux

 Parts of Q-Chem use Armadillo 9.800.1 (Horizon Scraper).
 http://arma.sourceforge.net/

 Q-Chem begins on Tue Jul  7 02:11:12 2020  

Host: centos77-c4
0

     Scratch files written to /tmp/26964.centos77-h1/qchem108971//
Processing $rem in /opt/qchem-5.3.0-intel2020u1//config/preferences:
Processing $rem in /home/shihchengli/.qchemrc:

Checking the input file for inconsistencies... 	...done.

--------------------------------------------------------------
User input:
--------------------------------------------------------------
$rem
   JOBTYPE  sp
   EXCHANGE   omegaB97X-D
   BASIS   6-311+G(2df,2pd)
   UNRESTRICTED   False
   max_scf_cycles   250
   geom_opt_max_cycles   1500
   basis2 6-31G*
   scf_algorithm rca_diis
   SYM_IGNORE  TRUE
   print_input   true
   geom_opt_dmax   80
   pop_mulliken false
   XC_GRID 000075000302
$end

$molecule
0 1
C       1.2727057803     0.0605995946     0.2047006658
C       0.0000000252     0.0550596529     -0.6687153192
H       1.4242204924     -0.7708278173     0.9063335197
H       1.1331033218     0.8143695604     0.9792981864
H       2.1072017615     -0.1783367841     -0.4506822625
C       -1.2727061256     0.0606005542     0.2047003838
H       -0.0000008842     -0.9360602353     -1.1143409565
H       0.0000003175     1.0293922966     -1.1551981477
H       -1.4242224223     -0.7708264819     0.9063335260
H       -2.1072012217     -0.1783404127     -0.4506817439
H       -1.1331011055     0.8143707386     0.9792971670
$end
--------------------------------------------------------------
 ----------------------------------------------------------------
             Standard Nuclear Orientation (Angstroms)
    I     Atom           X                Y                Z
 ----------------------------------------------------------------
    1      C       1.2727057803     0.0605995946     0.2047006658
    2      C       0.0000000252     0.0550596529    -0.6687153192
    3      H       1.4242204924    -0.7708278173     0.9063335197
    4      H       1.1331033218     0.8143695604     0.9792981864
    5      H       2.1072017615    -0.1783367841    -0.4506822625
    6      C      -1.2727061256     0.0606005542     0.2047003838
    7      H      -0.0000008842    -0.9360602353    -1.1143409565
    8      H       0.0000003175     1.0293922966    -1.1551981477
    9      H      -1.4242224223    -0.7708264819     0.9063335260
   10      H      -2.1072012217    -0.1783404127    -0.4506817439
   11      H      -1.1331011055     0.8143707386     0.9792971670
 ----------------------------------------------------------------
 Nuclear Repulsion Energy =          82.68311404 hartrees
 There are       13 alpha and       13 beta electrons
 Requested basis set is 6-311+G(2df,2pd)
 There are 72 shells and 214 basis functions

 Total QAlloc Memory Limit   2000 MB
 Mega-Array Size       188 MB
 MEM_STATIC part       192 MB

                       Distance Matrix (Angstroms)
             C (  1)   C (  2)   H (  3)   H (  4)   H (  5)   C (  6)
   C (  2)  1.543589
   H (  3)  1.098416  2.278437
   H (  4)  1.089798  2.139258  1.613358
   H (  5)  1.087658  2.131270  1.630644  1.994788
   C (  6)  2.545412  1.543589  2.908088  2.637440  3.451144
   H (  7)  2.086381  1.086693  2.477667  2.954870  2.335571  2.086380
   H (  8)  2.099444  1.089032  3.085305  2.426156  2.528883  2.099444
   H (  9)  2.908089  2.278437  2.848443  3.009665  3.829294  1.098416
   H ( 10)  3.451143  2.131270  3.829291  3.678300  4.214403  1.087658
   H ( 11)  2.637438  2.139256  3.009663  2.266204  3.678297  1.089798
             H (  7)   H (  8)   H (  9)   H ( 10)
   H (  8)  1.965877
   H (  9)  2.477667  3.085306
   H ( 10)  2.335568  2.528885  1.630641
   H ( 11)  2.954868  2.426154  1.613358  1.994790
 
 A cutoff of  1.0D-09 yielded   2544 shell pairs
 There are     22596 function pairs (     27783 Cartesian)
 Smallest overlap matrix eigenvalue = 8.58E-05

 Scale SEOQF with 1.000000e-01/1.000000e-01/1.000000e-01

 Standard Electronic Orientation quadrupole field applied
 Nucleus-field energy     =     0.0000000005 hartrees
 Requested basis set is 6-31G(d)
 There are 28 shells and 58 basis functions
 A cutoff of  1.0D-09 yielded    402 shell pairs
 There are      1773 function pairs (      1968 Cartesian)
 Smallest overlap matrix eigenvalue = 6.31E-03
 Guess from superposition of atomic densities
 Warning:  Energy on first SCF cycle will be non-variational
 SAD guess density has 26.000000 electrons
 Long-range K will be added via erf
 Coulomb attenuation parameter = 0.2 bohr**(-1)
 A restricted hybrid HF-DFT SCF calculation will be
 performed using Relaxed Constraint Minimization + Pulay DIIS
 Exchange:     0.2220 Hartree-Fock + 1.0000 wB97X-D + LR-HF
 Correlation:  1.0000 wB97X-D
 Using Euler-Maclaurin-Lebedev (75,302) quadrature formula
 Dispersion:   Grimme D
 SCF converges when DIIS error is below 1.0E-04
 using 3 threads for integral computing
 -------------------------------------------------------
 OpenMP Integral computing Module                
 Release: version 1.0, May 2013, Q-Chem Inc. Pittsburgh 
 -------------------------------------------------------
 using 3 threads for integral computing
 -------------------------------------------------------
 OpenMP Integral computing Module                
 Release: version 1.0, May 2013, Q-Chem Inc. Pittsburgh 
 -------------------------------------------------------
 ---------------------------------------
  Cycle       Energy         DIIS Error
 ---------------------------------------
    1    -119.6098111617      9.98E-02
    2    -119.0062826170      9.38E-03
    3    -119.0296580129      2.64E-03
    4    -119.0447565619      1.80E-03
    5    -119.0455731327      3.15E-04 Done RCA. Switching to DIIS
    6    -119.0461553934      2.26E-04
    7    -119.0461780297      7.88E-06 Convergence criterion met
 ---------------------------------------
 SCF time:  CPU 20.62 s  wall 7.67 s
 SCF   energy in the small basis set = -119.04617803
 Total energy in the small basis set = -119.04617803
 ----------------------------------------------------
  Cycle       Energy    
 ----------------------------------------------------
    1     -16.5240784394     -1.65E+01
 Long-range K will be added via erf
 Coulomb attenuation parameter = 0.2 bohr**(-1)
 A restricted hybrid HF-DFT SCF calculation will be
 performed using Relaxed Constraint Minimization + Pulay DIIS
 Exchange:     0.2220 Hartree-Fock + 1.0000 wB97X-D + LR-HF
 Correlation:  1.0000 wB97X-D
 Using Euler-Maclaurin-Lebedev (75,302) quadrature formula
 Dispersion:   Grimme D
 SCF converges when DIIS error is below 1.0E-05
 Basis2 calculation detected. Using small basis as guess for larger.
 SCFMinFind is unable to tell whether the solution found is close.
 Resetting ReadMinima to 0 and attempting to follow guess.
 SCFMinFind following SCF Guess.
 using 3 threads for integral computing
 -------------------------------------------------------
 OpenMP Integral computing Module                
 Release: version 1.0, May 2013, Q-Chem Inc. Pittsburgh 
 -------------------------------------------------------
 using 3 threads for integral computing
 -------------------------------------------------------
 OpenMP Integral computing Module                
 Release: version 1.0, May 2013, Q-Chem Inc. Pittsburgh 
 -------------------------------------------------------
 ---------------------------------------
  Cycle       Energy         DIIS Error
 ---------------------------------------
    1    -119.0675659182      4.22E-03
    2    -119.0895710317      6.54E-04 Done RCA. Switching to DIIS
    3    -119.0905628227      4.63E-04
    4    -119.0917420822      4.37E-05
    5    -119.0917570745      9.96E-06 Convergence criterion met
 ---------------------------------------
 SCF time:  CPU 45.50 s  wall 15.39 s
 SCF   energy in the final basis set = -119.09175707
 Total energy in the final basis set = -119.09175707
 
 --------------------------------------------------------------
 
                    Orbital Energies (a.u.)
 --------------------------------------------------------------
 
 Alpha MOs
 -- Occupied --
-10.2782 -10.2653 -10.2653  -0.8832  -0.7786  -0.6789  -0.5697  -0.5180
 -0.5099  -0.4586  -0.4097  -0.3992  -0.3813
 -- Virtual --
  0.0687   0.0858   0.0892   0.0989   0.1184   0.1232   0.1344   0.1374
  0.1388   0.1685   0.1715   0.1953   0.2016   0.2201   0.2568   0.2703
  0.2800   0.2855   0.3002   0.3066   0.3412   0.3526   0.4453   0.4706
  0.4780   0.4906   0.5158   0.5373   0.5481   0.5645   0.5831   0.5876
  0.6091   0.6144   0.6388   0.6447   0.6684   0.6787   0.7087   0.7184
  0.7228   0.7753   0.8032   0.8476   0.8749   0.8826   0.8955   0.9516
  0.9602   0.9810   1.0610   1.1313   1.1325   1.1696   1.1826   1.2324
  1.2414   1.2597   1.2691   1.2745   1.2808   1.3364   1.3602   1.3631
  1.3764   1.3893   1.4210   1.4375   1.4507   1.4596   1.4800   1.5109
  1.5303   1.5589   1.5936   1.6076   1.6238   1.6257   1.6816   1.7245
  1.7513   2.4369   2.4651   2.4810   2.4923   2.5711   2.5848   2.5940
  2.6526   2.7325   2.7536   2.8001   2.8360   2.8385   2.8809   2.8963
  2.9113   2.9391   2.9930   2.9941   3.0152   3.0730   3.0835   3.1102
  3.1279   3.1753   3.1795   3.2284   3.2372   3.2747   3.2949   3.2997
  3.3226   3.3232   3.3577   3.3863   3.4197   3.4333   3.4464   3.4568
  3.4978   3.5018   3.5376   3.5686   3.5789   3.5913   3.5919   3.6030
  3.6213   3.6358   3.6376   3.6720   3.7105   3.7310   3.7576   3.7744
  3.8328   3.8347   3.8666   3.8956   3.9157   3.9164   3.9490   3.9862
  3.9905   4.0609   4.0860   4.1214   4.1647   4.1898   4.2000   4.2281
  4.2400   4.2926   4.3340   4.3762   4.3785   4.4074   4.4532   4.4917
  4.5601   4.5802   4.6111   4.6521   4.6669   4.6887   4.7297   4.7383
  4.7723   4.8510   4.9294   4.9295   4.9840   5.0264   5.0761   5.0819
  5.1080   5.2161   5.2542   5.2683   5.3162   5.4136   5.4377   5.4854
  5.4993   5.4997   5.5971   5.6345   5.7326   5.7391   5.7738   5.8663
  6.0685   6.3558   6.4391   6.4653   6.4895   6.5222  25.1601  25.4042
 25.4231
 --------------------------------------------------------------
 
 -----------------------------------------------------------------
                    Cartesian Multipole Moments
 -----------------------------------------------------------------
    Charge (ESU x 10^10)
                -0.0000
    Dipole Moment (Debye)
         X       0.0000      Y      -0.3232      Z       0.1049
       Tot       0.3398
    Quadrupole Moments (Debye-Ang)
        XX     -22.9189     XY       0.0000     YY     -21.6703
        XZ      -0.0000     YZ       0.4148     ZZ     -21.7217
    Octopole Moments (Debye-Ang^2)
       XXX       0.0000    XXY      -4.8883    XYY      -0.0000
       YYY      -2.5630    XXZ      -0.8654    XYZ      -0.0000
       YYZ       0.1153    XZZ       0.0000    YZZ      -0.3619
       ZZZ       4.4555
    Hexadecapole Moments (Debye-Ang^3)
      XXXX    -207.1460   XXXY       0.0001   XXYY     -43.7900
      XYYY       0.0000   YYYY     -44.9277   XXXZ      -0.0000
      XXYZ       0.2722   XYYZ       0.0000   YYYZ      -0.2457
      XXZZ     -44.1875   XYZZ       0.0000   YYZZ     -17.6175
      XZZZ      -0.0000   YZZZ       0.3291   ZZZZ     -74.6079
 -----------------------------------------------------------------
Archival summary:
1\1\centos77-c4\SP\ProcedureUnspecified\BasisUnspecified\38\shihchen\TueJul702:11:382020TueJul702:11:382020\0\\#,ProcedureUnspecified,BasisUnspecified,\\0,1\C\H,1,1.08669\H,1,1.08903,2,129.258\C,1,1.54359,2,103.61,3,-121.969,0\H,4,1.08766,1,106.909,2,56.304,0\H,4,1.0898,1,107.4,2,-156.719,0\H,4,1.09842,1,118.194,2,-50.956,0\C,1,1.54359,2,103.61,3,121.969,0\H,8,1.08766,1,106.909,2,-56.3037,0\H,8,1.0898,1,107.4,2,156.719,0\H,8,1.09842,1,118.194,2,50.9561,0\\\@

 Total job time:  25.96s(wall), 69.68s(cpu) 
 Tue Jul  7 02:11:38 2020

        *************************************************************
        *                                                           *
        *  Thank you very much for using Q-Chem.  Have a nice day.  *
        *                                                           *
        *************************************************************


