                  Welcome to Q-Chem
     A Quantum Leap Into The Future Of Chemistry


 Q-Chem 5.2 (devel), Q-Chem, Inc., Pleasanton, CA (2019)

 Yihan Shao,  Zhengting Gan,  E. Epifanovsky,  A. T. B. Gilbert,  M. Wormit,  
 J. Kussmann,  A. W. Lange,  A. Behn,  Jia Deng,  Xintian Feng,  D. Ghosh,  
 M. Goldey,  P. R. Horn,  L. D. Jacobson,  I. Kaliman,  T. Kus,  A. Landau,  
 Jie Liu,  E. I. Proynov,  R. M. Richard,  R. P. Steele,  E. J. Sundstrom,  
 H. L. Woodcock III,  P. M. Zimmerman,  D. Zuev,  B. Alam,  B. Albrecht,  
 E. Alguire,  S. A. Baeppler,  D. Barton,  Z. Benda,  Y. A. Bernard,  
 E. J. Berquist,  K. B. Bravaya,  H. Burton,  K. Carter-Fenk,  D. Casanova,  
 Chun-Min Chang,  Yunqing Chen,  A. Chien,  K. D. Closser,  M. P. Coons,  
 S. Coriani,  S. Dasgupta,  A. L. Dempwolff,  M. Diedenhofen,  Hainam Do,  
 R. G. Edgar,  Po-Tung Fang,  S. Faraji,  S. Fatehi,  Qingguo Feng,  
 J. Fosso-Tande,  J. Gayvert,  Qinghui Ge,  A. Ghysels,  G. Gidofalvi,  
 J. Gomes,  J. Gonthier,  A. Gunina,  D. Hait,  M. W. D. Hanson-Heine,  
 P. H. P. Harbach,  A. W. Hauser,  M. F. Herbst,  J. E. Herr,  
 E. G. Hohenstein,  Z. C. Holden,  Kerwin Hui,  B. C. Huynh,  T.-C. Jagau,  
 Hyunjun Ji,  B. Kaduk,  K. Khistyaev,  Jaehoon Kim,  P. Klunzinger,  K. Koh,  
 D. Kosenkov,  L. Koulias,  T. Kowalczyk,  C. M. Krauter,  A. Kunitsa,  
 Ka Un Lao,  A. Laurent,  K. V. Lawler,  Joonho Lee,  D. Lefrancois,  
 S. Lehtola,  D. S. Levine,  Yi-Pei Li,  You-Sheng Lin,  Fenglai Liu,  
 Kuan-Yu Liu,  E. Livshits,  M. Loipersberger,  A. Luenser,  P. Manohar,  
 E. Mansoor,  S. F. Manzer,  Shan-Ping Mao,  Yuezhi Mao,  N. Mardirossian,  
 A. V. Marenich,  T. Markovich,  L. A. Martinez-Martinez,  S. A. Maurer,  
 N. J. Mayhall,  S. C. McKenzie,  J.-M. Mewes,  P. Morgante,  A. F. Morrison,  
 J. W. Mullinax,  K. Nanda,  T. S. Nguyen-Beck,  R. Olivares-Amaya,  
 J. A. Parkhill,  S. K. Paul,  Zheng Pei,  T. M. Perrine,  F. Plasser,  
 P. Pokhilko,  S. Prager,  A. Prociuk,  E. Ramos,  B. Rana,  D. R. Rehn,  
 F. Rob,  M. Scheurer,  M. Schneider,  N. Sergueev,  S. M. Sharada,  
 S. Sharma,  D. W. Small,  T. Stauch,  C. J. Stein,  T. Stein,  Yu-Chuan Su,  
 S. P. Veccham,  A. J. W. Thom,  A. Tkatchenko,  T. Tsuchimochi,  
 N. M. Tubman,  L. Vogt,  M. L. Vidal,  O. Vydrov,  M. A. Watson,  J. Wenzel,  
 M. de Wergifosse,  T. A. Wesolowski,  A. White,  J. Witte,  A. Yamada,  
 Jun Yang,  K. Yao,  S. Yeganeh,  S. R. Yost,  Zhi-Qiang You,  A. Zech,  
 Igor Ying Zhang,  Xing Zhang,  Yan Zhao,  Ying Zhu,  B. R. Brooks,  
 G. K. L. Chan,  C. J. Cramer,  M. S. Gordon,  W. J. Hehre,  A. Klamt,  
 M. W. Schmidt,  C. D. Sherrill,  D. G. Truhlar,  A. Aspuru-Guzik,  R. Baer,  
 A. T. Bell,  N. A. Besley,  Jeng-Da Chai,  A. E. DePrince, III,  
 R. A. DiStasio Jr.,  A. Dreuw,  B. D. Dunietz,  T. R. Furlani,  
 Chao-Ping Hsu,  Yousung Jung,  Jing Kong,  D. S. Lambrecht,  WanZhen Liang,  
 C. Ochsenfeld,  V. A. Rassolov,  L. V. Slipchenko,  J. E. Subotnik,  
 T. Van Voorhis,  J. M. Herbert,  A. I. Krylov,  P. M. W. Gill,  M. Head-Gordon

 Contributors to earlier versions of Q-Chem not listed above: 
 R. D. Adamson,  B. Austin,  J. Baker,  G. J. O. Beran,  K. Brandhorst,  
 S. T. Brown,  E. F. C. Byrd,  A. K. Chakraborty,  C.-L. Cheng,  
 Siu Hung Chien,  D. M. Chipman,  D. L. Crittenden,  H. Dachsel,  
 R. J. Doerksen,  A. D. Dutoi,  L. Fusti-Molnar,  W. A. Goddard III,  
 A. Golubeva-Zadorozhnaya,  S. R. Gwaltney,  G. Hawkins,  A. Heyden,  
 S. Hirata,  G. Kedziora,  F. J. Keil,  C. Kelley,  Jihan Kim,  R. A. King,  
 R. Z. Khaliullin,  P. P. Korambath,  W. Kurlancheek,  A. M. Lee,  M. S. Lee,  
 S. V. Levchenko,  Ching Yeh Lin,  D. Liotard,  R. C. Lochan,  I. Lotan,  
 P. E. Maslen,  N. Nair,  D. P. O'Neill,  D. Neuhauser,  E. Neuscamman,  
 C. M. Oana,  R. Olson,  B. Peters,  R. Peverati,  P. A. Pieniazek,  
 Y. M. Rhee,  J. Ritchie,  M. A. Rohrdanz,  E. Rosta,  N. J. Russ,  
 H. F. Schaefer III,  N. E. Schultz,  N. Shenvi,  A. C. Simmonett,  A. Sodt,  
 D. Stuck,  K. S. Thanthiriwatte,  V. Vanovschi,  Tao Wang,  A. Warshel,  
 C. F. Williams,  Q. Wu,  X. Xu,  W. Zhang

 Please cite Q-Chem as follows:
 Y. Shao et al., Mol. Phys. 113, 184-215 (2015)
 DOI: 10.1080/00268976.2014.952696

 Q-Chem 5.2.2 for Intel X86 EM64T Linux

 Parts of Q-Chem use Armadillo 9.800.1 (Horizon Scraper).
 http://arma.sourceforge.net/

 Q-Chem begins on Sun Apr 12 07:01:09 2020  

Host: cn0821
0

     Scratch files written to /tmp/ypli/6721342.srvc1/qchem183564//
Warning:  Did not find "$end" marker in "$molecule" section

Checking the input file for inconsistencies... 	...done.

--------------------------------------------------------------
User input:
--------------------------------------------------------------
$rem
   JOBTYPE  sp
   EXCHANGE   omegaB97X-D
   BASIS   6-311+G(2df,2pd)
   max_scf_cycles   250
   geom_opt_max_cycles   1500
   basis2 6-31G*
   scf_algorithm rca_diis
   SYM_IGNORE  TRUE
   print_input   true
   geom_opt_dmax   80
   pop_mulliken false
   XC_GRID 000075000302
$end

$molecule
0 1
C       1.2948537411     0.0006145256     0.2648169063
C       0.0023479038     0.0000261299     -0.5862919328
H       1.2703345118     -0.8933415616     0.8891224028
H       1.2668889642     0.8937091223     0.8900582402
H       2.1577822207     -0.0017225702     -0.3994430474
C       -1.2400229632     -0.0005036284     0.2551970979
H       0.0462212257     -0.8731074445     -1.2416312202
H       0.0475961289     0.8730765699     -1.2416484879
H       -1.3371456561     -0.8658075552     0.9159949326
H       -2.1681361203     0.0017677752     -0.3200920558
H       -1.3407200173     0.8652893029     0.9149621831
--------------------------------------------------------------
 ----------------------------------------------------------------
             Standard Nuclear Orientation (Angstroms)
    I     Atom           X                Y                Z
 ----------------------------------------------------------------
    1      C       1.2948537411     0.0006145256     0.2648169063
    2      C       0.0023479038     0.0000261299    -0.5862919328
    3      H       1.2703345118    -0.8933415616     0.8891224028
    4      H       1.2668889642     0.8937091223     0.8900582402
    5      H       2.1577822207    -0.0017225702    -0.3994430474
    6      C      -1.2400229632    -0.0005036284     0.2551970979
    7      H       0.0462212257    -0.8731074445    -1.2416312202
    8      H       0.0475961289     0.8730765699    -1.2416484879
    9      H      -1.3371456561    -0.8658075552     0.9159949326
   10      H      -2.1681361203     0.0017677752    -0.3200920558
   11      H      -1.3407200173     0.8652893029     0.9149621831
 ----------------------------------------------------------------
 Nuclear Repulsion Energy =          82.75908164 hartrees
 There are       13 alpha and       13 beta electrons
 Requested basis set is 6-311+G(2df,2pd)
 There are 72 shells and 214 basis functions

 Total QAlloc Memory Limit   2000 MB
 Mega-Array Size       188 MB
 MEM_STATIC part       192 MB

                       Distance Matrix (Angstroms)
             C (  1)   C (  2)   H (  3)   H (  4)   H (  5)   C (  6)
   C (  2)  1.547565
   H (  3)  1.090649  2.140734
   H (  4)  1.090563  2.139473  1.787054
   H (  5)  1.088987  2.163519  1.800819  1.805077
   C (  6)  2.534895  1.500530  2.738780  2.736288  3.460294
   H (  7)  2.142862  1.092592  2.457432  3.025850  2.434601  2.157859
   H (  8)  2.141560  1.092592  3.025807  2.455865  2.434639  2.159086
   H (  9)  2.846426  2.191068  2.607764  3.142860  3.832955  1.093086
   H ( 10)  3.512039  2.186748  3.753199  3.749589  4.326647  1.091951
   H ( 11)  2.848965  2.192322  3.148183  2.607883  3.836520  1.093173
             H (  7)   H (  8)   H (  9)   H ( 10)
   H (  8)  1.746185
   H (  9)  2.563027  3.097847
   H ( 10)  2.553041  2.553021  1.723700
   H ( 11)  3.097826  2.564849  1.731101  1.719199
 
 A cutoff of  1.0D-09 yielded   2532 shell pairs
 There are     22578 function pairs (     27759 Cartesian)
 Smallest overlap matrix eigenvalue = 8.60E-05

 Scale SEOQF with 1.000000e-01/1.000000e-01/1.000000e-01

 Standard Electronic Orientation quadrupole field applied
 Nucleus-field energy     =     0.0000000006 hartrees
 Requested basis set is 6-31G(d)
 There are 28 shells and 58 basis functions
 A cutoff of  1.0D-09 yielded    402 shell pairs
 There are      1773 function pairs (      1968 Cartesian)
 Smallest overlap matrix eigenvalue = 6.79E-03
 Guess from superposition of atomic densities
 Warning:  Energy on first SCF cycle will be non-variational
 SAD guess density has 26.000000 electrons
 Long-range K will be added via erf
 Coulomb attenuation parameter = 0.2 bohr**(-1)
 A restricted hybrid HF-DFT SCF calculation will be
 performed using Relaxed Constraint Minimization + Pulay DIIS
 Exchange:     0.2220 Hartree-Fock + 1.0000 wB97X-D + LR-HF
 Correlation:  1.0000 wB97X-D
 Using Euler-Maclaurin-Lebedev (75,302) quadrature formula
 Dispersion:   Grimme D
 SCF converges when DIIS error is below 1.0E-04
 using 3 threads for integral computing
 -------------------------------------------------------
 OpenMP Integral computing Module                
 Release: version 1.0, May 2013, Q-Chem Inc. Pittsburgh 
 -------------------------------------------------------
 using 3 threads for integral computing
 -------------------------------------------------------
 OpenMP Integral computing Module                
 Release: version 1.0, May 2013, Q-Chem Inc. Pittsburgh 
 -------------------------------------------------------
 ---------------------------------------
  Cycle       Energy         DIIS Error
 ---------------------------------------
    1    -119.6221215936      1.00E-01
    2    -119.0634196190      9.02E-03
    3    -119.0845637695      2.47E-03
    4    -119.0984945343      1.69E-03
    5    -119.0991959910      2.66E-04 Done RCA. Switching to DIIS
    6    -119.0997117720      1.98E-04
    7    -119.0997287091      4.72E-06 Convergence criterion met
 ---------------------------------------
 SCF time:  CPU 32.90 s  wall 11.33 s
 SCF   energy in the small basis set = -119.09972871
 Total energy in the small basis set = -119.09972871
 ----------------------------------------------------
  Cycle       Energy    
 ----------------------------------------------------
    1     -16.5395838597     -1.65E+01
 Long-range K will be added via erf
 Coulomb attenuation parameter = 0.2 bohr**(-1)
 A restricted hybrid HF-DFT SCF calculation will be
 performed using Relaxed Constraint Minimization + Pulay DIIS
 Exchange:     0.2220 Hartree-Fock + 1.0000 wB97X-D + LR-HF
 Correlation:  1.0000 wB97X-D
 Using Euler-Maclaurin-Lebedev (75,302) quadrature formula
 Dispersion:   Grimme D
 SCF converges when DIIS error is below 1.0E-05
 Basis2 calculation detected. Using small basis as guess for larger.
 SCFMinFind is unable to tell whether the solution found is close.
 Resetting ReadMinima to 0 and attempting to follow guess.
 SCFMinFind following SCF Guess.
 using 3 threads for integral computing
 -------------------------------------------------------
 OpenMP Integral computing Module                
 Release: version 1.0, May 2013, Q-Chem Inc. Pittsburgh 
 -------------------------------------------------------
 using 3 threads for integral computing
 -------------------------------------------------------
 OpenMP Integral computing Module                
 Release: version 1.0, May 2013, Q-Chem Inc. Pittsburgh 
 -------------------------------------------------------
 ---------------------------------------
  Cycle       Energy         DIIS Error
 ---------------------------------------
    1    -119.1189713226      4.21E-03
    2    -119.1410150377      5.99E-04 Done RCA. Switching to DIIS
    3    -119.1418509929      4.20E-04
    4    -119.1428195220      4.60E-05
    5    -119.1428344196      1.08E-05
    6    -119.1428351700      4.16E-06 Convergence criterion met
 ---------------------------------------
 SCF time:  CPU 97.73 s  wall 33.07 s
 SCF   energy in the final basis set = -119.14283517
 Total energy in the final basis set = -119.14283517
 
 --------------------------------------------------------------
 
                    Orbital Energies (a.u.)
 --------------------------------------------------------------
 
 Alpha MOs
 -- Occupied --
-10.2741 -10.2658 -10.2647  -0.8817  -0.7776  -0.6779  -0.5460  -0.5264
 -0.4810  -0.4635  -0.4304  -0.4071  -0.4054
 -- Virtual --
  0.0689   0.0854   0.0914   0.0990   0.1249   0.1301   0.1333   0.1423
  0.1432   0.1705   0.1721   0.1916   0.2326   0.2405   0.2411   0.2684
  0.2800   0.2831   0.3079   0.3133   0.3342   0.3526   0.4588   0.4667
  0.4700   0.5097   0.5130   0.5185   0.5450   0.5620   0.5785   0.5917
  0.6202   0.6273   0.6413   0.6471   0.6562   0.6573   0.7096   0.7253
  0.7264   0.7665   0.8132   0.8617   0.8672   0.8763   0.8892   0.9584
  1.0031   1.0524   1.0548   1.1238   1.1474   1.1816   1.1854   1.2166
  1.2311   1.2345   1.2705   1.2762   1.2797   1.3082   1.3275   1.3785
  1.3816   1.3924   1.4005   1.4462   1.4672   1.4695   1.4783   1.4787
  1.5196   1.5730   1.6121   1.6129   1.6186   1.6465   1.6840   1.7178
  1.7498   2.3768   2.4576   2.4895   2.5029   2.5486   2.5601   2.6152
  2.6208   2.7134   2.8172   2.8338   2.8348   2.9116   2.9254   2.9312
  2.9374   2.9459   3.0002   3.0132   3.0265   3.0568   3.0892   3.1037
  3.1365   3.1401   3.1842   3.1969   3.2077   3.2240   3.2826   3.2962
  3.3321   3.3433   3.3463   3.3593   3.3700   3.3756   3.4015   3.4374
  3.4731   3.4750   3.4954   3.5252   3.5626   3.5769   3.5995   3.6096
  3.6172   3.6574   3.6735   3.7027   3.7838   3.8037   3.8692   3.8878
  3.8930   3.9280   3.9473   3.9875   3.9976   3.9997   4.0452   4.0607
  4.0773   4.1058   4.1246   4.1270   4.1395   4.1667   4.1905   4.2080
  4.2348   4.2610   4.2659   4.3742   4.3932   4.3980   4.4117   4.4392
  4.4493   4.5796   4.5925   4.6105   4.6726   4.8103   4.8156   4.8259
  4.9204   4.9510   4.9679   5.0117   5.0331   5.0534   5.0673   5.1089
  5.1237   5.1797   5.2272   5.2829   5.2934   5.3406   5.3657   5.3904
  5.4096   5.4642   5.4863   5.5161   5.5635   5.5682   5.6331   5.7448
  5.9620   6.3635   6.3757   6.4060   6.4291   6.4632  25.2043  25.4410
 25.4558
 --------------------------------------------------------------
 
 -----------------------------------------------------------------
                    Cartesian Multipole Moments
 -----------------------------------------------------------------
    Charge (ESU x 10^10)
                 0.0000
    Dipole Moment (Debye)
         X      -0.0619      Y       0.0001      Z      -0.0908
       Tot       0.1099
    Quadrupole Moments (Debye-Ang)
        XX     -22.1728     XY      -0.0139     YY     -21.3768
        XZ      -0.4947     YZ      -0.0001     ZZ     -21.8624
    Octopole Moments (Debye-Ang^2)
       XXX      -1.8981    XXY       0.0010    XYY      -0.1678
       YYY      -0.0028    XXZ      -1.5710    XYZ       0.0034
       YYZ       0.4666    XZZ      -0.2675    YZZ      -0.0017
       ZZZ      -0.4627
    Hexadecapole Moments (Debye-Ang^3)
      XXXX    -202.3863   XXXY      -0.0987   XXYY     -42.2601
      XYYY      -0.0069   YYYY     -44.1134   XXXZ      -1.6839
      XXYZ       0.0005   XYYZ      -0.0006   YYYZ      -0.0012
      XXZZ     -45.2999   XYZZ       0.0036   YYZZ     -17.0985
      XZZZ      -0.1889   YZZZ      -0.0013   ZZZZ     -72.2228
 -----------------------------------------------------------------
Archival summary:
1\1\cn0821\SP\ProcedureUnspecified\BasisUnspecified\38\r0852400\SunApr1207:01:572020SunApr1207:01:572020\0\\#,ProcedureUnspecified,BasisUnspecified,\\0,1\C\H,1,1.09259\H,1,1.09259,2,106.089\C,1,1.50053,2,111.774,3,-121.946,0\H,4,1.09195,1,114.096,2,59.212,0\H,4,1.09309,1,114.385,2,179.01,0\H,4,1.09317,1,114.484,2,-60.141,0\C,1,1.54757,2,107.157,3,114.34,0\H,8,1.08899,1,109.047,2,-56.899,0\H,8,1.09056,1,107.11,2,64.2868,0\H,8,1.09065,1,107.201,2,-177.652,0\\\@

 Total job time:  48.65s(wall), 135.85s(cpu) 
 Sun Apr 12 07:01:57 2020

        *************************************************************
        *                                                           *
        *  Thank you very much for using Q-Chem.  Have a nice day.  *
        *                                                           *
        *************************************************************


