                  Welcome to Q-Chem
     A Quantum Leap Into The Future Of Chemistry


 Q-Chem 5.2 (devel), Q-Chem, Inc., Pleasanton, CA (2019)

 Yihan Shao,  Zhengting Gan,  E. Epifanovsky,  A. T. B. Gilbert,  M. Wormit,  
 J. Kussmann,  A. W. Lange,  A. Behn,  Jia Deng,  Xintian Feng,  D. Ghosh,  
 M. Goldey,  P. R. Horn,  L. D. Jacobson,  I. Kaliman,  T. Kus,  A. Landau,  
 Jie Liu,  E. I. Proynov,  R. M. Richard,  R. P. Steele,  E. J. Sundstrom,  
 H. L. Woodcock III,  P. M. Zimmerman,  D. Zuev,  B. Alam,  B. Albrecht,  
 E. Alguire,  S. A. Baeppler,  D. Barton,  Z. Benda,  Y. A. Bernard,  
 E. J. Berquist,  K. B. Bravaya,  H. Burton,  K. Carter-Fenk,  D. Casanova,  
 Chun-Min Chang,  Yunqing Chen,  A. Chien,  K. D. Closser,  M. P. Coons,  
 S. Coriani,  S. Dasgupta,  A. L. Dempwolff,  M. Diedenhofen,  Hainam Do,  
 R. G. Edgar,  Po-Tung Fang,  S. Faraji,  S. Fatehi,  Qingguo Feng,  
 J. Fosso-Tande,  J. Gayvert,  Qinghui Ge,  A. Ghysels,  G. Gidofalvi,  
 J. Gomes,  J. Gonthier,  A. Gunina,  D. Hait,  M. W. D. Hanson-Heine,  
 P. H. P. Harbach,  A. W. Hauser,  M. F. Herbst,  J. E. Herr,  
 E. G. Hohenstein,  Z. C. Holden,  Kerwin Hui,  B. C. Huynh,  T.-C. Jagau,  
 Hyunjun Ji,  B. Kaduk,  K. Khistyaev,  Jaehoon Kim,  P. Klunzinger,  K. Koh,  
 D. Kosenkov,  L. Koulias,  T. Kowalczyk,  C. M. Krauter,  A. Kunitsa,  
 Ka Un Lao,  A. Laurent,  K. V. Lawler,  Joonho Lee,  D. Lefrancois,  
 S. Lehtola,  D. S. Levine,  Yi-Pei Li,  You-Sheng Lin,  Fenglai Liu,  
 Kuan-Yu Liu,  E. Livshits,  M. Loipersberger,  A. Luenser,  P. Manohar,  
 E. Mansoor,  S. F. Manzer,  Shan-Ping Mao,  Yuezhi Mao,  N. Mardirossian,  
 A. V. Marenich,  T. Markovich,  L. A. Martinez-Martinez,  S. A. Maurer,  
 N. J. Mayhall,  S. C. McKenzie,  J.-M. Mewes,  P. Morgante,  A. F. Morrison,  
 J. W. Mullinax,  K. Nanda,  T. S. Nguyen-Beck,  R. Olivares-Amaya,  
 J. A. Parkhill,  S. K. Paul,  Zheng Pei,  T. M. Perrine,  F. Plasser,  
 P. Pokhilko,  S. Prager,  A. Prociuk,  E. Ramos,  B. Rana,  D. R. Rehn,  
 F. Rob,  M. Scheurer,  M. Schneider,  N. Sergueev,  S. M. Sharada,  
 S. Sharma,  D. W. Small,  T. Stauch,  C. J. Stein,  T. Stein,  Yu-Chuan Su,  
 S. P. Veccham,  A. J. W. Thom,  A. Tkatchenko,  T. Tsuchimochi,  
 N. M. Tubman,  L. Vogt,  M. L. Vidal,  O. Vydrov,  M. A. Watson,  J. Wenzel,  
 M. de Wergifosse,  T. A. Wesolowski,  A. White,  J. Witte,  A. Yamada,  
 Jun Yang,  K. Yao,  S. Yeganeh,  S. R. Yost,  Zhi-Qiang You,  A. Zech,  
 Igor Ying Zhang,  Xing Zhang,  Yan Zhao,  Ying Zhu,  B. R. Brooks,  
 G. K. L. Chan,  C. J. Cramer,  M. S. Gordon,  W. J. Hehre,  A. Klamt,  
 M. W. Schmidt,  C. D. Sherrill,  D. G. Truhlar,  A. Aspuru-Guzik,  R. Baer,  
 A. T. Bell,  N. A. Besley,  Jeng-Da Chai,  A. E. DePrince, III,  
 R. A. DiStasio Jr.,  A. Dreuw,  B. D. Dunietz,  T. R. Furlani,  
 Chao-Ping Hsu,  Yousung Jung,  Jing Kong,  D. S. Lambrecht,  WanZhen Liang,  
 C. Ochsenfeld,  V. A. Rassolov,  L. V. Slipchenko,  J. E. Subotnik,  
 T. Van Voorhis,  J. M. Herbert,  A. I. Krylov,  P. M. W. Gill,  M. Head-Gordon

 Contributors to earlier versions of Q-Chem not listed above: 
 R. D. Adamson,  B. Austin,  J. Baker,  G. J. O. Beran,  K. Brandhorst,  
 S. T. Brown,  E. F. C. Byrd,  A. K. Chakraborty,  C.-L. Cheng,  
 Siu Hung Chien,  D. M. Chipman,  D. L. Crittenden,  H. Dachsel,  
 R. J. Doerksen,  A. D. Dutoi,  L. Fusti-Molnar,  W. A. Goddard III,  
 A. Golubeva-Zadorozhnaya,  S. R. Gwaltney,  G. Hawkins,  A. Heyden,  
 S. Hirata,  G. Kedziora,  F. J. Keil,  C. Kelley,  Jihan Kim,  R. A. King,  
 R. Z. Khaliullin,  P. P. Korambath,  W. Kurlancheek,  A. M. Lee,  M. S. Lee,  
 S. V. Levchenko,  Ching Yeh Lin,  D. Liotard,  R. C. Lochan,  I. Lotan,  
 P. E. Maslen,  N. Nair,  D. P. O'Neill,  D. Neuhauser,  E. Neuscamman,  
 C. M. Oana,  R. Olson,  B. Peters,  R. Peverati,  P. A. Pieniazek,  
 Y. M. Rhee,  J. Ritchie,  M. A. Rohrdanz,  E. Rosta,  N. J. Russ,  
 H. F. Schaefer III,  N. E. Schultz,  N. Shenvi,  A. C. Simmonett,  A. Sodt,  
 D. Stuck,  K. S. Thanthiriwatte,  V. Vanovschi,  Tao Wang,  A. Warshel,  
 C. F. Williams,  Q. Wu,  X. Xu,  W. Zhang

 Please cite Q-Chem as follows:
 Y. Shao et al., Mol. Phys. 113, 184-215 (2015)
 DOI: 10.1080/00268976.2014.952696

 Q-Chem 5.2.2 for Intel X86 EM64T Linux

 Parts of Q-Chem use Armadillo 9.800.1 (Horizon Scraper).
 http://arma.sourceforge.net/

 Q-Chem begins on Sun Apr 12 07:42:13 2020  

Host: cn0821
0

     Scratch files written to /tmp/ypli/6721342.srvc1/qchem189572//
Warning:  Did not find "$end" marker in "$molecule" section

Checking the input file for inconsistencies... 	...done.

--------------------------------------------------------------
User input:
--------------------------------------------------------------
$rem
   JOBTYPE  sp
   EXCHANGE   omegaB97X-D
   BASIS   6-311+G(2df,2pd)
   max_scf_cycles   250
   geom_opt_max_cycles   1500
   basis2 6-31G*
   scf_algorithm rca_diis
   SYM_IGNORE  TRUE
   print_input   true
   geom_opt_dmax   80
   pop_mulliken false
   XC_GRID 000075000302
$end

$molecule
0 1
C       1.2441417759     0.0093394812     0.2822821274
C       -0.0153449074     -0.0011989578     -0.5861909628
H       1.3578778630     -0.9422648379     0.8055705107
H       1.2621670431     0.9470175053     0.8335484649
H       2.1806669708     -0.0536321677     -0.2795280578
C       -1.2898333660     -0.0130849306     0.2386639946
H       0.0289880242     -0.8739384281     -1.2420242366
H       -0.0102719323     0.8732407479     -1.2412377094
H       -1.2619419045     -0.8019478807     0.9929517738
H       -2.1427143429     0.0548897203     -0.4318331153
H       -1.3537352845     0.8015804140     0.9688422294
--------------------------------------------------------------
 ----------------------------------------------------------------
             Standard Nuclear Orientation (Angstroms)
    I     Atom           X                Y                Z
 ----------------------------------------------------------------
    1      C       1.2441417759     0.0093394812     0.2822821274
    2      C      -0.0153449074    -0.0011989578    -0.5861909628
    3      H       1.3578778630    -0.9422648379     0.8055705107
    4      H       1.2621670431     0.9470175053     0.8335484649
    5      H       2.1806669708    -0.0536321677    -0.2795280578
    6      C      -1.2898333660    -0.0130849306     0.2386639946
    7      H       0.0289880242    -0.8739384281    -1.2420242366
    8      H      -0.0102719323     0.8732407479    -1.2412377094
    9      H      -1.2619419045    -0.8019478807     0.9929517738
   10      H      -2.1427143429     0.0548897203    -0.4318331153
   11      H      -1.3537352845     0.8015804140     0.9688422294
 ----------------------------------------------------------------
 Nuclear Repulsion Energy =          82.75089102 hartrees
 There are       13 alpha and       13 beta electrons
 Requested basis set is 6-311+G(2df,2pd)
 There are 72 shells and 214 basis functions

 Total QAlloc Memory Limit   2000 MB
 Mega-Array Size       188 MB
 MEM_STATIC part       192 MB

                       Distance Matrix (Angstroms)
             C (  1)   C (  2)   H (  3)   H (  4)   H (  5)   C (  6)
   C (  2)  1.529923
   H (  3)  1.091933  2.169872
   H (  4)  1.087869  2.132325  1.891912
   H (  5)  1.093927  2.217940  1.626065  1.756098
   C (  6)  2.534450  1.518173  2.862714  2.790769  3.509208
   H (  7)  2.140161  1.092592  2.441979  3.024006  2.495801  2.161665
   H (  8)  2.154296  1.092592  3.058973  2.435012  2.565968  2.147780
   H (  9)  2.728313  2.165386  2.630258  3.074966  3.745763  1.091803
   H ( 10)  3.461622  2.133699  3.844429  3.740361  4.327424  1.087011
   H ( 11)  2.801424  2.203150  3.228080  2.623433  3.844713  1.095866
             H (  7)   H (  8)   H (  9)   H ( 10)
   H (  8)  1.747620
   H (  9)  2.582015  3.060153
   H ( 10)  2.497083  2.423251  1.881474
   H ( 11)  3.099551  2.587370  1.606334  1.772548
 
 A cutoff of  1.0D-09 yielded   2532 shell pairs
 There are     22550 function pairs (     27725 Cartesian)
 Smallest overlap matrix eigenvalue = 8.56E-05

 Scale SEOQF with 1.000000e-01/1.000000e-01/1.000000e-01

 Standard Electronic Orientation quadrupole field applied
 Nucleus-field energy     =     0.0000000006 hartrees
 Requested basis set is 6-31G(d)
 There are 28 shells and 58 basis functions
 A cutoff of  1.0D-09 yielded    402 shell pairs
 There are      1773 function pairs (      1968 Cartesian)
 Smallest overlap matrix eigenvalue = 6.79E-03
 Guess from superposition of atomic densities
 Warning:  Energy on first SCF cycle will be non-variational
 SAD guess density has 26.000000 electrons
 Long-range K will be added via erf
 Coulomb attenuation parameter = 0.2 bohr**(-1)
 A restricted hybrid HF-DFT SCF calculation will be
 performed using Relaxed Constraint Minimization + Pulay DIIS
 Exchange:     0.2220 Hartree-Fock + 1.0000 wB97X-D + LR-HF
 Correlation:  1.0000 wB97X-D
 Using Euler-Maclaurin-Lebedev (75,302) quadrature formula
 Dispersion:   Grimme D
 SCF converges when DIIS error is below 1.0E-04
 using 3 threads for integral computing
 -------------------------------------------------------
 OpenMP Integral computing Module                
 Release: version 1.0, May 2013, Q-Chem Inc. Pittsburgh 
 -------------------------------------------------------
 using 3 threads for integral computing
 -------------------------------------------------------
 OpenMP Integral computing Module                
 Release: version 1.0, May 2013, Q-Chem Inc. Pittsburgh 
 -------------------------------------------------------
 ---------------------------------------
  Cycle       Energy         DIIS Error
 ---------------------------------------
    1    -119.6254352140      1.01E-01
    2    -119.0518686808      9.10E-03
    3    -119.0734544229      2.49E-03
    4    -119.0877601381      1.70E-03
    5    -119.0884744607      2.70E-04 Done RCA. Switching to DIIS
    6    -119.0890009292      1.99E-04
    7    -119.0890181560      5.35E-06 Convergence criterion met
 ---------------------------------------
 SCF time:  CPU 33.21 s  wall 11.49 s
 SCF   energy in the small basis set = -119.08901816
 Total energy in the small basis set = -119.08901816
 ----------------------------------------------------
  Cycle       Energy    
 ----------------------------------------------------
    1     -16.5375051131     -1.65E+01
 Long-range K will be added via erf
 Coulomb attenuation parameter = 0.2 bohr**(-1)
 A restricted hybrid HF-DFT SCF calculation will be
 performed using Relaxed Constraint Minimization + Pulay DIIS
 Exchange:     0.2220 Hartree-Fock + 1.0000 wB97X-D + LR-HF
 Correlation:  1.0000 wB97X-D
 Using Euler-Maclaurin-Lebedev (75,302) quadrature formula
 Dispersion:   Grimme D
 SCF converges when DIIS error is below 1.0E-05
 Basis2 calculation detected. Using small basis as guess for larger.
 SCFMinFind is unable to tell whether the solution found is close.
 Resetting ReadMinima to 0 and attempting to follow guess.
 SCFMinFind following SCF Guess.
 using 3 threads for integral computing
 -------------------------------------------------------
 OpenMP Integral computing Module                
 Release: version 1.0, May 2013, Q-Chem Inc. Pittsburgh 
 -------------------------------------------------------
 using 3 threads for integral computing
 -------------------------------------------------------
 OpenMP Integral computing Module                
 Release: version 1.0, May 2013, Q-Chem Inc. Pittsburgh 
 -------------------------------------------------------
 ---------------------------------------
  Cycle       Energy         DIIS Error
 ---------------------------------------
    1    -119.1088035956      4.21E-03
    2    -119.1308234743      6.07E-04 Done RCA. Switching to DIIS
    3    -119.1316744070      4.28E-04
    4    -119.1326803334      4.61E-05
    5    -119.1326955587      1.03E-05
    6    -119.1326962898      3.92E-06 Convergence criterion met
 ---------------------------------------
 SCF time:  CPU 97.27 s  wall 32.92 s
 SCF   energy in the final basis set = -119.13269629
 Total energy in the final basis set = -119.13269629
 
 --------------------------------------------------------------
 
                    Orbital Energies (a.u.)
 --------------------------------------------------------------
 
 Alpha MOs
 -- Occupied --
-10.2741 -10.2656 -10.2652  -0.8818  -0.7788  -0.6793  -0.5489  -0.5304
 -0.4842  -0.4610  -0.4231  -0.4097  -0.3982
 -- Virtual --
  0.0690   0.0856   0.0905   0.0987   0.1229   0.1308   0.1334   0.1420
  0.1431   0.1682   0.1739   0.1918   0.2246   0.2388   0.2540   0.2630
  0.2755   0.2876   0.3052   0.3153   0.3327   0.3466   0.4623   0.4656
  0.4748   0.5064   0.5176   0.5222   0.5417   0.5611   0.5761   0.5967
  0.6213   0.6273   0.6396   0.6471   0.6532   0.6637   0.7110   0.7211
  0.7279   0.7668   0.8143   0.8578   0.8670   0.8700   0.8947   0.9481
  0.9937   1.0484   1.0662   1.1200   1.1485   1.1619   1.1880   1.2213
  1.2374   1.2404   1.2686   1.2727   1.2845   1.2997   1.3424   1.3670
  1.3785   1.3919   1.4156   1.4493   1.4592   1.4700   1.4793   1.4901
  1.5121   1.5639   1.6083   1.6221   1.6326   1.6550   1.6795   1.7112
  1.7660   2.3831   2.4701   2.4835   2.5046   2.5494   2.5673   2.5956
  2.6263   2.7185   2.8183   2.8220   2.8252   2.8680   2.9187   2.9262
  2.9470   2.9595   3.0079   3.0291   3.0368   3.0416   3.0782   3.1047
  3.1333   3.1510   3.1635   3.1892   3.2084   3.2245   3.2687   3.2958
  3.3120   3.3278   3.3478   3.3571   3.3957   3.4290   3.4447   3.4622
  3.4778   3.4991   3.5259   3.5398   3.5474   3.5607   3.5743   3.6124
  3.6194   3.6277   3.6581   3.6966   3.7648   3.7754   3.8481   3.8581
  3.8791   3.9237   3.9380   3.9519   3.9658   3.9983   4.0217   4.0454
  4.0593   4.0944   4.1113   4.1255   4.1565   4.1839   4.2071   4.2181
  4.2254   4.2413   4.2944   4.3695   4.3919   4.4083   4.4109   4.4288
  4.4730   4.5832   4.5939   4.6105   4.6874   4.7558   4.7997   4.8413
  4.8756   4.9431   4.9581   4.9861   5.0033   5.0187   5.0600   5.1075
  5.1689   5.2126   5.2236   5.2994   5.3154   5.3266   5.3634   5.4143
  5.4636   5.4675   5.5139   5.5735   5.5954   5.6338   5.6816   5.7802
  5.9618   6.3115   6.3422   6.4254   6.4484   6.4675  25.2034  25.4366
 25.4556
 --------------------------------------------------------------
 
 -----------------------------------------------------------------
                    Cartesian Multipole Moments
 -----------------------------------------------------------------
    Charge (ESU x 10^10)
                 0.0000
    Dipole Moment (Debye)
         X       0.0821      Y       0.0076      Z      -0.0824
       Tot       0.1165
    Quadrupole Moments (Debye-Ang)
        XX     -22.1487     XY      -0.4908     YY     -21.4353
        XZ       0.0025     YZ       0.0139     ZZ     -21.8527
    Octopole Moments (Debye-Ang^2)
       XXX       1.6049    XXY      -0.0580    XYY       1.4637
       YYY       0.1277    XXZ      -1.4576    XYZ       0.1548
       YYZ       0.3158    XZZ      -0.9471    YZZ       0.0536
       ZZZ      -0.4152
    Hexadecapole Moments (Debye-Ang^3)
      XXXX    -202.7056   XXXY      -2.4466   XXYY     -42.2869
      XYYY       0.1056   YYYY     -44.1707   XXXZ       1.0201
      XXYZ      -0.0449   XYYZ       0.3194   YYYZ       0.0751
      XXZZ     -45.3299   XYZZ       0.0538   YYZZ     -17.3265
      XZZZ      -1.8580   YZZZ       0.0055   ZZZZ     -72.2045
 -----------------------------------------------------------------
Archival summary:
1\1\cn0821\SP\ProcedureUnspecified\BasisUnspecified\38\r0852400\SunApr1207:43:022020SunApr1207:43:022020\0\\#,ProcedureUnspecified,BasisUnspecified,\\0,1\C\H,1,1.09259\H,1,1.09259,2,106.214\C,1,1.51817,2,109.627,3,-119.673,0\H,4,1.08701,1,108.847,2,53.9382,0\H,4,1.0918,1,111.074,2,-172.593,0\H,4,1.09587,1,113.9,2,-67.372,0\C,1,1.52992,2,109.329,3,116.568,0\H,8,1.08787,1,107.893,2,57.0973,0\H,8,1.09193,1,110.597,2,-169.271,0\H,8,1.09393,1,114.384,2,-62.0778,0\\\@

 Total job time:  48.61s(wall), 135.64s(cpu) 
 Sun Apr 12 07:43:02 2020

        *************************************************************
        *                                                           *
        *  Thank you very much for using Q-Chem.  Have a nice day.  *
        *                                                           *
        *************************************************************


