                  Welcome to Q-Chem
     A Quantum Leap Into The Future Of Chemistry


 Q-Chem 5.3 (devel), Q-Chem, Inc., Pleasanton, CA (2020)

 Yihan Shao,  Zhengting Gan,  E. Epifanovsky,  A. T. B. Gilbert,  M. Wormit,  
 J. Kussmann,  A. W. Lange,  A. Behn,  Jia Deng,  Xintian Feng,  D. Ghosh,  
 M. Goldey,  P. R. Horn,  L. D. Jacobson,  I. Kaliman,  T. Kus,  A. Landau,  
 Jie Liu,  E. I. Proynov,  R. M. Richard,  R. P. Steele,  E. J. Sundstrom,  
 H. L. Woodcock III,  P. M. Zimmerman,  D. Zuev,  B. Alam,  B. Albrecht,  
 E. Alguire,  S. A. Baeppler,  D. Barton,  Z. Benda,  Y. A. Bernard,  
 E. J. Berquist,  K. B. Bravaya,  H. Burton,  K. Carter-Fenk,  D. Casanova,  
 Chun-Min Chang,  Yunqing Chen,  A. Chien,  K. D. Closser,  M. P. Coons,  
 S. Coriani,  S. Dasgupta,  A. L. Dempwolff,  M. Diedenhofen,  Hainam Do,  
 R. G. Edgar,  Po-Tung Fang,  S. Faraji,  S. Fatehi,  Qingguo Feng,  
 J. Fosso-Tande,  J. Gayvert,  Qinghui Ge,  A. Ghysels,  G. Gidofalvi,  
 J. Gomes,  J. Gonthier,  A. Gunina,  D. Hait,  M. W. D. Hanson-Heine,  
 P. H. P. Harbach,  A. W. Hauser,  M. F. Herbst,  J. E. Herr,  
 E. G. Hohenstein,  Z. C. Holden,  Kerwin Hui,  B. C. Huynh,  T.-C. Jagau,  
 Hyunjun Ji,  B. Kaduk,  K. Khistyaev,  Jaehoon Kim,  P. Klunzinger,  K. Koh,  
 D. Kosenkov,  L. Koulias,  T. Kowalczyk,  C. M. Krauter,  A. Kunitsa,  
 Ka Un Lao,  A. Laurent,  K. V. Lawler,  Joonho Lee,  D. Lefrancois,  
 S. Lehtola,  D. S. Levine,  Yi-Pei Li,  You-Sheng Lin,  Fenglai Liu,  
 Kuan-Yu Liu,  E. Livshits,  M. Loipersberger,  A. Luenser,  P. Manohar,  
 E. Mansoor,  S. F. Manzer,  Shan-Ping Mao,  Yuezhi Mao,  N. Mardirossian,  
 A. V. Marenich,  T. Markovich,  L. A. Martinez-Martinez,  S. A. Maurer,  
 N. J. Mayhall,  S. C. McKenzie,  J.-M. Mewes,  P. Morgante,  A. F. Morrison,  
 J. W. Mullinax,  K. Nanda,  T. S. Nguyen-Beck,  R. Olivares-Amaya,  
 K. J. Oosterbaan,  J. A. Parkhill,  S. K. Paul,  F. Pavosevic,  Zheng Pei,  
 T. M. Perrine,  F. Plasser,  P. Pokhilko,  S. Prager,  A. Prociuk,  
 E. Ramos,  B. Rana,  D. R. Rehn,  F. Rob,  M. Scheurer,  M. Schneider,  
 N. Sergueev,  S. M. Sharada,  S. Sharma,  D. W. Small,  T. Stauch,  
 C. J. Stein,  T. Stein,  Yu-Chuan Su,  S. P. Veccham,  Zhen Tao,  
 A. J. W. Thom,  A. Tkatchenko,  T. Tsuchimochi,  N. M. Tubman,  L. Vogt,  
 M. L. Vidal,  O. Vydrov,  M. A. Watson,  J. Wenzel,  M. de Wergifosse,  
 T. A. Wesolowski,  A. White,  J. Witte,  A. Yamada,  Jun Yang,  K. Yao,  
 S. Yeganeh,  S. R. Yost,  Zhi-Qiang You,  A. Zech,  Igor Ying Zhang,  
 Xing Zhang,  Yan Zhao,  Ying Zhu,  B. R. Brooks,  G. K. L. Chan,  
 C. J. Cramer,  M. S. Gordon,  W. J. Hehre,  A. Klamt,  M. W. Schmidt,  
 C. D. Sherrill,  D. G. Truhlar,  A. Aspuru-Guzik,  R. Baer,  A. T. Bell,  
 N. A. Besley,  Jeng-Da Chai,  A. E. DePrince, III,  R. A. DiStasio Jr.,  
 A. Dreuw,  B. D. Dunietz,  T. R. Furlani,  Chao-Ping Hsu,  Yousung Jung,  
 Jing Kong,  D. S. Lambrecht,  WanZhen Liang,  C. Ochsenfeld,  
 V. A. Rassolov,  L. V. Slipchenko,  J. E. Subotnik,  T. Van Voorhis,  
 J. M. Herbert,  A. I. Krylov,  P. M. W. Gill,  M. Head-Gordon

 Contributors to earlier versions of Q-Chem not listed above: 
 R. D. Adamson,  B. Austin,  J. Baker,  G. J. O. Beran,  K. Brandhorst,  
 S. T. Brown,  E. F. C. Byrd,  A. K. Chakraborty,  C.-L. Cheng,  
 Siu Hung Chien,  D. M. Chipman,  D. L. Crittenden,  H. Dachsel,  
 R. J. Doerksen,  A. D. Dutoi,  L. Fusti-Molnar,  W. A. Goddard III,  
 A. Golubeva-Zadorozhnaya,  S. R. Gwaltney,  G. Hawkins,  A. Heyden,  
 S. Hirata,  G. Kedziora,  F. J. Keil,  C. Kelley,  Jihan Kim,  R. A. King,  
 R. Z. Khaliullin,  P. P. Korambath,  W. Kurlancheek,  A. M. Lee,  M. S. Lee,  
 S. V. Levchenko,  Ching Yeh Lin,  D. Liotard,  R. C. Lochan,  I. Lotan,  
 P. E. Maslen,  N. Nair,  D. P. O'Neill,  D. Neuhauser,  E. Neuscamman,  
 C. M. Oana,  R. Olson,  B. Peters,  R. Peverati,  P. A. Pieniazek,  
 Y. M. Rhee,  J. Ritchie,  M. A. Rohrdanz,  E. Rosta,  N. J. Russ,  
 H. F. Schaefer III,  N. E. Schultz,  N. Shenvi,  A. C. Simmonett,  A. Sodt,  
 D. Stuck,  K. S. Thanthiriwatte,  V. Vanovschi,  Tao Wang,  A. Warshel,  
 C. F. Williams,  Q. Wu,  X. Xu,  W. Zhang

 Please cite Q-Chem as follows:
 Y. Shao et al., Mol. Phys. 113, 184-215 (2015)
 DOI: 10.1080/00268976.2014.952696

 Q-Chem 5.3.0 for Intel X86 EM64T Linux

 Parts of Q-Chem use Armadillo 9.800.1 (Horizon Scraper).
 http://arma.sourceforge.net/

 Q-Chem begins on Tue Jul  7 02:26:15 2020  

Host: centos77-c4
0

     Scratch files written to /tmp/26964.centos77-h1/qchem112020//
Processing $rem in /opt/qchem-5.3.0-intel2020u1//config/preferences:
Processing $rem in /home/shihchengli/.qchemrc:

Checking the input file for inconsistencies... 	...done.

--------------------------------------------------------------
User input:
--------------------------------------------------------------
$rem
   JOBTYPE  sp
   EXCHANGE   omegaB97X-D
   BASIS   6-311+G(2df,2pd)
   UNRESTRICTED   False
   max_scf_cycles   250
   geom_opt_max_cycles   1500
   basis2 6-31G*
   scf_algorithm rca_diis
   SYM_IGNORE  TRUE
   print_input   true
   geom_opt_dmax   80
   pop_mulliken false
   XC_GRID 000075000302
$end

$molecule
0 1
C       1.2589278085     0.0001215844     0.2378350829
C       -0.0000011773     -0.0003408992     -0.6007253938
H       1.3093076770     -0.9887722483     0.9664999131
H       1.3080692203     0.9883989776     0.9672433050
H       2.2564514708     0.0010402318     -0.4395853842
C       -1.2589305779     0.0001213080     0.2378369355
H       -0.0000014495     -0.8789116920     -1.2605678082
H       -0.0000016057     0.8776747133     -1.2616421398
H       -1.3093083187     -0.9887584325     0.9664910496
H       -2.2564427489     0.0010403932     -0.4395757681
H       -1.3080703591     0.9883867296     0.9672352268
$end
--------------------------------------------------------------
 ----------------------------------------------------------------
             Standard Nuclear Orientation (Angstroms)
    I     Atom           X                Y                Z
 ----------------------------------------------------------------
    1      C       1.2589278085     0.0001215844     0.2378350829
    2      C      -0.0000011773    -0.0003408992    -0.6007253938
    3      H       1.3093076770    -0.9887722483     0.9664999131
    4      H       1.3080692203     0.9883989776     0.9672433050
    5      H       2.2564514708     0.0010402318    -0.4395853842
    6      C      -1.2589305779     0.0001213080     0.2378369355
    7      H      -0.0000014495    -0.8789116920    -1.2605678082
    8      H      -0.0000016057     0.8776747133    -1.2616421398
    9      H      -1.3093083187    -0.9887584325     0.9664910496
   10      H      -2.2564427489     0.0010403932    -0.4395757681
   11      H      -1.3080703591     0.9883867296     0.9672352268
 ----------------------------------------------------------------
 Nuclear Repulsion Energy =          80.29069433 hartrees
 There are       13 alpha and       13 beta electrons
 Requested basis set is 6-311+G(2df,2pd)
 There are 72 shells and 214 basis functions

 Total QAlloc Memory Limit   2000 MB
 Mega-Array Size       188 MB
 MEM_STATIC part       192 MB

                       Distance Matrix (Angstroms)
             C (  1)   C (  2)   H (  3)   H (  4)   H (  5)   C (  6)
   C (  2)  1.512642
   H (  3)  1.229391  2.268806
   H (  4)  1.229286  2.268740  1.977172
   H (  5)  1.205800  2.262199  1.963132  1.963027
   C (  6)  2.517858  1.512643  2.846877  2.845736  3.580058
   H (  7)  2.145417  1.098762  2.585767  3.187639  2.557324  2.145418
   H (  8)  2.145562  1.098964  3.187873  2.586743  2.556530  2.145563
   H (  9)  2.846868  2.268793  2.618616  3.280216  3.958711  1.229373
   H ( 10)  3.580044  2.262189  3.958706  3.957242  4.512894  1.205786
   H ( 11)  2.845729  2.268728  3.280217  2.616140  3.957248  1.229270
             H (  7)   H (  8)   H (  9)   H ( 10)
   H (  8)  1.756587
   H (  9)  2.585758  3.187857
   H ( 10)  2.557317  2.556523  1.963107
   H ( 11)  3.187625  2.586734  1.977146  1.963003
 
 A cutoff of  1.0D-09 yielded   2520 shell pairs
 There are     22490 function pairs (     27659 Cartesian)
 Smallest overlap matrix eigenvalue = 8.09E-05

 Scale SEOQF with 1.000000e-01/1.000000e-01/1.000000e-01

 Standard Electronic Orientation quadrupole field applied
 Nucleus-field energy     =     0.0000000006 hartrees
 Requested basis set is 6-31G(d)
 There are 28 shells and 58 basis functions
 A cutoff of  1.0D-09 yielded    402 shell pairs
 There are      1773 function pairs (      1968 Cartesian)
 Smallest overlap matrix eigenvalue = 7.11E-03
 Guess from superposition of atomic densities
 Warning:  Energy on first SCF cycle will be non-variational
 SAD guess density has 26.000000 electrons
 Long-range K will be added via erf
 Coulomb attenuation parameter = 0.2 bohr**(-1)
 A restricted hybrid HF-DFT SCF calculation will be
 performed using Relaxed Constraint Minimization + Pulay DIIS
 Exchange:     0.2220 Hartree-Fock + 1.0000 wB97X-D + LR-HF
 Correlation:  1.0000 wB97X-D
 Using Euler-Maclaurin-Lebedev (75,302) quadrature formula
 Dispersion:   Grimme D
 SCF converges when DIIS error is below 1.0E-04
 using 3 threads for integral computing
 -------------------------------------------------------
 OpenMP Integral computing Module                
 Release: version 1.0, May 2013, Q-Chem Inc. Pittsburgh 
 -------------------------------------------------------
 using 3 threads for integral computing
 -------------------------------------------------------
 OpenMP Integral computing Module                
 Release: version 1.0, May 2013, Q-Chem Inc. Pittsburgh 
 -------------------------------------------------------
 ---------------------------------------
  Cycle       Energy         DIIS Error
 ---------------------------------------
    1    -119.2140049480      8.89E-02
    2    -119.0327549963      7.06E-03
    3    -119.0456080091      1.80E-03
    4    -119.0559273121      1.15E-03
    5    -119.0562499630      1.41E-04 Done RCA. Switching to DIIS
    6    -119.0565284246      9.18E-05 Convergence criterion met
 ---------------------------------------
 SCF time:  CPU 16.95 s  wall 6.11 s
 SCF   energy in the small basis set = -119.05652842
 Total energy in the small basis set = -119.05652842
 ----------------------------------------------------
  Cycle       Energy    
 ----------------------------------------------------
    1     -16.3045754687     -1.63E+01
 Long-range K will be added via erf
 Coulomb attenuation parameter = 0.2 bohr**(-1)
 A restricted hybrid HF-DFT SCF calculation will be
 performed using Relaxed Constraint Minimization + Pulay DIIS
 Exchange:     0.2220 Hartree-Fock + 1.0000 wB97X-D + LR-HF
 Correlation:  1.0000 wB97X-D
 Using Euler-Maclaurin-Lebedev (75,302) quadrature formula
 Dispersion:   Grimme D
 SCF converges when DIIS error is below 1.0E-05
 Basis2 calculation detected. Using small basis as guess for larger.
 SCFMinFind is unable to tell whether the solution found is close.
 Resetting ReadMinima to 0 and attempting to follow guess.
 SCFMinFind following SCF Guess.
 using 3 threads for integral computing
 -------------------------------------------------------
 OpenMP Integral computing Module                
 Release: version 1.0, May 2013, Q-Chem Inc. Pittsburgh 
 -------------------------------------------------------
 using 3 threads for integral computing
 -------------------------------------------------------
 OpenMP Integral computing Module                
 Release: version 1.0, May 2013, Q-Chem Inc. Pittsburgh 
 -------------------------------------------------------
 ---------------------------------------
  Cycle       Energy         DIIS Error
 ---------------------------------------
    1    -119.0736790329      4.18E-03
    2    -119.0952176398      5.32E-04 Done RCA. Switching to DIIS
    3    -119.0958017898      4.08E-04
    4    -119.0967636855      4.79E-05
    5    -119.0967819052      7.12E-06 Convergence criterion met
 ---------------------------------------
 SCF time:  CPU 42.89 s  wall 14.52 s
 SCF   energy in the final basis set = -119.09678191
 Total energy in the final basis set = -119.09678191
 
 --------------------------------------------------------------
 
                    Orbital Energies (a.u.)
 --------------------------------------------------------------
 
 Alpha MOs
 -- Occupied --
-10.3070 -10.3070 -10.2829  -0.8793  -0.7510  -0.6591  -0.5393  -0.5150
 -0.4703  -0.4379  -0.4134  -0.4132  -0.3984
 -- Virtual --
  0.0659   0.0838   0.0893   0.0968   0.1232   0.1288   0.1340   0.1349
  0.1415   0.1619   0.1641   0.1870   0.2005   0.2045   0.2176   0.2557
  0.2572   0.2594   0.2923   0.3112   0.3256   0.3378   0.4583   0.4674
  0.4760   0.5060   0.5127   0.5159   0.5446   0.5454   0.5475   0.5616
  0.5970   0.6147   0.6233   0.6253   0.6321   0.6455   0.6507   0.6669
  0.7154   0.7644   0.7911   0.8383   0.8538   0.8636   0.8927   0.9085
  0.9450   1.0252   1.0289   1.0962   1.1007   1.1369   1.1507   1.1746
  1.1986   1.2036   1.2385   1.2394   1.2439   1.2676   1.3088   1.3320
  1.3359   1.3600   1.3829   1.4107   1.4252   1.4457   1.4476   1.4556
  1.4857   1.5258   1.5394   1.5645   1.5950   1.6080   1.6227   1.6538
  1.7140   2.4567   2.4841   2.4943   2.5380   2.5386   2.6066   2.6881
  2.7037   2.7584   2.7756   2.7995   2.8081   2.8213   2.8313   2.8455
  2.8639   2.9049   2.9457   2.9620   2.9710   2.9719   2.9726   3.0678
  3.0894   3.0917   3.1223   3.1350   3.1631   3.1638   3.2099   3.2124
  3.2231   3.2316   3.2835   3.3124   3.3128   3.3240   3.3325   3.3377
  3.3879   3.4062   3.4340   3.4555   3.5013   3.5323   3.5365   3.5651
  3.5843   3.6058   3.6354   3.7320   3.7858   3.7875   3.8019   3.8031
  3.8418   3.8586   3.8856   3.8991   3.9077   3.9124   3.9578   3.9644
  4.0074   4.0077   4.0238   4.0765   4.0976   4.1089   4.1208   4.1412
  4.1568   4.1664   4.1912   4.2270   4.2367   4.2471   4.2927   4.3059
  4.4006   4.4066   4.4343   4.4456   4.4622   4.5253   4.5566   4.6160
  4.6344   4.6994   4.7146   4.7406   4.7518   4.8046   4.8858   4.9055
  4.9072   4.9274   4.9888   4.9911   5.0032   5.0434   5.0435   5.1178
  5.1287   5.1949   5.3232   5.3824   5.3956   5.4079   5.4933   5.6498
  5.9122   6.0039   6.0124   6.0708   6.0935   6.4289  24.8838  24.8988
 25.2048
 --------------------------------------------------------------
 
 -----------------------------------------------------------------
                    Cartesian Multipole Moments
 -----------------------------------------------------------------
    Charge (ESU x 10^10)
                 0.0000
    Dipole Moment (Debye)
         X      -0.0000      Y      -0.0001      Z      -0.3163
       Tot       0.3163
    Quadrupole Moments (Debye-Ang)
        XX     -23.1458     XY       0.0000     YY     -21.9227
        XZ      -0.0000     YZ      -0.0000     ZZ     -22.3883
    Octopole Moments (Debye-Ang^2)
       XXX      -0.0002    XXY       0.0022    XYY      -0.0001
       YYY      -0.0033    XXZ      -2.3713    XYZ       0.0000
       YYZ       0.7343    XZZ      -0.0001    YZZ       0.0028
       ZZZ      -1.1600
    Hexadecapole Moments (Debye-Ang^3)
      XXXX    -216.2017   XXXY       0.0000   XXYY     -46.2235
      XYYY       0.0000   YYYY     -51.0556   XXXZ      -0.0002
      XXYZ      -0.0084   XYYZ       0.0000   YYYZ      -0.0035
      XXZZ     -48.6078   XYZZ       0.0000   YYZZ     -18.4750
      XZZZ      -0.0000   YZZZ      -0.0031   ZZZZ     -78.7082
 -----------------------------------------------------------------
Archival summary:
1\1\centos77-c4\SP\ProcedureUnspecified\BasisUnspecified\38\shihchen\TueJul702:26:392020TueJul702:26:392020\0\\#,ProcedureUnspecified,BasisUnspecified,\\0,1\C\H,1,1.09876\H,1,1.09896,2,106.122\C,1,1.51264,2,109.461,3,-118.03,0\H,4,1.2058,1,112.152,2,58.0285,0\H,4,1.22929,1,111.251,2,178.392,0\H,4,1.22939,1,111.25,2,-62.3364,0\C,1,1.51264,2,109.461,3,118.03,0\H,8,1.20579,1,112.152,2,-58.0285,0\H,8,1.22927,1,111.251,2,-178.392,0\H,8,1.22937,1,111.25,2,62.3364,0\\\@

 Total job time:  23.46s(wall), 63.36s(cpu) 
 Tue Jul  7 02:26:39 2020

        *************************************************************
        *                                                           *
        *  Thank you very much for using Q-Chem.  Have a nice day.  *
        *                                                           *
        *************************************************************


