                  Welcome to Q-Chem
     A Quantum Leap Into The Future Of Chemistry


 Q-Chem 5.2 (devel), Q-Chem, Inc., Pleasanton, CA (2019)

 Yihan Shao,  Zhengting Gan,  E. Epifanovsky,  A. T. B. Gilbert,  M. Wormit,  
 J. Kussmann,  A. W. Lange,  A. Behn,  Jia Deng,  Xintian Feng,  D. Ghosh,  
 M. Goldey,  P. R. Horn,  L. D. Jacobson,  I. Kaliman,  T. Kus,  A. Landau,  
 Jie Liu,  E. I. Proynov,  R. M. Richard,  R. P. Steele,  E. J. Sundstrom,  
 H. L. Woodcock III,  P. M. Zimmerman,  D. Zuev,  B. Alam,  B. Albrecht,  
 E. Alguire,  S. A. Baeppler,  D. Barton,  Z. Benda,  Y. A. Bernard,  
 E. J. Berquist,  K. B. Bravaya,  H. Burton,  K. Carter-Fenk,  D. Casanova,  
 Chun-Min Chang,  Yunqing Chen,  A. Chien,  K. D. Closser,  M. P. Coons,  
 S. Coriani,  S. Dasgupta,  A. L. Dempwolff,  M. Diedenhofen,  Hainam Do,  
 R. G. Edgar,  Po-Tung Fang,  S. Faraji,  S. Fatehi,  Qingguo Feng,  
 J. Fosso-Tande,  J. Gayvert,  Qinghui Ge,  A. Ghysels,  G. Gidofalvi,  
 J. Gomes,  J. Gonthier,  A. Gunina,  D. Hait,  M. W. D. Hanson-Heine,  
 P. H. P. Harbach,  A. W. Hauser,  M. F. Herbst,  J. E. Herr,  
 E. G. Hohenstein,  Z. C. Holden,  Kerwin Hui,  B. C. Huynh,  T.-C. Jagau,  
 Hyunjun Ji,  B. Kaduk,  K. Khistyaev,  Jaehoon Kim,  P. Klunzinger,  K. Koh,  
 D. Kosenkov,  L. Koulias,  T. Kowalczyk,  C. M. Krauter,  A. Kunitsa,  
 Ka Un Lao,  A. Laurent,  K. V. Lawler,  Joonho Lee,  D. Lefrancois,  
 S. Lehtola,  D. S. Levine,  Yi-Pei Li,  You-Sheng Lin,  Fenglai Liu,  
 Kuan-Yu Liu,  E. Livshits,  M. Loipersberger,  A. Luenser,  P. Manohar,  
 E. Mansoor,  S. F. Manzer,  Shan-Ping Mao,  Yuezhi Mao,  N. Mardirossian,  
 A. V. Marenich,  T. Markovich,  L. A. Martinez-Martinez,  S. A. Maurer,  
 N. J. Mayhall,  S. C. McKenzie,  J.-M. Mewes,  P. Morgante,  A. F. Morrison,  
 J. W. Mullinax,  K. Nanda,  T. S. Nguyen-Beck,  R. Olivares-Amaya,  
 J. A. Parkhill,  S. K. Paul,  Zheng Pei,  T. M. Perrine,  F. Plasser,  
 P. Pokhilko,  S. Prager,  A. Prociuk,  E. Ramos,  B. Rana,  D. R. Rehn,  
 F. Rob,  M. Scheurer,  M. Schneider,  N. Sergueev,  S. M. Sharada,  
 S. Sharma,  D. W. Small,  T. Stauch,  C. J. Stein,  T. Stein,  Yu-Chuan Su,  
 S. P. Veccham,  A. J. W. Thom,  A. Tkatchenko,  T. Tsuchimochi,  
 N. M. Tubman,  L. Vogt,  M. L. Vidal,  O. Vydrov,  M. A. Watson,  J. Wenzel,  
 M. de Wergifosse,  T. A. Wesolowski,  A. White,  J. Witte,  A. Yamada,  
 Jun Yang,  K. Yao,  S. Yeganeh,  S. R. Yost,  Zhi-Qiang You,  A. Zech,  
 Igor Ying Zhang,  Xing Zhang,  Yan Zhao,  Ying Zhu,  B. R. Brooks,  
 G. K. L. Chan,  C. J. Cramer,  M. S. Gordon,  W. J. Hehre,  A. Klamt,  
 M. W. Schmidt,  C. D. Sherrill,  D. G. Truhlar,  A. Aspuru-Guzik,  R. Baer,  
 A. T. Bell,  N. A. Besley,  Jeng-Da Chai,  A. E. DePrince, III,  
 R. A. DiStasio Jr.,  A. Dreuw,  B. D. Dunietz,  T. R. Furlani,  
 Chao-Ping Hsu,  Yousung Jung,  Jing Kong,  D. S. Lambrecht,  WanZhen Liang,  
 C. Ochsenfeld,  V. A. Rassolov,  L. V. Slipchenko,  J. E. Subotnik,  
 T. Van Voorhis,  J. M. Herbert,  A. I. Krylov,  P. M. W. Gill,  M. Head-Gordon

 Contributors to earlier versions of Q-Chem not listed above: 
 R. D. Adamson,  B. Austin,  J. Baker,  G. J. O. Beran,  K. Brandhorst,  
 S. T. Brown,  E. F. C. Byrd,  A. K. Chakraborty,  C.-L. Cheng,  
 Siu Hung Chien,  D. M. Chipman,  D. L. Crittenden,  H. Dachsel,  
 R. J. Doerksen,  A. D. Dutoi,  L. Fusti-Molnar,  W. A. Goddard III,  
 A. Golubeva-Zadorozhnaya,  S. R. Gwaltney,  G. Hawkins,  A. Heyden,  
 S. Hirata,  G. Kedziora,  F. J. Keil,  C. Kelley,  Jihan Kim,  R. A. King,  
 R. Z. Khaliullin,  P. P. Korambath,  W. Kurlancheek,  A. M. Lee,  M. S. Lee,  
 S. V. Levchenko,  Ching Yeh Lin,  D. Liotard,  R. C. Lochan,  I. Lotan,  
 P. E. Maslen,  N. Nair,  D. P. O'Neill,  D. Neuhauser,  E. Neuscamman,  
 C. M. Oana,  R. Olson,  B. Peters,  R. Peverati,  P. A. Pieniazek,  
 Y. M. Rhee,  J. Ritchie,  M. A. Rohrdanz,  E. Rosta,  N. J. Russ,  
 H. F. Schaefer III,  N. E. Schultz,  N. Shenvi,  A. C. Simmonett,  A. Sodt,  
 D. Stuck,  K. S. Thanthiriwatte,  V. Vanovschi,  Tao Wang,  A. Warshel,  
 C. F. Williams,  Q. Wu,  X. Xu,  W. Zhang

 Please cite Q-Chem as follows:
 Y. Shao et al., Mol. Phys. 113, 184-215 (2015)
 DOI: 10.1080/00268976.2014.952696

 Q-Chem 5.2.2 for Intel X86 EM64T Linux

 Parts of Q-Chem use Armadillo 9.800.1 (Horizon Scraper).
 http://arma.sourceforge.net/

 Q-Chem begins on Sun Apr 12 07:14:50 2020  

Host: cn0821
0

     Scratch files written to /tmp/ypli/6721342.srvc1/qchem185496//
Warning:  Did not find "$end" marker in "$molecule" section

Checking the input file for inconsistencies... 	...done.

--------------------------------------------------------------
User input:
--------------------------------------------------------------
$rem
   JOBTYPE  sp
   EXCHANGE   omegaB97X-D
   BASIS   6-311+G(2df,2pd)
   max_scf_cycles   250
   geom_opt_max_cycles   1500
   basis2 6-31G*
   scf_algorithm rca_diis
   SYM_IGNORE  TRUE
   print_input   true
   geom_opt_dmax   80
   pop_mulliken false
   XC_GRID 000075000302
$end

$molecule
0 1
C       1.3127017948     -0.0003868916     0.3687022122
C       0.0000009976     -0.0012986955     -0.5159151285
H       1.0778559571     -0.9400204432     0.8610351013
H       1.0819319132     0.9403445606     0.8610636185
H       1.9868627815     0.0013302927     -0.4813887408
C       -1.3126997873     -0.0003868264     0.3687017194
H       0.0000000335     -0.8709332412     -1.1818658992
H       0.0000009551     0.8696983184     -1.1799991751
H       -1.0778582413     -0.9400214008     0.8610347876
H       -1.9868644352     0.0013297263     -0.4813866307
H       -1.0819320295     0.9403452668     0.8610631541
--------------------------------------------------------------
 ----------------------------------------------------------------
             Standard Nuclear Orientation (Angstroms)
    I     Atom           X                Y                Z
 ----------------------------------------------------------------
    1      C       1.3127017948    -0.0003868916     0.3687022122
    2      C       0.0000009976    -0.0012986955    -0.5159151285
    3      H       1.0778559571    -0.9400204432     0.8610351013
    4      H       1.0819319132     0.9403445606     0.8610636185
    5      H       1.9868627815     0.0013302927    -0.4813887408
    6      C      -1.3126997873    -0.0003868264     0.3687017194
    7      H       0.0000000335    -0.8709332412    -1.1818658992
    8      H       0.0000009551     0.8696983184    -1.1799991751
    9      H      -1.0778582413    -0.9400214008     0.8610347876
   10      H      -1.9868644352     0.0013297263    -0.4813866307
   11      H      -1.0819320295     0.9403452668     0.8610631541
 ----------------------------------------------------------------
 Nuclear Repulsion Energy =          82.87749748 hartrees
 There are       13 alpha and       13 beta electrons
 Requested basis set is 6-311+G(2df,2pd)
 There are 72 shells and 214 basis functions

 Total QAlloc Memory Limit   2000 MB
 Mega-Array Size       188 MB
 MEM_STATIC part       192 MB

                       Distance Matrix (Angstroms)
             C (  1)   C (  2)   H (  3)   H (  4)   H (  5)   C (  6)
   C (  2)  1.582950
   H (  3)  1.086488  1.984682
   H (  4)  1.086577  1.988300  1.880369
   H (  5)  1.084966  1.987163  1.874710  1.871584
   C (  6)  2.625402  1.582950  2.615351  2.619476  3.407311
   H (  7)  2.210271  1.095333  2.310842  2.936812  2.280161  2.210270
   H (  8)  2.208780  1.095282  2.933032  2.311169  2.278100  2.208779
   H (  9)  2.615355  1.984684  2.155714  2.863646  3.475739  1.086488
   H ( 10)  3.407314  1.987167  3.475737  3.478711  3.973727  1.084966
   H ( 11)  2.619478  1.988301  2.863644  2.163864  3.478711  1.086577
             H (  7)   H (  8)   H (  9)   H ( 10)
   H (  8)  1.740633
   H (  9)  2.310843  2.933034
   H ( 10)  2.280163  2.278104  1.874708
   H ( 11)  2.936812  2.311170  1.880371  1.871583
 
 A cutoff of  1.0D-09 yielded   2560 shell pairs
 There are     22756 function pairs (     27987 Cartesian)
 Smallest overlap matrix eigenvalue = 1.02E-04

 Scale SEOQF with 1.000000e-01/1.000000e-01/1.000000e-01

 Standard Electronic Orientation quadrupole field applied
 Nucleus-field energy     =     0.0000000005 hartrees
 Requested basis set is 6-31G(d)
 There are 28 shells and 58 basis functions
 A cutoff of  1.0D-09 yielded    403 shell pairs
 There are      1774 function pairs (      1969 Cartesian)
 Smallest overlap matrix eigenvalue = 6.55E-03
 Guess from superposition of atomic densities
 Warning:  Energy on first SCF cycle will be non-variational
 SAD guess density has 26.000000 electrons
 Long-range K will be added via erf
 Coulomb attenuation parameter = 0.2 bohr**(-1)
 A restricted hybrid HF-DFT SCF calculation will be
 performed using Relaxed Constraint Minimization + Pulay DIIS
 Exchange:     0.2220 Hartree-Fock + 1.0000 wB97X-D + LR-HF
 Correlation:  1.0000 wB97X-D
 Using Euler-Maclaurin-Lebedev (75,302) quadrature formula
 Dispersion:   Grimme D
 SCF converges when DIIS error is below 1.0E-04
 using 3 threads for integral computing
 -------------------------------------------------------
 OpenMP Integral computing Module                
 Release: version 1.0, May 2013, Q-Chem Inc. Pittsburgh 
 -------------------------------------------------------
 using 3 threads for integral computing
 -------------------------------------------------------
 OpenMP Integral computing Module                
 Release: version 1.0, May 2013, Q-Chem Inc. Pittsburgh 
 -------------------------------------------------------
 ---------------------------------------
  Cycle       Energy         DIIS Error
 ---------------------------------------
    1    -119.5899911904      9.90E-02
    2    -119.0023606449      9.04E-03
    3    -119.0249815731      2.93E-03
    4    -119.0376813519      2.01E-03
    5    -119.0387109651      3.95E-04 Done RCA. Switching to DIIS
    6    -119.0393892960      2.87E-04
    7    -119.0394245258      7.30E-06 Convergence criterion met
 ---------------------------------------
 SCF time:  CPU 32.75 s  wall 11.35 s
 SCF   energy in the small basis set = -119.03942453
 Total energy in the small basis set = -119.03942453
 ----------------------------------------------------
  Cycle       Energy    
 ----------------------------------------------------
    1     -16.5187772824     -1.65E+01
 Long-range K will be added via erf
 Coulomb attenuation parameter = 0.2 bohr**(-1)
 A restricted hybrid HF-DFT SCF calculation will be
 performed using Relaxed Constraint Minimization + Pulay DIIS
 Exchange:     0.2220 Hartree-Fock + 1.0000 wB97X-D + LR-HF
 Correlation:  1.0000 wB97X-D
 Using Euler-Maclaurin-Lebedev (75,302) quadrature formula
 Dispersion:   Grimme D
 SCF converges when DIIS error is below 1.0E-05
 Basis2 calculation detected. Using small basis as guess for larger.
 SCFMinFind is unable to tell whether the solution found is close.
 Resetting ReadMinima to 0 and attempting to follow guess.
 SCFMinFind following SCF Guess.
 using 3 threads for integral computing
 -------------------------------------------------------
 OpenMP Integral computing Module                
 Release: version 1.0, May 2013, Q-Chem Inc. Pittsburgh 
 -------------------------------------------------------
 using 3 threads for integral computing
 -------------------------------------------------------
 OpenMP Integral computing Module                
 Release: version 1.0, May 2013, Q-Chem Inc. Pittsburgh 
 -------------------------------------------------------
 ---------------------------------------
  Cycle       Energy         DIIS Error
 ---------------------------------------
    1    -119.0606751437      4.23E-03
    2    -119.0824489223      7.00E-04 Done RCA. Switching to DIIS
    3    -119.0834930552      5.11E-04
    4    -119.0849231914      5.44E-05
    5    -119.0849402311      2.28E-05
    6    -119.0849432853      4.06E-06 Convergence criterion met
 ---------------------------------------
 SCF time:  CPU 101.60 s  wall 34.39 s
 SCF   energy in the final basis set = -119.08494329
 Total energy in the final basis set = -119.08494329
 
 --------------------------------------------------------------
 
                    Orbital Energies (a.u.)
 --------------------------------------------------------------
 
 Alpha MOs
 -- Occupied --
-10.2760 -10.2703 -10.2703  -0.8887  -0.7801  -0.6617  -0.5677  -0.5310
 -0.4902  -0.4844  -0.4149  -0.3990  -0.3783
 -- Virtual --
  0.0667   0.0900   0.0909   0.0933   0.1189   0.1280   0.1305   0.1308
  0.1427   0.1682   0.1700   0.1907   0.2068   0.2264   0.2563   0.2688
  0.2735   0.2748   0.2877   0.2972   0.3332   0.3392   0.4414   0.4507
  0.4655   0.4983   0.5021   0.5088   0.5398   0.5670   0.5858   0.6071
  0.6088   0.6096   0.6133   0.6462   0.6471   0.6474   0.7007   0.7231
  0.7232   0.7635   0.8075   0.8236   0.8602   0.8893   0.9357   0.9496
  1.0010   1.0015   1.0212   1.0814   1.1265   1.1925   1.1955   1.2183
  1.2264   1.2657   1.2766   1.2844   1.3055   1.3139   1.3647   1.3658
  1.3805   1.3847   1.3954   1.4360   1.4529   1.4569   1.4758   1.4931
  1.4939   1.5338   1.5386   1.5494   1.5686   1.6313   1.6535   1.7141
  1.7209   2.4848   2.5077   2.5397   2.5648   2.6335   2.6511   2.6834
  2.7304   2.7398   2.7627   2.7748   2.8166   2.8194   2.8494   2.8938
  2.9135   2.9351   2.9573   2.9696   2.9851   2.9923   3.0292   3.0853
  3.0981   3.1080   3.1429   3.2010   3.2081   3.2270   3.2519   3.2590
  3.3045   3.3205   3.3431   3.3575   3.3741   3.3812   3.4135   3.4376
  3.4380   3.4569   3.5158   3.5394   3.5506   3.5647   3.5707   3.5787
  3.6290   3.6452   3.6818   3.7161   3.7174   3.7645   3.8113   3.8317
  3.8596   3.8898   3.9055   3.9269   3.9367   3.9630   3.9883   4.0099
  4.0663   4.0944   4.1410   4.1434   4.1590   4.1832   4.2127   4.2610
  4.3126   4.3197   4.3334   4.3921   4.4491   4.4577   4.4724   4.5177
  4.5544   4.5983   4.6161   4.6593   4.7024   4.8171   4.8367   4.8685
  4.8886   4.8957   4.9432   4.9726   4.9903   4.9927   5.0180   5.0676
  5.0760   5.1040   5.1341   5.1423   5.1774   5.2510   5.3827   5.4179
  5.4615   5.5205   5.6526   5.6747   5.7500   5.7843   5.9955   6.1089
  6.1153   6.2734   6.2972   6.3336   6.3437   6.4560  25.1195  25.4334
 25.4419
 --------------------------------------------------------------
 
 -----------------------------------------------------------------
                    Cartesian Multipole Moments
 -----------------------------------------------------------------
    Charge (ESU x 10^10)
                 0.0000
    Dipole Moment (Debye)
         X      -0.0000      Y       0.0038      Z      -0.5229
       Tot       0.5229
    Quadrupole Moments (Debye-Ang)
        XX     -24.7871     XY       0.0000     YY     -20.8263
        XZ      -0.0000     YZ       0.0037     ZZ     -22.4378
    Octopole Moments (Debye-Ang^2)
       XXX      -0.0001    XXY       0.0546    XYY      -0.0000
       YYY       0.0372    XXZ      -6.7775    XYZ       0.0000
       YYZ      -0.3485    XZZ      -0.0000    YZZ       0.0088
       ZZZ      -5.6069
    Hexadecapole Moments (Debye-Ang^3)
      XXXX    -213.3909   XXXY       0.0000   XXYY     -42.4165
      XYYY       0.0000   YYYY     -44.3052   XXXZ      -0.0000
      XXYZ       0.0111   XYYZ      -0.0000   YYYZ       0.0014
      XXZZ     -46.1487   XYZZ       0.0000   YYZZ     -17.9958
      XZZZ      -0.0000   YZZZ       0.0094   ZZZZ     -75.1628
 -----------------------------------------------------------------
Archival summary:
1\1\cn0821\SP\ProcedureUnspecified\BasisUnspecified\38\r0852400\SunApr1207:15:412020SunApr1207:15:412020\0\\#,ProcedureUnspecified,BasisUnspecified,\\0,1\C\H,1,1.09528\H,1,1.09533,2,105.232\C,1,1.58295,2,109.778,3,-118.205,0\H,4,1.08497,1,94.4406,2,57.6139,0\H,4,1.08649,1,94.2145,2,177.565,0\H,4,1.08658,1,94.4509,2,-62.0303,0\C,1,1.58295,2,109.778,3,118.205,0\H,8,1.08497,1,94.4404,2,-57.6139,0\H,8,1.08649,1,94.2143,2,-177.565,0\H,8,1.08658,1,94.4508,2,62.0304,0\\\@

 Total job time:  50.25s(wall), 139.82s(cpu) 
 Sun Apr 12 07:15:41 2020

        *************************************************************
        *                                                           *
        *  Thank you very much for using Q-Chem.  Have a nice day.  *
        *                                                           *
        *************************************************************


