                  Welcome to Q-Chem
     A Quantum Leap Into The Future Of Chemistry


 Q-Chem 5.3 (devel), Q-Chem, Inc., Pleasanton, CA (2020)

 Yihan Shao,  Zhengting Gan,  E. Epifanovsky,  A. T. B. Gilbert,  M. Wormit,  
 J. Kussmann,  A. W. Lange,  A. Behn,  Jia Deng,  Xintian Feng,  D. Ghosh,  
 M. Goldey,  P. R. Horn,  L. D. Jacobson,  I. Kaliman,  T. Kus,  A. Landau,  
 Jie Liu,  E. I. Proynov,  R. M. Richard,  R. P. Steele,  E. J. Sundstrom,  
 H. L. Woodcock III,  P. M. Zimmerman,  D. Zuev,  B. Alam,  B. Albrecht,  
 E. Alguire,  S. A. Baeppler,  D. Barton,  Z. Benda,  Y. A. Bernard,  
 E. J. Berquist,  K. B. Bravaya,  H. Burton,  K. Carter-Fenk,  D. Casanova,  
 Chun-Min Chang,  Yunqing Chen,  A. Chien,  K. D. Closser,  M. P. Coons,  
 S. Coriani,  S. Dasgupta,  A. L. Dempwolff,  M. Diedenhofen,  Hainam Do,  
 R. G. Edgar,  Po-Tung Fang,  S. Faraji,  S. Fatehi,  Qingguo Feng,  
 J. Fosso-Tande,  J. Gayvert,  Qinghui Ge,  A. Ghysels,  G. Gidofalvi,  
 J. Gomes,  J. Gonthier,  A. Gunina,  D. Hait,  M. W. D. Hanson-Heine,  
 P. H. P. Harbach,  A. W. Hauser,  M. F. Herbst,  J. E. Herr,  
 E. G. Hohenstein,  Z. C. Holden,  Kerwin Hui,  B. C. Huynh,  T.-C. Jagau,  
 Hyunjun Ji,  B. Kaduk,  K. Khistyaev,  Jaehoon Kim,  P. Klunzinger,  K. Koh,  
 D. Kosenkov,  L. Koulias,  T. Kowalczyk,  C. M. Krauter,  A. Kunitsa,  
 Ka Un Lao,  A. Laurent,  K. V. Lawler,  Joonho Lee,  D. Lefrancois,  
 S. Lehtola,  D. S. Levine,  Yi-Pei Li,  You-Sheng Lin,  Fenglai Liu,  
 Kuan-Yu Liu,  E. Livshits,  M. Loipersberger,  A. Luenser,  P. Manohar,  
 E. Mansoor,  S. F. Manzer,  Shan-Ping Mao,  Yuezhi Mao,  N. Mardirossian,  
 A. V. Marenich,  T. Markovich,  L. A. Martinez-Martinez,  S. A. Maurer,  
 N. J. Mayhall,  S. C. McKenzie,  J.-M. Mewes,  P. Morgante,  A. F. Morrison,  
 J. W. Mullinax,  K. Nanda,  T. S. Nguyen-Beck,  R. Olivares-Amaya,  
 K. J. Oosterbaan,  J. A. Parkhill,  S. K. Paul,  F. Pavosevic,  Zheng Pei,  
 T. M. Perrine,  F. Plasser,  P. Pokhilko,  S. Prager,  A. Prociuk,  
 E. Ramos,  B. Rana,  D. R. Rehn,  F. Rob,  M. Scheurer,  M. Schneider,  
 N. Sergueev,  S. M. Sharada,  S. Sharma,  D. W. Small,  T. Stauch,  
 C. J. Stein,  T. Stein,  Yu-Chuan Su,  S. P. Veccham,  Zhen Tao,  
 A. J. W. Thom,  A. Tkatchenko,  T. Tsuchimochi,  N. M. Tubman,  L. Vogt,  
 M. L. Vidal,  O. Vydrov,  M. A. Watson,  J. Wenzel,  M. de Wergifosse,  
 T. A. Wesolowski,  A. White,  J. Witte,  A. Yamada,  Jun Yang,  K. Yao,  
 S. Yeganeh,  S. R. Yost,  Zhi-Qiang You,  A. Zech,  Igor Ying Zhang,  
 Xing Zhang,  Yan Zhao,  Ying Zhu,  B. R. Brooks,  G. K. L. Chan,  
 C. J. Cramer,  M. S. Gordon,  W. J. Hehre,  A. Klamt,  M. W. Schmidt,  
 C. D. Sherrill,  D. G. Truhlar,  A. Aspuru-Guzik,  R. Baer,  A. T. Bell,  
 N. A. Besley,  Jeng-Da Chai,  A. E. DePrince, III,  R. A. DiStasio Jr.,  
 A. Dreuw,  B. D. Dunietz,  T. R. Furlani,  Chao-Ping Hsu,  Yousung Jung,  
 Jing Kong,  D. S. Lambrecht,  WanZhen Liang,  C. Ochsenfeld,  
 V. A. Rassolov,  L. V. Slipchenko,  J. E. Subotnik,  T. Van Voorhis,  
 J. M. Herbert,  A. I. Krylov,  P. M. W. Gill,  M. Head-Gordon

 Contributors to earlier versions of Q-Chem not listed above: 
 R. D. Adamson,  B. Austin,  J. Baker,  G. J. O. Beran,  K. Brandhorst,  
 S. T. Brown,  E. F. C. Byrd,  A. K. Chakraborty,  C.-L. Cheng,  
 Siu Hung Chien,  D. M. Chipman,  D. L. Crittenden,  H. Dachsel,  
 R. J. Doerksen,  A. D. Dutoi,  L. Fusti-Molnar,  W. A. Goddard III,  
 A. Golubeva-Zadorozhnaya,  S. R. Gwaltney,  G. Hawkins,  A. Heyden,  
 S. Hirata,  G. Kedziora,  F. J. Keil,  C. Kelley,  Jihan Kim,  R. A. King,  
 R. Z. Khaliullin,  P. P. Korambath,  W. Kurlancheek,  A. M. Lee,  M. S. Lee,  
 S. V. Levchenko,  Ching Yeh Lin,  D. Liotard,  R. C. Lochan,  I. Lotan,  
 P. E. Maslen,  N. Nair,  D. P. O'Neill,  D. Neuhauser,  E. Neuscamman,  
 C. M. Oana,  R. Olson,  B. Peters,  R. Peverati,  P. A. Pieniazek,  
 Y. M. Rhee,  J. Ritchie,  M. A. Rohrdanz,  E. Rosta,  N. J. Russ,  
 H. F. Schaefer III,  N. E. Schultz,  N. Shenvi,  A. C. Simmonett,  A. Sodt,  
 D. Stuck,  K. S. Thanthiriwatte,  V. Vanovschi,  Tao Wang,  A. Warshel,  
 C. F. Williams,  Q. Wu,  X. Xu,  W. Zhang

 Please cite Q-Chem as follows:
 Y. Shao et al., Mol. Phys. 113, 184-215 (2015)
 DOI: 10.1080/00268976.2014.952696

 Q-Chem 5.3.0 for Intel X86 EM64T Linux

 Parts of Q-Chem use Armadillo 9.800.1 (Horizon Scraper).
 http://arma.sourceforge.net/

 Q-Chem begins on Tue Jul  7 01:38:37 2020  

Host: centos77-c4
0

     Scratch files written to /tmp/26964.centos77-h1/qchem102355//
Processing $rem in /opt/qchem-5.3.0-intel2020u1//config/preferences:
Processing $rem in /home/shihchengli/.qchemrc:

Checking the input file for inconsistencies... 	...done.

--------------------------------------------------------------
User input:
--------------------------------------------------------------
$rem
   JOBTYPE  sp
   EXCHANGE   omegaB97X-D
   BASIS   6-311+G(2df,2pd)
   UNRESTRICTED   False
   max_scf_cycles   250
   geom_opt_max_cycles   1500
   basis2 6-31G*
   scf_algorithm rca_diis
   SYM_IGNORE  TRUE
   print_input   true
   geom_opt_dmax   80
   pop_mulliken false
   XC_GRID 000075000302
$end

$molecule
0 1
C       1.2654519386     0.0168422434     0.2641793165
C       -0.0000000389     -0.0120713683     -0.5933749273
H       1.2527353519     -0.8583592138     0.9185065842
H       1.3773375680     0.8947231926     0.9019977682
H       2.1485500027     -0.0758261666     -0.3690303488
C       -1.2654520171     0.0168422547     0.2641793052
H       -0.0000002158     -0.8434333388     -1.3022237384
H       0.0000001943     0.9007448922     -1.1946629061
H       -1.2527354150     -0.8583591980     0.9185065554
H       -2.1485500749     -0.0758258080     -0.3690304127
H       -1.3773373544     0.8947231766     0.9019978228
$end
--------------------------------------------------------------
 ----------------------------------------------------------------
             Standard Nuclear Orientation (Angstroms)
    I     Atom           X                Y                Z
 ----------------------------------------------------------------
    1      C       1.2654519386     0.0168422434     0.2641793165
    2      C      -0.0000000389    -0.0120713683    -0.5933749273
    3      H       1.2527353519    -0.8583592138     0.9185065842
    4      H       1.3773375680     0.8947231926     0.9019977682
    5      H       2.1485500027    -0.0758261666    -0.3690303488
    6      C      -1.2654520171     0.0168422547     0.2641793052
    7      H      -0.0000002158    -0.8434333388    -1.3022237384
    8      H       0.0000001943     0.9007448922    -1.1946629061
    9      H      -1.2527354150    -0.8583591980     0.9185065554
   10      H      -2.1485500749    -0.0758258080    -0.3690304127
   11      H      -1.3773373544     0.8947231766     0.9019978228
 ----------------------------------------------------------------
 Nuclear Repulsion Energy =          82.62574004 hartrees
 There are       13 alpha and       13 beta electrons
 Requested basis set is 6-311+G(2df,2pd)
 There are 72 shells and 214 basis functions

 Total QAlloc Memory Limit   2000 MB
 Mega-Array Size       188 MB
 MEM_STATIC part       192 MB

                       Distance Matrix (Angstroms)
             C (  1)   C (  2)   H (  3)   H (  4)   H (  5)   C (  6)
   C (  2)  1.528922
   H (  3)  1.092833  2.138068
   H (  4)  1.090874  2.226090  1.757582
   H (  5)  1.090598  2.161172  1.752881  1.775457
   C (  6)  2.530904  1.528922  2.745066  2.856891  3.473464
   H (  7)  2.189763  1.092533  2.549748  3.126794  2.465023  2.189763
   H (  8)  2.123882  1.093060  3.021469  2.508601  2.500325  2.123882
   H (  9)  2.745066  2.138068  2.505471  3.160831  3.720061  1.092833
   H ( 10)  3.473464  2.161172  3.720061  3.871610  4.297100  1.090598
   H ( 11)  2.856890  2.226089  3.160831  2.754675  3.871610  1.090874
             H (  7)   H (  8)   H (  9)   H ( 10)
   H (  8)  1.747492
   H (  9)  2.549747  3.021470
   H ( 10)  2.465023  2.500325  1.752882
   H ( 11)  3.126794  2.508601  1.757582  1.775457
 
 A cutoff of  1.0D-09 yielded   2530 shell pairs
 There are     22576 function pairs (     27757 Cartesian)
 Smallest overlap matrix eigenvalue = 8.80E-05

 Scale SEOQF with 1.000000e-01/1.000000e-01/1.000000e-01

 Standard Electronic Orientation quadrupole field applied
 Nucleus-field energy     =     0.0000000006 hartrees
 Requested basis set is 6-31G(d)
 There are 28 shells and 58 basis functions
 A cutoff of  1.0D-09 yielded    402 shell pairs
 There are      1773 function pairs (      1968 Cartesian)
 Smallest overlap matrix eigenvalue = 6.79E-03
 Guess from superposition of atomic densities
 Warning:  Energy on first SCF cycle will be non-variational
 SAD guess density has 26.000000 electrons
 Long-range K will be added via erf
 Coulomb attenuation parameter = 0.2 bohr**(-1)
 A restricted hybrid HF-DFT SCF calculation will be
 performed using Relaxed Constraint Minimization + Pulay DIIS
 Exchange:     0.2220 Hartree-Fock + 1.0000 wB97X-D + LR-HF
 Correlation:  1.0000 wB97X-D
 Using Euler-Maclaurin-Lebedev (75,302) quadrature formula
 Dispersion:   Grimme D
 SCF converges when DIIS error is below 1.0E-04
 using 3 threads for integral computing
 -------------------------------------------------------
 OpenMP Integral computing Module                
 Release: version 1.0, May 2013, Q-Chem Inc. Pittsburgh 
 -------------------------------------------------------
 using 3 threads for integral computing
 -------------------------------------------------------
 OpenMP Integral computing Module                
 Release: version 1.0, May 2013, Q-Chem Inc. Pittsburgh 
 -------------------------------------------------------
 ---------------------------------------
  Cycle       Energy         DIIS Error
 ---------------------------------------
    1    -119.6067698484      1.00E-01
    2    -119.0644038644      8.97E-03
    3    -119.0853619558      2.46E-03
    4    -119.0991304542      1.68E-03
    5    -119.0998286160      2.69E-04 Done RCA. Switching to DIIS
    6    -119.1003385942      1.98E-04
    7    -119.1003556035      4.65E-06 Convergence criterion met
 ---------------------------------------
 SCF time:  CPU 21.46 s  wall 8.16 s
 SCF   energy in the small basis set = -119.10035560
 Total energy in the small basis set = -119.10035560
 ----------------------------------------------------
  Cycle       Energy    
 ----------------------------------------------------
    1     -16.5355023415     -1.65E+01
 Long-range K will be added via erf
 Coulomb attenuation parameter = 0.2 bohr**(-1)
 A restricted hybrid HF-DFT SCF calculation will be
 performed using Relaxed Constraint Minimization + Pulay DIIS
 Exchange:     0.2220 Hartree-Fock + 1.0000 wB97X-D + LR-HF
 Correlation:  1.0000 wB97X-D
 Using Euler-Maclaurin-Lebedev (75,302) quadrature formula
 Dispersion:   Grimme D
 SCF converges when DIIS error is below 1.0E-05
 Basis2 calculation detected. Using small basis as guess for larger.
 SCFMinFind is unable to tell whether the solution found is close.
 Resetting ReadMinima to 0 and attempting to follow guess.
 SCFMinFind following SCF Guess.
 using 3 threads for integral computing
 -------------------------------------------------------
 OpenMP Integral computing Module                
 Release: version 1.0, May 2013, Q-Chem Inc. Pittsburgh 
 -------------------------------------------------------
 using 3 threads for integral computing
 -------------------------------------------------------
 OpenMP Integral computing Module                
 Release: version 1.0, May 2013, Q-Chem Inc. Pittsburgh 
 -------------------------------------------------------
 ---------------------------------------
  Cycle       Energy         DIIS Error
 ---------------------------------------
    1    -119.1194419055      4.21E-03
    2    -119.1414914386      5.98E-04 Done RCA. Switching to DIIS
    3    -119.1423272165      4.19E-04
    4    -119.1432889783      4.55E-05
    5    -119.1433036875      9.84E-06 Convergence criterion met
 ---------------------------------------
 SCF time:  CPU 42.39 s  wall 14.16 s
 SCF   energy in the final basis set = -119.14330369
 Total energy in the final basis set = -119.14330369
 
 --------------------------------------------------------------
 
                    Orbital Energies (a.u.)
 --------------------------------------------------------------
 
 Alpha MOs
 -- Occupied --
-10.2755 -10.2650 -10.2650  -0.8802  -0.7765  -0.6785  -0.5445  -0.5228
 -0.4861  -0.4612  -0.4259  -0.4138  -0.4024
 -- Virtual --
  0.0690   0.0860   0.0906   0.0992   0.1251   0.1296   0.1337   0.1416
  0.1436   0.1704   0.1720   0.1914   0.2320   0.2383   0.2432   0.2670
  0.2838   0.2848   0.3097   0.3113   0.3350   0.3492   0.4567   0.4673
  0.4710   0.5090   0.5165   0.5179   0.5431   0.5613   0.5845   0.5850
  0.6223   0.6232   0.6402   0.6451   0.6578   0.6597   0.7072   0.7238
  0.7269   0.7650   0.8229   0.8562   0.8721   0.8749   0.8890   0.9570
  0.9984   1.0435   1.0661   1.1394   1.1425   1.1740   1.1902   1.2116
  1.2157   1.2423   1.2678   1.2793   1.2837   1.2954   1.3281   1.3814
  1.3830   1.3945   1.3998   1.4466   1.4611   1.4700   1.4796   1.4847
  1.5200   1.5766   1.6047   1.6168   1.6334   1.6569   1.6804   1.7026
  1.7357   2.3701   2.4666   2.4831   2.4931   2.5349   2.5622   2.5887
  2.6339   2.7124   2.8123   2.8277   2.8441   2.8950   2.9290   2.9327
  2.9393   2.9439   3.0067   3.0129   3.0677   3.0733   3.0772   3.0956
  3.1180   3.1508   3.1653   3.1868   3.2204   3.2340   3.2765   3.3174
  3.3291   3.3312   3.3432   3.3469   3.3647   3.3788   3.4045   3.4507
  3.4653   3.4839   3.4882   3.5290   3.5535   3.5748   3.5984   3.6079
  3.6256   3.6755   3.6973   3.7052   3.7711   3.7884   3.8608   3.8756
  3.9155   3.9338   3.9541   3.9637   3.9726   3.9954   4.0463   4.0657
  4.0764   4.0948   4.1110   4.1295   4.1468   4.1672   4.2017   4.2131
  4.2151   4.2540   4.2601   4.3705   4.3746   4.4145   4.4207   4.4244
  4.4478   4.5245   4.5748   4.6414   4.6710   4.7983   4.8391   4.8847
  4.9026   4.9290   4.9608   4.9659   5.0372   5.0587   5.0959   5.1075
  5.1404   5.2497   5.2663   5.2672   5.2746   5.3357   5.3499   5.3771
  5.3821   5.3911   5.4553   5.5063   5.5397   5.5479   5.6120   5.7339
  5.9532   6.3797   6.3855   6.3949   6.4200   6.4599  25.1902  25.4434
 25.4442
 --------------------------------------------------------------
 
 -----------------------------------------------------------------
                    Cartesian Multipole Moments
 -----------------------------------------------------------------
    Charge (ESU x 10^10)
                 0.0000
    Dipole Moment (Debye)
         X       0.0000      Y       0.0012      Z      -0.0910
       Tot       0.0911
    Quadrupole Moments (Debye-Ang)
        XX     -22.2805     XY       0.0000     YY     -21.3833
        XZ       0.0000     YZ       0.3352     ZZ     -21.7322
    Octopole Moments (Debye-Ang^2)
       XXX       0.0000    XXY       0.1286    XYY       0.0000
       YYY      -0.0333    XXZ      -1.4078    XYZ       0.0000
       YYZ       0.4634    XZZ       0.0000    YZZ      -0.2124
       ZZZ      -0.4850
    Hexadecapole Moments (Debye-Ang^3)
      XXXX    -203.5653   XXXY      -0.0000   XXYY     -42.0558
      XYYY       0.0000   YYYY     -44.1072   XXXZ       0.0000
      XXYZ       0.9610   XYYZ      -0.0000   YYYZ      -0.0916
      XXZZ     -45.1387   XYZZ       0.0000   YYZZ     -17.1407
      XZZZ      -0.0000   YZZZ       0.5296   ZZZZ     -72.6217
 -----------------------------------------------------------------
Archival summary:
1\1\centos77-c4\SP\ProcedureUnspecified\BasisUnspecified\38\shihchen\TueJul701:39:022020TueJul701:39:022020\0\\#,ProcedureUnspecified,BasisUnspecified,\\0,1\C\H,1,1.09253\H,1,1.09306,2,106.174\C,1,1.52892,2,112.228,3,116.604,0\H,4,1.0906,1,110.056,2,-48.9457,0\H,4,1.09087,1,115.344,2,-172.691,0\H,4,1.09283,1,108.123,2,67.3633,0\C,1,1.52892,2,112.229,3,-116.604,0\H,8,1.0906,1,110.056,2,48.9457,0\H,8,1.09087,1,115.344,2,172.691,0\H,8,1.09283,1,108.123,2,-67.3633,0\\\@

 Total job time:  25.21s(wall), 67.42s(cpu) 
 Tue Jul  7 01:39:02 2020

        *************************************************************
        *                                                           *
        *  Thank you very much for using Q-Chem.  Have a nice day.  *
        *                                                           *
        *************************************************************


