                  Welcome to Q-Chem
     A Quantum Leap Into The Future Of Chemistry


 Q-Chem 5.3 (devel), Q-Chem, Inc., Pleasanton, CA (2020)

 Yihan Shao,  Zhengting Gan,  E. Epifanovsky,  A. T. B. Gilbert,  M. Wormit,  
 J. Kussmann,  A. W. Lange,  A. Behn,  Jia Deng,  Xintian Feng,  D. Ghosh,  
 M. Goldey,  P. R. Horn,  L. D. Jacobson,  I. Kaliman,  T. Kus,  A. Landau,  
 Jie Liu,  E. I. Proynov,  R. M. Richard,  R. P. Steele,  E. J. Sundstrom,  
 H. L. Woodcock III,  P. M. Zimmerman,  D. Zuev,  B. Alam,  B. Albrecht,  
 E. Alguire,  S. A. Baeppler,  D. Barton,  Z. Benda,  Y. A. Bernard,  
 E. J. Berquist,  K. B. Bravaya,  H. Burton,  K. Carter-Fenk,  D. Casanova,  
 Chun-Min Chang,  Yunqing Chen,  A. Chien,  K. D. Closser,  M. P. Coons,  
 S. Coriani,  S. Dasgupta,  A. L. Dempwolff,  M. Diedenhofen,  Hainam Do,  
 R. G. Edgar,  Po-Tung Fang,  S. Faraji,  S. Fatehi,  Qingguo Feng,  
 J. Fosso-Tande,  J. Gayvert,  Qinghui Ge,  A. Ghysels,  G. Gidofalvi,  
 J. Gomes,  J. Gonthier,  A. Gunina,  D. Hait,  M. W. D. Hanson-Heine,  
 P. H. P. Harbach,  A. W. Hauser,  M. F. Herbst,  J. E. Herr,  
 E. G. Hohenstein,  Z. C. Holden,  Kerwin Hui,  B. C. Huynh,  T.-C. Jagau,  
 Hyunjun Ji,  B. Kaduk,  K. Khistyaev,  Jaehoon Kim,  P. Klunzinger,  K. Koh,  
 D. Kosenkov,  L. Koulias,  T. Kowalczyk,  C. M. Krauter,  A. Kunitsa,  
 Ka Un Lao,  A. Laurent,  K. V. Lawler,  Joonho Lee,  D. Lefrancois,  
 S. Lehtola,  D. S. Levine,  Yi-Pei Li,  You-Sheng Lin,  Fenglai Liu,  
 Kuan-Yu Liu,  E. Livshits,  M. Loipersberger,  A. Luenser,  P. Manohar,  
 E. Mansoor,  S. F. Manzer,  Shan-Ping Mao,  Yuezhi Mao,  N. Mardirossian,  
 A. V. Marenich,  T. Markovich,  L. A. Martinez-Martinez,  S. A. Maurer,  
 N. J. Mayhall,  S. C. McKenzie,  J.-M. Mewes,  P. Morgante,  A. F. Morrison,  
 J. W. Mullinax,  K. Nanda,  T. S. Nguyen-Beck,  R. Olivares-Amaya,  
 K. J. Oosterbaan,  J. A. Parkhill,  S. K. Paul,  F. Pavosevic,  Zheng Pei,  
 T. M. Perrine,  F. Plasser,  P. Pokhilko,  S. Prager,  A. Prociuk,  
 E. Ramos,  B. Rana,  D. R. Rehn,  F. Rob,  M. Scheurer,  M. Schneider,  
 N. Sergueev,  S. M. Sharada,  S. Sharma,  D. W. Small,  T. Stauch,  
 C. J. Stein,  T. Stein,  Yu-Chuan Su,  S. P. Veccham,  Zhen Tao,  
 A. J. W. Thom,  A. Tkatchenko,  T. Tsuchimochi,  N. M. Tubman,  L. Vogt,  
 M. L. Vidal,  O. Vydrov,  M. A. Watson,  J. Wenzel,  M. de Wergifosse,  
 T. A. Wesolowski,  A. White,  J. Witte,  A. Yamada,  Jun Yang,  K. Yao,  
 S. Yeganeh,  S. R. Yost,  Zhi-Qiang You,  A. Zech,  Igor Ying Zhang,  
 Xing Zhang,  Yan Zhao,  Ying Zhu,  B. R. Brooks,  G. K. L. Chan,  
 C. J. Cramer,  M. S. Gordon,  W. J. Hehre,  A. Klamt,  M. W. Schmidt,  
 C. D. Sherrill,  D. G. Truhlar,  A. Aspuru-Guzik,  R. Baer,  A. T. Bell,  
 N. A. Besley,  Jeng-Da Chai,  A. E. DePrince, III,  R. A. DiStasio Jr.,  
 A. Dreuw,  B. D. Dunietz,  T. R. Furlani,  Chao-Ping Hsu,  Yousung Jung,  
 Jing Kong,  D. S. Lambrecht,  WanZhen Liang,  C. Ochsenfeld,  
 V. A. Rassolov,  L. V. Slipchenko,  J. E. Subotnik,  T. Van Voorhis,  
 J. M. Herbert,  A. I. Krylov,  P. M. W. Gill,  M. Head-Gordon

 Contributors to earlier versions of Q-Chem not listed above: 
 R. D. Adamson,  B. Austin,  J. Baker,  G. J. O. Beran,  K. Brandhorst,  
 S. T. Brown,  E. F. C. Byrd,  A. K. Chakraborty,  C.-L. Cheng,  
 Siu Hung Chien,  D. M. Chipman,  D. L. Crittenden,  H. Dachsel,  
 R. J. Doerksen,  A. D. Dutoi,  L. Fusti-Molnar,  W. A. Goddard III,  
 A. Golubeva-Zadorozhnaya,  S. R. Gwaltney,  G. Hawkins,  A. Heyden,  
 S. Hirata,  G. Kedziora,  F. J. Keil,  C. Kelley,  Jihan Kim,  R. A. King,  
 R. Z. Khaliullin,  P. P. Korambath,  W. Kurlancheek,  A. M. Lee,  M. S. Lee,  
 S. V. Levchenko,  Ching Yeh Lin,  D. Liotard,  R. C. Lochan,  I. Lotan,  
 P. E. Maslen,  N. Nair,  D. P. O'Neill,  D. Neuhauser,  E. Neuscamman,  
 C. M. Oana,  R. Olson,  B. Peters,  R. Peverati,  P. A. Pieniazek,  
 Y. M. Rhee,  J. Ritchie,  M. A. Rohrdanz,  E. Rosta,  N. J. Russ,  
 H. F. Schaefer III,  N. E. Schultz,  N. Shenvi,  A. C. Simmonett,  A. Sodt,  
 D. Stuck,  K. S. Thanthiriwatte,  V. Vanovschi,  Tao Wang,  A. Warshel,  
 C. F. Williams,  Q. Wu,  X. Xu,  W. Zhang

 Please cite Q-Chem as follows:
 Y. Shao et al., Mol. Phys. 113, 184-215 (2015)
 DOI: 10.1080/00268976.2014.952696

 Q-Chem 5.3.0 for Intel X86 EM64T Linux

 Parts of Q-Chem use Armadillo 9.800.1 (Horizon Scraper).
 http://arma.sourceforge.net/

 Q-Chem begins on Tue Jul  7 01:08:00 2020  

Host: centos77-c4
0

     Scratch files written to /tmp/26964.centos77-h1/qchem97132//
Processing $rem in /opt/qchem-5.3.0-intel2020u1//config/preferences:
Processing $rem in /home/shihchengli/.qchemrc:

Checking the input file for inconsistencies... 	...done.

--------------------------------------------------------------
User input:
--------------------------------------------------------------
$rem
   JOBTYPE  sp
   EXCHANGE   omegaB97X-D
   BASIS   6-311+G(2df,2pd)
   UNRESTRICTED   False
   max_scf_cycles   250
   geom_opt_max_cycles   1500
   basis2 6-31G*
   scf_algorithm rca_diis
   SYM_IGNORE  TRUE
   print_input   true
   geom_opt_dmax   80
   pop_mulliken false
   XC_GRID 000075000302
$end

$molecule
0 1
C       1.2649630564     -0.0703843559     0.2550268180
C       0.0000000210     -0.1429830887     -0.5955697468
H       1.4373088886     -0.8296600925     1.0176927490
H       1.1261356984     0.8778755217     0.7833745168
H       2.1585519058     0.0548935927     -0.3565454628
C       -1.2649628832     -0.0703843828     0.2550270891
H       -0.0000000184     -0.7990642373     -1.4653590803
H       -0.0000002341     0.8765975151     -0.9971235377
H       -1.4373089307     -0.8296598784     1.0176931283
H       -2.1585515185     0.0548940156     -0.3565454306
H       -1.1261360458     0.8778760564     0.7833739759
$end
--------------------------------------------------------------
 ----------------------------------------------------------------
             Standard Nuclear Orientation (Angstroms)
    I     Atom           X                Y                Z
 ----------------------------------------------------------------
    1      C       1.2649630564    -0.0703843559     0.2550268180
    2      C       0.0000000210    -0.1429830887    -0.5955697468
    3      H       1.4373088886    -0.8296600925     1.0176927490
    4      H       1.1261356984     0.8778755217     0.7833745168
    5      H       2.1585519058     0.0548935927    -0.3565454628
    6      C      -1.2649628832    -0.0703843828     0.2550270891
    7      H      -0.0000000184    -0.7990642373    -1.4653590803
    8      H      -0.0000002341     0.8765975151    -0.9971235377
    9      H      -1.4373089307    -0.8296598784     1.0176931283
   10      H      -2.1585515185     0.0548940156    -0.3565454306
   11      H      -1.1261360458     0.8778760564     0.7833739759
 ----------------------------------------------------------------
 Nuclear Repulsion Energy =          82.93853399 hartrees
 There are       13 alpha and       13 beta electrons
 Requested basis set is 6-311+G(2df,2pd)
 There are 72 shells and 214 basis functions

 Total QAlloc Memory Limit   2000 MB
 Mega-Array Size       188 MB
 MEM_STATIC part       192 MB

                       Distance Matrix (Angstroms)
             C (  1)   C (  2)   H (  3)   H (  4)   H (  5)   C (  6)
   C (  2)  1.526079
   H (  3)  1.089891  2.267156
   H (  4)  1.094359  2.052272  1.751403
   H (  5)  1.090053  2.180742  1.786381  1.744305
   C (  6)  2.529926  1.526079  2.908682  2.625967  3.479967
   H (  7)  2.256288  1.089484  2.869205  3.022766  2.572559  2.256288
   H (  8)  2.016132  1.095806  3.006103  2.106741  2.396849  2.016132
   H (  9)  2.908682  2.267157  2.874618  3.088985  3.949833  1.089891
   H ( 10)  3.479967  2.180741  3.949833  3.572938  4.317103  1.090053
   H ( 11)  2.625967  2.052272  3.088986  2.252272  3.572939  1.094359
             H (  7)   H (  8)   H (  9)   H ( 10)
   H (  8)  1.739853
   H (  9)  2.869206  3.006103
   H ( 10)  2.572558  2.396848  1.786381
   H ( 11)  3.022766  2.106740  1.751403  1.744304
 
 A cutoff of  1.0D-09 yielded   2538 shell pairs
 There are     22570 function pairs (     27751 Cartesian)
 Smallest overlap matrix eigenvalue = 9.43E-05

 Scale SEOQF with 1.000000e-01/1.000000e-01/1.000000e-01

 Standard Electronic Orientation quadrupole field applied
 Nucleus-field energy     =     0.0000000006 hartrees
 Requested basis set is 6-31G(d)
 There are 28 shells and 58 basis functions
 A cutoff of  1.0D-09 yielded    402 shell pairs
 There are      1773 function pairs (      1968 Cartesian)
 Smallest overlap matrix eigenvalue = 6.35E-03
 Guess from superposition of atomic densities
 Warning:  Energy on first SCF cycle will be non-variational
 SAD guess density has 26.000000 electrons
 Long-range K will be added via erf
 Coulomb attenuation parameter = 0.2 bohr**(-1)
 A restricted hybrid HF-DFT SCF calculation will be
 performed using Relaxed Constraint Minimization + Pulay DIIS
 Exchange:     0.2220 Hartree-Fock + 1.0000 wB97X-D + LR-HF
 Correlation:  1.0000 wB97X-D
 Using Euler-Maclaurin-Lebedev (75,302) quadrature formula
 Dispersion:   Grimme D
 SCF converges when DIIS error is below 1.0E-04
 using 3 threads for integral computing
 -------------------------------------------------------
 OpenMP Integral computing Module                
 Release: version 1.0, May 2013, Q-Chem Inc. Pittsburgh 
 -------------------------------------------------------
 using 3 threads for integral computing
 -------------------------------------------------------
 OpenMP Integral computing Module                
 Release: version 1.0, May 2013, Q-Chem Inc. Pittsburgh 
 -------------------------------------------------------
 ---------------------------------------
  Cycle       Energy         DIIS Error
 ---------------------------------------
    1    -119.6425786375      1.01E-01
    2    -119.0504531500      8.94E-03
    3    -119.0713366661      2.50E-03
    4    -119.0850303939      1.71E-03
    5    -119.0857517500      2.71E-04 Done RCA. Switching to DIIS
    6    -119.0862817666      2.01E-04
    7    -119.0862992100      4.60E-06 Convergence criterion met
 ---------------------------------------
 SCF time:  CPU 19.94 s  wall 7.29 s
 SCF   energy in the small basis set = -119.08629921
 Total energy in the small basis set = -119.08629921
 ----------------------------------------------------
  Cycle       Energy    
 ----------------------------------------------------
    1     -16.5408025730     -1.65E+01
 Long-range K will be added via erf
 Coulomb attenuation parameter = 0.2 bohr**(-1)
 A restricted hybrid HF-DFT SCF calculation will be
 performed using Relaxed Constraint Minimization + Pulay DIIS
 Exchange:     0.2220 Hartree-Fock + 1.0000 wB97X-D + LR-HF
 Correlation:  1.0000 wB97X-D
 Using Euler-Maclaurin-Lebedev (75,302) quadrature formula
 Dispersion:   Grimme D
 SCF converges when DIIS error is below 1.0E-05
 Basis2 calculation detected. Using small basis as guess for larger.
 SCFMinFind is unable to tell whether the solution found is close.
 Resetting ReadMinima to 0 and attempting to follow guess.
 SCFMinFind following SCF Guess.
 using 3 threads for integral computing
 -------------------------------------------------------
 OpenMP Integral computing Module                
 Release: version 1.0, May 2013, Q-Chem Inc. Pittsburgh 
 -------------------------------------------------------
 using 3 threads for integral computing
 -------------------------------------------------------
 OpenMP Integral computing Module                
 Release: version 1.0, May 2013, Q-Chem Inc. Pittsburgh 
 -------------------------------------------------------
 ---------------------------------------
  Cycle       Energy         DIIS Error
 ---------------------------------------
    1    -119.1059730023      4.21E-03
    2    -119.1279622327      5.99E-04 Done RCA. Switching to DIIS
    3    -119.1287980713      4.20E-04
    4    -119.1297631710      4.61E-05
    5    -119.1297781576      1.06E-05
    6    -119.1297789086      3.93E-06 Convergence criterion met
 ---------------------------------------
 SCF time:  CPU 51.37 s  wall 17.36 s
 SCF   energy in the final basis set = -119.12977891
 Total energy in the final basis set = -119.12977891
 
 --------------------------------------------------------------
 
                    Orbital Energies (a.u.)
 --------------------------------------------------------------
 
 Alpha MOs
 -- Occupied --
-10.2759 -10.2668 -10.2668  -0.8863  -0.7777  -0.6778  -0.5509  -0.5233
 -0.4891  -0.4545  -0.4231  -0.4196  -0.3972
 -- Virtual --
  0.0685   0.0859   0.0894   0.0964   0.1249   0.1290   0.1339   0.1368
  0.1429   0.1721   0.1732   0.1924   0.2242   0.2427   0.2457   0.2611
  0.2840   0.2872   0.3091   0.3130   0.3304   0.3510   0.4589   0.4686
  0.4721   0.4994   0.5119   0.5150   0.5408   0.5721   0.5878   0.5895
  0.6049   0.6277   0.6399   0.6445   0.6483   0.6723   0.7099   0.7254
  0.7259   0.7705   0.8149   0.8420   0.8653   0.8925   0.9271   0.9813
  1.0182   1.0183   1.0985   1.1106   1.1267   1.1549   1.1940   1.2013
  1.2321   1.2527   1.2656   1.2902   1.3129   1.3230   1.3308   1.3643
  1.3901   1.4026   1.4265   1.4323   1.4478   1.4670   1.5047   1.5343
  1.5440   1.5577   1.5680   1.6196   1.6305   1.6395   1.6560   1.7004
  1.7512   2.3909   2.4312   2.4499   2.5329   2.5585   2.6024   2.6264
  2.6981   2.6994   2.7563   2.8181   2.8711   2.8930   2.9081   2.9242
  2.9701   2.9907   2.9999   3.0007   3.0600   3.0690   3.0888   3.0991
  3.1337   3.1732   3.1735   3.1967   3.2162   3.2432   3.2453   3.2963
  3.3096   3.3119   3.3407   3.3638   3.3918   3.3950   3.4282   3.4435
  3.4542   3.5055   3.5100   3.5194   3.5685   3.5790   3.5911   3.6143
  3.6158   3.6383   3.6487   3.7471   3.7897   3.8147   3.8568   3.8770
  3.8973   3.9085   3.9088   3.9516   3.9739   4.0207   4.0648   4.0889
  4.0942   4.1139   4.1250   4.1508   4.1766   4.1800   4.2021   4.2157
  4.2326   4.2993   4.3318   4.3356   4.3553   4.4108   4.4240   4.4735
  4.5211   4.5869   4.5919   4.6450   4.7103   4.7990   4.8204   4.8748
  4.8935   4.9540   4.9722   4.9845   4.9899   5.0417   5.0921   5.1353
  5.1428   5.2268   5.2363   5.2525   5.2689   5.3301   5.3672   5.3750
  5.3998   5.4120   5.4913   5.5520   5.5676   5.5985   5.7227   5.7440
  5.9688   6.3932   6.3966   6.4077   6.4329   6.5050  25.1662  25.4376
 25.4525
 --------------------------------------------------------------
 
 -----------------------------------------------------------------
                    Cartesian Multipole Moments
 -----------------------------------------------------------------
    Charge (ESU x 10^10)
                -0.0000
    Dipole Moment (Debye)
         X      -0.0000      Y       0.1918      Z      -0.0902
       Tot       0.2119
    Quadrupole Moments (Debye-Ang)
        XX     -22.1325     XY      -0.0000     YY     -21.6402
        XZ      -0.0000     YZ      -0.1273     ZZ     -21.7194
    Octopole Moments (Debye-Ang^2)
       XXX       0.0000    XXY       1.0762    XYY      -0.0000
       YYY       4.3339    XXZ      -1.3261    XYZ       0.0000
       YYZ       0.5501    XZZ      -0.0000    YZZ       0.1048
       ZZZ      -0.3361
    Hexadecapole Moments (Debye-Ang^3)
      XXXX    -200.0289   XXXY      -0.0000   XXYY     -42.3484
      XYYY       0.0000   YYYY     -44.3115   XXXZ      -0.0000
      XXYZ      -1.7264   XYYZ       0.0000   YYYZ      -0.8278
      XXZZ     -44.7520   XYZZ       0.0000   YYZZ     -17.6236
      XZZZ       0.0000   YZZZ      -0.2506   ZZZZ     -71.1675
 -----------------------------------------------------------------
Archival summary:
1\1\centos77-c4\SP\ProcedureUnspecified\BasisUnspecified\38\shihchen\TueJul701:08:272020TueJul701:08:272020\0\\#,ProcedureUnspecified,BasisUnspecified,\\0,1\C\H,1,1.08948\H,1,1.09581,2,105.531\C,1,1.52608,2,118.27,3,-109.754,0\H,4,1.08989,1,119.207,2,-83.1284,0\H,4,1.09005,1,111.855,2,47.2363,0\H,4,1.09436,1,101.839,2,160.012,0\C,1,1.52608,2,118.27,3,109.754,0\H,8,1.08989,1,119.207,2,83.1284,0\H,8,1.09005,1,111.855,2,-47.2364,0\H,8,1.09436,1,101.839,2,-160.011,0\\\@

 Total job time:  27.55s(wall), 74.88s(cpu) 
 Tue Jul  7 01:08:27 2020

        *************************************************************
        *                                                           *
        *  Thank you very much for using Q-Chem.  Have a nice day.  *
        *                                                           *
        *************************************************************


