                  Welcome to Q-Chem
     A Quantum Leap Into The Future Of Chemistry


 Q-Chem 5.3 (devel), Q-Chem, Inc., Pleasanton, CA (2020)

 Yihan Shao,  Zhengting Gan,  E. Epifanovsky,  A. T. B. Gilbert,  M. Wormit,  
 J. Kussmann,  A. W. Lange,  A. Behn,  Jia Deng,  Xintian Feng,  D. Ghosh,  
 M. Goldey,  P. R. Horn,  L. D. Jacobson,  I. Kaliman,  T. Kus,  A. Landau,  
 Jie Liu,  E. I. Proynov,  R. M. Richard,  R. P. Steele,  E. J. Sundstrom,  
 H. L. Woodcock III,  P. M. Zimmerman,  D. Zuev,  B. Alam,  B. Albrecht,  
 E. Alguire,  S. A. Baeppler,  D. Barton,  Z. Benda,  Y. A. Bernard,  
 E. J. Berquist,  K. B. Bravaya,  H. Burton,  K. Carter-Fenk,  D. Casanova,  
 Chun-Min Chang,  Yunqing Chen,  A. Chien,  K. D. Closser,  M. P. Coons,  
 S. Coriani,  S. Dasgupta,  A. L. Dempwolff,  M. Diedenhofen,  Hainam Do,  
 R. G. Edgar,  Po-Tung Fang,  S. Faraji,  S. Fatehi,  Qingguo Feng,  
 J. Fosso-Tande,  J. Gayvert,  Qinghui Ge,  A. Ghysels,  G. Gidofalvi,  
 J. Gomes,  J. Gonthier,  A. Gunina,  D. Hait,  M. W. D. Hanson-Heine,  
 P. H. P. Harbach,  A. W. Hauser,  M. F. Herbst,  J. E. Herr,  
 E. G. Hohenstein,  Z. C. Holden,  Kerwin Hui,  B. C. Huynh,  T.-C. Jagau,  
 Hyunjun Ji,  B. Kaduk,  K. Khistyaev,  Jaehoon Kim,  P. Klunzinger,  K. Koh,  
 D. Kosenkov,  L. Koulias,  T. Kowalczyk,  C. M. Krauter,  A. Kunitsa,  
 Ka Un Lao,  A. Laurent,  K. V. Lawler,  Joonho Lee,  D. Lefrancois,  
 S. Lehtola,  D. S. Levine,  Yi-Pei Li,  You-Sheng Lin,  Fenglai Liu,  
 Kuan-Yu Liu,  E. Livshits,  M. Loipersberger,  A. Luenser,  P. Manohar,  
 E. Mansoor,  S. F. Manzer,  Shan-Ping Mao,  Yuezhi Mao,  N. Mardirossian,  
 A. V. Marenich,  T. Markovich,  L. A. Martinez-Martinez,  S. A. Maurer,  
 N. J. Mayhall,  S. C. McKenzie,  J.-M. Mewes,  P. Morgante,  A. F. Morrison,  
 J. W. Mullinax,  K. Nanda,  T. S. Nguyen-Beck,  R. Olivares-Amaya,  
 K. J. Oosterbaan,  J. A. Parkhill,  S. K. Paul,  F. Pavosevic,  Zheng Pei,  
 T. M. Perrine,  F. Plasser,  P. Pokhilko,  S. Prager,  A. Prociuk,  
 E. Ramos,  B. Rana,  D. R. Rehn,  F. Rob,  M. Scheurer,  M. Schneider,  
 N. Sergueev,  S. M. Sharada,  S. Sharma,  D. W. Small,  T. Stauch,  
 C. J. Stein,  T. Stein,  Yu-Chuan Su,  S. P. Veccham,  Zhen Tao,  
 A. J. W. Thom,  A. Tkatchenko,  T. Tsuchimochi,  N. M. Tubman,  L. Vogt,  
 M. L. Vidal,  O. Vydrov,  M. A. Watson,  J. Wenzel,  M. de Wergifosse,  
 T. A. Wesolowski,  A. White,  J. Witte,  A. Yamada,  Jun Yang,  K. Yao,  
 S. Yeganeh,  S. R. Yost,  Zhi-Qiang You,  A. Zech,  Igor Ying Zhang,  
 Xing Zhang,  Yan Zhao,  Ying Zhu,  B. R. Brooks,  G. K. L. Chan,  
 C. J. Cramer,  M. S. Gordon,  W. J. Hehre,  A. Klamt,  M. W. Schmidt,  
 C. D. Sherrill,  D. G. Truhlar,  A. Aspuru-Guzik,  R. Baer,  A. T. Bell,  
 N. A. Besley,  Jeng-Da Chai,  A. E. DePrince, III,  R. A. DiStasio Jr.,  
 A. Dreuw,  B. D. Dunietz,  T. R. Furlani,  Chao-Ping Hsu,  Yousung Jung,  
 Jing Kong,  D. S. Lambrecht,  WanZhen Liang,  C. Ochsenfeld,  
 V. A. Rassolov,  L. V. Slipchenko,  J. E. Subotnik,  T. Van Voorhis,  
 J. M. Herbert,  A. I. Krylov,  P. M. W. Gill,  M. Head-Gordon

 Contributors to earlier versions of Q-Chem not listed above: 
 R. D. Adamson,  B. Austin,  J. Baker,  G. J. O. Beran,  K. Brandhorst,  
 S. T. Brown,  E. F. C. Byrd,  A. K. Chakraborty,  C.-L. Cheng,  
 Siu Hung Chien,  D. M. Chipman,  D. L. Crittenden,  H. Dachsel,  
 R. J. Doerksen,  A. D. Dutoi,  L. Fusti-Molnar,  W. A. Goddard III,  
 A. Golubeva-Zadorozhnaya,  S. R. Gwaltney,  G. Hawkins,  A. Heyden,  
 S. Hirata,  G. Kedziora,  F. J. Keil,  C. Kelley,  Jihan Kim,  R. A. King,  
 R. Z. Khaliullin,  P. P. Korambath,  W. Kurlancheek,  A. M. Lee,  M. S. Lee,  
 S. V. Levchenko,  Ching Yeh Lin,  D. Liotard,  R. C. Lochan,  I. Lotan,  
 P. E. Maslen,  N. Nair,  D. P. O'Neill,  D. Neuhauser,  E. Neuscamman,  
 C. M. Oana,  R. Olson,  B. Peters,  R. Peverati,  P. A. Pieniazek,  
 Y. M. Rhee,  J. Ritchie,  M. A. Rohrdanz,  E. Rosta,  N. J. Russ,  
 H. F. Schaefer III,  N. E. Schultz,  N. Shenvi,  A. C. Simmonett,  A. Sodt,  
 D. Stuck,  K. S. Thanthiriwatte,  V. Vanovschi,  Tao Wang,  A. Warshel,  
 C. F. Williams,  Q. Wu,  X. Xu,  W. Zhang

 Please cite Q-Chem as follows:
 Y. Shao et al., Mol. Phys. 113, 184-215 (2015)
 DOI: 10.1080/00268976.2014.952696

 Q-Chem 5.3.0 for Intel X86 EM64T Linux

 Parts of Q-Chem use Armadillo 9.800.1 (Horizon Scraper).
 http://arma.sourceforge.net/

 Q-Chem begins on Tue Jul  7 01:05:17 2020  

Host: centos77-c4
0

     Scratch files written to /tmp/26964.centos77-h1/qchem96673//
Processing $rem in /opt/qchem-5.3.0-intel2020u1//config/preferences:
Processing $rem in /home/shihchengli/.qchemrc:

Checking the input file for inconsistencies... 	...done.

--------------------------------------------------------------
User input:
--------------------------------------------------------------
$rem
   JOBTYPE  sp
   EXCHANGE   omegaB97X-D
   BASIS   6-311+G(2df,2pd)
   UNRESTRICTED   False
   max_scf_cycles   250
   geom_opt_max_cycles   1500
   basis2 6-31G*
   scf_algorithm rca_diis
   SYM_IGNORE  TRUE
   print_input   true
   geom_opt_dmax   80
   pop_mulliken false
   XC_GRID 000075000302
$end

$molecule
0 1
C       1.4914827004     -0.0062911548     0.2670110566
C       -0.0000000682     0.0214676195     -0.1713122641
H       1.8259910092     -0.8827531829     0.8226477680
H       1.8822003682     0.8893242256     0.7515803646
H       1.9609089652     -0.0551718400     -0.7201725529
C       -1.4914829597     -0.0062918094     0.2670104836
H       0.0000008659     -0.8032710082     -0.8930397348
H       -0.0000004036     0.8915883735     -0.8367359170
H       -1.8259913951     -0.8827538483     0.8226470865
H       -1.9609098649     -0.0551699508     -0.7201726863
H       -1.8821992780     0.8893232417     0.7515814147
$end
--------------------------------------------------------------
 ----------------------------------------------------------------
             Standard Nuclear Orientation (Angstroms)
    I     Atom           X                Y                Z
 ----------------------------------------------------------------
    1      C       1.4914827004    -0.0062911548     0.2670110566
    2      C      -0.0000000682     0.0214676195    -0.1713122641
    3      H       1.8259910092    -0.8827531829     0.8226477680
    4      H       1.8822003682     0.8893242256     0.7515803646
    5      H       1.9609089652    -0.0551718400    -0.7201725529
    6      C      -1.4914829597    -0.0062918094     0.2670104836
    7      H       0.0000008659    -0.8032710082    -0.8930397348
    8      H      -0.0000004036     0.8915883735    -0.8367359170
    9      H      -1.8259913951    -0.8827538483     0.8226470865
   10      H      -1.9609098649    -0.0551699508    -0.7201726863
   11      H      -1.8821992780     0.8893232417     0.7515814147
 ----------------------------------------------------------------
 Nuclear Repulsion Energy =          80.26061164 hartrees
 There are       13 alpha and       13 beta electrons
 Requested basis set is 6-311+G(2df,2pd)
 There are 72 shells and 214 basis functions

 Total QAlloc Memory Limit   2000 MB
 Mega-Array Size       188 MB
 MEM_STATIC part       192 MB

                       Distance Matrix (Angstroms)
             C (  1)   C (  2)   H (  3)   H (  4)   H (  5)   C (  6)
   C (  2)  1.554805
   H (  3)  1.090327  2.267116
   H (  4)  1.090685  2.268829  1.774392
   H (  5)  1.094204  2.037716  1.755958  1.750521
   C (  6)  2.982966  1.554805  3.475996  3.524014  3.591090
   H (  7)  2.050710  1.095940  2.506819  3.018663  2.105872  2.050711
   H (  8)  2.061302  1.095399  3.039093  2.462810  2.180621  2.061302
   H (  9)  3.475997  2.267116  3.651982  4.110474  4.172026  1.090327
   H ( 10)  3.591091  2.037716  4.172027  4.222277  3.921819  1.094204
   H ( 11)  3.524012  2.268828  4.110472  3.764400  4.222276  1.090685
             H (  7)   H (  8)   H (  9)   H ( 10)
   H (  8)  1.695794
   H (  9)  2.506820  3.039093
   H ( 10)  2.105875  2.180620  1.755959
   H ( 11)  3.018664  2.462809  1.774392  1.750521
 
 A cutoff of  1.0D-09 yielded   2463 shell pairs
 There are     21796 function pairs (     26771 Cartesian)
 Smallest overlap matrix eigenvalue = 8.44E-05

 Scale SEOQF with 1.000000e-01/1.000000e-01/1.000000e-01

 Standard Electronic Orientation quadrupole field applied
 Nucleus-field energy     =     0.0000000014 hartrees
 Requested basis set is 6-31G(d)
 There are 28 shells and 58 basis functions
 A cutoff of  1.0D-09 yielded    393 shell pairs
 There are      1764 function pairs (      1959 Cartesian)
 Smallest overlap matrix eigenvalue = 7.98E-03
 Guess from superposition of atomic densities
 Warning:  Energy on first SCF cycle will be non-variational
 SAD guess density has 26.000000 electrons
 Long-range K will be added via erf
 Coulomb attenuation parameter = 0.2 bohr**(-1)
 A restricted hybrid HF-DFT SCF calculation will be
 performed using Relaxed Constraint Minimization + Pulay DIIS
 Exchange:     0.2220 Hartree-Fock + 1.0000 wB97X-D + LR-HF
 Correlation:  1.0000 wB97X-D
 Using Euler-Maclaurin-Lebedev (75,302) quadrature formula
 Dispersion:   Grimme D
 SCF converges when DIIS error is below 1.0E-04
 using 3 threads for integral computing
 -------------------------------------------------------
 OpenMP Integral computing Module                
 Release: version 1.0, May 2013, Q-Chem Inc. Pittsburgh 
 -------------------------------------------------------
 using 3 threads for integral computing
 -------------------------------------------------------
 OpenMP Integral computing Module                
 Release: version 1.0, May 2013, Q-Chem Inc. Pittsburgh 
 -------------------------------------------------------
 ---------------------------------------
  Cycle       Energy         DIIS Error
 ---------------------------------------
    1    -119.5679626813      9.88E-02
    2    -119.0311783996      8.32E-03
    3    -119.0500299016      2.66E-03
    4    -119.0612483535      1.83E-03
    5    -119.0620926992      3.15E-04 Done RCA. Switching to DIIS
    6    -119.0626918613      2.38E-04
    7    -119.0627164455      4.27E-06 Convergence criterion met
 ---------------------------------------
 SCF time:  CPU 18.85 s  wall 6.95 s
 SCF   energy in the small basis set = -119.06271645
 Total energy in the small basis set = -119.06271645
 ----------------------------------------------------
  Cycle       Energy    
 ----------------------------------------------------
    1     -16.5133414136     -1.65E+01
 Long-range K will be added via erf
 Coulomb attenuation parameter = 0.2 bohr**(-1)
 A restricted hybrid HF-DFT SCF calculation will be
 performed using Relaxed Constraint Minimization + Pulay DIIS
 Exchange:     0.2220 Hartree-Fock + 1.0000 wB97X-D + LR-HF
 Correlation:  1.0000 wB97X-D
 Using Euler-Maclaurin-Lebedev (75,302) quadrature formula
 Dispersion:   Grimme D
 SCF converges when DIIS error is below 1.0E-05
 Basis2 calculation detected. Using small basis as guess for larger.
 SCFMinFind is unable to tell whether the solution found is close.
 Resetting ReadMinima to 0 and attempting to follow guess.
 SCFMinFind following SCF Guess.
 using 3 threads for integral computing
 -------------------------------------------------------
 OpenMP Integral computing Module                
 Release: version 1.0, May 2013, Q-Chem Inc. Pittsburgh 
 -------------------------------------------------------
 using 3 threads for integral computing
 -------------------------------------------------------
 OpenMP Integral computing Module                
 Release: version 1.0, May 2013, Q-Chem Inc. Pittsburgh 
 -------------------------------------------------------
 ---------------------------------------
  Cycle       Energy         DIIS Error
 ---------------------------------------
    1    -119.0826358676      4.21E-03
    2    -119.1045282795      5.71E-04 Done RCA. Switching to DIIS
    3    -119.1053471239      3.86E-04
    4    -119.1061657537      4.78E-05
    5    -119.1061810314      1.46E-05
    6    -119.1061823098      4.21E-06 Convergence criterion met
 ---------------------------------------
 SCF time:  CPU 49.06 s  wall 16.63 s
 SCF   energy in the final basis set = -119.10618231
 Total energy in the final basis set = -119.10618231
 
 --------------------------------------------------------------
 
                    Orbital Energies (a.u.)
 --------------------------------------------------------------
 
 Alpha MOs
 -- Occupied --
-10.2799 -10.2741 -10.2741  -0.8741  -0.7929  -0.6716  -0.5379  -0.5050
 -0.5012  -0.4768  -0.4279  -0.3992  -0.3862
 -- Virtual --
  0.0623   0.0858   0.0956   0.0990   0.1109   0.1275   0.1316   0.1565
  0.1639   0.1742   0.2003   0.2142   0.2187   0.2321   0.2337   0.2557
  0.2584   0.2729   0.2793   0.3020   0.3198   0.3734   0.4643   0.4799
  0.4817   0.4934   0.5283   0.5314   0.5571   0.5688   0.5699   0.5864
  0.5983   0.5992   0.6307   0.6458   0.6632   0.6797   0.6944   0.7102
  0.7252   0.7659   0.8302   0.8415   0.8623   0.8820   0.9544   0.9620
  0.9641   0.9763   1.0270   1.0916   1.1348   1.1587   1.1661   1.1715
  1.2380   1.2386   1.2601   1.2804   1.2972   1.2978   1.3070   1.3198
  1.3589   1.3875   1.4154   1.4449   1.4466   1.4585   1.4592   1.4610
  1.4889   1.5985   1.6031   1.6288   1.6524   1.6692   1.7002   1.7495
  1.7958   2.4277   2.4425   2.4719   2.5002   2.5404   2.5709   2.6279
  2.6659   2.6727   2.7135   2.8076   2.8488   2.8710   2.9253   2.9384
  2.9545   2.9778   3.0034   3.0073   3.0486   3.0523   3.0891   3.1052
  3.1281   3.1463   3.1610   3.1831   3.1861   3.1907   3.2238   3.2669
  3.2733   3.3010   3.3046   3.3343   3.3384   3.3527   3.3849   3.4050
  3.4184   3.4418   3.5314   3.5573   3.5644   3.5776   3.6008   3.6254
  3.6262   3.6661   3.6992   3.7267   3.7299   3.7491   3.7547   3.8149
  3.8509   3.8746   3.9056   3.9257   3.9397   3.9836   4.0126   4.0559
  4.0953   4.1102   4.1404   4.1507   4.1529   4.1781   4.1889   4.2302
  4.2314   4.2388   4.2527   4.3364   4.3710   4.3782   4.4544   4.4713
  4.5005   4.5584   4.5622   4.6353   4.7432   4.8198   4.8564   4.8967
  4.9110   4.9132   4.9510   4.9849   5.0157   5.0362   5.0956   5.1062
  5.1492   5.1653   5.2077   5.2443   5.2892   5.3039   5.3196   5.3401
  5.3486   5.4049   5.4499   5.4664   5.6110   5.6680   5.6756   5.8664
  5.9456   6.3675   6.3884   6.3901   6.4151   6.4620  25.1964  25.3833
 25.4203
 --------------------------------------------------------------
 
 -----------------------------------------------------------------
                    Cartesian Multipole Moments
 -----------------------------------------------------------------
    Charge (ESU x 10^10)
                -0.0000
    Dipole Moment (Debye)
         X       0.0000      Y      -0.0066      Z      -0.2882
       Tot       0.2883
    Quadrupole Moments (Debye-Ang)
        XX     -21.7627     XY      -0.0000     YY     -21.4607
        XZ       0.0000     YZ      -0.0171     ZZ     -21.8904
    Octopole Moments (Debye-Ang^2)
       XXX       0.0000    XXY       0.1003    XYY       0.0000
       YYY       0.0166    XXZ      -2.0213    XYZ       0.0000
       YYZ      -1.1251    XZZ      -0.0000    YZZ      -0.2445
       ZZZ      -6.4988
    Hexadecapole Moments (Debye-Ang^3)
      XXXX    -272.3932   XXXY      -0.0000   XXYY     -49.8942
      XYYY      -0.0000   YYYY     -43.9873   XXXZ       0.0000
      XXYZ       0.2121   XYYZ      -0.0000   YYYZ       0.1389
      XXZZ     -51.1236   XYZZ      -0.0000   YYZZ     -15.0784
      XZZZ      -0.0000   YZZZ       0.2163   ZZZZ     -54.2149
 -----------------------------------------------------------------
Archival summary:
1\1\centos77-c4\SP\ProcedureUnspecified\BasisUnspecified\38\shihchen\TueJul701:05:442020TueJul701:05:442020\0\\#,ProcedureUnspecified,BasisUnspecified,\\0,1\C\H,1,1.0954\H,1,1.09594,2,101.404\C,1,1.55481,2,100.687,3,-102.524,0\H,4,1.09033,1,116.893,2,170.444,0\H,4,1.09069,1,117.015,2,-57.7909,0\H,4,1.0942,1,99.0906,2,56.0513,0\C,1,1.55481,2,100.687,3,102.524,0\H,8,1.09033,1,116.893,2,-170.444,0\H,8,1.09069,1,117.015,2,57.7908,0\H,8,1.0942,1,99.0905,2,-56.0515,0\\\@

 Total job time:  26.40s(wall), 71.39s(cpu) 
 Tue Jul  7 01:05:44 2020

        *************************************************************
        *                                                           *
        *  Thank you very much for using Q-Chem.  Have a nice day.  *
        *                                                           *
        *************************************************************


