                  Welcome to Q-Chem
     A Quantum Leap Into The Future Of Chemistry


 Q-Chem 5.3 (devel), Q-Chem, Inc., Pleasanton, CA (2020)

 Yihan Shao,  Zhengting Gan,  E. Epifanovsky,  A. T. B. Gilbert,  M. Wormit,  
 J. Kussmann,  A. W. Lange,  A. Behn,  Jia Deng,  Xintian Feng,  D. Ghosh,  
 M. Goldey,  P. R. Horn,  L. D. Jacobson,  I. Kaliman,  T. Kus,  A. Landau,  
 Jie Liu,  E. I. Proynov,  R. M. Richard,  R. P. Steele,  E. J. Sundstrom,  
 H. L. Woodcock III,  P. M. Zimmerman,  D. Zuev,  B. Alam,  B. Albrecht,  
 E. Alguire,  S. A. Baeppler,  D. Barton,  Z. Benda,  Y. A. Bernard,  
 E. J. Berquist,  K. B. Bravaya,  H. Burton,  K. Carter-Fenk,  D. Casanova,  
 Chun-Min Chang,  Yunqing Chen,  A. Chien,  K. D. Closser,  M. P. Coons,  
 S. Coriani,  S. Dasgupta,  A. L. Dempwolff,  M. Diedenhofen,  Hainam Do,  
 R. G. Edgar,  Po-Tung Fang,  S. Faraji,  S. Fatehi,  Qingguo Feng,  
 J. Fosso-Tande,  J. Gayvert,  Qinghui Ge,  A. Ghysels,  G. Gidofalvi,  
 J. Gomes,  J. Gonthier,  A. Gunina,  D. Hait,  M. W. D. Hanson-Heine,  
 P. H. P. Harbach,  A. W. Hauser,  M. F. Herbst,  J. E. Herr,  
 E. G. Hohenstein,  Z. C. Holden,  Kerwin Hui,  B. C. Huynh,  T.-C. Jagau,  
 Hyunjun Ji,  B. Kaduk,  K. Khistyaev,  Jaehoon Kim,  P. Klunzinger,  K. Koh,  
 D. Kosenkov,  L. Koulias,  T. Kowalczyk,  C. M. Krauter,  A. Kunitsa,  
 Ka Un Lao,  A. Laurent,  K. V. Lawler,  Joonho Lee,  D. Lefrancois,  
 S. Lehtola,  D. S. Levine,  Yi-Pei Li,  You-Sheng Lin,  Fenglai Liu,  
 Kuan-Yu Liu,  E. Livshits,  M. Loipersberger,  A. Luenser,  P. Manohar,  
 E. Mansoor,  S. F. Manzer,  Shan-Ping Mao,  Yuezhi Mao,  N. Mardirossian,  
 A. V. Marenich,  T. Markovich,  L. A. Martinez-Martinez,  S. A. Maurer,  
 N. J. Mayhall,  S. C. McKenzie,  J.-M. Mewes,  P. Morgante,  A. F. Morrison,  
 J. W. Mullinax,  K. Nanda,  T. S. Nguyen-Beck,  R. Olivares-Amaya,  
 K. J. Oosterbaan,  J. A. Parkhill,  S. K. Paul,  F. Pavosevic,  Zheng Pei,  
 T. M. Perrine,  F. Plasser,  P. Pokhilko,  S. Prager,  A. Prociuk,  
 E. Ramos,  B. Rana,  D. R. Rehn,  F. Rob,  M. Scheurer,  M. Schneider,  
 N. Sergueev,  S. M. Sharada,  S. Sharma,  D. W. Small,  T. Stauch,  
 C. J. Stein,  T. Stein,  Yu-Chuan Su,  S. P. Veccham,  Zhen Tao,  
 A. J. W. Thom,  A. Tkatchenko,  T. Tsuchimochi,  N. M. Tubman,  L. Vogt,  
 M. L. Vidal,  O. Vydrov,  M. A. Watson,  J. Wenzel,  M. de Wergifosse,  
 T. A. Wesolowski,  A. White,  J. Witte,  A. Yamada,  Jun Yang,  K. Yao,  
 S. Yeganeh,  S. R. Yost,  Zhi-Qiang You,  A. Zech,  Igor Ying Zhang,  
 Xing Zhang,  Yan Zhao,  Ying Zhu,  B. R. Brooks,  G. K. L. Chan,  
 C. J. Cramer,  M. S. Gordon,  W. J. Hehre,  A. Klamt,  M. W. Schmidt,  
 C. D. Sherrill,  D. G. Truhlar,  A. Aspuru-Guzik,  R. Baer,  A. T. Bell,  
 N. A. Besley,  Jeng-Da Chai,  A. E. DePrince, III,  R. A. DiStasio Jr.,  
 A. Dreuw,  B. D. Dunietz,  T. R. Furlani,  Chao-Ping Hsu,  Yousung Jung,  
 Jing Kong,  D. S. Lambrecht,  WanZhen Liang,  C. Ochsenfeld,  
 V. A. Rassolov,  L. V. Slipchenko,  J. E. Subotnik,  T. Van Voorhis,  
 J. M. Herbert,  A. I. Krylov,  P. M. W. Gill,  M. Head-Gordon

 Contributors to earlier versions of Q-Chem not listed above: 
 R. D. Adamson,  B. Austin,  J. Baker,  G. J. O. Beran,  K. Brandhorst,  
 S. T. Brown,  E. F. C. Byrd,  A. K. Chakraborty,  C.-L. Cheng,  
 Siu Hung Chien,  D. M. Chipman,  D. L. Crittenden,  H. Dachsel,  
 R. J. Doerksen,  A. D. Dutoi,  L. Fusti-Molnar,  W. A. Goddard III,  
 A. Golubeva-Zadorozhnaya,  S. R. Gwaltney,  G. Hawkins,  A. Heyden,  
 S. Hirata,  G. Kedziora,  F. J. Keil,  C. Kelley,  Jihan Kim,  R. A. King,  
 R. Z. Khaliullin,  P. P. Korambath,  W. Kurlancheek,  A. M. Lee,  M. S. Lee,  
 S. V. Levchenko,  Ching Yeh Lin,  D. Liotard,  R. C. Lochan,  I. Lotan,  
 P. E. Maslen,  N. Nair,  D. P. O'Neill,  D. Neuhauser,  E. Neuscamman,  
 C. M. Oana,  R. Olson,  B. Peters,  R. Peverati,  P. A. Pieniazek,  
 Y. M. Rhee,  J. Ritchie,  M. A. Rohrdanz,  E. Rosta,  N. J. Russ,  
 H. F. Schaefer III,  N. E. Schultz,  N. Shenvi,  A. C. Simmonett,  A. Sodt,  
 D. Stuck,  K. S. Thanthiriwatte,  V. Vanovschi,  Tao Wang,  A. Warshel,  
 C. F. Williams,  Q. Wu,  X. Xu,  W. Zhang

 Please cite Q-Chem as follows:
 Y. Shao et al., Mol. Phys. 113, 184-215 (2015)
 DOI: 10.1080/00268976.2014.952696

 Q-Chem 5.3.0 for Intel X86 EM64T Linux

 Parts of Q-Chem use Armadillo 9.800.1 (Horizon Scraper).
 http://arma.sourceforge.net/

 Q-Chem begins on Tue Jul  7 02:23:04 2020  

Host: centos77-c4
0

     Scratch files written to /tmp/26964.centos77-h1/qchem111308//
Processing $rem in /opt/qchem-5.3.0-intel2020u1//config/preferences:
Processing $rem in /home/shihchengli/.qchemrc:

Checking the input file for inconsistencies... 	...done.

--------------------------------------------------------------
User input:
--------------------------------------------------------------
$rem
   JOBTYPE  sp
   EXCHANGE   omegaB97X-D
   BASIS   6-311+G(2df,2pd)
   UNRESTRICTED   False
   max_scf_cycles   250
   geom_opt_max_cycles   1500
   basis2 6-31G*
   scf_algorithm rca_diis
   SYM_IGNORE  TRUE
   print_input   true
   geom_opt_dmax   80
   pop_mulliken false
   XC_GRID 000075000302
$end

$molecule
0 1
C       1.2896278571     0.0002265574     0.2743592864
C       0.0188165398     -0.0000310265     -0.5873604809
H       1.3144494351     -0.7711354836     0.8357534887
H       1.3151155808     0.7725638899     0.8342820985
H       2.0917548010     -0.0006519857     -0.2801851927
C       -1.2446341131     -0.0001823996     0.2444248767
H       0.0242389193     -0.8739422380     -1.2431058461
H       0.0239505259     0.8738002006     -1.2432143162
H       -1.2983822346     -0.9895916722     0.9721704553
H       -2.2374080349     0.0008370527     -0.4399327999
H       -1.2975293371     0.9881077709     0.9738534489
$end
--------------------------------------------------------------
 ----------------------------------------------------------------
             Standard Nuclear Orientation (Angstroms)
    I     Atom           X                Y                Z
 ----------------------------------------------------------------
    1      C       1.2896278571     0.0002265574     0.2743592864
    2      C       0.0188165398    -0.0000310265    -0.5873604809
    3      H       1.3144494351    -0.7711354836     0.8357534887
    4      H       1.3151155808     0.7725638899     0.8342820985
    5      H       2.0917548010    -0.0006519857    -0.2801851927
    6      C      -1.2446341131    -0.0001823996     0.2444248767
    7      H       0.0242389193    -0.8739422380    -1.2431058461
    8      H       0.0239505259     0.8738002006    -1.2432143162
    9      H      -1.2983822346    -0.9895916722     0.9721704553
   10      H      -2.2374080349     0.0008370527    -0.4399327999
   11      H      -1.2975293371     0.9881077709     0.9738534489
 ----------------------------------------------------------------
 Nuclear Repulsion Energy =          83.01271970 hartrees
 There are       13 alpha and       13 beta electrons
 Requested basis set is 6-311+G(2df,2pd)
 There are 72 shells and 214 basis functions

 Total QAlloc Memory Limit   2000 MB
 Mega-Array Size       188 MB
 MEM_STATIC part       192 MB

                       Distance Matrix (Angstroms)
             C (  1)   C (  2)   H (  3)   H (  4)   H (  5)   C (  6)
   C (  2)  1.535423
   H (  3)  0.954347  2.073287
   H (  4)  0.954289  2.073249  1.543700
   H (  5)  0.975155  2.095574  1.563064  1.563032
   C (  6)  2.534439  1.512671  2.737325  2.738136  3.377382
   H (  7)  2.160574  1.092590  2.448850  2.948370  2.442227  2.141551
   H (  8)  2.160579  1.092589  2.948442  2.448131  2.442930  2.141547
   H (  9)  2.857355  2.268563  2.625495  3.155087  3.746922  1.229404
   H ( 10)  3.598638  2.261036  3.852143  3.852221  4.332109  1.205797
   H ( 11)  2.856323  2.268606  3.152212  2.625234  3.746666  1.229464
             H (  7)   H (  8)   H (  9)   H ( 10)
   H (  8)  1.747742
   H (  9)  2.582663  3.182565
   H ( 10)  2.554481  2.553638  1.963862
   H ( 11)  3.182642  2.583557  1.977700  1.963891
 
 A cutoff of  1.0D-09 yielded   2536 shell pairs
 There are     22616 function pairs (     27809 Cartesian)
 Smallest overlap matrix eigenvalue = 8.65E-05

 Scale SEOQF with 1.000000e-01/1.000000e-01/1.000000e-01

 Standard Electronic Orientation quadrupole field applied
 Nucleus-field energy     =     0.0000000006 hartrees
 Requested basis set is 6-31G(d)
 There are 28 shells and 58 basis functions
 A cutoff of  1.0D-09 yielded    402 shell pairs
 There are      1773 function pairs (      1968 Cartesian)
 Smallest overlap matrix eigenvalue = 6.57E-03
 Guess from superposition of atomic densities
 Warning:  Energy on first SCF cycle will be non-variational
 SAD guess density has 26.000000 electrons
 Long-range K will be added via erf
 Coulomb attenuation parameter = 0.2 bohr**(-1)
 A restricted hybrid HF-DFT SCF calculation will be
 performed using Relaxed Constraint Minimization + Pulay DIIS
 Exchange:     0.2220 Hartree-Fock + 1.0000 wB97X-D + LR-HF
 Correlation:  1.0000 wB97X-D
 Using Euler-Maclaurin-Lebedev (75,302) quadrature formula
 Dispersion:   Grimme D
 SCF converges when DIIS error is below 1.0E-04
 using 3 threads for integral computing
 -------------------------------------------------------
 OpenMP Integral computing Module                
 Release: version 1.0, May 2013, Q-Chem Inc. Pittsburgh 
 -------------------------------------------------------
 using 3 threads for integral computing
 -------------------------------------------------------
 OpenMP Integral computing Module                
 Release: version 1.0, May 2013, Q-Chem Inc. Pittsburgh 
 -------------------------------------------------------
 ---------------------------------------
  Cycle       Energy         DIIS Error
 ---------------------------------------
    1    -119.6199918507      1.04E-01
    2    -118.9931709438      9.91E-03
    3    -119.0188929952      3.02E-03
    4    -119.0338936416      2.10E-03
    5    -119.0349658017      3.52E-04 Done RCA. Switching to DIIS
    6    -119.0357304655      2.78E-04
    7    -119.0357642284      5.86E-06 Convergence criterion met
 ---------------------------------------
 SCF time:  CPU 21.04 s  wall 7.91 s
 SCF   energy in the small basis set = -119.03576423
 Total energy in the small basis set = -119.03576423
 ----------------------------------------------------
  Cycle       Energy    
 ----------------------------------------------------
    1     -16.5650821328     -1.66E+01
 Long-range K will be added via erf
 Coulomb attenuation parameter = 0.2 bohr**(-1)
 A restricted hybrid HF-DFT SCF calculation will be
 performed using Relaxed Constraint Minimization + Pulay DIIS
 Exchange:     0.2220 Hartree-Fock + 1.0000 wB97X-D + LR-HF
 Correlation:  1.0000 wB97X-D
 Using Euler-Maclaurin-Lebedev (75,302) quadrature formula
 Dispersion:   Grimme D
 SCF converges when DIIS error is below 1.0E-05
 Basis2 calculation detected. Using small basis as guess for larger.
 SCFMinFind is unable to tell whether the solution found is close.
 Resetting ReadMinima to 0 and attempting to follow guess.
 SCFMinFind following SCF Guess.
 using 3 threads for integral computing
 -------------------------------------------------------
 OpenMP Integral computing Module                
 Release: version 1.0, May 2013, Q-Chem Inc. Pittsburgh 
 -------------------------------------------------------
 using 3 threads for integral computing
 -------------------------------------------------------
 OpenMP Integral computing Module                
 Release: version 1.0, May 2013, Q-Chem Inc. Pittsburgh 
 -------------------------------------------------------
 ---------------------------------------
  Cycle       Energy         DIIS Error
 ---------------------------------------
    1    -119.0574645435      4.21E-03
    2    -119.0794456885      5.90E-04 Done RCA. Switching to DIIS
    3    -119.0802718984      4.07E-04
    4    -119.0811735904      5.08E-05
    5    -119.0811902392      1.76E-05
    6    -119.0811920526      4.06E-06 Convergence criterion met
 ---------------------------------------
 SCF time:  CPU 51.70 s  wall 17.65 s
 SCF   energy in the final basis set = -119.08119205
 Total energy in the final basis set = -119.08119205
 
 --------------------------------------------------------------
 
                    Orbital Energies (a.u.)
 --------------------------------------------------------------
 
 Alpha MOs
 -- Occupied --
-10.3039 -10.2753 -10.2217  -0.8875  -0.7854  -0.6725  -0.5517  -0.5302
 -0.4823  -0.4679  -0.4285  -0.4062  -0.4023
 -- Virtual --
  0.0679   0.0848   0.0906   0.0983   0.1247   0.1296   0.1332   0.1410
  0.1429   0.1690   0.1709   0.1901   0.2051   0.2313   0.2626   0.2686
  0.2698   0.2882   0.3079   0.3201   0.3370   0.3533   0.4602   0.4613
  0.4736   0.5095   0.5158   0.5170   0.5474   0.5579   0.5597   0.6051
  0.6171   0.6314   0.6349   0.6520   0.6627   0.6680   0.6761   0.7280
  0.7731   0.7868   0.8181   0.8594   0.8668   0.8735   0.8978   0.9389
  1.0277   1.0549   1.0576   1.1038   1.1582   1.1720   1.1795   1.2104
  1.2268   1.2409   1.2676   1.2718   1.2950   1.2960   1.3165   1.3592
  1.3672   1.3939   1.4242   1.4273   1.4693   1.4718   1.4776   1.5073
  1.5247   1.5454   1.5942   1.6124   1.6340   1.6398   1.7175   1.7344
  1.8311   2.3308   2.3994   2.4961   2.5009   2.5428   2.5796   2.6204
  2.6470   2.7592   2.8022   2.8157   2.8241   2.8469   2.9002   2.9150
  2.9491   2.9690   2.9711   2.9882   3.0361   3.0673   3.1013   3.1283
  3.1365   3.1510   3.1692   3.1750   3.1821   3.2091   3.2381   3.2621
  3.2759   3.3049   3.3497   3.3566   3.3706   3.3726   3.4250   3.4292
  3.4590   3.4749   3.5042   3.5116   3.5562   3.5703   3.5813   3.5987
  3.6765   3.6878   3.7012   3.7565   3.7839   3.8125   3.8192   3.8636
  3.8956   3.9061   3.9081   3.9642   3.9910   4.0244   4.0268   4.0703
  4.0716   4.0855   4.0928   4.1224   4.1394   4.1633   4.1727   4.2413
  4.2490   4.2771   4.3356   4.3392   4.3727   4.3983   4.4371   4.4633
  4.4672   4.4820   4.6081   4.6088   4.6545   4.7296   4.7532   4.7547
  4.7916   4.8205   4.8808   4.9419   4.9735   5.0382   5.0521   5.0546
  5.1011   5.2270   5.2534   5.3113   5.4024   5.4404   5.4659   5.4693
  5.5209   5.6383   5.6802   5.6976   5.7342   5.8711   5.8743   5.9241
  6.0178   6.0291   6.0876   6.4560   6.7201   6.7405  24.8959  25.2108
 25.7654
 --------------------------------------------------------------
 
 -----------------------------------------------------------------
                    Cartesian Multipole Moments
 -----------------------------------------------------------------
    Charge (ESU x 10^10)
                 0.0000
    Dipole Moment (Debye)
         X       0.2931      Y       0.0000      Z      -0.1170
       Tot       0.3156
    Quadrupole Moments (Debye-Ang)
        XX     -22.1447     XY      -0.0002     YY     -21.3501
        XZ       0.2937     YZ      -0.0000     ZZ     -21.8016
    Octopole Moments (Debye-Ang^2)
       XXX       3.4913    XXY       0.0007    XYY       0.9397
       YYY      -0.0010    XXZ      -1.5681    XYZ       0.0015
       YYZ       0.4934    XZZ       0.9171    YZZ       0.0010
       ZZZ      -0.4630
    Hexadecapole Moments (Debye-Ang^3)
      XXXX    -201.9866   XXXY      -0.0177   XXYY     -42.3469
      XYYY      -0.0062   YYYY     -44.6403   XXXZ       2.9332
      XXYZ      -0.0018   XYYZ      -0.3953   YYYZ      -0.0019
      XXZZ     -45.3170   XYZZ      -0.0069   YYZZ     -17.1298
      XZZZ       0.9206   YZZZ       0.0005   ZZZZ     -72.5244
 -----------------------------------------------------------------
Archival summary:
1\1\centos77-c4\SP\ProcedureUnspecified\BasisUnspecified\38\shihchen\TueJul702:23:332020TueJul702:23:332020\0\\#,ProcedureUnspecified,BasisUnspecified,\\0,1\C\H,1,1.09259\H,1,1.09259,2,106.225\C,1,1.51267,2,109.517,3,-118.184,0\H,4,1.2058,1,112.061,2,57.9941,0\H,4,1.2294,1,111.229,2,178.355,0\H,4,1.22946,1,111.229,2,-62.3648,0\C,1,1.53542,2,109.443,3,118.057,0\H,8,0.954289,1,110.581,2,62.1632,0\H,8,0.954347,1,110.581,2,-178.313,0\H,8,0.975155,1,111.202,2,-58.0762,0\\\@

 Total job time:  28.50s(wall), 76.38s(cpu) 
 Tue Jul  7 02:23:33 2020

        *************************************************************
        *                                                           *
        *  Thank you very much for using Q-Chem.  Have a nice day.  *
        *                                                           *
        *************************************************************


