                  Welcome to Q-Chem
     A Quantum Leap Into The Future Of Chemistry


 Q-Chem 5.3 (devel), Q-Chem, Inc., Pleasanton, CA (2020)

 Yihan Shao,  Zhengting Gan,  E. Epifanovsky,  A. T. B. Gilbert,  M. Wormit,  
 J. Kussmann,  A. W. Lange,  A. Behn,  Jia Deng,  Xintian Feng,  D. Ghosh,  
 M. Goldey,  P. R. Horn,  L. D. Jacobson,  I. Kaliman,  T. Kus,  A. Landau,  
 Jie Liu,  E. I. Proynov,  R. M. Richard,  R. P. Steele,  E. J. Sundstrom,  
 H. L. Woodcock III,  P. M. Zimmerman,  D. Zuev,  B. Alam,  B. Albrecht,  
 E. Alguire,  S. A. Baeppler,  D. Barton,  Z. Benda,  Y. A. Bernard,  
 E. J. Berquist,  K. B. Bravaya,  H. Burton,  K. Carter-Fenk,  D. Casanova,  
 Chun-Min Chang,  Yunqing Chen,  A. Chien,  K. D. Closser,  M. P. Coons,  
 S. Coriani,  S. Dasgupta,  A. L. Dempwolff,  M. Diedenhofen,  Hainam Do,  
 R. G. Edgar,  Po-Tung Fang,  S. Faraji,  S. Fatehi,  Qingguo Feng,  
 J. Fosso-Tande,  J. Gayvert,  Qinghui Ge,  A. Ghysels,  G. Gidofalvi,  
 J. Gomes,  J. Gonthier,  A. Gunina,  D. Hait,  M. W. D. Hanson-Heine,  
 P. H. P. Harbach,  A. W. Hauser,  M. F. Herbst,  J. E. Herr,  
 E. G. Hohenstein,  Z. C. Holden,  Kerwin Hui,  B. C. Huynh,  T.-C. Jagau,  
 Hyunjun Ji,  B. Kaduk,  K. Khistyaev,  Jaehoon Kim,  P. Klunzinger,  K. Koh,  
 D. Kosenkov,  L. Koulias,  T. Kowalczyk,  C. M. Krauter,  A. Kunitsa,  
 Ka Un Lao,  A. Laurent,  K. V. Lawler,  Joonho Lee,  D. Lefrancois,  
 S. Lehtola,  D. S. Levine,  Yi-Pei Li,  You-Sheng Lin,  Fenglai Liu,  
 Kuan-Yu Liu,  E. Livshits,  M. Loipersberger,  A. Luenser,  P. Manohar,  
 E. Mansoor,  S. F. Manzer,  Shan-Ping Mao,  Yuezhi Mao,  N. Mardirossian,  
 A. V. Marenich,  T. Markovich,  L. A. Martinez-Martinez,  S. A. Maurer,  
 N. J. Mayhall,  S. C. McKenzie,  J.-M. Mewes,  P. Morgante,  A. F. Morrison,  
 J. W. Mullinax,  K. Nanda,  T. S. Nguyen-Beck,  R. Olivares-Amaya,  
 K. J. Oosterbaan,  J. A. Parkhill,  S. K. Paul,  F. Pavosevic,  Zheng Pei,  
 T. M. Perrine,  F. Plasser,  P. Pokhilko,  S. Prager,  A. Prociuk,  
 E. Ramos,  B. Rana,  D. R. Rehn,  F. Rob,  M. Scheurer,  M. Schneider,  
 N. Sergueev,  S. M. Sharada,  S. Sharma,  D. W. Small,  T. Stauch,  
 C. J. Stein,  T. Stein,  Yu-Chuan Su,  S. P. Veccham,  Zhen Tao,  
 A. J. W. Thom,  A. Tkatchenko,  T. Tsuchimochi,  N. M. Tubman,  L. Vogt,  
 M. L. Vidal,  O. Vydrov,  M. A. Watson,  J. Wenzel,  M. de Wergifosse,  
 T. A. Wesolowski,  A. White,  J. Witte,  A. Yamada,  Jun Yang,  K. Yao,  
 S. Yeganeh,  S. R. Yost,  Zhi-Qiang You,  A. Zech,  Igor Ying Zhang,  
 Xing Zhang,  Yan Zhao,  Ying Zhu,  B. R. Brooks,  G. K. L. Chan,  
 C. J. Cramer,  M. S. Gordon,  W. J. Hehre,  A. Klamt,  M. W. Schmidt,  
 C. D. Sherrill,  D. G. Truhlar,  A. Aspuru-Guzik,  R. Baer,  A. T. Bell,  
 N. A. Besley,  Jeng-Da Chai,  A. E. DePrince, III,  R. A. DiStasio Jr.,  
 A. Dreuw,  B. D. Dunietz,  T. R. Furlani,  Chao-Ping Hsu,  Yousung Jung,  
 Jing Kong,  D. S. Lambrecht,  WanZhen Liang,  C. Ochsenfeld,  
 V. A. Rassolov,  L. V. Slipchenko,  J. E. Subotnik,  T. Van Voorhis,  
 J. M. Herbert,  A. I. Krylov,  P. M. W. Gill,  M. Head-Gordon

 Contributors to earlier versions of Q-Chem not listed above: 
 R. D. Adamson,  B. Austin,  J. Baker,  G. J. O. Beran,  K. Brandhorst,  
 S. T. Brown,  E. F. C. Byrd,  A. K. Chakraborty,  C.-L. Cheng,  
 Siu Hung Chien,  D. M. Chipman,  D. L. Crittenden,  H. Dachsel,  
 R. J. Doerksen,  A. D. Dutoi,  L. Fusti-Molnar,  W. A. Goddard III,  
 A. Golubeva-Zadorozhnaya,  S. R. Gwaltney,  G. Hawkins,  A. Heyden,  
 S. Hirata,  G. Kedziora,  F. J. Keil,  C. Kelley,  Jihan Kim,  R. A. King,  
 R. Z. Khaliullin,  P. P. Korambath,  W. Kurlancheek,  A. M. Lee,  M. S. Lee,  
 S. V. Levchenko,  Ching Yeh Lin,  D. Liotard,  R. C. Lochan,  I. Lotan,  
 P. E. Maslen,  N. Nair,  D. P. O'Neill,  D. Neuhauser,  E. Neuscamman,  
 C. M. Oana,  R. Olson,  B. Peters,  R. Peverati,  P. A. Pieniazek,  
 Y. M. Rhee,  J. Ritchie,  M. A. Rohrdanz,  E. Rosta,  N. J. Russ,  
 H. F. Schaefer III,  N. E. Schultz,  N. Shenvi,  A. C. Simmonett,  A. Sodt,  
 D. Stuck,  K. S. Thanthiriwatte,  V. Vanovschi,  Tao Wang,  A. Warshel,  
 C. F. Williams,  Q. Wu,  X. Xu,  W. Zhang

 Please cite Q-Chem as follows:
 Y. Shao et al., Mol. Phys. 113, 184-215 (2015)
 DOI: 10.1080/00268976.2014.952696

 Q-Chem 5.3.0 for Intel X86 EM64T Linux

 Parts of Q-Chem use Armadillo 9.800.1 (Horizon Scraper).
 http://arma.sourceforge.net/

 Q-Chem begins on Tue Jul  7 01:14:42 2020  

Host: centos77-c4
0

     Scratch files written to /tmp/26964.centos77-h1/qchem98284//
Processing $rem in /opt/qchem-5.3.0-intel2020u1//config/preferences:
Processing $rem in /home/shihchengli/.qchemrc:

Checking the input file for inconsistencies... 	...done.

--------------------------------------------------------------
User input:
--------------------------------------------------------------
$rem
   JOBTYPE  sp
   EXCHANGE   omegaB97X-D
   BASIS   6-311+G(2df,2pd)
   UNRESTRICTED   False
   max_scf_cycles   250
   geom_opt_max_cycles   1500
   basis2 6-31G*
   scf_algorithm rca_diis
   SYM_IGNORE  TRUE
   print_input   true
   geom_opt_dmax   80
   pop_mulliken false
   XC_GRID 000075000302
$end

$molecule
0 1
C       1.3913374194     0.0143878198     0.2601777662
C       -0.0000001061     -0.0133531360     -0.7551413484
H       1.3234806948     -0.8759454619     0.8915423374
H       1.2779384427     0.8601055507     0.9430614694
H       2.4070238676     0.0428455135     -0.1396568317
C       -1.3913380428     0.0143872920     0.2601770905
H       0.0000011208     -0.9104927148     -1.3782467395
H       -0.0000000871     0.8410601237     -1.4358159398
H       -1.3234811899     -0.8759459843     0.8915416550
H       -2.4070250229     0.0428473953     -0.1396558783
H       -1.2779371570     0.8601042680     0.9430614383
$end
--------------------------------------------------------------
 ----------------------------------------------------------------
             Standard Nuclear Orientation (Angstroms)
    I     Atom           X                Y                Z
 ----------------------------------------------------------------
    1      C       1.3913374194     0.0143878198     0.2601777662
    2      C      -0.0000001061    -0.0133531360    -0.7551413484
    3      H       1.3234806948    -0.8759454619     0.8915423374
    4      H       1.2779384427     0.8601055507     0.9430614694
    5      H       2.4070238676     0.0428455135    -0.1396568317
    6      C      -1.3913380428     0.0143872920     0.2601770905
    7      H       0.0000011208    -0.9104927148    -1.3782467395
    8      H      -0.0000000871     0.8410601237    -1.4358159398
    9      H      -1.3234811899    -0.8759459843     0.8915416550
   10      H      -2.4070250229     0.0428473953    -0.1396558783
   11      H      -1.2779371570     0.8601042680     0.9430614383
 ----------------------------------------------------------------
 Nuclear Repulsion Energy =          77.47038856 hartrees
 There are       13 alpha and       13 beta electrons
 Requested basis set is 6-311+G(2df,2pd)
 There are 72 shells and 214 basis functions

 Total QAlloc Memory Limit   2000 MB
 Mega-Array Size       188 MB
 MEM_STATIC part       192 MB

                       Distance Matrix (Angstroms)
             C (  1)   C (  2)   H (  3)   H (  4)   H (  5)   C (  6)
   C (  2)  1.722632
   H (  3)  1.093581  2.281936
   H (  4)  1.092899  2.297814  1.737412
   H (  5)  1.091923  2.485104  1.755453  1.764944
   C (  6)  2.782675  1.722632  2.926014  2.882119  3.819454
   H (  7)  2.340012  1.092300  2.627686  3.186944  2.869968  2.340013
   H (  8)  2.344270  1.092401  3.180614  2.700472  2.847971  2.344270
   H (  9)  2.926013  2.281936  2.646962  3.127925  3.977966  1.093581
   H ( 10)  3.819455  2.485106  3.977967  3.926722  4.814049  1.091923
   H ( 11)  2.882116  2.297813  3.127922  2.555876  3.926720  1.092899
             H (  7)   H (  8)   H (  9)   H ( 10)
   H (  8)  1.752499
   H (  9)  2.627687  3.180614
   H ( 10)  2.869972  2.847972  1.755453
   H ( 11)  3.186944  2.700471  1.737412  1.764943
 
 A cutoff of  1.0D-09 yielded   2508 shell pairs
 There are     22390 function pairs (     27511 Cartesian)
 Smallest overlap matrix eigenvalue = 1.82E-04

 Scale SEOQF with 1.000000e-01/1.000000e-01/1.000000e-01

 Standard Electronic Orientation quadrupole field applied
 Nucleus-field energy     =     0.0000000006 hartrees
 Requested basis set is 6-31G(d)
 There are 28 shells and 58 basis functions
 A cutoff of  1.0D-09 yielded    402 shell pairs
 There are      1773 function pairs (      1968 Cartesian)
 Smallest overlap matrix eigenvalue = 1.13E-02
 Guess from superposition of atomic densities
 Warning:  Energy on first SCF cycle will be non-variational
 SAD guess density has 26.000000 electrons
 Long-range K will be added via erf
 Coulomb attenuation parameter = 0.2 bohr**(-1)
 A restricted hybrid HF-DFT SCF calculation will be
 performed using Relaxed Constraint Minimization + Pulay DIIS
 Exchange:     0.2220 Hartree-Fock + 1.0000 wB97X-D + LR-HF
 Correlation:  1.0000 wB97X-D
 Using Euler-Maclaurin-Lebedev (75,302) quadrature formula
 Dispersion:   Grimme D
 SCF converges when DIIS error is below 1.0E-04
 using 3 threads for integral computing
 -------------------------------------------------------
 OpenMP Integral computing Module                
 Release: version 1.0, May 2013, Q-Chem Inc. Pittsburgh 
 -------------------------------------------------------
 using 3 threads for integral computing
 -------------------------------------------------------
 OpenMP Integral computing Module                
 Release: version 1.0, May 2013, Q-Chem Inc. Pittsburgh 
 -------------------------------------------------------
 ---------------------------------------
  Cycle       Energy         DIIS Error
 ---------------------------------------
    1    -119.1676241731      8.70E-02
    2    -119.0409472136      7.50E-03
    3    -119.0562460384      2.45E-03
    4    -119.0650367773      1.71E-03
    5    -119.0657580175      2.87E-04 Done RCA. Switching to DIIS
    6    -119.0662747467      2.30E-04
    7    -119.0662974029      4.12E-06 Convergence criterion met
 ---------------------------------------
 SCF time:  CPU 20.82 s  wall 7.83 s
 SCF   energy in the small basis set = -119.06629740
 Total energy in the small basis set = -119.06629740
 ----------------------------------------------------
  Cycle       Energy    
 ----------------------------------------------------
    1     -16.3985244981     -1.64E+01
 Long-range K will be added via erf
 Coulomb attenuation parameter = 0.2 bohr**(-1)
 A restricted hybrid HF-DFT SCF calculation will be
 performed using Relaxed Constraint Minimization + Pulay DIIS
 Exchange:     0.2220 Hartree-Fock + 1.0000 wB97X-D + LR-HF
 Correlation:  1.0000 wB97X-D
 Using Euler-Maclaurin-Lebedev (75,302) quadrature formula
 Dispersion:   Grimme D
 SCF converges when DIIS error is below 1.0E-05
 Basis2 calculation detected. Using small basis as guess for larger.
 SCFMinFind is unable to tell whether the solution found is close.
 Resetting ReadMinima to 0 and attempting to follow guess.
 SCFMinFind following SCF Guess.
 using 3 threads for integral computing
 -------------------------------------------------------
 OpenMP Integral computing Module                
 Release: version 1.0, May 2013, Q-Chem Inc. Pittsburgh 
 -------------------------------------------------------
 using 3 threads for integral computing
 -------------------------------------------------------
 OpenMP Integral computing Module                
 Release: version 1.0, May 2013, Q-Chem Inc. Pittsburgh 
 -------------------------------------------------------
 ---------------------------------------
  Cycle       Energy         DIIS Error
 ---------------------------------------
    1    -119.0848261404      4.22E-03
    2    -119.1070496552      5.81E-04 Done RCA. Switching to DIIS
    3    -119.1079410288      3.84E-04
    4    -119.1087667681      4.15E-05
    5    -119.1087798382      8.66E-06 Convergence criterion met
 ---------------------------------------
 SCF time:  CPU 41.40 s  wall 14.01 s

 Q-Chem warning in module 0, line  198:

 OriOrb: Failure to resolve orbital degeneracies.


 Q-Chem warning in module 0, line  198:

 OriOrb: Failure to resolve orbital degeneracies.

 SCF   energy in the final basis set = -119.10877984
 Total energy in the final basis set = -119.10877984
 
 --------------------------------------------------------------
 
                    Orbital Energies (a.u.)
 --------------------------------------------------------------
 
 Alpha MOs
 -- Occupied --
-10.3057 -10.2811 -10.2811  -0.8383  -0.7682  -0.6955  -0.5220  -0.5100
 -0.4635  -0.4602  -0.4261  -0.4116  -0.4087
 -- Virtual --
  0.0701   0.0814   0.0867   0.1039   0.1230   0.1301   0.1332   0.1422
  0.1457   0.1656   0.1721   0.1922   0.2160   0.2226   0.2469   0.2530
  0.2563   0.2648   0.2816   0.2883   0.3308   0.3336   0.4470   0.4568
  0.4718   0.5067   0.5188   0.5337   0.5605   0.5640   0.5766   0.5848
  0.5905   0.5916   0.6189   0.6255   0.6441   0.6455   0.7055   0.7093
  0.7226   0.7537   0.7849   0.8083   0.8490   0.8705   0.9055   0.9433
  1.0075   1.0097   1.0221   1.0762   1.1126   1.1681   1.1907   1.1941
  1.1972   1.2016   1.2281   1.2336   1.2521   1.2836   1.2949   1.2952
  1.3025   1.3655   1.3804   1.4275   1.4534   1.4593   1.4645   1.4802
  1.4987   1.5244   1.5927   1.6166   1.6178   1.6535   1.6711   1.6757
  1.7326   2.3653   2.3823   2.4541   2.4599   2.4872   2.4988   2.5481
  2.5591   2.6015   2.6975   2.7190   2.8056   2.8462   2.8485   2.9302
  2.9307   2.9348   2.9689   3.0280   3.0384   3.0694   3.0800   3.1033
  3.1046   3.1434   3.1555   3.1583   3.1676   3.2090   3.2512   3.2648
  3.2939   3.3118   3.3311   3.3348   3.3406   3.3462   3.3539   3.3717
  3.3763   3.3938   3.4392   3.5025   3.5554   3.5609   3.5620   3.5850
  3.6118   3.6150   3.6465   3.6781   3.6829   3.6876   3.7231   3.7862
  3.7922   3.8269   3.8715   3.8751   3.9053   3.9275   3.9915   3.9946
  4.0127   4.0332   4.0670   4.0684   4.0950   4.1101   4.1441   4.1924
  4.1962   4.2050   4.2473   4.2491   4.2921   4.3031   4.3181   4.3642
  4.3849   4.4385   4.4785   4.5351   4.5817   4.6801   4.8083   4.8309
  4.8627   4.8877   4.9251   4.9302   4.9861   4.9990   5.0093   5.0669
  5.0832   5.1374   5.1746   5.1896   5.1927   5.2036   5.2312   5.2798
  5.3005   5.3233   5.3238   5.3563   5.3672   5.4003   5.4457   5.5308
  5.6725   6.3503   6.3775   6.3884   6.4246   6.4255  24.9635  25.3237
 25.3624
 --------------------------------------------------------------
 
 -----------------------------------------------------------------
                    Cartesian Multipole Moments
 -----------------------------------------------------------------
    Charge (ESU x 10^10)
                -0.0000
    Dipole Moment (Debye)
         X       0.0000      Y      -0.0232      Z       0.0547
       Tot       0.0594
    Quadrupole Moments (Debye-Ang)
        XX     -21.2811     XY      -0.0000     YY     -21.7535
        XZ      -0.0000     YZ       0.0476     ZZ     -21.9290
    Octopole Moments (Debye-Ang^2)
       XXX      -0.0000    XXY       0.0022    XYY       0.0000
       YYY      -0.4155    XXZ       0.2512    XYZ       0.0000
       YYZ       1.0659    XZZ       0.0000    YZZ       0.0598
       ZZZ       1.5073
    Hexadecapole Moments (Debye-Ang^3)
      XXXX    -218.1542   XXXY      -0.0000   XXYY     -48.2967
      XYYY      -0.0000   YYYY     -44.3261   XXXZ      -0.0000
      XXYZ      -0.2392   XYYZ      -0.0000   YYYZ      -0.4067
      XXZZ     -54.3601   XYZZ      -0.0000   YYZZ     -18.2728
      XZZZ      -0.0000   YZZZ      -0.4145   ZZZZ     -82.2898
 -----------------------------------------------------------------
Archival summary:
1\1\centos77-c4\SP\ProcedureUnspecified\BasisUnspecified\38\shihchen\TueJul701:15:082020TueJul701:15:082020\0\\#,ProcedureUnspecified,BasisUnspecified,\\0,1\C\H,1,1.0923\H,1,1.0924,2,106.675\C,1,1.72263,2,110.454,3,120.455,0\H,4,1.09192,1,122.404,2,-61.7238,0\H,4,1.0929,1,107.274,2,173.116,0\H,4,1.09358,1,106.084,2,61.0223,0\C,1,1.72263,2,110.454,3,-120.455,0\H,8,1.09192,1,122.404,2,61.7236,0\H,8,1.0929,1,107.274,2,-173.116,0\H,8,1.09358,1,106.085,2,-61.0224,0\\\@

 Total job time:  25.31s(wall), 67.63s(cpu) 
 Tue Jul  7 01:15:08 2020

        *************************************************************
        *                                                           *
        *  Thank you very much for using Q-Chem.  Have a nice day.  *
        *                                                           *
        *************************************************************


