                  Welcome to Q-Chem
     A Quantum Leap Into The Future Of Chemistry


 Q-Chem 5.3 (devel), Q-Chem, Inc., Pleasanton, CA (2020)

 Yihan Shao,  Zhengting Gan,  E. Epifanovsky,  A. T. B. Gilbert,  M. Wormit,  
 J. Kussmann,  A. W. Lange,  A. Behn,  Jia Deng,  Xintian Feng,  D. Ghosh,  
 M. Goldey,  P. R. Horn,  L. D. Jacobson,  I. Kaliman,  T. Kus,  A. Landau,  
 Jie Liu,  E. I. Proynov,  R. M. Richard,  R. P. Steele,  E. J. Sundstrom,  
 H. L. Woodcock III,  P. M. Zimmerman,  D. Zuev,  B. Alam,  B. Albrecht,  
 E. Alguire,  S. A. Baeppler,  D. Barton,  Z. Benda,  Y. A. Bernard,  
 E. J. Berquist,  K. B. Bravaya,  H. Burton,  K. Carter-Fenk,  D. Casanova,  
 Chun-Min Chang,  Yunqing Chen,  A. Chien,  K. D. Closser,  M. P. Coons,  
 S. Coriani,  S. Dasgupta,  A. L. Dempwolff,  M. Diedenhofen,  Hainam Do,  
 R. G. Edgar,  Po-Tung Fang,  S. Faraji,  S. Fatehi,  Qingguo Feng,  
 J. Fosso-Tande,  J. Gayvert,  Qinghui Ge,  A. Ghysels,  G. Gidofalvi,  
 J. Gomes,  J. Gonthier,  A. Gunina,  D. Hait,  M. W. D. Hanson-Heine,  
 P. H. P. Harbach,  A. W. Hauser,  M. F. Herbst,  J. E. Herr,  
 E. G. Hohenstein,  Z. C. Holden,  Kerwin Hui,  B. C. Huynh,  T.-C. Jagau,  
 Hyunjun Ji,  B. Kaduk,  K. Khistyaev,  Jaehoon Kim,  P. Klunzinger,  K. Koh,  
 D. Kosenkov,  L. Koulias,  T. Kowalczyk,  C. M. Krauter,  A. Kunitsa,  
 Ka Un Lao,  A. Laurent,  K. V. Lawler,  Joonho Lee,  D. Lefrancois,  
 S. Lehtola,  D. S. Levine,  Yi-Pei Li,  You-Sheng Lin,  Fenglai Liu,  
 Kuan-Yu Liu,  E. Livshits,  M. Loipersberger,  A. Luenser,  P. Manohar,  
 E. Mansoor,  S. F. Manzer,  Shan-Ping Mao,  Yuezhi Mao,  N. Mardirossian,  
 A. V. Marenich,  T. Markovich,  L. A. Martinez-Martinez,  S. A. Maurer,  
 N. J. Mayhall,  S. C. McKenzie,  J.-M. Mewes,  P. Morgante,  A. F. Morrison,  
 J. W. Mullinax,  K. Nanda,  T. S. Nguyen-Beck,  R. Olivares-Amaya,  
 K. J. Oosterbaan,  J. A. Parkhill,  S. K. Paul,  F. Pavosevic,  Zheng Pei,  
 T. M. Perrine,  F. Plasser,  P. Pokhilko,  S. Prager,  A. Prociuk,  
 E. Ramos,  B. Rana,  D. R. Rehn,  F. Rob,  M. Scheurer,  M. Schneider,  
 N. Sergueev,  S. M. Sharada,  S. Sharma,  D. W. Small,  T. Stauch,  
 C. J. Stein,  T. Stein,  Yu-Chuan Su,  S. P. Veccham,  Zhen Tao,  
 A. J. W. Thom,  A. Tkatchenko,  T. Tsuchimochi,  N. M. Tubman,  L. Vogt,  
 M. L. Vidal,  O. Vydrov,  M. A. Watson,  J. Wenzel,  M. de Wergifosse,  
 T. A. Wesolowski,  A. White,  J. Witte,  A. Yamada,  Jun Yang,  K. Yao,  
 S. Yeganeh,  S. R. Yost,  Zhi-Qiang You,  A. Zech,  Igor Ying Zhang,  
 Xing Zhang,  Yan Zhao,  Ying Zhu,  B. R. Brooks,  G. K. L. Chan,  
 C. J. Cramer,  M. S. Gordon,  W. J. Hehre,  A. Klamt,  M. W. Schmidt,  
 C. D. Sherrill,  D. G. Truhlar,  A. Aspuru-Guzik,  R. Baer,  A. T. Bell,  
 N. A. Besley,  Jeng-Da Chai,  A. E. DePrince, III,  R. A. DiStasio Jr.,  
 A. Dreuw,  B. D. Dunietz,  T. R. Furlani,  Chao-Ping Hsu,  Yousung Jung,  
 Jing Kong,  D. S. Lambrecht,  WanZhen Liang,  C. Ochsenfeld,  
 V. A. Rassolov,  L. V. Slipchenko,  J. E. Subotnik,  T. Van Voorhis,  
 J. M. Herbert,  A. I. Krylov,  P. M. W. Gill,  M. Head-Gordon

 Contributors to earlier versions of Q-Chem not listed above: 
 R. D. Adamson,  B. Austin,  J. Baker,  G. J. O. Beran,  K. Brandhorst,  
 S. T. Brown,  E. F. C. Byrd,  A. K. Chakraborty,  C.-L. Cheng,  
 Siu Hung Chien,  D. M. Chipman,  D. L. Crittenden,  H. Dachsel,  
 R. J. Doerksen,  A. D. Dutoi,  L. Fusti-Molnar,  W. A. Goddard III,  
 A. Golubeva-Zadorozhnaya,  S. R. Gwaltney,  G. Hawkins,  A. Heyden,  
 S. Hirata,  G. Kedziora,  F. J. Keil,  C. Kelley,  Jihan Kim,  R. A. King,  
 R. Z. Khaliullin,  P. P. Korambath,  W. Kurlancheek,  A. M. Lee,  M. S. Lee,  
 S. V. Levchenko,  Ching Yeh Lin,  D. Liotard,  R. C. Lochan,  I. Lotan,  
 P. E. Maslen,  N. Nair,  D. P. O'Neill,  D. Neuhauser,  E. Neuscamman,  
 C. M. Oana,  R. Olson,  B. Peters,  R. Peverati,  P. A. Pieniazek,  
 Y. M. Rhee,  J. Ritchie,  M. A. Rohrdanz,  E. Rosta,  N. J. Russ,  
 H. F. Schaefer III,  N. E. Schultz,  N. Shenvi,  A. C. Simmonett,  A. Sodt,  
 D. Stuck,  K. S. Thanthiriwatte,  V. Vanovschi,  Tao Wang,  A. Warshel,  
 C. F. Williams,  Q. Wu,  X. Xu,  W. Zhang

 Please cite Q-Chem as follows:
 Y. Shao et al., Mol. Phys. 113, 184-215 (2015)
 DOI: 10.1080/00268976.2014.952696

 Q-Chem 5.3.0 for Intel X86 EM64T Linux

 Parts of Q-Chem use Armadillo 9.800.1 (Horizon Scraper).
 http://arma.sourceforge.net/

 Q-Chem begins on Tue Jul  7 01:48:35 2020  

Host: centos77-c4
0

     Scratch files written to /tmp/26964.centos77-h1/qchem104516//
Processing $rem in /opt/qchem-5.3.0-intel2020u1//config/preferences:
Processing $rem in /home/shihchengli/.qchemrc:

Checking the input file for inconsistencies... 	...done.

--------------------------------------------------------------
User input:
--------------------------------------------------------------
$rem
   JOBTYPE  sp
   EXCHANGE   omegaB97X-D
   BASIS   6-311+G(2df,2pd)
   UNRESTRICTED   False
   max_scf_cycles   250
   geom_opt_max_cycles   1500
   basis2 6-31G*
   scf_algorithm rca_diis
   SYM_IGNORE  TRUE
   print_input   true
   geom_opt_dmax   80
   pop_mulliken false
   XC_GRID 000075000302
$end

$molecule
0 1
C       1.2480642689     -0.0019436972     0.2345523051
C       -0.0512792547     0.0001437577     -0.5889218808
H       1.3135219898     -0.8789270143     0.8840780215
H       1.2962680735     0.8538053655     0.9131142663
H       2.1653394491     0.0113927934     -0.3564181601
C       -1.2839289670     0.0026644448     0.2828633224
H       0.0334138546     -0.8736659253     -1.2393374286
H       0.0425903310     0.8726768513     -1.2397914482
H       -1.2924251840     -0.8815315706     0.9209947601
H       -2.1613568295     -0.0107230275     -0.3631779942
H       -1.3102077922     0.9061086881     0.8930892553
$end
--------------------------------------------------------------
 ----------------------------------------------------------------
             Standard Nuclear Orientation (Angstroms)
    I     Atom           X                Y                Z
 ----------------------------------------------------------------
    1      C       1.2480642689    -0.0019436972     0.2345523051
    2      C      -0.0512792547     0.0001437577    -0.5889218808
    3      H       1.3135219898    -0.8789270143     0.8840780215
    4      H       1.2962680735     0.8538053655     0.9131142663
    5      H       2.1653394491     0.0113927934    -0.3564181601
    6      C      -1.2839289670     0.0026644448     0.2828633224
    7      H       0.0334138546    -0.8736659253    -1.2393374286
    8      H       0.0425903310     0.8726768513    -1.2397914482
    9      H      -1.2924251840    -0.8815315706     0.9209947601
   10      H      -2.1613568295    -0.0107230275    -0.3631779942
   11      H      -1.3102077922     0.9061086881     0.8930892553
 ----------------------------------------------------------------
 Nuclear Repulsion Energy =          82.76889798 hartrees
 There are       13 alpha and       13 beta electrons
 Requested basis set is 6-311+G(2df,2pd)
 There are 72 shells and 214 basis functions

 Total QAlloc Memory Limit   2000 MB
 Mega-Array Size       188 MB
 MEM_STATIC part       192 MB

                       Distance Matrix (Angstroms)
             C (  1)   C (  2)   H (  3)   H (  4)   H (  5)   C (  6)
   C (  2)  1.538313
   H (  3)  1.093283  2.192071
   H (  4)  1.093195  2.191058  1.733062
   H (  5)  1.091246  2.228808  1.748454  1.754040
   C (  6)  2.532458  1.509782  2.808098  2.789099  3.508021
   H (  7)  2.099435  1.092592  2.479435  3.035129  2.471433  2.195551
   H (  8)  2.095666  1.092592  3.032195  2.491399  2.455244  2.198875
   H (  9)  2.774701  2.144211  2.606210  3.116535  3.792787  1.090452
   H ( 10)  3.461432  2.122146  3.792652  3.785697  4.326758  1.089692
   H ( 11)  2.793383  2.145234  3.173388  2.607077  3.800160  1.090540
             H (  7)   H (  8)   H (  9)   H ( 10)
   H (  8)  1.746367
   H (  9)  2.534748  3.086829
   H ( 10)  2.515819  2.531053  1.778328
   H ( 11)  3.085476  2.525938  1.787946  1.772919
 
 A cutoff of  1.0D-09 yielded   2532 shell pairs
 There are     22578 function pairs (     27759 Cartesian)
 Smallest overlap matrix eigenvalue = 8.76E-05

 Scale SEOQF with 1.000000e-01/1.000000e-01/1.000000e-01

 Standard Electronic Orientation quadrupole field applied
 Nucleus-field energy     =     0.0000000006 hartrees
 Requested basis set is 6-31G(d)
 There are 28 shells and 58 basis functions
 A cutoff of  1.0D-09 yielded    402 shell pairs
 There are      1773 function pairs (      1968 Cartesian)
 Smallest overlap matrix eigenvalue = 6.79E-03
 Guess from superposition of atomic densities
 Warning:  Energy on first SCF cycle will be non-variational
 SAD guess density has 26.000000 electrons
 Long-range K will be added via erf
 Coulomb attenuation parameter = 0.2 bohr**(-1)
 A restricted hybrid HF-DFT SCF calculation will be
 performed using Relaxed Constraint Minimization + Pulay DIIS
 Exchange:     0.2220 Hartree-Fock + 1.0000 wB97X-D + LR-HF
 Correlation:  1.0000 wB97X-D
 Using Euler-Maclaurin-Lebedev (75,302) quadrature formula
 Dispersion:   Grimme D
 SCF converges when DIIS error is below 1.0E-04
 using 3 threads for integral computing
 -------------------------------------------------------
 OpenMP Integral computing Module                
 Release: version 1.0, May 2013, Q-Chem Inc. Pittsburgh 
 -------------------------------------------------------
 using 3 threads for integral computing
 -------------------------------------------------------
 OpenMP Integral computing Module                
 Release: version 1.0, May 2013, Q-Chem Inc. Pittsburgh 
 -------------------------------------------------------
 ---------------------------------------
  Cycle       Energy         DIIS Error
 ---------------------------------------
    1    -119.6221226827      1.00E-01
    2    -119.0636618930      9.00E-03
    3    -119.0847652447      2.47E-03
    4    -119.0986433349      1.69E-03
    5    -119.0993452171      2.69E-04 Done RCA. Switching to DIIS
    6    -119.0998588942      1.98E-04
    7    -119.0998759693      4.66E-06 Convergence criterion met
 ---------------------------------------
 SCF time:  CPU 20.47 s  wall 7.57 s
 SCF   energy in the small basis set = -119.09987597
 Total energy in the small basis set = -119.09987597
 ----------------------------------------------------
  Cycle       Energy    
 ----------------------------------------------------
    1     -16.5397014433     -1.65E+01
 Long-range K will be added via erf
 Coulomb attenuation parameter = 0.2 bohr**(-1)
 A restricted hybrid HF-DFT SCF calculation will be
 performed using Relaxed Constraint Minimization + Pulay DIIS
 Exchange:     0.2220 Hartree-Fock + 1.0000 wB97X-D + LR-HF
 Correlation:  1.0000 wB97X-D
 Using Euler-Maclaurin-Lebedev (75,302) quadrature formula
 Dispersion:   Grimme D
 SCF converges when DIIS error is below 1.0E-05
 Basis2 calculation detected. Using small basis as guess for larger.
 SCFMinFind is unable to tell whether the solution found is close.
 Resetting ReadMinima to 0 and attempting to follow guess.
 SCFMinFind following SCF Guess.
 using 3 threads for integral computing
 -------------------------------------------------------
 OpenMP Integral computing Module                
 Release: version 1.0, May 2013, Q-Chem Inc. Pittsburgh 
 -------------------------------------------------------
 using 3 threads for integral computing
 -------------------------------------------------------
 OpenMP Integral computing Module                
 Release: version 1.0, May 2013, Q-Chem Inc. Pittsburgh 
 -------------------------------------------------------
 ---------------------------------------
  Cycle       Energy         DIIS Error
 ---------------------------------------
    1    -119.1190434188      4.21E-03
    2    -119.1410940329      6.00E-04 Done RCA. Switching to DIIS
    3    -119.1419318957      4.21E-04
    4    -119.1429014748      4.54E-05
    5    -119.1429161702      9.98E-06 Convergence criterion met
 ---------------------------------------
 SCF time:  CPU 42.67 s  wall 14.24 s
 SCF   energy in the final basis set = -119.14291617
 Total energy in the final basis set = -119.14291617
 
 --------------------------------------------------------------
 
                    Orbital Energies (a.u.)
 --------------------------------------------------------------
 
 Alpha MOs
 -- Occupied --
-10.2745 -10.2669 -10.2632  -0.8819  -0.7775  -0.6779  -0.5464  -0.5242
 -0.4839  -0.4637  -0.4235  -0.4109  -0.4068
 -- Virtual --
  0.0691   0.0859   0.0909   0.0990   0.1250   0.1298   0.1333   0.1424
  0.1433   0.1685   0.1740   0.1913   0.2326   0.2413   0.2424   0.2663
  0.2813   0.2839   0.3068   0.3161   0.3328   0.3493   0.4584   0.4653
  0.4715   0.5096   0.5125   0.5190   0.5428   0.5651   0.5815   0.5874
  0.6248   0.6265   0.6418   0.6446   0.6546   0.6570   0.7097   0.7248
  0.7267   0.7672   0.8211   0.8653   0.8703   0.8740   0.8803   0.9588
  1.0036   1.0514   1.0549   1.1290   1.1445   1.1795   1.1826   1.2105
  1.2351   1.2356   1.2681   1.2841   1.2889   1.2929   1.3272   1.3768
  1.3831   1.3936   1.4032   1.4467   1.4582   1.4721   1.4805   1.4907
  1.5196   1.5821   1.6060   1.6291   1.6346   1.6395   1.6842   1.6892
  1.7380   2.3795   2.4657   2.4832   2.4989   2.5474   2.5661   2.6022
  2.6294   2.7134   2.8196   2.8342   2.8372   2.9038   2.9066   2.9290
  2.9514   2.9593   3.0023   3.0076   3.0388   3.0658   3.0902   3.0998
  3.1335   3.1361   3.1694   3.1931   3.2138   3.2512   3.2812   3.3026
  3.3232   3.3286   3.3405   3.3585   3.3733   3.3843   3.3944   3.4458
  3.4820   3.4864   3.4937   3.5231   3.5621   3.5780   3.5990   3.6154
  3.6274   3.6707   3.6842   3.7013   3.7660   3.8071   3.8714   3.8822
  3.9159   3.9295   3.9444   3.9469   3.9824   3.9960   4.0555   4.0635
  4.0856   4.0944   4.1044   4.1145   4.1563   4.1684   4.1838   4.1900
  4.2327   4.2416   4.2812   4.3750   4.3996   4.4059   4.4205   4.4382
  4.4417   4.5847   4.5917   4.6171   4.6715   4.8134   4.8286   4.8565
  4.9341   4.9571   4.9578   4.9635   5.0310   5.0437   5.0511   5.1143
  5.1255   5.2362   5.2407   5.2862   5.3226   5.3318   5.3392   5.3670
  5.4170   5.4216   5.4661   5.5042   5.5576   5.5777   5.6229   5.7441
  5.9642   6.3676   6.3910   6.3996   6.4209   6.4728  25.2028  25.4358
 25.4604
 --------------------------------------------------------------
 
 -----------------------------------------------------------------
                    Cartesian Multipole Moments
 -----------------------------------------------------------------
    Charge (ESU x 10^10)
                 0.0000
    Dipole Moment (Debye)
         X      -0.0171      Y      -0.0001      Z      -0.0797
       Tot       0.0815
    Quadrupole Moments (Debye-Ang)
        XX     -22.1740     XY      -0.0087     YY     -21.3697
        XZ      -0.1144     YZ      -0.0000     ZZ     -21.8701
    Octopole Moments (Debye-Ang^2)
       XXX       1.4546    XXY       0.0021    XYY       0.1598
       YYY      -0.0068    XXZ      -1.5500    XYZ      -0.0210
       YYZ       0.5066    XZZ       0.4593    YZZ      -0.0089
       ZZZ      -0.3036
    Hexadecapole Moments (Debye-Ang^3)
      XXXX    -202.1978   XXXY       0.1702   XXYY     -42.1955
      XYYY       0.0850   YYYY     -44.1149   XXXZ       1.3039
      XXYZ      -0.0001   XYYZ      -0.1313   YYYZ       0.0006
      XXZZ     -45.2768   XYZZ       0.1245   YYZZ     -17.1032
      XZZZ       0.4501   YZZZ      -0.0056   ZZZZ     -72.3134
 -----------------------------------------------------------------
Archival summary:
1\1\centos77-c4\SP\ProcedureUnspecified\BasisUnspecified\38\shihchen\TueJul701:49:002020TueJul701:49:002020\0\\#,ProcedureUnspecified,BasisUnspecified,\\0,1\C\H,1,1.09259\H,1,1.09259,2,106.105\C,1,1.50978,2,114.102,3,126.859,0\H,4,1.08969,1,108.364,2,-60.3182,0\H,4,1.09045,1,110.055,2,59.1622,0\H,4,1.09054,1,110.131,2,-179.24,0\C,1,1.53831,2,104.602,3,-109.958,0\H,8,1.09125,1,114.84,2,56.5799,0\H,8,1.0932,1,111.62,2,178.359,0\H,8,1.09328,1,111.697,2,-64.5978,0\\\@

 Total job time:  24.76s(wall), 66.84s(cpu) 
 Tue Jul  7 01:49:00 2020

        *************************************************************
        *                                                           *
        *  Thank you very much for using Q-Chem.  Have a nice day.  *
        *                                                           *
        *************************************************************


