                  Welcome to Q-Chem
     A Quantum Leap Into The Future Of Chemistry


 Q-Chem 5.3 (devel), Q-Chem, Inc., Pleasanton, CA (2020)

 Yihan Shao,  Zhengting Gan,  E. Epifanovsky,  A. T. B. Gilbert,  M. Wormit,  
 J. Kussmann,  A. W. Lange,  A. Behn,  Jia Deng,  Xintian Feng,  D. Ghosh,  
 M. Goldey,  P. R. Horn,  L. D. Jacobson,  I. Kaliman,  T. Kus,  A. Landau,  
 Jie Liu,  E. I. Proynov,  R. M. Richard,  R. P. Steele,  E. J. Sundstrom,  
 H. L. Woodcock III,  P. M. Zimmerman,  D. Zuev,  B. Alam,  B. Albrecht,  
 E. Alguire,  S. A. Baeppler,  D. Barton,  Z. Benda,  Y. A. Bernard,  
 E. J. Berquist,  K. B. Bravaya,  H. Burton,  K. Carter-Fenk,  D. Casanova,  
 Chun-Min Chang,  Yunqing Chen,  A. Chien,  K. D. Closser,  M. P. Coons,  
 S. Coriani,  S. Dasgupta,  A. L. Dempwolff,  M. Diedenhofen,  Hainam Do,  
 R. G. Edgar,  Po-Tung Fang,  S. Faraji,  S. Fatehi,  Qingguo Feng,  
 J. Fosso-Tande,  J. Gayvert,  Qinghui Ge,  A. Ghysels,  G. Gidofalvi,  
 J. Gomes,  J. Gonthier,  A. Gunina,  D. Hait,  M. W. D. Hanson-Heine,  
 P. H. P. Harbach,  A. W. Hauser,  M. F. Herbst,  J. E. Herr,  
 E. G. Hohenstein,  Z. C. Holden,  Kerwin Hui,  B. C. Huynh,  T.-C. Jagau,  
 Hyunjun Ji,  B. Kaduk,  K. Khistyaev,  Jaehoon Kim,  P. Klunzinger,  K. Koh,  
 D. Kosenkov,  L. Koulias,  T. Kowalczyk,  C. M. Krauter,  A. Kunitsa,  
 Ka Un Lao,  A. Laurent,  K. V. Lawler,  Joonho Lee,  D. Lefrancois,  
 S. Lehtola,  D. S. Levine,  Yi-Pei Li,  You-Sheng Lin,  Fenglai Liu,  
 Kuan-Yu Liu,  E. Livshits,  M. Loipersberger,  A. Luenser,  P. Manohar,  
 E. Mansoor,  S. F. Manzer,  Shan-Ping Mao,  Yuezhi Mao,  N. Mardirossian,  
 A. V. Marenich,  T. Markovich,  L. A. Martinez-Martinez,  S. A. Maurer,  
 N. J. Mayhall,  S. C. McKenzie,  J.-M. Mewes,  P. Morgante,  A. F. Morrison,  
 J. W. Mullinax,  K. Nanda,  T. S. Nguyen-Beck,  R. Olivares-Amaya,  
 K. J. Oosterbaan,  J. A. Parkhill,  S. K. Paul,  F. Pavosevic,  Zheng Pei,  
 T. M. Perrine,  F. Plasser,  P. Pokhilko,  S. Prager,  A. Prociuk,  
 E. Ramos,  B. Rana,  D. R. Rehn,  F. Rob,  M. Scheurer,  M. Schneider,  
 N. Sergueev,  S. M. Sharada,  S. Sharma,  D. W. Small,  T. Stauch,  
 C. J. Stein,  T. Stein,  Yu-Chuan Su,  S. P. Veccham,  Zhen Tao,  
 A. J. W. Thom,  A. Tkatchenko,  T. Tsuchimochi,  N. M. Tubman,  L. Vogt,  
 M. L. Vidal,  O. Vydrov,  M. A. Watson,  J. Wenzel,  M. de Wergifosse,  
 T. A. Wesolowski,  A. White,  J. Witte,  A. Yamada,  Jun Yang,  K. Yao,  
 S. Yeganeh,  S. R. Yost,  Zhi-Qiang You,  A. Zech,  Igor Ying Zhang,  
 Xing Zhang,  Yan Zhao,  Ying Zhu,  B. R. Brooks,  G. K. L. Chan,  
 C. J. Cramer,  M. S. Gordon,  W. J. Hehre,  A. Klamt,  M. W. Schmidt,  
 C. D. Sherrill,  D. G. Truhlar,  A. Aspuru-Guzik,  R. Baer,  A. T. Bell,  
 N. A. Besley,  Jeng-Da Chai,  A. E. DePrince, III,  R. A. DiStasio Jr.,  
 A. Dreuw,  B. D. Dunietz,  T. R. Furlani,  Chao-Ping Hsu,  Yousung Jung,  
 Jing Kong,  D. S. Lambrecht,  WanZhen Liang,  C. Ochsenfeld,  
 V. A. Rassolov,  L. V. Slipchenko,  J. E. Subotnik,  T. Van Voorhis,  
 J. M. Herbert,  A. I. Krylov,  P. M. W. Gill,  M. Head-Gordon

 Contributors to earlier versions of Q-Chem not listed above: 
 R. D. Adamson,  B. Austin,  J. Baker,  G. J. O. Beran,  K. Brandhorst,  
 S. T. Brown,  E. F. C. Byrd,  A. K. Chakraborty,  C.-L. Cheng,  
 Siu Hung Chien,  D. M. Chipman,  D. L. Crittenden,  H. Dachsel,  
 R. J. Doerksen,  A. D. Dutoi,  L. Fusti-Molnar,  W. A. Goddard III,  
 A. Golubeva-Zadorozhnaya,  S. R. Gwaltney,  G. Hawkins,  A. Heyden,  
 S. Hirata,  G. Kedziora,  F. J. Keil,  C. Kelley,  Jihan Kim,  R. A. King,  
 R. Z. Khaliullin,  P. P. Korambath,  W. Kurlancheek,  A. M. Lee,  M. S. Lee,  
 S. V. Levchenko,  Ching Yeh Lin,  D. Liotard,  R. C. Lochan,  I. Lotan,  
 P. E. Maslen,  N. Nair,  D. P. O'Neill,  D. Neuhauser,  E. Neuscamman,  
 C. M. Oana,  R. Olson,  B. Peters,  R. Peverati,  P. A. Pieniazek,  
 Y. M. Rhee,  J. Ritchie,  M. A. Rohrdanz,  E. Rosta,  N. J. Russ,  
 H. F. Schaefer III,  N. E. Schultz,  N. Shenvi,  A. C. Simmonett,  A. Sodt,  
 D. Stuck,  K. S. Thanthiriwatte,  V. Vanovschi,  Tao Wang,  A. Warshel,  
 C. F. Williams,  Q. Wu,  X. Xu,  W. Zhang

 Please cite Q-Chem as follows:
 Y. Shao et al., Mol. Phys. 113, 184-215 (2015)
 DOI: 10.1080/00268976.2014.952696

 Q-Chem 5.3.0 for Intel X86 EM64T Linux

 Parts of Q-Chem use Armadillo 9.800.1 (Horizon Scraper).
 http://arma.sourceforge.net/

 Q-Chem begins on Tue Jul  7 02:02:38 2020  

Host: centos77-c4
0

     Scratch files written to /tmp/26964.centos77-h1/qchem107328//
Processing $rem in /opt/qchem-5.3.0-intel2020u1//config/preferences:
Processing $rem in /home/shihchengli/.qchemrc:

Checking the input file for inconsistencies... 	...done.

--------------------------------------------------------------
User input:
--------------------------------------------------------------
$rem
   JOBTYPE  sp
   EXCHANGE   omegaB97X-D
   BASIS   6-311+G(2df,2pd)
   UNRESTRICTED   False
   max_scf_cycles   250
   geom_opt_max_cycles   1500
   basis2 6-31G*
   scf_algorithm rca_diis
   SYM_IGNORE  TRUE
   print_input   true
   geom_opt_dmax   80
   pop_mulliken false
   XC_GRID 000075000302
$end

$molecule
0 1
C       1.2443659601     -0.0412696868     0.2720531806
C       -0.0227665292     0.0058328436     -0.5932260268
H       1.1079290761     -0.9455882885     0.8514525411
H       1.4937350921     0.9057373090     0.7662873207
H       2.1688683225     0.2180987990     -0.2525489849
C       -1.2876165887     0.0591413164     0.2352962431
H       -0.0321209251     -0.8710348911     -1.2449711317
H       0.0687842577     0.8736591505     -1.2506848155
H       -1.4964298696     -0.7643501033     0.9357735262
H       -2.1208127650     -0.2335300362     -0.3981198785
H       -1.1239360915     0.7933042535     1.0197330448
$end
--------------------------------------------------------------
 ----------------------------------------------------------------
             Standard Nuclear Orientation (Angstroms)
    I     Atom           X                Y                Z
 ----------------------------------------------------------------
    1      C       1.2443659601    -0.0412696868     0.2720531806
    2      C      -0.0227665292     0.0058328436    -0.5932260268
    3      H       1.1079290761    -0.9455882885     0.8514525411
    4      H       1.4937350921     0.9057373090     0.7662873207
    5      H       2.1688683225     0.2180987990    -0.2525489849
    6      C      -1.2876165887     0.0591413164     0.2352962431
    7      H      -0.0321209251    -0.8710348911    -1.2449711317
    8      H       0.0687842577     0.8736591505    -1.2506848155
    9      H      -1.4964298696    -0.7643501033     0.9357735262
   10      H      -2.1208127650    -0.2335300362    -0.3981198785
   11      H      -1.1239360915     0.7933042535     1.0197330448
 ----------------------------------------------------------------
 Nuclear Repulsion Energy =          82.86613778 hartrees
 There are       13 alpha and       13 beta electrons
 Requested basis set is 6-311+G(2df,2pd)
 There are 72 shells and 214 basis functions

 Total QAlloc Memory Limit   2000 MB
 Mega-Array Size       188 MB
 MEM_STATIC part       192 MB

                       Distance Matrix (Angstroms)
             C (  1)   C (  2)   H (  3)   H (  4)   H (  5)   C (  6)
   C (  2)  1.535106
   H (  3)  1.082641  2.066584
   H (  4)  1.096939  2.226630  1.893015
   H (  5)  1.094159  2.228089  1.923169  1.402383
   C (  6)  2.534239  1.512989  2.669788  2.955435  3.494360
   H (  7)  2.149254  1.092592  2.387523  3.087121  2.648673  2.152368
   H (  8)  2.130216  1.092591  2.967906  2.469755  2.415862  2.170576
   H (  9)  2.911242  2.258917  2.612019  3.429140  3.976396  1.101095
   H ( 10)  3.436644  2.120651  3.534577  3.964685  4.315846  1.086779
   H ( 11)  2.619999  2.105783  2.834306  2.632314  3.576608  1.086797
             H (  7)   H (  8)   H (  9)   H ( 10)
   H (  8)  1.747619
   H (  9)  2.628922  3.148582
   H ( 10)  2.342265  2.597512  1.565534
   H ( 11)  3.015124  2.565899  1.603773  2.014562
 
 A cutoff of  1.0D-09 yielded   2533 shell pairs
 There are     22539 function pairs (     27714 Cartesian)
 Smallest overlap matrix eigenvalue = 8.89E-05

 Scale SEOQF with 1.000000e-01/1.000000e-01/1.000000e-01

 Standard Electronic Orientation quadrupole field applied
 Nucleus-field energy     =     0.0000000006 hartrees
 Requested basis set is 6-31G(d)
 There are 28 shells and 58 basis functions
 A cutoff of  1.0D-09 yielded    402 shell pairs
 There are      1773 function pairs (      1968 Cartesian)
 Smallest overlap matrix eigenvalue = 6.89E-03
 Guess from superposition of atomic densities
 Warning:  Energy on first SCF cycle will be non-variational
 SAD guess density has 26.000000 electrons
 Long-range K will be added via erf
 Coulomb attenuation parameter = 0.2 bohr**(-1)
 A restricted hybrid HF-DFT SCF calculation will be
 performed using Relaxed Constraint Minimization + Pulay DIIS
 Exchange:     0.2220 Hartree-Fock + 1.0000 wB97X-D + LR-HF
 Correlation:  1.0000 wB97X-D
 Using Euler-Maclaurin-Lebedev (75,302) quadrature formula
 Dispersion:   Grimme D
 SCF converges when DIIS error is below 1.0E-04
 using 3 threads for integral computing
 -------------------------------------------------------
 OpenMP Integral computing Module                
 Release: version 1.0, May 2013, Q-Chem Inc. Pittsburgh 
 -------------------------------------------------------
 using 3 threads for integral computing
 -------------------------------------------------------
 OpenMP Integral computing Module                
 Release: version 1.0, May 2013, Q-Chem Inc. Pittsburgh 
 -------------------------------------------------------
 ---------------------------------------
  Cycle       Energy         DIIS Error
 ---------------------------------------
    1    -119.6505626348      1.01E-01
    2    -119.0028070085      9.50E-03
    3    -119.0264968404      2.57E-03
    4    -119.0426361351      1.76E-03
    5    -119.0434012696      2.80E-04 Done RCA. Switching to DIIS
    6    -119.0439767699      2.03E-04
    7    -119.0439951326      7.48E-06 Convergence criterion met
 ---------------------------------------
 SCF time:  CPU 19.49 s  wall 7.20 s
 SCF   energy in the small basis set = -119.04399513
 Total energy in the small basis set = -119.04399513
 ----------------------------------------------------
  Cycle       Energy    
 ----------------------------------------------------
    1     -16.5319923069     -1.65E+01
 Long-range K will be added via erf
 Coulomb attenuation parameter = 0.2 bohr**(-1)
 A restricted hybrid HF-DFT SCF calculation will be
 performed using Relaxed Constraint Minimization + Pulay DIIS
 Exchange:     0.2220 Hartree-Fock + 1.0000 wB97X-D + LR-HF
 Correlation:  1.0000 wB97X-D
 Using Euler-Maclaurin-Lebedev (75,302) quadrature formula
 Dispersion:   Grimme D
 SCF converges when DIIS error is below 1.0E-05
 Basis2 calculation detected. Using small basis as guess for larger.
 SCFMinFind is unable to tell whether the solution found is close.
 Resetting ReadMinima to 0 and attempting to follow guess.
 SCFMinFind following SCF Guess.
 using 3 threads for integral computing
 -------------------------------------------------------
 OpenMP Integral computing Module                
 Release: version 1.0, May 2013, Q-Chem Inc. Pittsburgh 
 -------------------------------------------------------
 using 3 threads for integral computing
 -------------------------------------------------------
 OpenMP Integral computing Module                
 Release: version 1.0, May 2013, Q-Chem Inc. Pittsburgh 
 -------------------------------------------------------
 ---------------------------------------
  Cycle       Energy         DIIS Error
 ---------------------------------------
    1    -119.0662355040      4.21E-03
    2    -119.0881192076      6.46E-04 Done RCA. Switching to DIIS
    3    -119.0890282500      4.68E-04
    4    -119.0902359846      4.70E-05
    5    -119.0902525780      1.08E-05
    6    -119.0902534563      4.24E-06 Convergence criterion met
 ---------------------------------------
 SCF time:  CPU 51.90 s  wall 17.53 s
 SCF   energy in the final basis set = -119.09025346
 Total energy in the final basis set = -119.09025346
 
 --------------------------------------------------------------
 
                    Orbital Energies (a.u.)
 --------------------------------------------------------------
 
 Alpha MOs
 -- Occupied --
-10.2749 -10.2665 -10.2660  -0.8845  -0.7844  -0.6841  -0.5614  -0.5487
 -0.4828  -0.4450  -0.4340  -0.4013  -0.3711
 -- Virtual --
  0.0682   0.0828   0.0901   0.0994   0.1203   0.1308   0.1318   0.1404
  0.1428   0.1679   0.1743   0.1947   0.2027   0.2247   0.2505   0.2680
  0.2752   0.2956   0.3051   0.3172   0.3329   0.3444   0.4567   0.4673
  0.4757   0.5045   0.5209   0.5297   0.5493   0.5615   0.5773   0.5973
  0.6050   0.6238   0.6362   0.6436   0.6698   0.6849   0.7066   0.7175
  0.7353   0.7732   0.7936   0.8447   0.8717   0.8790   0.9085   0.9184
  0.9605   1.0249   1.0555   1.1050   1.1506   1.1835   1.2060   1.2124
  1.2451   1.2595   1.2699   1.2787   1.2911   1.3208   1.3285   1.3671
  1.3809   1.3915   1.4242   1.4423   1.4571   1.4725   1.4869   1.4993
  1.5121   1.5746   1.6075   1.6250   1.6359   1.6495   1.6825   1.7016
  1.7833   2.4198   2.4567   2.4903   2.5206   2.5597   2.5647   2.6231
  2.6590   2.7032   2.7501   2.8105   2.8233   2.8561   2.8654   2.8806
  2.9211   2.9436   2.9667   3.0092   3.0214   3.0597   3.0843   3.1138
  3.1225   3.1547   3.1724   3.2021   3.2166   3.2352   3.2539   3.2986
  3.3043   3.3274   3.3392   3.3830   3.4080   3.4213   3.4436   3.4724
  3.4854   3.5126   3.5348   3.5419   3.5806   3.5826   3.5885   3.6198
  3.6495   3.6567   3.6821   3.6856   3.7286   3.7535   3.7920   3.8033
  3.8468   3.8646   3.8759   3.9099   3.9297   3.9780   3.9790   4.0260
  4.0588   4.0978   4.1021   4.1366   4.1576   4.1660   4.2053   4.2540
  4.2654   4.2919   4.3259   4.3633   4.4010   4.4153   4.4344   4.4599
  4.5098   4.5536   4.6219   4.6309   4.6834   4.6931   4.7495   4.8231
  4.8759   4.9300   4.9444   4.9787   4.9890   5.0362   5.0700   5.1118
  5.1240   5.1894   5.2479   5.2788   5.3097   5.3522   5.3982   5.4430
  5.4819   5.5156   5.5717   5.6378   5.7523   5.7851   5.8125   5.8793
  5.9918   6.3242   6.3544   6.4434   6.4991   6.5460  25.1982  25.4211
 25.4495
 --------------------------------------------------------------
 
 -----------------------------------------------------------------
                    Cartesian Multipole Moments
 -----------------------------------------------------------------
    Charge (ESU x 10^10)
                -0.0000
    Dipole Moment (Debye)
         X       0.1053      Y      -0.0391      Z      -0.0279
       Tot       0.1158
    Quadrupole Moments (Debye-Ang)
        XX     -22.0923     XY       2.0170     YY     -21.5413
        XZ      -0.0920     YZ      -0.0127     ZZ     -22.0764
    Octopole Moments (Debye-Ang^2)
       XXX       1.9450    XXY       0.1337    XYY       1.4537
       YYY      -0.5825    XXZ      -0.6749    XYZ      -0.5298
       YYZ       0.1126    XZZ      -0.8907    YZZ      -0.1743
       ZZZ      -0.1831
    Hexadecapole Moments (Debye-Ang^3)
      XXXX    -203.1215   XXXY      10.6089   XXYY     -41.9571
      XYYY       0.1191   YYYY     -44.9205   XXXZ       0.9006
      XXYZ       0.2207   XYYZ       0.3533   YYYZ      -0.2885
      XXZZ     -46.1463   XYZZ      -0.1701   YYZZ     -17.6639
      XZZZ      -1.8527   YZZZ       0.0043   ZZZZ     -72.7292
 -----------------------------------------------------------------
Archival summary:
1\1\centos77-c4\SP\ProcedureUnspecified\BasisUnspecified\38\shihchen\TueJul702:03:052020TueJul702:03:052020\0\\#,ProcedureUnspecified,BasisUnspecified,\\0,1\C\H,1,1.09259\H,1,1.09259,2,106.214\C,1,1.51299,2,111.813,3,-120.431,0\H,4,1.08678,1,108.196,2,77.6518,0\H,4,1.0868,1,107.047,2,-75.3974,0\H,4,1.10109,1,118.722,2,179.711,0\C,1,1.53511,2,107.121,3,115.902,0\H,8,1.08264,1,102.901,2,-177.047,0\H,8,1.09416,1,114.83,2,-39.2973,0\H,8,1.09694,1,114.527,2,50.2594,0\\\@

 Total job time:  27.77s(wall), 75.25s(cpu) 
 Tue Jul  7 02:03:05 2020

        *************************************************************
        *                                                           *
        *  Thank you very much for using Q-Chem.  Have a nice day.  *
        *                                                           *
        *************************************************************


