                  Welcome to Q-Chem
     A Quantum Leap Into The Future Of Chemistry


 Q-Chem 5.3 (devel), Q-Chem, Inc., Pleasanton, CA (2020)

 Yihan Shao,  Zhengting Gan,  E. Epifanovsky,  A. T. B. Gilbert,  M. Wormit,  
 J. Kussmann,  A. W. Lange,  A. Behn,  Jia Deng,  Xintian Feng,  D. Ghosh,  
 M. Goldey,  P. R. Horn,  L. D. Jacobson,  I. Kaliman,  T. Kus,  A. Landau,  
 Jie Liu,  E. I. Proynov,  R. M. Richard,  R. P. Steele,  E. J. Sundstrom,  
 H. L. Woodcock III,  P. M. Zimmerman,  D. Zuev,  B. Alam,  B. Albrecht,  
 E. Alguire,  S. A. Baeppler,  D. Barton,  Z. Benda,  Y. A. Bernard,  
 E. J. Berquist,  K. B. Bravaya,  H. Burton,  K. Carter-Fenk,  D. Casanova,  
 Chun-Min Chang,  Yunqing Chen,  A. Chien,  K. D. Closser,  M. P. Coons,  
 S. Coriani,  S. Dasgupta,  A. L. Dempwolff,  M. Diedenhofen,  Hainam Do,  
 R. G. Edgar,  Po-Tung Fang,  S. Faraji,  S. Fatehi,  Qingguo Feng,  
 J. Fosso-Tande,  J. Gayvert,  Qinghui Ge,  A. Ghysels,  G. Gidofalvi,  
 J. Gomes,  J. Gonthier,  A. Gunina,  D. Hait,  M. W. D. Hanson-Heine,  
 P. H. P. Harbach,  A. W. Hauser,  M. F. Herbst,  J. E. Herr,  
 E. G. Hohenstein,  Z. C. Holden,  Kerwin Hui,  B. C. Huynh,  T.-C. Jagau,  
 Hyunjun Ji,  B. Kaduk,  K. Khistyaev,  Jaehoon Kim,  P. Klunzinger,  K. Koh,  
 D. Kosenkov,  L. Koulias,  T. Kowalczyk,  C. M. Krauter,  A. Kunitsa,  
 Ka Un Lao,  A. Laurent,  K. V. Lawler,  Joonho Lee,  D. Lefrancois,  
 S. Lehtola,  D. S. Levine,  Yi-Pei Li,  You-Sheng Lin,  Fenglai Liu,  
 Kuan-Yu Liu,  E. Livshits,  M. Loipersberger,  A. Luenser,  P. Manohar,  
 E. Mansoor,  S. F. Manzer,  Shan-Ping Mao,  Yuezhi Mao,  N. Mardirossian,  
 A. V. Marenich,  T. Markovich,  L. A. Martinez-Martinez,  S. A. Maurer,  
 N. J. Mayhall,  S. C. McKenzie,  J.-M. Mewes,  P. Morgante,  A. F. Morrison,  
 J. W. Mullinax,  K. Nanda,  T. S. Nguyen-Beck,  R. Olivares-Amaya,  
 K. J. Oosterbaan,  J. A. Parkhill,  S. K. Paul,  F. Pavosevic,  Zheng Pei,  
 T. M. Perrine,  F. Plasser,  P. Pokhilko,  S. Prager,  A. Prociuk,  
 E. Ramos,  B. Rana,  D. R. Rehn,  F. Rob,  M. Scheurer,  M. Schneider,  
 N. Sergueev,  S. M. Sharada,  S. Sharma,  D. W. Small,  T. Stauch,  
 C. J. Stein,  T. Stein,  Yu-Chuan Su,  S. P. Veccham,  Zhen Tao,  
 A. J. W. Thom,  A. Tkatchenko,  T. Tsuchimochi,  N. M. Tubman,  L. Vogt,  
 M. L. Vidal,  O. Vydrov,  M. A. Watson,  J. Wenzel,  M. de Wergifosse,  
 T. A. Wesolowski,  A. White,  J. Witte,  A. Yamada,  Jun Yang,  K. Yao,  
 S. Yeganeh,  S. R. Yost,  Zhi-Qiang You,  A. Zech,  Igor Ying Zhang,  
 Xing Zhang,  Yan Zhao,  Ying Zhu,  B. R. Brooks,  G. K. L. Chan,  
 C. J. Cramer,  M. S. Gordon,  W. J. Hehre,  A. Klamt,  M. W. Schmidt,  
 C. D. Sherrill,  D. G. Truhlar,  A. Aspuru-Guzik,  R. Baer,  A. T. Bell,  
 N. A. Besley,  Jeng-Da Chai,  A. E. DePrince, III,  R. A. DiStasio Jr.,  
 A. Dreuw,  B. D. Dunietz,  T. R. Furlani,  Chao-Ping Hsu,  Yousung Jung,  
 Jing Kong,  D. S. Lambrecht,  WanZhen Liang,  C. Ochsenfeld,  
 V. A. Rassolov,  L. V. Slipchenko,  J. E. Subotnik,  T. Van Voorhis,  
 J. M. Herbert,  A. I. Krylov,  P. M. W. Gill,  M. Head-Gordon

 Contributors to earlier versions of Q-Chem not listed above: 
 R. D. Adamson,  B. Austin,  J. Baker,  G. J. O. Beran,  K. Brandhorst,  
 S. T. Brown,  E. F. C. Byrd,  A. K. Chakraborty,  C.-L. Cheng,  
 Siu Hung Chien,  D. M. Chipman,  D. L. Crittenden,  H. Dachsel,  
 R. J. Doerksen,  A. D. Dutoi,  L. Fusti-Molnar,  W. A. Goddard III,  
 A. Golubeva-Zadorozhnaya,  S. R. Gwaltney,  G. Hawkins,  A. Heyden,  
 S. Hirata,  G. Kedziora,  F. J. Keil,  C. Kelley,  Jihan Kim,  R. A. King,  
 R. Z. Khaliullin,  P. P. Korambath,  W. Kurlancheek,  A. M. Lee,  M. S. Lee,  
 S. V. Levchenko,  Ching Yeh Lin,  D. Liotard,  R. C. Lochan,  I. Lotan,  
 P. E. Maslen,  N. Nair,  D. P. O'Neill,  D. Neuhauser,  E. Neuscamman,  
 C. M. Oana,  R. Olson,  B. Peters,  R. Peverati,  P. A. Pieniazek,  
 Y. M. Rhee,  J. Ritchie,  M. A. Rohrdanz,  E. Rosta,  N. J. Russ,  
 H. F. Schaefer III,  N. E. Schultz,  N. Shenvi,  A. C. Simmonett,  A. Sodt,  
 D. Stuck,  K. S. Thanthiriwatte,  V. Vanovschi,  Tao Wang,  A. Warshel,  
 C. F. Williams,  Q. Wu,  X. Xu,  W. Zhang

 Please cite Q-Chem as follows:
 Y. Shao et al., Mol. Phys. 113, 184-215 (2015)
 DOI: 10.1080/00268976.2014.952696

 Q-Chem 5.3.0 for Intel X86 EM64T Linux

 Parts of Q-Chem use Armadillo 9.800.1 (Horizon Scraper).
 http://arma.sourceforge.net/

 Q-Chem begins on Tue Jul  7 01:51:07 2020  

Host: centos77-c4
0

     Scratch files written to /tmp/26964.centos77-h1/qchem105027//
Processing $rem in /opt/qchem-5.3.0-intel2020u1//config/preferences:
Processing $rem in /home/shihchengli/.qchemrc:

Checking the input file for inconsistencies... 	...done.

--------------------------------------------------------------
User input:
--------------------------------------------------------------
$rem
   JOBTYPE  sp
   EXCHANGE   omegaB97X-D
   BASIS   6-311+G(2df,2pd)
   UNRESTRICTED   False
   max_scf_cycles   250
   geom_opt_max_cycles   1500
   basis2 6-31G*
   scf_algorithm rca_diis
   SYM_IGNORE  TRUE
   print_input   true
   geom_opt_dmax   80
   pop_mulliken false
   XC_GRID 000075000302
$end

$molecule
0 1
C       1.3096693446     0.0097122126     0.3247041677
C       0.1549442294     0.0011996227     -0.6030024269
H       1.2517836324     -0.8810831510     0.9460365318
H       1.3066935095     0.9524300694     0.8676290853
H       2.1480498406     -0.0294433589     -0.3678481009
C       -1.2022560579     -0.0033150833     0.1799335729
H       -0.1009051164     -0.8710063625     -1.2092652315
H       -0.1275208967     0.8621665194     -1.2134990645
H       -1.3163504827     -0.8724420844     0.8380113975
H       -2.1581323729     0.0355408407     -0.3482734800
H       -1.2659756905     0.7962414414     0.9266185675
$end
--------------------------------------------------------------
 ----------------------------------------------------------------
             Standard Nuclear Orientation (Angstroms)
    I     Atom           X                Y                Z
 ----------------------------------------------------------------
    1      C       1.3096693446     0.0097122126     0.3247041677
    2      C       0.1549442294     0.0011996227    -0.6030024269
    3      H       1.2517836324    -0.8810831510     0.9460365318
    4      H       1.3066935095     0.9524300694     0.8676290853
    5      H       2.1480498406    -0.0294433589    -0.3678481009
    6      C      -1.2022560579    -0.0033150833     0.1799335729
    7      H      -0.1009051164    -0.8710063625    -1.2092652315
    8      H      -0.1275208967     0.8621665194    -1.2134990645
    9      H      -1.3163504827    -0.8724420844     0.8380113975
   10      H      -2.1581323729     0.0355408407    -0.3482734800
   11      H      -1.2659756905     0.7962414414     0.9266185675
 ----------------------------------------------------------------
 Nuclear Repulsion Energy =          83.09303539 hartrees
 There are       13 alpha and       13 beta electrons
 Requested basis set is 6-311+G(2df,2pd)
 There are 72 shells and 214 basis functions

 Total QAlloc Memory Limit   2000 MB
 Mega-Array Size       188 MB
 MEM_STATIC part       192 MB

                       Distance Matrix (Angstroms)
             C (  1)   C (  2)   H (  3)   H (  4)   H (  5)   C (  6)
   C (  2)  1.481250
   H (  3)  1.087622  2.093084
   H (  4)  1.087885  2.096216  1.836010
   H (  5)  1.088138  2.007164  1.804128  1.788396
   C (  6)  2.516127  1.566845  2.716561  2.771498  3.394893
   H (  7)  2.262399  1.092592  2.544640  3.101571  2.544407  1.973762
   H (  8)  2.271181  1.092592  3.099193  2.529074  2.586178  1.961063
   H (  9)  2.817385  2.237069  2.570420  3.195527  3.763883  1.096114
   H ( 10)  3.532593  2.327314  3.760713  3.784722  4.306717  1.092800
   H ( 11)  2.759507  2.234020  3.025377  2.578081  3.743390  1.095851
             H (  7)   H (  8)   H (  9)   H ( 10)
   H (  8)  1.733382
   H (  9)  2.380893  2.937836
   H ( 10)  2.407347  2.356970  1.714731
   H ( 11)  2.949424  2.424980  1.671794  1.732039
 
 A cutoff of  1.0D-09 yielded   2539 shell pairs
 There are     22599 function pairs (     27783 Cartesian)
 Smallest overlap matrix eigenvalue = 9.34E-05

 Scale SEOQF with 1.000000e-01/1.000000e-01/1.000000e-01

 Standard Electronic Orientation quadrupole field applied
 Nucleus-field energy     =     0.0000000006 hartrees
 Requested basis set is 6-31G(d)
 There are 28 shells and 58 basis functions
 A cutoff of  1.0D-09 yielded    402 shell pairs
 There are      1773 function pairs (      1968 Cartesian)
 Smallest overlap matrix eigenvalue = 6.70E-03
 Guess from superposition of atomic densities
 Warning:  Energy on first SCF cycle will be non-variational
 SAD guess density has 26.000000 electrons
 Long-range K will be added via erf
 Coulomb attenuation parameter = 0.2 bohr**(-1)
 A restricted hybrid HF-DFT SCF calculation will be
 performed using Relaxed Constraint Minimization + Pulay DIIS
 Exchange:     0.2220 Hartree-Fock + 1.0000 wB97X-D + LR-HF
 Correlation:  1.0000 wB97X-D
 Using Euler-Maclaurin-Lebedev (75,302) quadrature formula
 Dispersion:   Grimme D
 SCF converges when DIIS error is below 1.0E-04
 using 3 threads for integral computing
 -------------------------------------------------------
 OpenMP Integral computing Module                
 Release: version 1.0, May 2013, Q-Chem Inc. Pittsburgh 
 -------------------------------------------------------
 using 3 threads for integral computing
 -------------------------------------------------------
 OpenMP Integral computing Module                
 Release: version 1.0, May 2013, Q-Chem Inc. Pittsburgh 
 -------------------------------------------------------
 ---------------------------------------
  Cycle       Energy         DIIS Error
 ---------------------------------------
    1    -119.6557884368      1.02E-01
    2    -119.0363776410      9.06E-03
    3    -119.0577835303      2.51E-03
    4    -119.0718437829      1.73E-03
    5    -119.0725783953      2.77E-04 Done RCA. Switching to DIIS
    6    -119.0731160056      2.04E-04
    7    -119.0731341311      5.84E-06 Convergence criterion met
 ---------------------------------------
 SCF time:  CPU 21.74 s  wall 8.31 s
 SCF   energy in the small basis set = -119.07313413
 Total energy in the small basis set = -119.07313413
 ----------------------------------------------------
  Cycle       Energy    
 ----------------------------------------------------
    1     -16.5428982541     -1.65E+01
 Long-range K will be added via erf
 Coulomb attenuation parameter = 0.2 bohr**(-1)
 A restricted hybrid HF-DFT SCF calculation will be
 performed using Relaxed Constraint Minimization + Pulay DIIS
 Exchange:     0.2220 Hartree-Fock + 1.0000 wB97X-D + LR-HF
 Correlation:  1.0000 wB97X-D
 Using Euler-Maclaurin-Lebedev (75,302) quadrature formula
 Dispersion:   Grimme D
 SCF converges when DIIS error is below 1.0E-05
 Basis2 calculation detected. Using small basis as guess for larger.
 SCFMinFind is unable to tell whether the solution found is close.
 Resetting ReadMinima to 0 and attempting to follow guess.
 SCFMinFind following SCF Guess.
 using 3 threads for integral computing
 -------------------------------------------------------
 OpenMP Integral computing Module                
 Release: version 1.0, May 2013, Q-Chem Inc. Pittsburgh 
 -------------------------------------------------------
 using 3 threads for integral computing
 -------------------------------------------------------
 OpenMP Integral computing Module                
 Release: version 1.0, May 2013, Q-Chem Inc. Pittsburgh 
 -------------------------------------------------------
 ---------------------------------------
  Cycle       Energy         DIIS Error
 ---------------------------------------
    1    -119.0931848775      4.21E-03
    2    -119.1152426846      6.22E-04 Done RCA. Switching to DIIS
    3    -119.1161193957      4.44E-04
    4    -119.1171976970      4.47E-05
    5    -119.1172125065      8.99E-06 Convergence criterion met
 ---------------------------------------
 SCF time:  CPU 43.07 s  wall 14.38 s
 SCF   energy in the final basis set = -119.11721251
 Total energy in the final basis set = -119.11721251
 
 --------------------------------------------------------------
 
                    Orbital Energies (a.u.)
 --------------------------------------------------------------
 
 Alpha MOs
 -- Occupied --
-10.2753 -10.2707 -10.2615  -0.8880  -0.7807  -0.6798  -0.5514  -0.5249
 -0.4923  -0.4651  -0.4284  -0.4009  -0.3911
 -- Virtual --
  0.0687   0.0852   0.0905   0.0984   0.1246   0.1284   0.1320   0.1407
  0.1444   0.1632   0.1787   0.1916   0.2304   0.2339   0.2413   0.2747
  0.2784   0.2796   0.2973   0.3174   0.3276   0.3437   0.4581   0.4595
  0.4741   0.5081   0.5110   0.5268   0.5342   0.5742   0.5810   0.5948
  0.6264   0.6277   0.6402   0.6476   0.6488   0.6590   0.7144   0.7176
  0.7255   0.7699   0.8219   0.8631   0.8759   0.8805   0.8898   0.9632
  1.0115   1.0399   1.0427   1.1007   1.1392   1.1726   1.1928   1.1988
  1.2387   1.2419   1.2777   1.2957   1.3112   1.3208   1.3278   1.3763
  1.3878   1.3982   1.4170   1.4382   1.4448   1.4802   1.4887   1.4923
  1.5305   1.5783   1.6023   1.6076   1.6231   1.6310   1.6497   1.6945
  1.7341   2.4025   2.4550   2.4910   2.5051   2.5682   2.6012   2.6204
  2.6314   2.7136   2.7870   2.8070   2.8422   2.8752   2.9012   2.9255
  2.9545   2.9671   2.9771   3.0026   3.0407   3.0639   3.1041   3.1225
  3.1330   3.1381   3.1472   3.2218   3.2344   3.2483   3.3003   3.3118
  3.3189   3.3263   3.3411   3.3609   3.3976   3.4003   3.4464   3.4599
  3.4725   3.5007   3.5167   3.5324   3.5484   3.5626   3.5950   3.6058
  3.6253   3.6289   3.6733   3.7051   3.7204   3.7669   3.7954   3.8712
  3.8796   3.8923   3.9101   3.9199   3.9867   4.0028   4.0146   4.0644
  4.0719   4.1101   4.1130   4.1216   4.1484   4.1612   4.1676   4.2318
  4.2480   4.3026   4.3110   4.3706   4.3963   4.4123   4.4437   4.4882
  4.4949   4.5631   4.5894   4.6735   4.7072   4.7962   4.8105   4.8731
  4.8906   4.9406   4.9514   4.9612   5.0139   5.0251   5.0678   5.1248
  5.1364   5.1909   5.2212   5.2729   5.3241   5.3424   5.3614   5.3870
  5.4334   5.5328   5.5374   5.5621   5.5921   5.6049   5.7213   5.7433
  6.0350   6.3319   6.3834   6.4270   6.4438   6.5334  25.1994  25.4064
 25.4797
 --------------------------------------------------------------
 
 -----------------------------------------------------------------
                    Cartesian Multipole Moments
 -----------------------------------------------------------------
    Charge (ESU x 10^10)
                -0.0000
    Dipole Moment (Debye)
         X       0.0084      Y      -0.0013      Z      -0.0279
       Tot       0.0291
    Quadrupole Moments (Debye-Ang)
        XX     -22.2219     XY       0.0310     YY     -21.4240
        XZ       0.3165     YZ      -0.0002     ZZ     -22.1009
    Octopole Moments (Debye-Ang^2)
       XXX      -4.4877    XXY       0.0175    XYY      -0.5289
       YYY      -0.0601    XXZ      -1.5572    XYZ       0.0663
       YYZ       0.6857    XZZ      -1.4275    YZZ      -0.0756
       ZZZ       0.5802
    Hexadecapole Moments (Debye-Ang^3)
      XXXX    -201.3087   XXXY      -0.4963   XXYY     -41.9687
      XYYY      -0.2470   YYYY     -44.0689   XXXZ      -3.8759
      XXYZ       0.0004   XYYZ       0.3656   YYYZ       0.0056
      XXZZ     -44.9835   XYZZ      -0.3473   YYZZ     -17.3938
      XZZZ      -1.3209   YZZZ      -0.0463   ZZZZ     -73.2975
 -----------------------------------------------------------------
Archival summary:
1\1\centos77-c4\SP\ProcedureUnspecified\BasisUnspecified\38\shihchen\TueJul701:51:322020TueJul701:51:322020\0\\#,ProcedureUnspecified,BasisUnspecified,\\0,1\C\H,1,1.09259\H,1,1.09259,2,104.979\C,1,1.48125,2,123.159,3,146.714,0\H,4,1.08762,1,108.155,2,168.832,0\H,4,1.08788,1,108.386,2,43.3988,0\H,4,1.08814,1,101.643,2,-73.092,0\C,1,1.56684,2,93.2987,3,-95.1761,0\H,8,1.0928,1,121.067,2,49.6275,0\H,8,1.09585,1,112.876,2,-75.4153,0\H,8,1.09611,1,113.107,2,172.694,0\\\@

 Total job time:  25.64s(wall), 68.50s(cpu) 
 Tue Jul  7 01:51:32 2020

        *************************************************************
        *                                                           *
        *  Thank you very much for using Q-Chem.  Have a nice day.  *
        *                                                           *
        *************************************************************


