                  Welcome to Q-Chem
     A Quantum Leap Into The Future Of Chemistry


 Q-Chem 5.2 (devel), Q-Chem, Inc., Pleasanton, CA (2019)

 Yihan Shao,  Zhengting Gan,  E. Epifanovsky,  A. T. B. Gilbert,  M. Wormit,  
 J. Kussmann,  A. W. Lange,  A. Behn,  Jia Deng,  Xintian Feng,  D. Ghosh,  
 M. Goldey,  P. R. Horn,  L. D. Jacobson,  I. Kaliman,  T. Kus,  A. Landau,  
 Jie Liu,  E. I. Proynov,  R. M. Richard,  R. P. Steele,  E. J. Sundstrom,  
 H. L. Woodcock III,  P. M. Zimmerman,  D. Zuev,  B. Alam,  B. Albrecht,  
 E. Alguire,  S. A. Baeppler,  D. Barton,  Z. Benda,  Y. A. Bernard,  
 E. J. Berquist,  K. B. Bravaya,  H. Burton,  K. Carter-Fenk,  D. Casanova,  
 Chun-Min Chang,  Yunqing Chen,  A. Chien,  K. D. Closser,  M. P. Coons,  
 S. Coriani,  S. Dasgupta,  A. L. Dempwolff,  M. Diedenhofen,  Hainam Do,  
 R. G. Edgar,  Po-Tung Fang,  S. Faraji,  S. Fatehi,  Qingguo Feng,  
 J. Fosso-Tande,  J. Gayvert,  Qinghui Ge,  A. Ghysels,  G. Gidofalvi,  
 J. Gomes,  J. Gonthier,  A. Gunina,  D. Hait,  M. W. D. Hanson-Heine,  
 P. H. P. Harbach,  A. W. Hauser,  M. F. Herbst,  J. E. Herr,  
 E. G. Hohenstein,  Z. C. Holden,  Kerwin Hui,  B. C. Huynh,  T.-C. Jagau,  
 Hyunjun Ji,  B. Kaduk,  K. Khistyaev,  Jaehoon Kim,  P. Klunzinger,  K. Koh,  
 D. Kosenkov,  L. Koulias,  T. Kowalczyk,  C. M. Krauter,  A. Kunitsa,  
 Ka Un Lao,  A. Laurent,  K. V. Lawler,  Joonho Lee,  D. Lefrancois,  
 S. Lehtola,  D. S. Levine,  Yi-Pei Li,  You-Sheng Lin,  Fenglai Liu,  
 Kuan-Yu Liu,  E. Livshits,  M. Loipersberger,  A. Luenser,  P. Manohar,  
 E. Mansoor,  S. F. Manzer,  Shan-Ping Mao,  Yuezhi Mao,  N. Mardirossian,  
 A. V. Marenich,  T. Markovich,  L. A. Martinez-Martinez,  S. A. Maurer,  
 N. J. Mayhall,  S. C. McKenzie,  J.-M. Mewes,  P. Morgante,  A. F. Morrison,  
 J. W. Mullinax,  K. Nanda,  T. S. Nguyen-Beck,  R. Olivares-Amaya,  
 J. A. Parkhill,  S. K. Paul,  Zheng Pei,  T. M. Perrine,  F. Plasser,  
 P. Pokhilko,  S. Prager,  A. Prociuk,  E. Ramos,  B. Rana,  D. R. Rehn,  
 F. Rob,  M. Scheurer,  M. Schneider,  N. Sergueev,  S. M. Sharada,  
 S. Sharma,  D. W. Small,  T. Stauch,  C. J. Stein,  T. Stein,  Yu-Chuan Su,  
 S. P. Veccham,  A. J. W. Thom,  A. Tkatchenko,  T. Tsuchimochi,  
 N. M. Tubman,  L. Vogt,  M. L. Vidal,  O. Vydrov,  M. A. Watson,  J. Wenzel,  
 M. de Wergifosse,  T. A. Wesolowski,  A. White,  J. Witte,  A. Yamada,  
 Jun Yang,  K. Yao,  S. Yeganeh,  S. R. Yost,  Zhi-Qiang You,  A. Zech,  
 Igor Ying Zhang,  Xing Zhang,  Yan Zhao,  Ying Zhu,  B. R. Brooks,  
 G. K. L. Chan,  C. J. Cramer,  M. S. Gordon,  W. J. Hehre,  A. Klamt,  
 M. W. Schmidt,  C. D. Sherrill,  D. G. Truhlar,  A. Aspuru-Guzik,  R. Baer,  
 A. T. Bell,  N. A. Besley,  Jeng-Da Chai,  A. E. DePrince, III,  
 R. A. DiStasio Jr.,  A. Dreuw,  B. D. Dunietz,  T. R. Furlani,  
 Chao-Ping Hsu,  Yousung Jung,  Jing Kong,  D. S. Lambrecht,  WanZhen Liang,  
 C. Ochsenfeld,  V. A. Rassolov,  L. V. Slipchenko,  J. E. Subotnik,  
 T. Van Voorhis,  J. M. Herbert,  A. I. Krylov,  P. M. W. Gill,  M. Head-Gordon

 Contributors to earlier versions of Q-Chem not listed above: 
 R. D. Adamson,  B. Austin,  J. Baker,  G. J. O. Beran,  K. Brandhorst,  
 S. T. Brown,  E. F. C. Byrd,  A. K. Chakraborty,  C.-L. Cheng,  
 Siu Hung Chien,  D. M. Chipman,  D. L. Crittenden,  H. Dachsel,  
 R. J. Doerksen,  A. D. Dutoi,  L. Fusti-Molnar,  W. A. Goddard III,  
 A. Golubeva-Zadorozhnaya,  S. R. Gwaltney,  G. Hawkins,  A. Heyden,  
 S. Hirata,  G. Kedziora,  F. J. Keil,  C. Kelley,  Jihan Kim,  R. A. King,  
 R. Z. Khaliullin,  P. P. Korambath,  W. Kurlancheek,  A. M. Lee,  M. S. Lee,  
 S. V. Levchenko,  Ching Yeh Lin,  D. Liotard,  R. C. Lochan,  I. Lotan,  
 P. E. Maslen,  N. Nair,  D. P. O'Neill,  D. Neuhauser,  E. Neuscamman,  
 C. M. Oana,  R. Olson,  B. Peters,  R. Peverati,  P. A. Pieniazek,  
 Y. M. Rhee,  J. Ritchie,  M. A. Rohrdanz,  E. Rosta,  N. J. Russ,  
 H. F. Schaefer III,  N. E. Schultz,  N. Shenvi,  A. C. Simmonett,  A. Sodt,  
 D. Stuck,  K. S. Thanthiriwatte,  V. Vanovschi,  Tao Wang,  A. Warshel,  
 C. F. Williams,  Q. Wu,  X. Xu,  W. Zhang

 Please cite Q-Chem as follows:
 Y. Shao et al., Mol. Phys. 113, 184-215 (2015)
 DOI: 10.1080/00268976.2014.952696

 Q-Chem 5.2.2 for Intel X86 EM64T Linux

 Parts of Q-Chem use Armadillo 9.800.1 (Horizon Scraper).
 http://arma.sourceforge.net/

 Q-Chem begins on Sun Apr 12 06:09:40 2020  

Host: cn0821
0

     Scratch files written to /tmp/ypli/6721342.srvc1/qchem175291//
Warning:  Did not find "$end" marker in "$molecule" section

Checking the input file for inconsistencies... 	...done.

--------------------------------------------------------------
User input:
--------------------------------------------------------------
$rem
   JOBTYPE  sp
   EXCHANGE   omegaB97X-D
   BASIS   6-311+G(2df,2pd)
   max_scf_cycles   250
   geom_opt_max_cycles   1500
   basis2 6-31G*
   scf_algorithm rca_diis
   SYM_IGNORE  TRUE
   print_input   true
   geom_opt_dmax   80
   pop_mulliken false
   XC_GRID 000075000302
$end

$molecule
0 1
C       1.2031476799     0.0252322251     0.3473956403
C       -0.0413453975     -0.0004251411     -0.5890103735
H       1.3384046826     -0.8922207164     0.9235763102
H       1.4196955457     0.8762711541     0.9934679986
H       1.9599670972     -0.0012273021     -0.4402128301
C       -1.3263239702     -0.0226910149     0.1658108761
H       0.1634676369     -0.8631458689     -1.2273842287
H       0.0453283557     0.8730475605     -1.2396176035
H       -1.2527715800     -0.8540448867     0.8699363886
H       -2.3298115732     -0.0024843572     -0.2549684962
H       -1.1797585379     0.8616890137     0.7920513372
--------------------------------------------------------------
 ----------------------------------------------------------------
             Standard Nuclear Orientation (Angstroms)
    I     Atom           X                Y                Z
 ----------------------------------------------------------------
    1      C       1.2031476799     0.0252322251     0.3473956403
    2      C      -0.0413453975    -0.0004251411    -0.5890103735
    3      H       1.3384046826    -0.8922207164     0.9235763102
    4      H       1.4196955457     0.8762711541     0.9934679986
    5      H       1.9599670972    -0.0012273021    -0.4402128301
    6      C      -1.3263239702    -0.0226910149     0.1658108761
    7      H       0.1634676369    -0.8631458689    -1.2273842287
    8      H       0.0453283557     0.8730475605    -1.2396176035
    9      H      -1.2527715800    -0.8540448867     0.8699363886
   10      H      -2.3298115732    -0.0024843572    -0.2549684962
   11      H      -1.1797585379     0.8616890137     0.7920513372
 ----------------------------------------------------------------
 Nuclear Repulsion Energy =          82.94086839 hartrees
 There are       13 alpha and       13 beta electrons
 Requested basis set is 6-311+G(2df,2pd)
 There are 72 shells and 214 basis functions

 Total QAlloc Memory Limit   2000 MB
 Mega-Array Size       188 MB
 MEM_STATIC part       192 MB

                       Distance Matrix (Angstroms)
             C (  1)   C (  2)   H (  3)   H (  4)   H (  5)   C (  6)
   C (  2)  1.557651
   H (  3)  1.091787  2.233143
   H (  4)  1.090215  2.325398  1.771738
   H (  5)  1.092613  2.006837  1.743597  1.765598
   C (  6)  2.536434  1.490443  2.903630  3.005623  3.341771
   H (  7)  2.085685  1.092592  2.451113  3.088020  2.142417  2.206091
   H (  8)  2.139614  1.092592  3.076951  2.622130  2.251499  2.158473
   H (  9)  2.660398  2.079602  2.592013  3.186116  3.572881  1.091949
   H ( 10)  3.584050  2.312718  3.954290  4.048408  4.293777  1.088325
   H ( 11)  2.564297  1.986594  3.071587  2.607286  3.481519  1.093520
             H (  7)   H (  8)   H (  9)   H ( 10)
   H (  8)  1.740251
   H (  9)  2.530725  3.019624
   H ( 10)  2.811187  2.716133  1.774988
   H ( 11)  2.976144  2.372477  1.719052  1.779232
 
 A cutoff of  1.0D-09 yielded   2538 shell pairs
 There are     22614 function pairs (     27817 Cartesian)
 Smallest overlap matrix eigenvalue = 8.95E-05

 Scale SEOQF with 1.000000e-01/1.000000e-01/1.000000e-01

 Standard Electronic Orientation quadrupole field applied
 Nucleus-field energy     =     0.0000000006 hartrees
 Requested basis set is 6-31G(d)
 There are 28 shells and 58 basis functions
 A cutoff of  1.0D-09 yielded    402 shell pairs
 There are      1773 function pairs (      1968 Cartesian)
 Smallest overlap matrix eigenvalue = 6.37E-03
 Guess from superposition of atomic densities
 Warning:  Energy on first SCF cycle will be non-variational
 SAD guess density has 26.000000 electrons
 Long-range K will be added via erf
 Coulomb attenuation parameter = 0.2 bohr**(-1)
 A restricted hybrid HF-DFT SCF calculation will be
 performed using Relaxed Constraint Minimization + Pulay DIIS
 Exchange:     0.2220 Hartree-Fock + 1.0000 wB97X-D + LR-HF
 Correlation:  1.0000 wB97X-D
 Using Euler-Maclaurin-Lebedev (75,302) quadrature formula
 Dispersion:   Grimme D
 SCF converges when DIIS error is below 1.0E-04
 using 3 threads for integral computing
 -------------------------------------------------------
 OpenMP Integral computing Module                
 Release: version 1.0, May 2013, Q-Chem Inc. Pittsburgh 
 -------------------------------------------------------
 using 3 threads for integral computing
 -------------------------------------------------------
 OpenMP Integral computing Module                
 Release: version 1.0, May 2013, Q-Chem Inc. Pittsburgh 
 -------------------------------------------------------
 ---------------------------------------
  Cycle       Energy         DIIS Error
 ---------------------------------------
    1    -119.6459536059      1.01E-01
    2    -119.0472834100      9.00E-03
    3    -119.0684109432      2.51E-03
    4    -119.0822027725      1.72E-03
    5    -119.0829310331      2.74E-04 Done RCA. Switching to DIIS
    6    -119.0834638937      2.03E-04
    7    -119.0834818146      4.75E-06 Convergence criterion met
 ---------------------------------------
 SCF time:  CPU 33.05 s  wall 11.42 s
 SCF   energy in the small basis set = -119.08348181
 Total energy in the small basis set = -119.08348181
 ----------------------------------------------------
  Cycle       Energy    
 ----------------------------------------------------
    1     -16.5417405009     -1.65E+01
 Long-range K will be added via erf
 Coulomb attenuation parameter = 0.2 bohr**(-1)
 A restricted hybrid HF-DFT SCF calculation will be
 performed using Relaxed Constraint Minimization + Pulay DIIS
 Exchange:     0.2220 Hartree-Fock + 1.0000 wB97X-D + LR-HF
 Correlation:  1.0000 wB97X-D
 Using Euler-Maclaurin-Lebedev (75,302) quadrature formula
 Dispersion:   Grimme D
 SCF converges when DIIS error is below 1.0E-05
 Basis2 calculation detected. Using small basis as guess for larger.
 SCFMinFind is unable to tell whether the solution found is close.
 Resetting ReadMinima to 0 and attempting to follow guess.
 SCFMinFind following SCF Guess.
 using 3 threads for integral computing
 -------------------------------------------------------
 OpenMP Integral computing Module                
 Release: version 1.0, May 2013, Q-Chem Inc. Pittsburgh 
 -------------------------------------------------------
 using 3 threads for integral computing
 -------------------------------------------------------
 OpenMP Integral computing Module                
 Release: version 1.0, May 2013, Q-Chem Inc. Pittsburgh 
 -------------------------------------------------------
 ---------------------------------------
  Cycle       Energy         DIIS Error
 ---------------------------------------
    1    -119.1031776478      4.21E-03
    2    -119.1252262623      6.05E-04 Done RCA. Switching to DIIS
    3    -119.1260790365      4.25E-04
    4    -119.1270687536      4.59E-05
    5    -119.1270838602      1.08E-05
    6    -119.1270846309      4.17E-06 Convergence criterion met
 ---------------------------------------
 SCF time:  CPU 99.18 s  wall 33.63 s
 SCF   energy in the final basis set = -119.12708463
 Total energy in the final basis set = -119.12708463
 
 --------------------------------------------------------------
 
                    Orbital Energies (a.u.)
 --------------------------------------------------------------
 
 Alpha MOs
 -- Occupied --
-10.2781 -10.2679 -10.2628  -0.8860  -0.7796  -0.6784  -0.5475  -0.5308
 -0.4854  -0.4626  -0.4178  -0.4091  -0.4041
 -- Virtual --
  0.0686   0.0854   0.0902   0.0987   0.1216   0.1304   0.1333   0.1417
  0.1433   0.1705   0.1720   0.1943   0.2289   0.2408   0.2464   0.2624
  0.2701   0.2814   0.2921   0.3338   0.3395   0.3478   0.4616   0.4662
  0.4696   0.5014   0.5123   0.5170   0.5490   0.5724   0.5811   0.5908
  0.5963   0.6234   0.6352   0.6643   0.6677   0.6718   0.7120   0.7223
  0.7248   0.7719   0.8200   0.8286   0.8678   0.8863   0.9250   0.9668
  0.9899   1.0207   1.0699   1.1258   1.1559   1.1674   1.1908   1.2054
  1.2306   1.2475   1.2713   1.2862   1.2928   1.3038   1.3278   1.3642
  1.3807   1.4143   1.4323   1.4456   1.4605   1.4704   1.4834   1.5146
  1.5389   1.5418   1.5958   1.6319   1.6418   1.6509   1.6683   1.6813
  1.7423   2.4032   2.4312   2.4872   2.5199   2.5423   2.5728   2.6368
  2.6450   2.7004   2.7991   2.8204   2.8656   2.8966   2.9183   2.9292
  2.9475   2.9560   2.9835   3.0199   3.0546   3.0651   3.0832   3.1128
  3.1291   3.1640   3.1663   3.1775   3.2198   3.2671   3.2733   3.2838
  3.3013   3.3241   3.3319   3.3600   3.3848   3.3940   3.4080   3.4357
  3.4788   3.4944   3.5007   3.5360   3.5614   3.5628   3.6033   3.6151
  3.6282   3.6716   3.6799   3.7118   3.7449   3.7966   3.8102   3.8627
  3.8991   3.9298   3.9590   3.9658   3.9906   4.0173   4.0447   4.0598
  4.0728   4.1100   4.1249   4.1538   4.1712   4.1905   4.2024   4.2199
  4.2558   4.2612   4.3327   4.3564   4.3856   4.3995   4.4490   4.4593
  4.5076   4.5838   4.5902   4.6097   4.6730   4.8043   4.8394   4.8690
  4.8952   4.9103   4.9572   4.9718   4.9928   5.0465   5.0976   5.1365
  5.1678   5.2167   5.2467   5.2696   5.3181   5.3301   5.3488   5.3604
  5.3852   5.3928   5.5045   5.5280   5.5759   5.6261   5.7520   5.7757
  5.9952   6.4005   6.4046   6.4179   6.4461   6.4822  25.1916  25.4201
 25.4665
 --------------------------------------------------------------
 
 -----------------------------------------------------------------
                    Cartesian Multipole Moments
 -----------------------------------------------------------------
    Charge (ESU x 10^10)
                 0.0000
    Dipole Moment (Debye)
         X       0.0924      Y       0.0139      Z      -0.0792
       Tot       0.1225
    Quadrupole Moments (Debye-Ang)
        XX     -22.0857     XY       0.0113     YY     -21.4792
        XZ       0.0799     YZ      -0.0242     ZZ     -21.9196
    Octopole Moments (Debye-Ang^2)
       XXX      -0.6038    XXY       0.0040    XYY       1.3609
       YYY      -0.0155    XXZ      -1.1272    XYZ       0.3557
       YYZ       0.4780    XZZ       1.8146    YZZ       0.0540
       ZZZ      -0.2396
    Hexadecapole Moments (Debye-Ang^3)
      XXXX    -199.8085   XXXY      -0.4474   XXYY     -42.1220
      XYYY      -0.9947   YYYY     -44.0707   XXXZ      -2.0305
      XXYZ       0.1400   XYYZ      -0.7141   YYYZ      -0.0912
      XXZZ     -45.2126   XYZZ      -0.0372   YYZZ     -17.2547
      XZZZ      -3.4302   YZZZ      -0.0620   ZZZZ     -72.4785
 -----------------------------------------------------------------
Archival summary:
1\1\cn0821\SP\ProcedureUnspecified\BasisUnspecified\38\r0852400\SunApr1206:10:292020SunApr1206:10:292020\0\\#,ProcedureUnspecified,BasisUnspecified,\\0,1\C\H,1,1.09259\H,1,1.09259,2,105.573\C,1,1.49044,2,116.469,3,125.567,0\H,4,1.08832,1,126.788,2,-64.7936,0\H,4,1.09195,1,106.253,2,65.1044,0\H,4,1.09352,1,99.3459,2,172.479,0\C,1,1.55765,2,102.385,3,-111.119,0\H,8,1.09022,1,121.858,2,168.242,0\H,8,1.09179,1,113.728,2,-58.6867,0\H,8,1.09261,1,96.8727,2,52.0904,0\\\@

 Total job time:  49.38s(wall), 137.45s(cpu) 
 Sun Apr 12 06:10:29 2020

        *************************************************************
        *                                                           *
        *  Thank you very much for using Q-Chem.  Have a nice day.  *
        *                                                           *
        *************************************************************


