                  Welcome to Q-Chem
     A Quantum Leap Into The Future Of Chemistry


 Q-Chem 5.3 (devel), Q-Chem, Inc., Pleasanton, CA (2020)

 Yihan Shao,  Zhengting Gan,  E. Epifanovsky,  A. T. B. Gilbert,  M. Wormit,  
 J. Kussmann,  A. W. Lange,  A. Behn,  Jia Deng,  Xintian Feng,  D. Ghosh,  
 M. Goldey,  P. R. Horn,  L. D. Jacobson,  I. Kaliman,  T. Kus,  A. Landau,  
 Jie Liu,  E. I. Proynov,  R. M. Richard,  R. P. Steele,  E. J. Sundstrom,  
 H. L. Woodcock III,  P. M. Zimmerman,  D. Zuev,  B. Alam,  B. Albrecht,  
 E. Alguire,  S. A. Baeppler,  D. Barton,  Z. Benda,  Y. A. Bernard,  
 E. J. Berquist,  K. B. Bravaya,  H. Burton,  K. Carter-Fenk,  D. Casanova,  
 Chun-Min Chang,  Yunqing Chen,  A. Chien,  K. D. Closser,  M. P. Coons,  
 S. Coriani,  S. Dasgupta,  A. L. Dempwolff,  M. Diedenhofen,  Hainam Do,  
 R. G. Edgar,  Po-Tung Fang,  S. Faraji,  S. Fatehi,  Qingguo Feng,  
 J. Fosso-Tande,  J. Gayvert,  Qinghui Ge,  A. Ghysels,  G. Gidofalvi,  
 J. Gomes,  J. Gonthier,  A. Gunina,  D. Hait,  M. W. D. Hanson-Heine,  
 P. H. P. Harbach,  A. W. Hauser,  M. F. Herbst,  J. E. Herr,  
 E. G. Hohenstein,  Z. C. Holden,  Kerwin Hui,  B. C. Huynh,  T.-C. Jagau,  
 Hyunjun Ji,  B. Kaduk,  K. Khistyaev,  Jaehoon Kim,  P. Klunzinger,  K. Koh,  
 D. Kosenkov,  L. Koulias,  T. Kowalczyk,  C. M. Krauter,  A. Kunitsa,  
 Ka Un Lao,  A. Laurent,  K. V. Lawler,  Joonho Lee,  D. Lefrancois,  
 S. Lehtola,  D. S. Levine,  Yi-Pei Li,  You-Sheng Lin,  Fenglai Liu,  
 Kuan-Yu Liu,  E. Livshits,  M. Loipersberger,  A. Luenser,  P. Manohar,  
 E. Mansoor,  S. F. Manzer,  Shan-Ping Mao,  Yuezhi Mao,  N. Mardirossian,  
 A. V. Marenich,  T. Markovich,  L. A. Martinez-Martinez,  S. A. Maurer,  
 N. J. Mayhall,  S. C. McKenzie,  J.-M. Mewes,  P. Morgante,  A. F. Morrison,  
 J. W. Mullinax,  K. Nanda,  T. S. Nguyen-Beck,  R. Olivares-Amaya,  
 K. J. Oosterbaan,  J. A. Parkhill,  S. K. Paul,  F. Pavosevic,  Zheng Pei,  
 T. M. Perrine,  F. Plasser,  P. Pokhilko,  S. Prager,  A. Prociuk,  
 E. Ramos,  B. Rana,  D. R. Rehn,  F. Rob,  M. Scheurer,  M. Schneider,  
 N. Sergueev,  S. M. Sharada,  S. Sharma,  D. W. Small,  T. Stauch,  
 C. J. Stein,  T. Stein,  Yu-Chuan Su,  S. P. Veccham,  Zhen Tao,  
 A. J. W. Thom,  A. Tkatchenko,  T. Tsuchimochi,  N. M. Tubman,  L. Vogt,  
 M. L. Vidal,  O. Vydrov,  M. A. Watson,  J. Wenzel,  M. de Wergifosse,  
 T. A. Wesolowski,  A. White,  J. Witte,  A. Yamada,  Jun Yang,  K. Yao,  
 S. Yeganeh,  S. R. Yost,  Zhi-Qiang You,  A. Zech,  Igor Ying Zhang,  
 Xing Zhang,  Yan Zhao,  Ying Zhu,  B. R. Brooks,  G. K. L. Chan,  
 C. J. Cramer,  M. S. Gordon,  W. J. Hehre,  A. Klamt,  M. W. Schmidt,  
 C. D. Sherrill,  D. G. Truhlar,  A. Aspuru-Guzik,  R. Baer,  A. T. Bell,  
 N. A. Besley,  Jeng-Da Chai,  A. E. DePrince, III,  R. A. DiStasio Jr.,  
 A. Dreuw,  B. D. Dunietz,  T. R. Furlani,  Chao-Ping Hsu,  Yousung Jung,  
 Jing Kong,  D. S. Lambrecht,  WanZhen Liang,  C. Ochsenfeld,  
 V. A. Rassolov,  L. V. Slipchenko,  J. E. Subotnik,  T. Van Voorhis,  
 J. M. Herbert,  A. I. Krylov,  P. M. W. Gill,  M. Head-Gordon

 Contributors to earlier versions of Q-Chem not listed above: 
 R. D. Adamson,  B. Austin,  J. Baker,  G. J. O. Beran,  K. Brandhorst,  
 S. T. Brown,  E. F. C. Byrd,  A. K. Chakraborty,  C.-L. Cheng,  
 Siu Hung Chien,  D. M. Chipman,  D. L. Crittenden,  H. Dachsel,  
 R. J. Doerksen,  A. D. Dutoi,  L. Fusti-Molnar,  W. A. Goddard III,  
 A. Golubeva-Zadorozhnaya,  S. R. Gwaltney,  G. Hawkins,  A. Heyden,  
 S. Hirata,  G. Kedziora,  F. J. Keil,  C. Kelley,  Jihan Kim,  R. A. King,  
 R. Z. Khaliullin,  P. P. Korambath,  W. Kurlancheek,  A. M. Lee,  M. S. Lee,  
 S. V. Levchenko,  Ching Yeh Lin,  D. Liotard,  R. C. Lochan,  I. Lotan,  
 P. E. Maslen,  N. Nair,  D. P. O'Neill,  D. Neuhauser,  E. Neuscamman,  
 C. M. Oana,  R. Olson,  B. Peters,  R. Peverati,  P. A. Pieniazek,  
 Y. M. Rhee,  J. Ritchie,  M. A. Rohrdanz,  E. Rosta,  N. J. Russ,  
 H. F. Schaefer III,  N. E. Schultz,  N. Shenvi,  A. C. Simmonett,  A. Sodt,  
 D. Stuck,  K. S. Thanthiriwatte,  V. Vanovschi,  Tao Wang,  A. Warshel,  
 C. F. Williams,  Q. Wu,  X. Xu,  W. Zhang

 Please cite Q-Chem as follows:
 Y. Shao et al., Mol. Phys. 113, 184-215 (2015)
 DOI: 10.1080/00268976.2014.952696

 Q-Chem 5.3.0 for Intel X86 EM64T Linux

 Parts of Q-Chem use Armadillo 9.800.1 (Horizon Scraper).
 http://arma.sourceforge.net/

 Q-Chem begins on Tue Jul  7 01:52:26 2020  

Host: centos77-c4
0

     Scratch files written to /tmp/26964.centos77-h1/qchem105292//
Processing $rem in /opt/qchem-5.3.0-intel2020u1//config/preferences:
Processing $rem in /home/shihchengli/.qchemrc:

Checking the input file for inconsistencies... 	...done.

--------------------------------------------------------------
User input:
--------------------------------------------------------------
$rem
   JOBTYPE  sp
   EXCHANGE   omegaB97X-D
   BASIS   6-311+G(2df,2pd)
   UNRESTRICTED   False
   max_scf_cycles   250
   geom_opt_max_cycles   1500
   basis2 6-31G*
   scf_algorithm rca_diis
   SYM_IGNORE  TRUE
   print_input   true
   geom_opt_dmax   80
   pop_mulliken false
   XC_GRID 000075000302
$end

$molecule
0 1
C       1.2944638988     -0.0015237052     0.2650423882
C       0.0023405222     0.0003545572     -0.5866451088
H       1.2737893448     -0.9012506776     0.8811430651
H       1.2635642651     0.8864510452     0.8973973813
H       2.1572748410     0.0051901234     -0.3993404277
C       -1.2396367709     0.0013795955     0.2554242425
H       0.0448557776     -0.8731568905     -1.2415702149
H       0.0490016776     0.8742925254     -1.2407183848
H       -1.3325849157     -0.8582949988     0.9241227956
H       -2.1676683957     -0.0068420015     -0.3199421721
H       -1.3454003056     0.8734010930     0.9061314545
$end
--------------------------------------------------------------
 ----------------------------------------------------------------
             Standard Nuclear Orientation (Angstroms)
    I     Atom           X                Y                Z
 ----------------------------------------------------------------
    1      C       1.2944638988    -0.0015237052     0.2650423882
    2      C       0.0023405222     0.0003545572    -0.5866451088
    3      H       1.2737893448    -0.9012506776     0.8811430651
    4      H       1.2635642651     0.8864510452     0.8973973813
    5      H       2.1572748410     0.0051901234    -0.3993404277
    6      C      -1.2396367709     0.0013795955     0.2554242425
    7      H       0.0448557776    -0.8731568905    -1.2415702149
    8      H       0.0490016776     0.8742925254    -1.2407183848
    9      H      -1.3325849157    -0.8582949988     0.9241227956
   10      H      -2.1676683957    -0.0068420015    -0.3199421721
   11      H      -1.3454003056     0.8734010930     0.9061314545
 ----------------------------------------------------------------
 Nuclear Repulsion Energy =          82.76288597 hartrees
 There are       13 alpha and       13 beta electrons
 Requested basis set is 6-311+G(2df,2pd)
 There are 72 shells and 214 basis functions

 Total QAlloc Memory Limit   2000 MB
 Mega-Array Size       188 MB
 MEM_STATIC part       192 MB

                       Distance Matrix (Angstroms)
             C (  1)   C (  2)   H (  3)   H (  4)   H (  5)   C (  6)
   C (  2)  1.547565
   H (  3)  1.090649  2.140999
   H (  4)  1.090563  2.139681  1.787805
   H (  5)  1.088987  2.163065  1.800505  1.804680
   C (  6)  2.534121  1.500530  2.742914  2.731574  3.459442
   H (  7)  2.142696  1.092592  2.452953  3.025996  2.437859  2.157714
   H (  8)  2.141389  1.092592  3.025716  2.459034  2.430653  2.158937
   H (  9)  2.840745  2.191284  2.607083  3.128073  3.830964  1.093086
   H ( 10)  3.511210  2.186349  3.753159  3.748766  4.325689  1.091951
   H ( 11)  2.854010  2.192487  3.163885  2.609012  3.837549  1.093173
             H (  7)   H (  8)   H (  9)   H ( 10)
   H (  8)  1.747455
   H (  9)  2.566669  3.097931
   H ( 10)  2.548561  2.556923  1.723379
   H ( 11)  3.097725  2.559946  1.731837  1.718781
 
 A cutoff of  1.0D-09 yielded   2533 shell pairs
 There are     22579 function pairs (     27760 Cartesian)
 Smallest overlap matrix eigenvalue = 8.60E-05

 Scale SEOQF with 1.000000e-01/1.000000e-01/1.000000e-01

 Standard Electronic Orientation quadrupole field applied
 Nucleus-field energy     =     0.0000000006 hartrees
 Requested basis set is 6-31G(d)
 There are 28 shells and 58 basis functions
 A cutoff of  1.0D-09 yielded    402 shell pairs
 There are      1773 function pairs (      1968 Cartesian)
 Smallest overlap matrix eigenvalue = 6.79E-03
 Guess from superposition of atomic densities
 Warning:  Energy on first SCF cycle will be non-variational
 SAD guess density has 26.000000 electrons
 Long-range K will be added via erf
 Coulomb attenuation parameter = 0.2 bohr**(-1)
 A restricted hybrid HF-DFT SCF calculation will be
 performed using Relaxed Constraint Minimization + Pulay DIIS
 Exchange:     0.2220 Hartree-Fock + 1.0000 wB97X-D + LR-HF
 Correlation:  1.0000 wB97X-D
 Using Euler-Maclaurin-Lebedev (75,302) quadrature formula
 Dispersion:   Grimme D
 SCF converges when DIIS error is below 1.0E-04
 using 3 threads for integral computing
 -------------------------------------------------------
 OpenMP Integral computing Module                
 Release: version 1.0, May 2013, Q-Chem Inc. Pittsburgh 
 -------------------------------------------------------
 using 3 threads for integral computing
 -------------------------------------------------------
 OpenMP Integral computing Module                
 Release: version 1.0, May 2013, Q-Chem Inc. Pittsburgh 
 -------------------------------------------------------
 ---------------------------------------
  Cycle       Energy         DIIS Error
 ---------------------------------------
    1    -119.6221981003      1.00E-01
    2    -119.0634025818      9.02E-03
    3    -119.0845539018      2.47E-03
    4    -119.0984919614      1.69E-03
    5    -119.0991932288      2.66E-04 Done RCA. Switching to DIIS
    6    -119.0997088786      1.98E-04
    7    -119.0997258066      4.73E-06 Convergence criterion met
 ---------------------------------------
 SCF time:  CPU 21.25 s  wall 8.00 s
 SCF   energy in the small basis set = -119.09972581
 Total energy in the small basis set = -119.09972581
 ----------------------------------------------------
  Cycle       Energy    
 ----------------------------------------------------
    1     -16.5396248075     -1.65E+01
 Long-range K will be added via erf
 Coulomb attenuation parameter = 0.2 bohr**(-1)
 A restricted hybrid HF-DFT SCF calculation will be
 performed using Relaxed Constraint Minimization + Pulay DIIS
 Exchange:     0.2220 Hartree-Fock + 1.0000 wB97X-D + LR-HF
 Correlation:  1.0000 wB97X-D
 Using Euler-Maclaurin-Lebedev (75,302) quadrature formula
 Dispersion:   Grimme D
 SCF converges when DIIS error is below 1.0E-05
 Basis2 calculation detected. Using small basis as guess for larger.
 SCFMinFind is unable to tell whether the solution found is close.
 Resetting ReadMinima to 0 and attempting to follow guess.
 SCFMinFind following SCF Guess.
 using 3 threads for integral computing
 -------------------------------------------------------
 OpenMP Integral computing Module                
 Release: version 1.0, May 2013, Q-Chem Inc. Pittsburgh 
 -------------------------------------------------------
 using 3 threads for integral computing
 -------------------------------------------------------
 OpenMP Integral computing Module                
 Release: version 1.0, May 2013, Q-Chem Inc. Pittsburgh 
 -------------------------------------------------------
 ---------------------------------------
  Cycle       Energy         DIIS Error
 ---------------------------------------
    1    -119.1189670700      4.21E-03
    2    -119.1410108060      5.99E-04 Done RCA. Switching to DIIS
    3    -119.1418468804      4.21E-04
    4    -119.1428159106      4.60E-05
    5    -119.1428308072      1.07E-05
    6    -119.1428315560      4.15E-06 Convergence criterion met
 ---------------------------------------
 SCF time:  CPU 50.74 s  wall 17.15 s
 SCF   energy in the final basis set = -119.14283156
 Total energy in the final basis set = -119.14283156
 
 --------------------------------------------------------------
 
                    Orbital Energies (a.u.)
 --------------------------------------------------------------
 
 Alpha MOs
 -- Occupied --
-10.2741 -10.2658 -10.2647  -0.8817  -0.7776  -0.6778  -0.5462  -0.5264
 -0.4809  -0.4636  -0.4303  -0.4073  -0.4053
 -- Virtual --
  0.0690   0.0854   0.0914   0.0989   0.1249   0.1301   0.1333   0.1422
  0.1432   0.1705   0.1721   0.1915   0.2327   0.2406   0.2410   0.2684
  0.2800   0.2831   0.3079   0.3133   0.3342   0.3526   0.4588   0.4667
  0.4700   0.5095   0.5130   0.5185   0.5450   0.5619   0.5785   0.5918
  0.6202   0.6273   0.6415   0.6471   0.6560   0.6575   0.7096   0.7253
  0.7264   0.7666   0.8130   0.8618   0.8673   0.8764   0.8893   0.9584
  1.0032   1.0525   1.0545   1.1240   1.1476   1.1818   1.1853   1.2161
  1.2310   1.2348   1.2702   1.2765   1.2796   1.3082   1.3274   1.3788
  1.3819   1.3922   1.4005   1.4464   1.4670   1.4695   1.4779   1.4793
  1.5195   1.5730   1.6119   1.6132   1.6185   1.6464   1.6839   1.7180
  1.7489   2.3767   2.4579   2.4894   2.5031   2.5487   2.5603   2.6150
  2.6214   2.7130   2.8173   2.8339   2.8355   2.9111   2.9254   2.9311
  2.9374   2.9458   3.0004   3.0132   3.0263   3.0569   3.0889   3.1037
  3.1361   3.1403   3.1843   3.1968   3.2082   3.2239   3.2827   3.2961
  3.3320   3.3437   3.3457   3.3594   3.3692   3.3758   3.4015   3.4374
  3.4727   3.4756   3.4952   3.5255   3.5627   3.5769   3.5997   3.6096
  3.6173   3.6572   3.6738   3.7031   3.7842   3.8041   3.8689   3.8882
  3.8938   3.9284   3.9475   3.9879   3.9969   4.0000   4.0451   4.0606
  4.0774   4.1053   4.1238   4.1278   4.1392   4.1664   4.1904   4.2077
  4.2345   4.2605   4.2664   4.3743   4.3930   4.3979   4.4119   4.4387
  4.4493   4.5798   4.5927   4.6106   4.6726   4.8103   4.8169   4.8262
  4.9204   4.9505   4.9679   5.0129   5.0319   5.0541   5.0667   5.1083
  5.1240   5.1806   5.2268   5.2834   5.2929   5.3404   5.3653   5.3907
  5.4098   5.4642   5.4868   5.5160   5.5633   5.5679   5.6331   5.7444
  5.9624   6.3632   6.3760   6.4057   6.4293   6.4629  25.2042  25.4410
 25.4558
 --------------------------------------------------------------
 
 -----------------------------------------------------------------
                    Cartesian Multipole Moments
 -----------------------------------------------------------------
    Charge (ESU x 10^10)
                 0.0000
    Dipole Moment (Debye)
         X      -0.0620      Y       0.0002      Z      -0.0912
       Tot       0.1103
    Quadrupole Moments (Debye-Ang)
        XX     -22.1770     XY      -0.0113     YY     -21.3696
        XZ      -0.4943     YZ      -0.0000     ZZ     -21.8671
    Octopole Moments (Debye-Ang^2)
       XXX      -1.8996    XXY       0.0072    XYY      -0.1676
       YYY      -0.0054    XXZ      -1.5661    XYZ      -0.0106
       YYZ       0.4641    XZZ      -0.2671    YZZ      -0.0019
       ZZZ      -0.4631
    Hexadecapole Moments (Debye-Ang^3)
      XXXX    -202.3597   XXXY       0.0861   XXYY     -42.2400
      XYYY       0.0619   YYYY     -44.1146   XXXZ      -1.6828
      XXYZ       0.0051   XYYZ      -0.0009   YYYZ       0.0042
      XXZZ     -45.2916   XYZZ       0.0753   YYZZ     -17.0989
      XZZZ      -0.1879   YZZZ       0.0052   ZZZZ     -72.2399
 -----------------------------------------------------------------
Archival summary:
1\1\centos77-c4\SP\ProcedureUnspecified\BasisUnspecified\38\shihchen\TueJul701:52:542020TueJul701:52:542020\0\\#,ProcedureUnspecified,BasisUnspecified,\\0,1\C\H,1,1.09259\H,1,1.09259,2,106.2\C,1,1.50053,2,111.762,3,-121.997,0\H,4,1.09195,1,114.063,2,59.9785,0\H,4,1.09309,1,114.403,2,179.728,0\H,4,1.09317,1,114.498,2,-59.3117,0\C,1,1.54757,2,107.144,3,114.372,0\H,8,1.08899,1,109.012,2,-56.3952,0\H,8,1.09056,1,107.126,2,64.7351,0\H,8,1.09065,1,107.221,2,-177.105,0\\\@

 Total job time:  28.13s(wall), 75.82s(cpu) 
 Tue Jul  7 01:52:54 2020

        *************************************************************
        *                                                           *
        *  Thank you very much for using Q-Chem.  Have a nice day.  *
        *                                                           *
        *************************************************************


