                  Welcome to Q-Chem
     A Quantum Leap Into The Future Of Chemistry


 Q-Chem 5.3 (devel), Q-Chem, Inc., Pleasanton, CA (2020)

 Yihan Shao,  Zhengting Gan,  E. Epifanovsky,  A. T. B. Gilbert,  M. Wormit,  
 J. Kussmann,  A. W. Lange,  A. Behn,  Jia Deng,  Xintian Feng,  D. Ghosh,  
 M. Goldey,  P. R. Horn,  L. D. Jacobson,  I. Kaliman,  T. Kus,  A. Landau,  
 Jie Liu,  E. I. Proynov,  R. M. Richard,  R. P. Steele,  E. J. Sundstrom,  
 H. L. Woodcock III,  P. M. Zimmerman,  D. Zuev,  B. Alam,  B. Albrecht,  
 E. Alguire,  S. A. Baeppler,  D. Barton,  Z. Benda,  Y. A. Bernard,  
 E. J. Berquist,  K. B. Bravaya,  H. Burton,  K. Carter-Fenk,  D. Casanova,  
 Chun-Min Chang,  Yunqing Chen,  A. Chien,  K. D. Closser,  M. P. Coons,  
 S. Coriani,  S. Dasgupta,  A. L. Dempwolff,  M. Diedenhofen,  Hainam Do,  
 R. G. Edgar,  Po-Tung Fang,  S. Faraji,  S. Fatehi,  Qingguo Feng,  
 J. Fosso-Tande,  J. Gayvert,  Qinghui Ge,  A. Ghysels,  G. Gidofalvi,  
 J. Gomes,  J. Gonthier,  A. Gunina,  D. Hait,  M. W. D. Hanson-Heine,  
 P. H. P. Harbach,  A. W. Hauser,  M. F. Herbst,  J. E. Herr,  
 E. G. Hohenstein,  Z. C. Holden,  Kerwin Hui,  B. C. Huynh,  T.-C. Jagau,  
 Hyunjun Ji,  B. Kaduk,  K. Khistyaev,  Jaehoon Kim,  P. Klunzinger,  K. Koh,  
 D. Kosenkov,  L. Koulias,  T. Kowalczyk,  C. M. Krauter,  A. Kunitsa,  
 Ka Un Lao,  A. Laurent,  K. V. Lawler,  Joonho Lee,  D. Lefrancois,  
 S. Lehtola,  D. S. Levine,  Yi-Pei Li,  You-Sheng Lin,  Fenglai Liu,  
 Kuan-Yu Liu,  E. Livshits,  M. Loipersberger,  A. Luenser,  P. Manohar,  
 E. Mansoor,  S. F. Manzer,  Shan-Ping Mao,  Yuezhi Mao,  N. Mardirossian,  
 A. V. Marenich,  T. Markovich,  L. A. Martinez-Martinez,  S. A. Maurer,  
 N. J. Mayhall,  S. C. McKenzie,  J.-M. Mewes,  P. Morgante,  A. F. Morrison,  
 J. W. Mullinax,  K. Nanda,  T. S. Nguyen-Beck,  R. Olivares-Amaya,  
 K. J. Oosterbaan,  J. A. Parkhill,  S. K. Paul,  F. Pavosevic,  Zheng Pei,  
 T. M. Perrine,  F. Plasser,  P. Pokhilko,  S. Prager,  A. Prociuk,  
 E. Ramos,  B. Rana,  D. R. Rehn,  F. Rob,  M. Scheurer,  M. Schneider,  
 N. Sergueev,  S. M. Sharada,  S. Sharma,  D. W. Small,  T. Stauch,  
 C. J. Stein,  T. Stein,  Yu-Chuan Su,  S. P. Veccham,  Zhen Tao,  
 A. J. W. Thom,  A. Tkatchenko,  T. Tsuchimochi,  N. M. Tubman,  L. Vogt,  
 M. L. Vidal,  O. Vydrov,  M. A. Watson,  J. Wenzel,  M. de Wergifosse,  
 T. A. Wesolowski,  A. White,  J. Witte,  A. Yamada,  Jun Yang,  K. Yao,  
 S. Yeganeh,  S. R. Yost,  Zhi-Qiang You,  A. Zech,  Igor Ying Zhang,  
 Xing Zhang,  Yan Zhao,  Ying Zhu,  B. R. Brooks,  G. K. L. Chan,  
 C. J. Cramer,  M. S. Gordon,  W. J. Hehre,  A. Klamt,  M. W. Schmidt,  
 C. D. Sherrill,  D. G. Truhlar,  A. Aspuru-Guzik,  R. Baer,  A. T. Bell,  
 N. A. Besley,  Jeng-Da Chai,  A. E. DePrince, III,  R. A. DiStasio Jr.,  
 A. Dreuw,  B. D. Dunietz,  T. R. Furlani,  Chao-Ping Hsu,  Yousung Jung,  
 Jing Kong,  D. S. Lambrecht,  WanZhen Liang,  C. Ochsenfeld,  
 V. A. Rassolov,  L. V. Slipchenko,  J. E. Subotnik,  T. Van Voorhis,  
 J. M. Herbert,  A. I. Krylov,  P. M. W. Gill,  M. Head-Gordon

 Contributors to earlier versions of Q-Chem not listed above: 
 R. D. Adamson,  B. Austin,  J. Baker,  G. J. O. Beran,  K. Brandhorst,  
 S. T. Brown,  E. F. C. Byrd,  A. K. Chakraborty,  C.-L. Cheng,  
 Siu Hung Chien,  D. M. Chipman,  D. L. Crittenden,  H. Dachsel,  
 R. J. Doerksen,  A. D. Dutoi,  L. Fusti-Molnar,  W. A. Goddard III,  
 A. Golubeva-Zadorozhnaya,  S. R. Gwaltney,  G. Hawkins,  A. Heyden,  
 S. Hirata,  G. Kedziora,  F. J. Keil,  C. Kelley,  Jihan Kim,  R. A. King,  
 R. Z. Khaliullin,  P. P. Korambath,  W. Kurlancheek,  A. M. Lee,  M. S. Lee,  
 S. V. Levchenko,  Ching Yeh Lin,  D. Liotard,  R. C. Lochan,  I. Lotan,  
 P. E. Maslen,  N. Nair,  D. P. O'Neill,  D. Neuhauser,  E. Neuscamman,  
 C. M. Oana,  R. Olson,  B. Peters,  R. Peverati,  P. A. Pieniazek,  
 Y. M. Rhee,  J. Ritchie,  M. A. Rohrdanz,  E. Rosta,  N. J. Russ,  
 H. F. Schaefer III,  N. E. Schultz,  N. Shenvi,  A. C. Simmonett,  A. Sodt,  
 D. Stuck,  K. S. Thanthiriwatte,  V. Vanovschi,  Tao Wang,  A. Warshel,  
 C. F. Williams,  Q. Wu,  X. Xu,  W. Zhang

 Please cite Q-Chem as follows:
 Y. Shao et al., Mol. Phys. 113, 184-215 (2015)
 DOI: 10.1080/00268976.2014.952696

 Q-Chem 5.3.0 for Intel X86 EM64T Linux

 Parts of Q-Chem use Armadillo 9.800.1 (Horizon Scraper).
 http://arma.sourceforge.net/

 Q-Chem begins on Tue Jul  7 02:41:29 2020  

Host: centos77-c4
0

     Scratch files written to /tmp/26964.centos77-h1/qchem113948//
Processing $rem in /opt/qchem-5.3.0-intel2020u1//config/preferences:
Processing $rem in /home/shihchengli/.qchemrc:

Checking the input file for inconsistencies... 	...done.

--------------------------------------------------------------
User input:
--------------------------------------------------------------
$rem
   JOBTYPE  sp
   EXCHANGE   omegaB97X-D
   BASIS   6-311+G(2df,2pd)
   UNRESTRICTED   False
   max_scf_cycles   250
   geom_opt_max_cycles   1500
   basis2 6-31G*
   scf_algorithm rca_diis
   SYM_IGNORE  TRUE
   print_input   true
   geom_opt_dmax   80
   pop_mulliken false
   XC_GRID 000075000302
$end

$molecule
0 1
C       1.2673476838     0.0210498084     0.2588936411
C       -0.0000004771     0.0211654088     -0.5876755684
H       1.3049109717     -0.9002371264     0.9311759115
H       1.3055936169     0.8627883722     0.8765608626
H       2.1627394469     0.0138040089     -0.3590992500
C       -1.2673508991     0.0210500429     0.2588903573
H       0.0000000277     -0.8815198453     -1.2642917259
H       -0.0000000608     0.8655464140     -1.2220550034
H       -1.3049153405     -0.9002446116     0.9311774443
H       -2.1627285564     0.0138063782     -0.3590941238
H       -1.3055964738     0.8627918157     0.8765624736
$end
--------------------------------------------------------------
 ----------------------------------------------------------------
             Standard Nuclear Orientation (Angstroms)
    I     Atom           X                Y                Z
 ----------------------------------------------------------------
    1      C       1.2673476838     0.0210498084     0.2588936411
    2      C      -0.0000004771     0.0211654088    -0.5876755684
    3      H       1.3049109717    -0.9002371264     0.9311759115
    4      H       1.3055936169     0.8627883722     0.8765608626
    5      H       2.1627394469     0.0138040089    -0.3590992500
    6      C      -1.2673508991     0.0210500429     0.2588903573
    7      H       0.0000000277    -0.8815198453    -1.2642917259
    8      H      -0.0000000608     0.8655464140    -1.2220550034
    9      H      -1.3049153405    -0.9002446116     0.9311774443
   10      H      -2.1627285564     0.0138063782    -0.3590941238
   11      H      -1.3055964738     0.8627918157     0.8765624736
 ----------------------------------------------------------------
 Nuclear Repulsion Energy =          82.76544590 hartrees
 There are       13 alpha and       13 beta electrons
 Requested basis set is 6-311+G(2df,2pd)
 There are 72 shells and 214 basis functions

 Total QAlloc Memory Limit   2000 MB
 Mega-Array Size       188 MB
 MEM_STATIC part       192 MB

                       Distance Matrix (Angstroms)
             C (  1)   C (  2)   H (  3)   H (  4)   H (  5)   C (  6)
   C (  2)  1.524090
   H (  3)  1.141115  2.204243
   H (  4)  1.044748  2.134688  1.763871
   H (  5)  1.087977  2.174798  1.798930  1.726942
   C (  6)  2.534699  1.524090  2.813764  2.776704  3.485324
   H (  7)  2.177360  1.128118  2.554060  3.054576  2.509665  2.177360
   H (  8)  2.124277  1.056133  3.075254  2.471593  2.479435  2.124277
   H (  9)  2.813767  2.204249  2.609826  3.150560  3.811158  1.141124
   H ( 10)  3.485310  2.174787  3.811141  3.778475  4.325468  1.087961
   H ( 11)  2.776704  2.134692  3.150556  2.611190  3.778491  1.044754
             H (  7)   H (  8)   H (  9)   H ( 10)
   H (  8)  1.747577
   H (  9)  2.554063  3.075261
   H ( 10)  2.509659  2.479427  1.798926
   H ( 11)  3.054581  2.471596  1.763882  1.726933
 
 A cutoff of  1.0D-09 yielded   2532 shell pairs
 There are     22578 function pairs (     27759 Cartesian)
 Smallest overlap matrix eigenvalue = 8.69E-05

 Scale SEOQF with 1.000000e-01/1.000000e-01/1.000000e-01

 Standard Electronic Orientation quadrupole field applied
 Nucleus-field energy     =     0.0000000006 hartrees
 Requested basis set is 6-31G(d)
 There are 28 shells and 58 basis functions
 A cutoff of  1.0D-09 yielded    402 shell pairs
 There are      1773 function pairs (      1968 Cartesian)
 Smallest overlap matrix eigenvalue = 6.78E-03
 Guess from superposition of atomic densities
 Warning:  Energy on first SCF cycle will be non-variational
 SAD guess density has 26.000000 electrons
 Long-range K will be added via erf
 Coulomb attenuation parameter = 0.2 bohr**(-1)
 A restricted hybrid HF-DFT SCF calculation will be
 performed using Relaxed Constraint Minimization + Pulay DIIS
 Exchange:     0.2220 Hartree-Fock + 1.0000 wB97X-D + LR-HF
 Correlation:  1.0000 wB97X-D
 Using Euler-Maclaurin-Lebedev (75,302) quadrature formula
 Dispersion:   Grimme D
 SCF converges when DIIS error is below 1.0E-04
 using 3 threads for integral computing
 -------------------------------------------------------
 OpenMP Integral computing Module                
 Release: version 1.0, May 2013, Q-Chem Inc. Pittsburgh 
 -------------------------------------------------------
 using 3 threads for integral computing
 -------------------------------------------------------
 OpenMP Integral computing Module                
 Release: version 1.0, May 2013, Q-Chem Inc. Pittsburgh 
 -------------------------------------------------------
 ---------------------------------------
  Cycle       Energy         DIIS Error
 ---------------------------------------
    1    -119.6184115217      1.01E-01
    2    -119.0590309121      9.06E-03
    3    -119.0804024410      2.47E-03
    4    -119.0945211105      1.69E-03
    5    -119.0952212561      2.67E-04 Done RCA. Switching to DIIS
    6    -119.0957350936      1.97E-04
    7    -119.0957519648      4.58E-06 Convergence criterion met
 ---------------------------------------
 SCF time:  CPU 20.42 s  wall 7.51 s
 SCF   energy in the small basis set = -119.09575196
 Total energy in the small basis set = -119.09575196
 ----------------------------------------------------
  Cycle       Energy    
 ----------------------------------------------------
    1     -16.5428364348     -1.65E+01
 Long-range K will be added via erf
 Coulomb attenuation parameter = 0.2 bohr**(-1)
 A restricted hybrid HF-DFT SCF calculation will be
 performed using Relaxed Constraint Minimization + Pulay DIIS
 Exchange:     0.2220 Hartree-Fock + 1.0000 wB97X-D + LR-HF
 Correlation:  1.0000 wB97X-D
 Using Euler-Maclaurin-Lebedev (75,302) quadrature formula
 Dispersion:   Grimme D
 SCF converges when DIIS error is below 1.0E-05
 Basis2 calculation detected. Using small basis as guess for larger.
 SCFMinFind is unable to tell whether the solution found is close.
 Resetting ReadMinima to 0 and attempting to follow guess.
 SCFMinFind following SCF Guess.
 using 3 threads for integral computing
 -------------------------------------------------------
 OpenMP Integral computing Module                
 Release: version 1.0, May 2013, Q-Chem Inc. Pittsburgh 
 -------------------------------------------------------
 using 3 threads for integral computing
 -------------------------------------------------------
 OpenMP Integral computing Module                
 Release: version 1.0, May 2013, Q-Chem Inc. Pittsburgh 
 -------------------------------------------------------
 ---------------------------------------
  Cycle       Energy         DIIS Error
 ---------------------------------------
    1    -119.1151375591      4.21E-03
    2    -119.1371744746      5.95E-04 Done RCA. Switching to DIIS
    3    -119.1380017774      4.17E-04
    4    -119.1389553959      4.56E-05
    5    -119.1389701440      1.01E-05
    6    -119.1389708219      3.86E-06 Convergence criterion met
 ---------------------------------------
 SCF time:  CPU 48.87 s  wall 16.33 s
 SCF   energy in the final basis set = -119.13897082
 Total energy in the final basis set = -119.13897082
 
 --------------------------------------------------------------
 
                    Orbital Energies (a.u.)
 --------------------------------------------------------------
 
 Alpha MOs
 -- Occupied --
-10.2739 -10.2649 -10.2649  -0.8818  -0.7781  -0.6788  -0.5460  -0.5248
 -0.4862  -0.4600  -0.4190  -0.4176  -0.4072
 -- Virtual --
  0.0690   0.0858   0.0910   0.0990   0.1250   0.1298   0.1336   0.1423
  0.1431   0.1707   0.1718   0.1909   0.2306   0.2411   0.2426   0.2644
  0.2824   0.2848   0.3111   0.3133   0.3347   0.3504   0.4572   0.4675
  0.4710   0.5096   0.5139   0.5175   0.5451   0.5612   0.5829   0.5837
  0.6252   0.6259   0.6403   0.6441   0.6563   0.6581   0.7119   0.7270
  0.7292   0.7669   0.8219   0.8624   0.8700   0.8741   0.8810   0.9584
  1.0018   1.0522   1.0578   1.1382   1.1409   1.1811   1.1817   1.2134
  1.2290   1.2374   1.2661   1.2773   1.2868   1.2921   1.3274   1.3742
  1.3849   1.3954   1.3990   1.4437   1.4657   1.4673   1.4748   1.4813
  1.5261   1.5808   1.6073   1.6215   1.6352   1.6614   1.6812   1.7027
  1.7486   2.3716   2.4643   2.4686   2.4969   2.5509   2.5644   2.5909
  2.6421   2.7154   2.8224   2.8334   2.8372   2.9091   2.9252   2.9262
  2.9373   2.9397   2.9999   3.0171   3.0577   3.0588   3.0840   3.1050
  3.1230   3.1467   3.1814   3.1839   3.2189   3.2199   3.2807   3.3006
  3.3322   3.3373   3.3384   3.3525   3.3584   3.3769   3.4025   3.4369
  3.4649   3.4862   3.4991   3.5209   3.5547   3.5814   3.5986   3.6094
  3.6189   3.6847   3.6893   3.6983   3.7812   3.7878   3.8832   3.8916
  3.9296   3.9395   3.9526   3.9530   3.9647   3.9942   4.0518   4.0569
  4.0812   4.1017   4.1163   4.1467   4.1524   4.1561   4.1982   4.2031
  4.2183   4.2474   4.2628   4.3714   4.3846   4.4093   4.4115   4.4287
  4.4417   4.5820   4.5895   4.5913   4.6676   4.7939   4.8297   4.8750
  4.9134   4.9182   4.9701   4.9826   5.0359   5.0523   5.0809   5.1082
  5.1188   5.2332   5.2664   5.2883   5.3054   5.3579   5.3741   5.3900
  5.4170   5.4340   5.4718   5.5167   5.5455   5.5840   5.6598   5.7504
  5.9477   6.3267   6.3309   6.4437   6.4703   6.4746  25.1998  25.4361
 25.4463
 --------------------------------------------------------------
 
 -----------------------------------------------------------------
                    Cartesian Multipole Moments
 -----------------------------------------------------------------
    Charge (ESU x 10^10)
                -0.0000
    Dipole Moment (Debye)
         X      -0.0000      Y       0.1529      Z      -0.0944
       Tot       0.1798
    Quadrupole Moments (Debye-Ang)
        XX     -22.1551     XY      -0.0000     YY     -21.3556
        XZ       0.0000     YZ      -0.0020     ZZ     -21.8522
    Octopole Moments (Debye-Ang^2)
       XXX      -0.0001    XXY       0.1769    XYY      -0.0000
       YYY      -0.1727    XXZ      -1.5689    XYZ      -0.0000
       YYZ       0.4859    XZZ       0.0000    YZZ      -0.0479
       ZZZ      -0.4231
    Hexadecapole Moments (Debye-Ang^3)
      XXXX    -202.0654   XXXY      -0.0001   XXYY     -42.2034
      XYYY      -0.0000   YYYY     -44.2095   XXXZ       0.0001
      XXYZ       0.2726   XYYZ       0.0000   YYYZ       0.4210
      XXZZ     -45.3254   XYZZ      -0.0000   YYZZ     -17.0921
      XZZZ       0.0001   YZZZ       0.4573   ZZZZ     -72.3209
 -----------------------------------------------------------------
Archival summary:
1\1\centos77-c4\SP\ProcedureUnspecified\BasisUnspecified\38\shihchen\TueJul702:41:562020TueJul702:41:562020\0\\#,ProcedureUnspecified,BasisUnspecified,\\0,1\C\H,1,1.05613\H,1,1.12812,2,106.229\C,1,1.52409,2,109.494,3,118.102,0\H,4,1.04475,1,111.025,2,62.3199,0\H,4,1.08798,1,111.644,2,-58.4135,0\H,4,1.14112,1,110.774,2,-178.297,0\C,1,1.52409,2,109.494,3,-118.102,0\H,8,1.04475,1,111.025,2,-62.3201,0\H,8,1.08796,1,111.644,2,58.4134,0\H,8,1.14112,1,110.774,2,178.297,0\\\@

 Total job time:  26.78s(wall), 72.99s(cpu) 
 Tue Jul  7 02:41:56 2020

        *************************************************************
        *                                                           *
        *  Thank you very much for using Q-Chem.  Have a nice day.  *
        *                                                           *
        *************************************************************


