                  Welcome to Q-Chem
     A Quantum Leap Into The Future Of Chemistry


 Q-Chem 5.3 (devel), Q-Chem, Inc., Pleasanton, CA (2020)

 Yihan Shao,  Zhengting Gan,  E. Epifanovsky,  A. T. B. Gilbert,  M. Wormit,  
 J. Kussmann,  A. W. Lange,  A. Behn,  Jia Deng,  Xintian Feng,  D. Ghosh,  
 M. Goldey,  P. R. Horn,  L. D. Jacobson,  I. Kaliman,  T. Kus,  A. Landau,  
 Jie Liu,  E. I. Proynov,  R. M. Richard,  R. P. Steele,  E. J. Sundstrom,  
 H. L. Woodcock III,  P. M. Zimmerman,  D. Zuev,  B. Alam,  B. Albrecht,  
 E. Alguire,  S. A. Baeppler,  D. Barton,  Z. Benda,  Y. A. Bernard,  
 E. J. Berquist,  K. B. Bravaya,  H. Burton,  K. Carter-Fenk,  D. Casanova,  
 Chun-Min Chang,  Yunqing Chen,  A. Chien,  K. D. Closser,  M. P. Coons,  
 S. Coriani,  S. Dasgupta,  A. L. Dempwolff,  M. Diedenhofen,  Hainam Do,  
 R. G. Edgar,  Po-Tung Fang,  S. Faraji,  S. Fatehi,  Qingguo Feng,  
 J. Fosso-Tande,  J. Gayvert,  Qinghui Ge,  A. Ghysels,  G. Gidofalvi,  
 J. Gomes,  J. Gonthier,  A. Gunina,  D. Hait,  M. W. D. Hanson-Heine,  
 P. H. P. Harbach,  A. W. Hauser,  M. F. Herbst,  J. E. Herr,  
 E. G. Hohenstein,  Z. C. Holden,  Kerwin Hui,  B. C. Huynh,  T.-C. Jagau,  
 Hyunjun Ji,  B. Kaduk,  K. Khistyaev,  Jaehoon Kim,  P. Klunzinger,  K. Koh,  
 D. Kosenkov,  L. Koulias,  T. Kowalczyk,  C. M. Krauter,  A. Kunitsa,  
 Ka Un Lao,  A. Laurent,  K. V. Lawler,  Joonho Lee,  D. Lefrancois,  
 S. Lehtola,  D. S. Levine,  Yi-Pei Li,  You-Sheng Lin,  Fenglai Liu,  
 Kuan-Yu Liu,  E. Livshits,  M. Loipersberger,  A. Luenser,  P. Manohar,  
 E. Mansoor,  S. F. Manzer,  Shan-Ping Mao,  Yuezhi Mao,  N. Mardirossian,  
 A. V. Marenich,  T. Markovich,  L. A. Martinez-Martinez,  S. A. Maurer,  
 N. J. Mayhall,  S. C. McKenzie,  J.-M. Mewes,  P. Morgante,  A. F. Morrison,  
 J. W. Mullinax,  K. Nanda,  T. S. Nguyen-Beck,  R. Olivares-Amaya,  
 K. J. Oosterbaan,  J. A. Parkhill,  S. K. Paul,  F. Pavosevic,  Zheng Pei,  
 T. M. Perrine,  F. Plasser,  P. Pokhilko,  S. Prager,  A. Prociuk,  
 E. Ramos,  B. Rana,  D. R. Rehn,  F. Rob,  M. Scheurer,  M. Schneider,  
 N. Sergueev,  S. M. Sharada,  S. Sharma,  D. W. Small,  T. Stauch,  
 C. J. Stein,  T. Stein,  Yu-Chuan Su,  S. P. Veccham,  Zhen Tao,  
 A. J. W. Thom,  A. Tkatchenko,  T. Tsuchimochi,  N. M. Tubman,  L. Vogt,  
 M. L. Vidal,  O. Vydrov,  M. A. Watson,  J. Wenzel,  M. de Wergifosse,  
 T. A. Wesolowski,  A. White,  J. Witte,  A. Yamada,  Jun Yang,  K. Yao,  
 S. Yeganeh,  S. R. Yost,  Zhi-Qiang You,  A. Zech,  Igor Ying Zhang,  
 Xing Zhang,  Yan Zhao,  Ying Zhu,  B. R. Brooks,  G. K. L. Chan,  
 C. J. Cramer,  M. S. Gordon,  W. J. Hehre,  A. Klamt,  M. W. Schmidt,  
 C. D. Sherrill,  D. G. Truhlar,  A. Aspuru-Guzik,  R. Baer,  A. T. Bell,  
 N. A. Besley,  Jeng-Da Chai,  A. E. DePrince, III,  R. A. DiStasio Jr.,  
 A. Dreuw,  B. D. Dunietz,  T. R. Furlani,  Chao-Ping Hsu,  Yousung Jung,  
 Jing Kong,  D. S. Lambrecht,  WanZhen Liang,  C. Ochsenfeld,  
 V. A. Rassolov,  L. V. Slipchenko,  J. E. Subotnik,  T. Van Voorhis,  
 J. M. Herbert,  A. I. Krylov,  P. M. W. Gill,  M. Head-Gordon

 Contributors to earlier versions of Q-Chem not listed above: 
 R. D. Adamson,  B. Austin,  J. Baker,  G. J. O. Beran,  K. Brandhorst,  
 S. T. Brown,  E. F. C. Byrd,  A. K. Chakraborty,  C.-L. Cheng,  
 Siu Hung Chien,  D. M. Chipman,  D. L. Crittenden,  H. Dachsel,  
 R. J. Doerksen,  A. D. Dutoi,  L. Fusti-Molnar,  W. A. Goddard III,  
 A. Golubeva-Zadorozhnaya,  S. R. Gwaltney,  G. Hawkins,  A. Heyden,  
 S. Hirata,  G. Kedziora,  F. J. Keil,  C. Kelley,  Jihan Kim,  R. A. King,  
 R. Z. Khaliullin,  P. P. Korambath,  W. Kurlancheek,  A. M. Lee,  M. S. Lee,  
 S. V. Levchenko,  Ching Yeh Lin,  D. Liotard,  R. C. Lochan,  I. Lotan,  
 P. E. Maslen,  N. Nair,  D. P. O'Neill,  D. Neuhauser,  E. Neuscamman,  
 C. M. Oana,  R. Olson,  B. Peters,  R. Peverati,  P. A. Pieniazek,  
 Y. M. Rhee,  J. Ritchie,  M. A. Rohrdanz,  E. Rosta,  N. J. Russ,  
 H. F. Schaefer III,  N. E. Schultz,  N. Shenvi,  A. C. Simmonett,  A. Sodt,  
 D. Stuck,  K. S. Thanthiriwatte,  V. Vanovschi,  Tao Wang,  A. Warshel,  
 C. F. Williams,  Q. Wu,  X. Xu,  W. Zhang

 Please cite Q-Chem as follows:
 Y. Shao et al., Mol. Phys. 113, 184-215 (2015)
 DOI: 10.1080/00268976.2014.952696

 Q-Chem 5.3.0 for Intel X86 EM64T Linux

 Parts of Q-Chem use Armadillo 9.800.1 (Horizon Scraper).
 http://arma.sourceforge.net/

 Q-Chem begins on Tue Jul  7 02:15:17 2020  

Host: centos77-c4
0

     Scratch files written to /tmp/26964.centos77-h1/qchem109813//
Processing $rem in /opt/qchem-5.3.0-intel2020u1//config/preferences:
Processing $rem in /home/shihchengli/.qchemrc:

Checking the input file for inconsistencies... 	...done.

--------------------------------------------------------------
User input:
--------------------------------------------------------------
$rem
   JOBTYPE  sp
   EXCHANGE   omegaB97X-D
   BASIS   6-311+G(2df,2pd)
   UNRESTRICTED   False
   max_scf_cycles   250
   geom_opt_max_cycles   1500
   basis2 6-31G*
   scf_algorithm rca_diis
   SYM_IGNORE  TRUE
   print_input   true
   geom_opt_dmax   80
   pop_mulliken false
   XC_GRID 000075000302
$end

$molecule
0 1
C       1.3101615682     -0.0671541070     0.2117726423
C       0.0311761907     0.0083446329     -0.5916818718
H       1.3164371515     -0.9434365922     0.8629096374
H       1.3159223560     0.4492600284     1.1828473379
H       2.0829976065     0.3557717551     -0.4190572111
C       -1.2175446667     0.0940617887     0.2982745761
H       -0.0972828243     -0.8628284576     -1.2384523443
H       0.0609066429     0.8775997115     -1.2529444767
H       -1.2818522263     -0.7835803608     0.9448574009
H       -2.1575028846     -0.2827716294     -0.1244874889
H       -1.3634189745     1.1547338965     0.4670068171
$end
--------------------------------------------------------------
 ----------------------------------------------------------------
             Standard Nuclear Orientation (Angstroms)
    I     Atom           X                Y                Z
 ----------------------------------------------------------------
    1      C       1.3101615682    -0.0671541070     0.2117726423
    2      C       0.0311761907     0.0083446329    -0.5916818718
    3      H       1.3164371515    -0.9434365922     0.8629096374
    4      H       1.3159223560     0.4492600284     1.1828473379
    5      H       2.0829976065     0.3557717551    -0.4190572111
    6      C      -1.2175446667     0.0940617887     0.2982745761
    7      H      -0.0972828243    -0.8628284576    -1.2384523443
    8      H       0.0609066429     0.8775997115    -1.2529444767
    9      H      -1.2818522263    -0.7835803608     0.9448574009
   10      H      -2.1575028846    -0.2827716294    -0.1244874889
   11      H      -1.3634189745     1.1547338965     0.4670068171
 ----------------------------------------------------------------
 Nuclear Repulsion Energy =          82.83124367 hartrees
 There are       13 alpha and       13 beta electrons
 Requested basis set is 6-311+G(2df,2pd)
 There are 72 shells and 214 basis functions

 Total QAlloc Memory Limit   2000 MB
 Mega-Array Size       188 MB
 MEM_STATIC part       192 MB

                       Distance Matrix (Angstroms)
             C (  1)   C (  2)   H (  3)   H (  4)   H (  5)   C (  6)
   C (  2)  1.512297
   H (  3)  1.091737  2.161856
   H (  4)  1.099865  2.234711  1.428973
   H (  5)  1.083553  2.088175  1.979645  1.778551
   C (  6)  2.534319  1.535797  2.795761  2.706860  3.387718
   H (  7)  2.171900  1.092592  2.533934  3.095386  2.628691  2.128886
   H (  8)  2.144433  1.092592  3.060942  2.773377  2.248672  2.157464
   H (  9)  2.787331  2.170747  2.604492  2.885302  3.805338  1.091998
   H ( 10)  3.490596  2.256842  3.671470  3.782813  4.298413  1.097384
   H ( 11)  2.950625  2.092827  3.426469  2.861641  3.647086  1.083870
             H (  7)   H (  8)   H (  9)   H ( 10)
   H (  8)  1.747662
   H (  9)  2.485222  3.064776
   H ( 10)  2.412859  2.746128  1.470058
   H ( 11)  2.929548  2.250275  1.998013  1.745525
 
 A cutoff of  1.0D-09 yielded   2535 shell pairs
 There are     22572 function pairs (     27756 Cartesian)
 Smallest overlap matrix eigenvalue = 8.66E-05

 Scale SEOQF with 1.000000e-01/1.000000e-01/1.000000e-01

 Standard Electronic Orientation quadrupole field applied
 Nucleus-field energy     =     0.0000000006 hartrees
 Requested basis set is 6-31G(d)
 There are 28 shells and 58 basis functions
 A cutoff of  1.0D-09 yielded    402 shell pairs
 There are      1773 function pairs (      1968 Cartesian)
 Smallest overlap matrix eigenvalue = 6.81E-03
 Guess from superposition of atomic densities
 Warning:  Energy on first SCF cycle will be non-variational
 SAD guess density has 26.000000 electrons
 Long-range K will be added via erf
 Coulomb attenuation parameter = 0.2 bohr**(-1)
 A restricted hybrid HF-DFT SCF calculation will be
 performed using Relaxed Constraint Minimization + Pulay DIIS
 Exchange:     0.2220 Hartree-Fock + 1.0000 wB97X-D + LR-HF
 Correlation:  1.0000 wB97X-D
 Using Euler-Maclaurin-Lebedev (75,302) quadrature formula
 Dispersion:   Grimme D
 SCF converges when DIIS error is below 1.0E-04
 using 3 threads for integral computing
 -------------------------------------------------------
 OpenMP Integral computing Module                
 Release: version 1.0, May 2013, Q-Chem Inc. Pittsburgh 
 -------------------------------------------------------
 using 3 threads for integral computing
 -------------------------------------------------------
 OpenMP Integral computing Module                
 Release: version 1.0, May 2013, Q-Chem Inc. Pittsburgh 
 -------------------------------------------------------
 ---------------------------------------
  Cycle       Energy         DIIS Error
 ---------------------------------------
    1    -119.6496117579      1.01E-01
    2    -119.0019468726      9.52E-03
    3    -119.0256798909      2.57E-03
    4    -119.0418356976      1.76E-03
    5    -119.0426038742      2.81E-04 Done RCA. Switching to DIIS
    6    -119.0431816331      2.03E-04
    7    -119.0432001453      7.73E-06 Convergence criterion met
 ---------------------------------------
 SCF time:  CPU 20.38 s  wall 7.48 s
 SCF   energy in the small basis set = -119.04320015
 Total energy in the small basis set = -119.04320015
 ----------------------------------------------------
  Cycle       Energy    
 ----------------------------------------------------
    1     -16.5332233639     -1.65E+01
 Long-range K will be added via erf
 Coulomb attenuation parameter = 0.2 bohr**(-1)
 A restricted hybrid HF-DFT SCF calculation will be
 performed using Relaxed Constraint Minimization + Pulay DIIS
 Exchange:     0.2220 Hartree-Fock + 1.0000 wB97X-D + LR-HF
 Correlation:  1.0000 wB97X-D
 Using Euler-Maclaurin-Lebedev (75,302) quadrature formula
 Dispersion:   Grimme D
 SCF converges when DIIS error is below 1.0E-05
 Basis2 calculation detected. Using small basis as guess for larger.
 SCFMinFind is unable to tell whether the solution found is close.
 Resetting ReadMinima to 0 and attempting to follow guess.
 SCFMinFind following SCF Guess.
 using 3 threads for integral computing
 -------------------------------------------------------
 OpenMP Integral computing Module                
 Release: version 1.0, May 2013, Q-Chem Inc. Pittsburgh 
 -------------------------------------------------------
 using 3 threads for integral computing
 -------------------------------------------------------
 OpenMP Integral computing Module                
 Release: version 1.0, May 2013, Q-Chem Inc. Pittsburgh 
 -------------------------------------------------------
 ---------------------------------------
  Cycle       Energy         DIIS Error
 ---------------------------------------
    1    -119.0654521892      4.21E-03
    2    -119.0873540424      6.48E-04 Done RCA. Switching to DIIS
    3    -119.0882691474      4.70E-04
    4    -119.0894856693      4.70E-05
    5    -119.0895023763      1.07E-05
    6    -119.0895032733      4.21E-06 Convergence criterion met
 ---------------------------------------
 SCF time:  CPU 51.35 s  wall 17.37 s
 SCF   energy in the final basis set = -119.08950327
 Total energy in the final basis set = -119.08950327
 
 --------------------------------------------------------------
 
                    Orbital Energies (a.u.)
 --------------------------------------------------------------
 
 Alpha MOs
 -- Occupied --
-10.2741 -10.2662 -10.2653  -0.8838  -0.7838  -0.6850  -0.5613  -0.5399
 -0.4876  -0.4591  -0.4269  -0.3876  -0.3776
 -- Virtual --
  0.0686   0.0859   0.0892   0.0977   0.1202   0.1291   0.1321   0.1406
  0.1423   0.1673   0.1760   0.1904   0.2093   0.2220   0.2460   0.2708
  0.2790   0.2901   0.3112   0.3213   0.3315   0.3425   0.4604   0.4697
  0.4825   0.5030   0.5136   0.5228   0.5489   0.5620   0.5707   0.5990
  0.6096   0.6231   0.6366   0.6524   0.6699   0.6779   0.7023   0.7125
  0.7271   0.7771   0.8009   0.8529   0.8592   0.8850   0.9081   0.9321
  0.9873   1.0542   1.0579   1.1159   1.1284   1.1547   1.1826   1.2262
  1.2396   1.2599   1.2645   1.2816   1.3065   1.3128   1.3533   1.3702
  1.3755   1.4009   1.4188   1.4327   1.4723   1.4791   1.5012   1.5153
  1.5259   1.5454   1.5830   1.6080   1.6345   1.6484   1.6576   1.7111
  1.7429   2.3666   2.4099   2.5032   2.5236   2.5612   2.6186   2.6461
  2.6726   2.6990   2.7500   2.7677   2.8067   2.8435   2.8938   2.9110
  2.9356   2.9598   2.9777   3.0080   3.0196   3.0754   3.1002   3.1080
  3.1155   3.1473   3.1837   3.2081   3.2205   3.2355   3.2560   3.2802
  3.2935   3.3162   3.3235   3.3553   3.3737   3.4317   3.4530   3.4692
  3.4949   3.5191   3.5456   3.5663   3.5724   3.5899   3.6009   3.6167
  3.6337   3.6637   3.7012   3.7166   3.7377   3.7691   3.7828   3.7897
  3.8575   3.8824   3.9018   3.9391   3.9558   3.9644   3.9948   4.0186
  4.0484   4.0858   4.1122   4.1246   4.1310   4.1688   4.2299   4.2351
  4.2855   4.3072   4.3409   4.3444   4.3760   4.3884   4.4253   4.4423
  4.5020   4.5455   4.5882   4.6110   4.6671   4.7032   4.7496   4.8255
  4.8690   4.8989   4.9008   4.9684   5.0165   5.0287   5.0927   5.0966
  5.1544   5.2142   5.2508   5.2676   5.3371   5.3464   5.3725   5.4045
  5.4867   5.4907   5.5607   5.6677   5.7477   5.7835   5.8083   5.8565
  6.0002   6.3620   6.3933   6.4409   6.4477   6.5342  25.1607  25.3979
 25.4589
 --------------------------------------------------------------
 
 -----------------------------------------------------------------
                    Cartesian Multipole Moments
 -----------------------------------------------------------------
    Charge (ESU x 10^10)
                -0.0000
    Dipole Moment (Debye)
         X      -0.1845      Y      -0.0396      Z      -0.0217
       Tot       0.1899
    Quadrupole Moments (Debye-Ang)
        XX     -22.4104     XY       1.0074     YY     -21.2595
        XZ       0.1210     YZ      -0.9122     ZZ     -22.0665
    Octopole Moments (Debye-Ang^2)
       XXX      -3.3699    XXY       0.2956    XYY      -2.6233
       YYY       0.1317    XXZ      -0.2840    XYZ      -0.5156
       YYZ      -0.1288    XZZ       1.5624    YZZ      -0.8594
       ZZZ      -0.1713
    Hexadecapole Moments (Debye-Ang^3)
      XXXX    -206.2316   XXXY       9.4679   XXYY     -41.3343
      XYYY       2.5666   YYYY     -44.8348   XXXZ      -1.4407
      XXYZ      -1.6278   XYYZ      -0.3513   YYYZ       0.1473
      XXZZ     -45.4909   XYZZ       1.6425   YYZZ     -18.2647
      XZZZ       3.6242   YZZZ      -0.0401   ZZZZ     -72.4647
 -----------------------------------------------------------------
Archival summary:
1\1\centos77-c4\SP\ProcedureUnspecified\BasisUnspecified\38\shihchen\TueJul702:15:452020TueJul702:15:452020\0\\#,ProcedureUnspecified,BasisUnspecified,\\0,1\C\H,1,1.09259\H,1,1.09259,2,106.218\C,1,1.5123,2,111.97,3,-119.815,0\H,4,1.08355,1,105.927,2,86.6428,0\H,4,1.09174,1,111.211,2,-60.8127,0\H,4,1.09986,1,116.747,2,-151.713,0\C,1,1.5358,2,106.974,3,116.513,0\H,8,1.08387,1,104.73,2,-147.759,0\H,8,1.092,1,110.251,2,63.6486,0\H,8,1.09738,1,117.003,2,-30.3877,0\\\@

 Total job time:  27.76s(wall), 75.30s(cpu) 
 Tue Jul  7 02:15:45 2020

        *************************************************************
        *                                                           *
        *  Thank you very much for using Q-Chem.  Have a nice day.  *
        *                                                           *
        *************************************************************


