                  Welcome to Q-Chem
     A Quantum Leap Into The Future Of Chemistry


 Q-Chem 5.3 (devel), Q-Chem, Inc., Pleasanton, CA (2020)

 Yihan Shao,  Zhengting Gan,  E. Epifanovsky,  A. T. B. Gilbert,  M. Wormit,  
 J. Kussmann,  A. W. Lange,  A. Behn,  Jia Deng,  Xintian Feng,  D. Ghosh,  
 M. Goldey,  P. R. Horn,  L. D. Jacobson,  I. Kaliman,  T. Kus,  A. Landau,  
 Jie Liu,  E. I. Proynov,  R. M. Richard,  R. P. Steele,  E. J. Sundstrom,  
 H. L. Woodcock III,  P. M. Zimmerman,  D. Zuev,  B. Alam,  B. Albrecht,  
 E. Alguire,  S. A. Baeppler,  D. Barton,  Z. Benda,  Y. A. Bernard,  
 E. J. Berquist,  K. B. Bravaya,  H. Burton,  K. Carter-Fenk,  D. Casanova,  
 Chun-Min Chang,  Yunqing Chen,  A. Chien,  K. D. Closser,  M. P. Coons,  
 S. Coriani,  S. Dasgupta,  A. L. Dempwolff,  M. Diedenhofen,  Hainam Do,  
 R. G. Edgar,  Po-Tung Fang,  S. Faraji,  S. Fatehi,  Qingguo Feng,  
 J. Fosso-Tande,  J. Gayvert,  Qinghui Ge,  A. Ghysels,  G. Gidofalvi,  
 J. Gomes,  J. Gonthier,  A. Gunina,  D. Hait,  M. W. D. Hanson-Heine,  
 P. H. P. Harbach,  A. W. Hauser,  M. F. Herbst,  J. E. Herr,  
 E. G. Hohenstein,  Z. C. Holden,  Kerwin Hui,  B. C. Huynh,  T.-C. Jagau,  
 Hyunjun Ji,  B. Kaduk,  K. Khistyaev,  Jaehoon Kim,  P. Klunzinger,  K. Koh,  
 D. Kosenkov,  L. Koulias,  T. Kowalczyk,  C. M. Krauter,  A. Kunitsa,  
 Ka Un Lao,  A. Laurent,  K. V. Lawler,  Joonho Lee,  D. Lefrancois,  
 S. Lehtola,  D. S. Levine,  Yi-Pei Li,  You-Sheng Lin,  Fenglai Liu,  
 Kuan-Yu Liu,  E. Livshits,  M. Loipersberger,  A. Luenser,  P. Manohar,  
 E. Mansoor,  S. F. Manzer,  Shan-Ping Mao,  Yuezhi Mao,  N. Mardirossian,  
 A. V. Marenich,  T. Markovich,  L. A. Martinez-Martinez,  S. A. Maurer,  
 N. J. Mayhall,  S. C. McKenzie,  J.-M. Mewes,  P. Morgante,  A. F. Morrison,  
 J. W. Mullinax,  K. Nanda,  T. S. Nguyen-Beck,  R. Olivares-Amaya,  
 K. J. Oosterbaan,  J. A. Parkhill,  S. K. Paul,  F. Pavosevic,  Zheng Pei,  
 T. M. Perrine,  F. Plasser,  P. Pokhilko,  S. Prager,  A. Prociuk,  
 E. Ramos,  B. Rana,  D. R. Rehn,  F. Rob,  M. Scheurer,  M. Schneider,  
 N. Sergueev,  S. M. Sharada,  S. Sharma,  D. W. Small,  T. Stauch,  
 C. J. Stein,  T. Stein,  Yu-Chuan Su,  S. P. Veccham,  Zhen Tao,  
 A. J. W. Thom,  A. Tkatchenko,  T. Tsuchimochi,  N. M. Tubman,  L. Vogt,  
 M. L. Vidal,  O. Vydrov,  M. A. Watson,  J. Wenzel,  M. de Wergifosse,  
 T. A. Wesolowski,  A. White,  J. Witte,  A. Yamada,  Jun Yang,  K. Yao,  
 S. Yeganeh,  S. R. Yost,  Zhi-Qiang You,  A. Zech,  Igor Ying Zhang,  
 Xing Zhang,  Yan Zhao,  Ying Zhu,  B. R. Brooks,  G. K. L. Chan,  
 C. J. Cramer,  M. S. Gordon,  W. J. Hehre,  A. Klamt,  M. W. Schmidt,  
 C. D. Sherrill,  D. G. Truhlar,  A. Aspuru-Guzik,  R. Baer,  A. T. Bell,  
 N. A. Besley,  Jeng-Da Chai,  A. E. DePrince, III,  R. A. DiStasio Jr.,  
 A. Dreuw,  B. D. Dunietz,  T. R. Furlani,  Chao-Ping Hsu,  Yousung Jung,  
 Jing Kong,  D. S. Lambrecht,  WanZhen Liang,  C. Ochsenfeld,  
 V. A. Rassolov,  L. V. Slipchenko,  J. E. Subotnik,  T. Van Voorhis,  
 J. M. Herbert,  A. I. Krylov,  P. M. W. Gill,  M. Head-Gordon

 Contributors to earlier versions of Q-Chem not listed above: 
 R. D. Adamson,  B. Austin,  J. Baker,  G. J. O. Beran,  K. Brandhorst,  
 S. T. Brown,  E. F. C. Byrd,  A. K. Chakraborty,  C.-L. Cheng,  
 Siu Hung Chien,  D. M. Chipman,  D. L. Crittenden,  H. Dachsel,  
 R. J. Doerksen,  A. D. Dutoi,  L. Fusti-Molnar,  W. A. Goddard III,  
 A. Golubeva-Zadorozhnaya,  S. R. Gwaltney,  G. Hawkins,  A. Heyden,  
 S. Hirata,  G. Kedziora,  F. J. Keil,  C. Kelley,  Jihan Kim,  R. A. King,  
 R. Z. Khaliullin,  P. P. Korambath,  W. Kurlancheek,  A. M. Lee,  M. S. Lee,  
 S. V. Levchenko,  Ching Yeh Lin,  D. Liotard,  R. C. Lochan,  I. Lotan,  
 P. E. Maslen,  N. Nair,  D. P. O'Neill,  D. Neuhauser,  E. Neuscamman,  
 C. M. Oana,  R. Olson,  B. Peters,  R. Peverati,  P. A. Pieniazek,  
 Y. M. Rhee,  J. Ritchie,  M. A. Rohrdanz,  E. Rosta,  N. J. Russ,  
 H. F. Schaefer III,  N. E. Schultz,  N. Shenvi,  A. C. Simmonett,  A. Sodt,  
 D. Stuck,  K. S. Thanthiriwatte,  V. Vanovschi,  Tao Wang,  A. Warshel,  
 C. F. Williams,  Q. Wu,  X. Xu,  W. Zhang

 Please cite Q-Chem as follows:
 Y. Shao et al., Mol. Phys. 113, 184-215 (2015)
 DOI: 10.1080/00268976.2014.952696

 Q-Chem 5.3.0 for Intel X86 EM64T Linux

 Parts of Q-Chem use Armadillo 9.800.1 (Horizon Scraper).
 http://arma.sourceforge.net/

 Q-Chem begins on Tue Jul  7 01:10:47 2020  

Host: centos77-c4
0

     Scratch files written to /tmp/26964.centos77-h1/qchem97599//
Processing $rem in /opt/qchem-5.3.0-intel2020u1//config/preferences:
Processing $rem in /home/shihchengli/.qchemrc:

Checking the input file for inconsistencies... 	...done.

--------------------------------------------------------------
User input:
--------------------------------------------------------------
$rem
   JOBTYPE  sp
   EXCHANGE   omegaB97X-D
   BASIS   6-311+G(2df,2pd)
   UNRESTRICTED   False
   max_scf_cycles   250
   geom_opt_max_cycles   1500
   basis2 6-31G*
   scf_algorithm rca_diis
   SYM_IGNORE  TRUE
   print_input   true
   geom_opt_dmax   80
   pop_mulliken false
   XC_GRID 000075000302
$end

$molecule
0 1
C       1.2582873427     0.0721859346     0.2620788494
C       -0.0000000292     0.1346758302     -0.5919358323
H       1.1465682784     -0.8903810824     0.7695037369
H       1.4333037031     0.8355618345     1.0192898244
H       2.1486900856     -0.0318941172     -0.3595152006
C       -1.2582875248     0.0721859618     0.2620785961
H       -0.0000000596     -0.8890025988     -0.9826265175
H       0.0000001374     0.7833820716     -1.4671067868
H       -1.1465681729     -0.8903811491     0.7695033045
H       -2.1486904978     -0.0318933050     -0.3595152378
H       -1.4333033235     0.8355612857     1.0192902826
$end
--------------------------------------------------------------
 ----------------------------------------------------------------
             Standard Nuclear Orientation (Angstroms)
    I     Atom           X                Y                Z
 ----------------------------------------------------------------
    1      C       1.2582873427     0.0721859346     0.2620788494
    2      C      -0.0000000292     0.1346758302    -0.5919358323
    3      H       1.1465682784    -0.8903810824     0.7695037369
    4      H       1.4333037031     0.8355618345     1.0192898244
    5      H       2.1486900856    -0.0318941172    -0.3595152006
    6      C      -1.2582875248     0.0721859618     0.2620785961
    7      H      -0.0000000596    -0.8890025988    -0.9826265175
    8      H       0.0000001374     0.7833820716    -1.4671067868
    9      H      -1.1465681729    -0.8903811491     0.7695033045
   10      H      -2.1486904978    -0.0318933050    -0.3595152378
   11      H      -1.4333033235     0.8355612857     1.0192902826
 ----------------------------------------------------------------
 Nuclear Repulsion Energy =          83.07131418 hartrees
 There are       13 alpha and       13 beta electrons
 Requested basis set is 6-311+G(2df,2pd)
 There are 72 shells and 214 basis functions

 Total QAlloc Memory Limit   2000 MB
 Mega-Array Size       188 MB
 MEM_STATIC part       192 MB

                       Distance Matrix (Angstroms)
             C (  1)   C (  2)   H (  3)   H (  4)   H (  5)   C (  6)
   C (  2)  1.522016
   H (  3)  1.093845  2.053991
   H (  4)  1.089377  2.267520  1.767340
   H (  5)  1.090884  2.167633  1.736644  1.779146
   C (  6)  2.516575  1.522016  2.639573  2.898409  3.464781
   H (  7)  2.014066  1.095699  2.093939  3.006019  2.395782  2.014066
   H (  8)  2.253701  1.089378  3.019690  2.870409  2.551138  2.253701
   H (  9)  2.639573  2.053990  2.293136  3.114002  3.587535  1.093845
   H ( 10)  3.464781  2.167634  3.587536  3.935005  4.297381  1.090884
   H ( 11)  2.898408  2.267520  3.114002  2.866607  3.935004  1.089377
             H (  7)   H (  8)   H (  9)   H ( 10)
   H (  8)  1.741147
   H (  9)  2.093939  3.019690
   H ( 10)  2.395783  2.551138  1.736644
   H ( 11)  3.006019  2.870410  1.767339  1.779146
 
 A cutoff of  1.0D-09 yielded   2538 shell pairs
 There are     22592 function pairs (     27773 Cartesian)
 Smallest overlap matrix eigenvalue = 9.22E-05

 Scale SEOQF with 1.000000e-01/1.000000e-01/1.000000e-01

 Standard Electronic Orientation quadrupole field applied
 Nucleus-field energy     =     0.0000000005 hartrees
 Requested basis set is 6-31G(d)
 There are 28 shells and 58 basis functions
 A cutoff of  1.0D-09 yielded    402 shell pairs
 There are      1773 function pairs (      1968 Cartesian)
 Smallest overlap matrix eigenvalue = 6.25E-03
 Guess from superposition of atomic densities
 Warning:  Energy on first SCF cycle will be non-variational
 SAD guess density has 26.000000 electrons
 Long-range K will be added via erf
 Coulomb attenuation parameter = 0.2 bohr**(-1)
 A restricted hybrid HF-DFT SCF calculation will be
 performed using Relaxed Constraint Minimization + Pulay DIIS
 Exchange:     0.2220 Hartree-Fock + 1.0000 wB97X-D + LR-HF
 Correlation:  1.0000 wB97X-D
 Using Euler-Maclaurin-Lebedev (75,302) quadrature formula
 Dispersion:   Grimme D
 SCF converges when DIIS error is below 1.0E-04
 using 3 threads for integral computing
 -------------------------------------------------------
 OpenMP Integral computing Module                
 Release: version 1.0, May 2013, Q-Chem Inc. Pittsburgh 
 -------------------------------------------------------
 using 3 threads for integral computing
 -------------------------------------------------------
 OpenMP Integral computing Module                
 Release: version 1.0, May 2013, Q-Chem Inc. Pittsburgh 
 -------------------------------------------------------
 ---------------------------------------
  Cycle       Energy         DIIS Error
 ---------------------------------------
    1    -119.6538125074      1.01E-01
    2    -119.0498209009      9.01E-03
    3    -119.0709516798      2.49E-03
    4    -119.0849361528      1.71E-03
    5    -119.0856496256      2.66E-04 Done RCA. Switching to DIIS
    6    -119.0861769901      1.97E-04
    7    -119.0861938450      4.69E-06 Convergence criterion met
 ---------------------------------------
 SCF time:  CPU 18.75 s  wall 6.74 s
 SCF   energy in the small basis set = -119.08619384
 Total energy in the small basis set = -119.08619384
 ----------------------------------------------------
  Cycle       Energy    
 ----------------------------------------------------
    1     -16.5446578855     -1.65E+01
 Long-range K will be added via erf
 Coulomb attenuation parameter = 0.2 bohr**(-1)
 A restricted hybrid HF-DFT SCF calculation will be
 performed using Relaxed Constraint Minimization + Pulay DIIS
 Exchange:     0.2220 Hartree-Fock + 1.0000 wB97X-D + LR-HF
 Correlation:  1.0000 wB97X-D
 Using Euler-Maclaurin-Lebedev (75,302) quadrature formula
 Dispersion:   Grimme D
 SCF converges when DIIS error is below 1.0E-05
 Basis2 calculation detected. Using small basis as guess for larger.
 SCFMinFind is unable to tell whether the solution found is close.
 Resetting ReadMinima to 0 and attempting to follow guess.
 SCFMinFind following SCF Guess.
 using 3 threads for integral computing
 -------------------------------------------------------
 OpenMP Integral computing Module                
 Release: version 1.0, May 2013, Q-Chem Inc. Pittsburgh 
 -------------------------------------------------------
 using 3 threads for integral computing
 -------------------------------------------------------
 OpenMP Integral computing Module                
 Release: version 1.0, May 2013, Q-Chem Inc. Pittsburgh 
 -------------------------------------------------------
 ---------------------------------------
  Cycle       Energy         DIIS Error
 ---------------------------------------
    1    -119.1058991464      4.21E-03
    2    -119.1278921348      6.00E-04 Done RCA. Switching to DIIS
    3    -119.1287249607      4.22E-04
    4    -119.1296990160      4.63E-05
    5    -119.1297141193      1.05E-05
    6    -119.1297148583      3.80E-06 Convergence criterion met
 ---------------------------------------
 SCF time:  CPU 51.40 s  wall 17.39 s
 SCF   energy in the final basis set = -119.12971486
 Total energy in the final basis set = -119.12971486
 
 --------------------------------------------------------------
 
                    Orbital Energies (a.u.)
 --------------------------------------------------------------
 
 Alpha MOs
 -- Occupied --
-10.2752 -10.2661 -10.2661  -0.8873  -0.7779  -0.6770  -0.5524  -0.5227
 -0.4892  -0.4565  -0.4232  -0.4167  -0.3979
 -- Virtual --
  0.0685   0.0859   0.0894   0.0959   0.1255   0.1294   0.1337   0.1359
  0.1428   0.1722   0.1728   0.1919   0.2280   0.2435   0.2452   0.2622
  0.2832   0.2868   0.3111   0.3136   0.3313   0.3496   0.4592   0.4690
  0.4724   0.4986   0.5134   0.5143   0.5398   0.5685   0.5881   0.5923
  0.6066   0.6251   0.6398   0.6474   0.6494   0.6742   0.7100   0.7255
  0.7263   0.7733   0.8169   0.8412   0.8682   0.8921   0.9253   0.9814
  1.0198   1.0243   1.0959   1.1126   1.1286   1.1587   1.1905   1.2052
  1.2322   1.2507   1.2622   1.2935   1.3140   1.3221   1.3326   1.3733
  1.3856   1.4045   1.4269   1.4313   1.4464   1.4687   1.5071   1.5338
  1.5426   1.5548   1.5709   1.6229   1.6316   1.6363   1.6558   1.7014
  1.7367   2.3848   2.4320   2.4604   2.5303   2.5587   2.6022   2.6302
  2.6951   2.7031   2.7631   2.8346   2.8683   2.8891   2.9106   2.9215
  2.9701   2.9976   2.9999   3.0010   3.0597   3.0649   3.0884   3.1003
  3.1318   3.1716   3.1788   3.1976   3.2082   3.2472   3.2537   3.2899
  3.3051   3.3104   3.3352   3.3619   3.3965   3.3970   3.4328   3.4487
  3.4594   3.5052   3.5091   3.5201   3.5693   3.5780   3.5891   3.6167
  3.6201   3.6378   3.6476   3.7401   3.7945   3.8140   3.8561   3.8755
  3.9088   3.9131   3.9157   3.9582   3.9841   4.0222   4.0662   4.0764
  4.1008   4.1146   4.1170   4.1571   4.1805   4.1813   4.1907   4.2176
  4.2365   4.2966   4.3296   4.3354   4.3485   4.4143   4.4275   4.4714
  4.5196   4.5843   4.5858   4.6452   4.7134   4.7994   4.8318   4.8765
  4.9244   4.9446   4.9708   4.9760   4.9821   5.0385   5.1013   5.1408
  5.1417   5.2270   5.2367   5.2555   5.2710   5.3464   5.3732   5.3854
  5.3986   5.4081   5.4930   5.5457   5.5813   5.5989   5.7155   5.7535
  5.9764   6.3893   6.3976   6.4133   6.4329   6.5057  25.1657  25.4417
 25.4561
 --------------------------------------------------------------
 
 -----------------------------------------------------------------
                    Cartesian Multipole Moments
 -----------------------------------------------------------------
    Charge (ESU x 10^10)
                -0.0000
    Dipole Moment (Debye)
         X       0.0000      Y      -0.1830      Z      -0.1062
       Tot       0.2115
    Quadrupole Moments (Debye-Ang)
        XX     -22.2003     XY      -0.0000     YY     -21.5380
        XZ       0.0000     YZ       0.1301     ZZ     -21.7544
    Octopole Moments (Debye-Ang^2)
       XXX       0.0000    XXY      -0.9558    XYY       0.0000
       YYY      -4.3248    XXZ      -1.3108    XYZ       0.0000
       YYZ       0.5341    XZZ       0.0000    YZZ      -0.0409
       ZZZ      -0.6840
    Hexadecapole Moments (Debye-Ang^3)
      XXXX    -199.9962   XXXY      -0.0000   XXYY     -41.9857
      XYYY       0.0000   YYYY     -44.1967   XXXZ       0.0000
      XXYZ       1.6117   XYYZ       0.0000   YYYZ       0.6696
      XXZZ     -44.5595   XYZZ       0.0000   YYZZ     -17.6368
      XZZZ      -0.0000   YZZZ       0.1071   ZZZZ     -71.0451
 -----------------------------------------------------------------
Archival summary:
1\1\centos77-c4\SP\ProcedureUnspecified\BasisUnspecified\38\shihchen\TueJul701:11:142020TueJul701:11:142020\0\\#,ProcedureUnspecified,BasisUnspecified,\\0,1\C\H,1,1.08938\H,1,1.0957,2,105.658\C,1,1.52202,2,118.374,3,-110.015,0\H,4,1.08938,1,119.608,2,-82.967,0\H,4,1.09088,1,111.038,2,45.8948,0\H,4,1.09384,1,102.239,2,157.769,0\C,1,1.52202,2,118.374,3,110.015,0\H,8,1.08938,1,119.608,2,82.967,0\H,8,1.09088,1,111.038,2,-45.8948,0\H,8,1.09384,1,102.239,2,-157.769,0\\\@

 Total job time:  27.10s(wall), 73.78s(cpu) 
 Tue Jul  7 01:11:14 2020

        *************************************************************
        *                                                           *
        *  Thank you very much for using Q-Chem.  Have a nice day.  *
        *                                                           *
        *************************************************************


