                  Welcome to Q-Chem
     A Quantum Leap Into The Future Of Chemistry


 Q-Chem 5.2 (devel), Q-Chem, Inc., Pleasanton, CA (2019)

 Yihan Shao,  Zhengting Gan,  E. Epifanovsky,  A. T. B. Gilbert,  M. Wormit,  
 J. Kussmann,  A. W. Lange,  A. Behn,  Jia Deng,  Xintian Feng,  D. Ghosh,  
 M. Goldey,  P. R. Horn,  L. D. Jacobson,  I. Kaliman,  T. Kus,  A. Landau,  
 Jie Liu,  E. I. Proynov,  R. M. Richard,  R. P. Steele,  E. J. Sundstrom,  
 H. L. Woodcock III,  P. M. Zimmerman,  D. Zuev,  B. Alam,  B. Albrecht,  
 E. Alguire,  S. A. Baeppler,  D. Barton,  Z. Benda,  Y. A. Bernard,  
 E. J. Berquist,  K. B. Bravaya,  H. Burton,  K. Carter-Fenk,  D. Casanova,  
 Chun-Min Chang,  Yunqing Chen,  A. Chien,  K. D. Closser,  M. P. Coons,  
 S. Coriani,  S. Dasgupta,  A. L. Dempwolff,  M. Diedenhofen,  Hainam Do,  
 R. G. Edgar,  Po-Tung Fang,  S. Faraji,  S. Fatehi,  Qingguo Feng,  
 J. Fosso-Tande,  J. Gayvert,  Qinghui Ge,  A. Ghysels,  G. Gidofalvi,  
 J. Gomes,  J. Gonthier,  A. Gunina,  D. Hait,  M. W. D. Hanson-Heine,  
 P. H. P. Harbach,  A. W. Hauser,  M. F. Herbst,  J. E. Herr,  
 E. G. Hohenstein,  Z. C. Holden,  Kerwin Hui,  B. C. Huynh,  T.-C. Jagau,  
 Hyunjun Ji,  B. Kaduk,  K. Khistyaev,  Jaehoon Kim,  P. Klunzinger,  K. Koh,  
 D. Kosenkov,  L. Koulias,  T. Kowalczyk,  C. M. Krauter,  A. Kunitsa,  
 Ka Un Lao,  A. Laurent,  K. V. Lawler,  Joonho Lee,  D. Lefrancois,  
 S. Lehtola,  D. S. Levine,  Yi-Pei Li,  You-Sheng Lin,  Fenglai Liu,  
 Kuan-Yu Liu,  E. Livshits,  M. Loipersberger,  A. Luenser,  P. Manohar,  
 E. Mansoor,  S. F. Manzer,  Shan-Ping Mao,  Yuezhi Mao,  N. Mardirossian,  
 A. V. Marenich,  T. Markovich,  L. A. Martinez-Martinez,  S. A. Maurer,  
 N. J. Mayhall,  S. C. McKenzie,  J.-M. Mewes,  P. Morgante,  A. F. Morrison,  
 J. W. Mullinax,  K. Nanda,  T. S. Nguyen-Beck,  R. Olivares-Amaya,  
 J. A. Parkhill,  S. K. Paul,  Zheng Pei,  T. M. Perrine,  F. Plasser,  
 P. Pokhilko,  S. Prager,  A. Prociuk,  E. Ramos,  B. Rana,  D. R. Rehn,  
 F. Rob,  M. Scheurer,  M. Schneider,  N. Sergueev,  S. M. Sharada,  
 S. Sharma,  D. W. Small,  T. Stauch,  C. J. Stein,  T. Stein,  Yu-Chuan Su,  
 S. P. Veccham,  A. J. W. Thom,  A. Tkatchenko,  T. Tsuchimochi,  
 N. M. Tubman,  L. Vogt,  M. L. Vidal,  O. Vydrov,  M. A. Watson,  J. Wenzel,  
 M. de Wergifosse,  T. A. Wesolowski,  A. White,  J. Witte,  A. Yamada,  
 Jun Yang,  K. Yao,  S. Yeganeh,  S. R. Yost,  Zhi-Qiang You,  A. Zech,  
 Igor Ying Zhang,  Xing Zhang,  Yan Zhao,  Ying Zhu,  B. R. Brooks,  
 G. K. L. Chan,  C. J. Cramer,  M. S. Gordon,  W. J. Hehre,  A. Klamt,  
 M. W. Schmidt,  C. D. Sherrill,  D. G. Truhlar,  A. Aspuru-Guzik,  R. Baer,  
 A. T. Bell,  N. A. Besley,  Jeng-Da Chai,  A. E. DePrince, III,  
 R. A. DiStasio Jr.,  A. Dreuw,  B. D. Dunietz,  T. R. Furlani,  
 Chao-Ping Hsu,  Yousung Jung,  Jing Kong,  D. S. Lambrecht,  WanZhen Liang,  
 C. Ochsenfeld,  V. A. Rassolov,  L. V. Slipchenko,  J. E. Subotnik,  
 T. Van Voorhis,  J. M. Herbert,  A. I. Krylov,  P. M. W. Gill,  M. Head-Gordon

 Contributors to earlier versions of Q-Chem not listed above: 
 R. D. Adamson,  B. Austin,  J. Baker,  G. J. O. Beran,  K. Brandhorst,  
 S. T. Brown,  E. F. C. Byrd,  A. K. Chakraborty,  C.-L. Cheng,  
 Siu Hung Chien,  D. M. Chipman,  D. L. Crittenden,  H. Dachsel,  
 R. J. Doerksen,  A. D. Dutoi,  L. Fusti-Molnar,  W. A. Goddard III,  
 A. Golubeva-Zadorozhnaya,  S. R. Gwaltney,  G. Hawkins,  A. Heyden,  
 S. Hirata,  G. Kedziora,  F. J. Keil,  C. Kelley,  Jihan Kim,  R. A. King,  
 R. Z. Khaliullin,  P. P. Korambath,  W. Kurlancheek,  A. M. Lee,  M. S. Lee,  
 S. V. Levchenko,  Ching Yeh Lin,  D. Liotard,  R. C. Lochan,  I. Lotan,  
 P. E. Maslen,  N. Nair,  D. P. O'Neill,  D. Neuhauser,  E. Neuscamman,  
 C. M. Oana,  R. Olson,  B. Peters,  R. Peverati,  P. A. Pieniazek,  
 Y. M. Rhee,  J. Ritchie,  M. A. Rohrdanz,  E. Rosta,  N. J. Russ,  
 H. F. Schaefer III,  N. E. Schultz,  N. Shenvi,  A. C. Simmonett,  A. Sodt,  
 D. Stuck,  K. S. Thanthiriwatte,  V. Vanovschi,  Tao Wang,  A. Warshel,  
 C. F. Williams,  Q. Wu,  X. Xu,  W. Zhang

 Please cite Q-Chem as follows:
 Y. Shao et al., Mol. Phys. 113, 184-215 (2015)
 DOI: 10.1080/00268976.2014.952696

 Q-Chem 5.2.2 for Intel X86 EM64T Linux

 Parts of Q-Chem use Armadillo 9.800.1 (Horizon Scraper).
 http://arma.sourceforge.net/

 Q-Chem begins on Sun Apr 12 08:36:36 2020  

Host: cn0821
0

     Scratch files written to /tmp/ypli/6721342.srvc1/qchem197687//
Warning:  Did not find "$end" marker in "$molecule" section

Checking the input file for inconsistencies... 	...done.

--------------------------------------------------------------
User input:
--------------------------------------------------------------
$rem
   JOBTYPE  sp
   EXCHANGE   omegaB97X-D
   BASIS   6-311+G(2df,2pd)
   max_scf_cycles   250
   geom_opt_max_cycles   1500
   basis2 6-31G*
   scf_algorithm rca_diis
   SYM_IGNORE  TRUE
   print_input   true
   geom_opt_dmax   80
   pop_mulliken false
   XC_GRID 000075000302
$end

$molecule
0 1
C       1.2787458640     -0.0025403735     0.2102556358
C       0.0000001939     -0.0019990697     -0.6245757564
H       1.3089907988     -0.9400723571     0.9089687525
H       1.3093603447     0.9449986831     0.9156552981
H       2.0183532192     -0.0018297210     -0.2937833580
C       -1.2787445402     -0.0025402609     0.2102570243
H       0.0000000111     -0.8479792777     -1.2566750453
H       -0.0000000904     0.8488658190     -1.2598947741
H       -1.3089892848     -0.9400702116     0.9089681956
H       -2.0183576776     -0.0018291218     -0.2937854341
H       -1.3093588994     0.9449965572     0.9156544803
--------------------------------------------------------------
 ----------------------------------------------------------------
             Standard Nuclear Orientation (Angstroms)
    I     Atom           X                Y                Z
 ----------------------------------------------------------------
    1      C       1.2787458640    -0.0025403735     0.2102556358
    2      C       0.0000001939    -0.0019990697    -0.6245757564
    3      H       1.3089907988    -0.9400723571     0.9089687525
    4      H       1.3093603447     0.9449986831     0.9156552981
    5      H       2.0183532192    -0.0018297210    -0.2937833580
    6      C      -1.2787445402    -0.0025402609     0.2102570243
    7      H       0.0000000111    -0.8479792777    -1.2566750453
    8      H      -0.0000000904     0.8488658190    -1.2598947741
    9      H      -1.3089892848    -0.9400702116     0.9089681956
   10      H      -2.0183576776    -0.0018291218    -0.2937854341
   11      H      -1.3093588994     0.9449965572     0.9156544803
 ----------------------------------------------------------------
 Nuclear Repulsion Energy =          83.41515646 hartrees
 There are       13 alpha and       13 beta electrons
 Requested basis set is 6-311+G(2df,2pd)
 There are 72 shells and 214 basis functions

 Total QAlloc Memory Limit   2000 MB
 Mega-Array Size       188 MB
 MEM_STATIC part       192 MB

                       Distance Matrix (Angstroms)
             C (  1)   C (  2)   H (  3)   H (  4)   H (  5)   C (  6)
   C (  2)  1.527133
   H (  3)  1.169650  2.223780
   H (  4)  1.181675  2.232384  1.885083
   H (  5)  0.895028  2.045281  1.682292  1.691714
   C (  6)  2.557490  1.527133  2.839637  2.844944  3.335403
   H (  7)  2.121755  1.056045  2.532183  3.106157  2.391000  2.121755
   H (  8)  2.126364  1.061886  3.101246  2.541001  2.393910  2.126365
   H (  9)  2.839636  2.223778  2.617980  3.226342  3.660344  1.169647
   H ( 10)  3.335408  2.045285  3.660351  3.665097  4.036711  0.895035
   H ( 11)  2.844943  2.232382  3.226342  2.618719  3.665090  1.181672
             H (  7)   H (  8)   H (  9)   H ( 10)
   H (  8)  1.696848
   H (  9)  2.532182  3.101244
   H ( 10)  2.391003  2.393912  1.682295
   H ( 11)  3.106155  2.540999  1.885079  1.691716
 
 A cutoff of  1.0D-09 yielded   2532 shell pairs
 There are     22622 function pairs (     27837 Cartesian)
 Smallest overlap matrix eigenvalue = 9.12E-05

 Scale SEOQF with 1.000000e-01/1.000000e-01/1.000000e-01

 Standard Electronic Orientation quadrupole field applied
 Nucleus-field energy     =     0.0000000006 hartrees
 Requested basis set is 6-31G(d)
 There are 28 shells and 58 basis functions
 A cutoff of  1.0D-09 yielded    403 shell pairs
 There are      1774 function pairs (      1969 Cartesian)
 Smallest overlap matrix eigenvalue = 6.42E-03
 Guess from superposition of atomic densities
 Warning:  Energy on first SCF cycle will be non-variational
 SAD guess density has 26.000000 electrons
 Long-range K will be added via erf
 Coulomb attenuation parameter = 0.2 bohr**(-1)
 A restricted hybrid HF-DFT SCF calculation will be
 performed using Relaxed Constraint Minimization + Pulay DIIS
 Exchange:     0.2220 Hartree-Fock + 1.0000 wB97X-D + LR-HF
 Correlation:  1.0000 wB97X-D
 Using Euler-Maclaurin-Lebedev (75,302) quadrature formula
 Dispersion:   Grimme D
 SCF converges when DIIS error is below 1.0E-04
 using 3 threads for integral computing
 -------------------------------------------------------
 OpenMP Integral computing Module                
 Release: version 1.0, May 2013, Q-Chem Inc. Pittsburgh 
 -------------------------------------------------------
 using 3 threads for integral computing
 -------------------------------------------------------
 OpenMP Integral computing Module                
 Release: version 1.0, May 2013, Q-Chem Inc. Pittsburgh 
 -------------------------------------------------------
 ---------------------------------------
  Cycle       Energy         DIIS Error
 ---------------------------------------
    1    -119.6537490552      1.05E-01
    2    -118.9699387928      9.82E-03
    3    -118.9959895985      2.87E-03
    4    -119.0121672513      1.95E-03
    5    -119.0131242150      3.42E-04 Done RCA. Switching to DIIS
    6    -119.0137958705      2.47E-04
    7    -119.0138223940      6.70E-06 Convergence criterion met
 ---------------------------------------
 SCF time:  CPU 33.60 s  wall 11.62 s
 SCF   energy in the small basis set = -119.01382239
 Total energy in the small basis set = -119.01382239
 ----------------------------------------------------
  Cycle       Energy    
 ----------------------------------------------------
    1     -16.6060380914     -1.66E+01
 Long-range K will be added via erf
 Coulomb attenuation parameter = 0.2 bohr**(-1)
 A restricted hybrid HF-DFT SCF calculation will be
 performed using Relaxed Constraint Minimization + Pulay DIIS
 Exchange:     0.2220 Hartree-Fock + 1.0000 wB97X-D + LR-HF
 Correlation:  1.0000 wB97X-D
 Using Euler-Maclaurin-Lebedev (75,302) quadrature formula
 Dispersion:   Grimme D
 SCF converges when DIIS error is below 1.0E-05
 Basis2 calculation detected. Using small basis as guess for larger.
 SCFMinFind is unable to tell whether the solution found is close.
 Resetting ReadMinima to 0 and attempting to follow guess.
 SCFMinFind following SCF Guess.
 using 3 threads for integral computing
 -------------------------------------------------------
 OpenMP Integral computing Module                
 Release: version 1.0, May 2013, Q-Chem Inc. Pittsburgh 
 -------------------------------------------------------
 using 3 threads for integral computing
 -------------------------------------------------------
 OpenMP Integral computing Module                
 Release: version 1.0, May 2013, Q-Chem Inc. Pittsburgh 
 -------------------------------------------------------
 ---------------------------------------
  Cycle       Energy         DIIS Error
 ---------------------------------------
    1    -119.0376835660      4.22E-03
    2    -119.0596294366      5.86E-04 Done RCA. Switching to DIIS
    3    -119.0604653366      4.01E-04
    4    -119.0613435667      4.37E-05
    5    -119.0613574029      8.57E-06 Convergence criterion met
 ---------------------------------------
 SCF time:  CPU 86.20 s  wall 29.18 s
 SCF   energy in the final basis set = -119.06135740
 Total energy in the final basis set = -119.06135740
 
 --------------------------------------------------------------
 
                    Orbital Energies (a.u.)
 --------------------------------------------------------------
 
 Alpha MOs
 -- Occupied --
-10.2684 -10.2595 -10.2595  -0.8857  -0.7926  -0.6871  -0.5525  -0.5410
 -0.4812  -0.4435  -0.4383  -0.4174  -0.4025
 -- Virtual --
  0.0700   0.0821   0.0920   0.0998   0.1224   0.1305   0.1357   0.1404
  0.1431   0.1711   0.1751   0.1894   0.2150   0.2216   0.2598   0.2700
  0.2766   0.2991   0.3126   0.3135   0.3489   0.3493   0.4467   0.4625
  0.4794   0.5077   0.5160   0.5244   0.5435   0.5643   0.5686   0.5729
  0.6299   0.6358   0.6406   0.6548   0.6641   0.6749   0.7153   0.7466
  0.7565   0.7738   0.8204   0.8560   0.8590   0.8882   0.8928   0.9468
  1.0161   1.0459   1.0784   1.1540   1.1728   1.1945   1.1969   1.1971
  1.2277   1.2281   1.2673   1.2779   1.2816   1.2915   1.3285   1.3810
  1.3872   1.4189   1.4334   1.4394   1.4494   1.4619   1.4672   1.5065
  1.5255   1.5545   1.5882   1.6250   1.6495   1.6806   1.7223   1.7441
  1.7774   2.3552   2.3571   2.4469   2.4709   2.5490   2.5722   2.6588
  2.7074   2.7233   2.8286   2.8344   2.8731   2.8774   2.9227   2.9354
  2.9470   2.9551   2.9685   3.0256   3.0400   3.0477   3.0500   3.1034
  3.1670   3.1845   3.1855   3.2271   3.2317   3.2468   3.2900   3.2906
  3.3176   3.3277   3.3314   3.3378   3.3406   3.3483   3.3843   3.4751
  3.4783   3.4937   3.5090   3.5161   3.5453   3.5519   3.5780   3.6076
  3.6357   3.6937   3.7122   3.7446   3.7812   3.7923   3.8744   3.9089
  3.9247   3.9271   3.9390   3.9536   3.9900   3.9964   4.0329   4.0552
  4.0881   4.1116   4.1264   4.1578   4.1669   4.2155   4.2203   4.2377
  4.2451   4.2526   4.3304   4.3313   4.3520   4.3692   4.4544   4.4638
  4.5553   4.5687   4.5784   4.5813   4.6256   4.7333   4.8116   4.8218
  4.8480   4.9171   4.9783   4.9986   5.0264   5.0961   5.1211   5.1606
  5.2186   5.2231   5.2673   5.2864   5.2949   5.4136   5.5066   5.5218
  5.5638   5.6769   5.7255   5.7804   5.8474   5.8673   5.8730   5.9514
  6.0568   6.1776   6.1976   6.5366   6.7202   6.7553  25.2796  25.3233
 25.3708
 --------------------------------------------------------------
 
 -----------------------------------------------------------------
                    Cartesian Multipole Moments
 -----------------------------------------------------------------
    Charge (ESU x 10^10)
                 0.0000
    Dipole Moment (Debye)
         X       0.0000      Y      -0.0209      Z      -0.3898
       Tot       0.3903
    Quadrupole Moments (Debye-Ang)
        XX     -21.7505     XY      -0.0000     YY     -21.2795
        XZ      -0.0000     YZ      -0.0047     ZZ     -21.8644
    Octopole Moments (Debye-Ang^2)
       XXX      -0.0000    XXY      -0.0397    XYY      -0.0000
       YYY       0.0070    XXZ      -1.6593    XYZ       0.0000
       YYZ       0.6599    XZZ      -0.0000    YZZ       0.0010
       ZZZ      -0.2764
    Hexadecapole Moments (Debye-Ang^3)
      XXXX    -192.2524   XXXY      -0.0000   XXYY     -41.0056
      XYYY       0.0000   YYYY     -47.2211   XXXZ      -0.0000
      XXYZ      -0.0494   XYYZ      -0.0000   YYYZ      -0.0811
      XXZZ     -44.4475   XYZZ       0.0000   YYZZ     -17.5341
      XZZZ      -0.0000   YZZZ      -0.0889   ZZZZ     -73.2897
 -----------------------------------------------------------------
Archival summary:
1\1\cn0821\SP\ProcedureUnspecified\BasisUnspecified\38\r0852400\SunApr1208:37:212020SunApr1208:37:212020\0\\#,ProcedureUnspecified,BasisUnspecified,\\0,1\C\H,1,1.05605\H,1,1.06189,2,106.486\C,1,1.52713,2,109.082,3,117.62,0\H,4,0.895035,1,112.587,2,-58.0293,0\H,4,1.16965,1,110.395,2,63.2656,0\H,4,1.18167,1,110.349,2,-179.171,0\C,1,1.52713,2,109.082,3,-117.62,0\H,8,0.895028,1,112.587,2,58.0292,0\H,8,1.16965,1,110.395,2,-63.2657,0\H,8,1.18168,1,110.349,2,179.171,0\\\@

 Total job time:  45.14s(wall), 124.96s(cpu) 
 Sun Apr 12 08:37:21 2020

        *************************************************************
        *                                                           *
        *  Thank you very much for using Q-Chem.  Have a nice day.  *
        *                                                           *
        *************************************************************


