                  Welcome to Q-Chem
     A Quantum Leap Into The Future Of Chemistry


 Q-Chem 5.3 (devel), Q-Chem, Inc., Pleasanton, CA (2020)

 Yihan Shao,  Zhengting Gan,  E. Epifanovsky,  A. T. B. Gilbert,  M. Wormit,  
 J. Kussmann,  A. W. Lange,  A. Behn,  Jia Deng,  Xintian Feng,  D. Ghosh,  
 M. Goldey,  P. R. Horn,  L. D. Jacobson,  I. Kaliman,  T. Kus,  A. Landau,  
 Jie Liu,  E. I. Proynov,  R. M. Richard,  R. P. Steele,  E. J. Sundstrom,  
 H. L. Woodcock III,  P. M. Zimmerman,  D. Zuev,  B. Alam,  B. Albrecht,  
 E. Alguire,  S. A. Baeppler,  D. Barton,  Z. Benda,  Y. A. Bernard,  
 E. J. Berquist,  K. B. Bravaya,  H. Burton,  K. Carter-Fenk,  D. Casanova,  
 Chun-Min Chang,  Yunqing Chen,  A. Chien,  K. D. Closser,  M. P. Coons,  
 S. Coriani,  S. Dasgupta,  A. L. Dempwolff,  M. Diedenhofen,  Hainam Do,  
 R. G. Edgar,  Po-Tung Fang,  S. Faraji,  S. Fatehi,  Qingguo Feng,  
 J. Fosso-Tande,  J. Gayvert,  Qinghui Ge,  A. Ghysels,  G. Gidofalvi,  
 J. Gomes,  J. Gonthier,  A. Gunina,  D. Hait,  M. W. D. Hanson-Heine,  
 P. H. P. Harbach,  A. W. Hauser,  M. F. Herbst,  J. E. Herr,  
 E. G. Hohenstein,  Z. C. Holden,  Kerwin Hui,  B. C. Huynh,  T.-C. Jagau,  
 Hyunjun Ji,  B. Kaduk,  K. Khistyaev,  Jaehoon Kim,  P. Klunzinger,  K. Koh,  
 D. Kosenkov,  L. Koulias,  T. Kowalczyk,  C. M. Krauter,  A. Kunitsa,  
 Ka Un Lao,  A. Laurent,  K. V. Lawler,  Joonho Lee,  D. Lefrancois,  
 S. Lehtola,  D. S. Levine,  Yi-Pei Li,  You-Sheng Lin,  Fenglai Liu,  
 Kuan-Yu Liu,  E. Livshits,  M. Loipersberger,  A. Luenser,  P. Manohar,  
 E. Mansoor,  S. F. Manzer,  Shan-Ping Mao,  Yuezhi Mao,  N. Mardirossian,  
 A. V. Marenich,  T. Markovich,  L. A. Martinez-Martinez,  S. A. Maurer,  
 N. J. Mayhall,  S. C. McKenzie,  J.-M. Mewes,  P. Morgante,  A. F. Morrison,  
 J. W. Mullinax,  K. Nanda,  T. S. Nguyen-Beck,  R. Olivares-Amaya,  
 K. J. Oosterbaan,  J. A. Parkhill,  S. K. Paul,  F. Pavosevic,  Zheng Pei,  
 T. M. Perrine,  F. Plasser,  P. Pokhilko,  S. Prager,  A. Prociuk,  
 E. Ramos,  B. Rana,  D. R. Rehn,  F. Rob,  M. Scheurer,  M. Schneider,  
 N. Sergueev,  S. M. Sharada,  S. Sharma,  D. W. Small,  T. Stauch,  
 C. J. Stein,  T. Stein,  Yu-Chuan Su,  S. P. Veccham,  Zhen Tao,  
 A. J. W. Thom,  A. Tkatchenko,  T. Tsuchimochi,  N. M. Tubman,  L. Vogt,  
 M. L. Vidal,  O. Vydrov,  M. A. Watson,  J. Wenzel,  M. de Wergifosse,  
 T. A. Wesolowski,  A. White,  J. Witte,  A. Yamada,  Jun Yang,  K. Yao,  
 S. Yeganeh,  S. R. Yost,  Zhi-Qiang You,  A. Zech,  Igor Ying Zhang,  
 Xing Zhang,  Yan Zhao,  Ying Zhu,  B. R. Brooks,  G. K. L. Chan,  
 C. J. Cramer,  M. S. Gordon,  W. J. Hehre,  A. Klamt,  M. W. Schmidt,  
 C. D. Sherrill,  D. G. Truhlar,  A. Aspuru-Guzik,  R. Baer,  A. T. Bell,  
 N. A. Besley,  Jeng-Da Chai,  A. E. DePrince, III,  R. A. DiStasio Jr.,  
 A. Dreuw,  B. D. Dunietz,  T. R. Furlani,  Chao-Ping Hsu,  Yousung Jung,  
 Jing Kong,  D. S. Lambrecht,  WanZhen Liang,  C. Ochsenfeld,  
 V. A. Rassolov,  L. V. Slipchenko,  J. E. Subotnik,  T. Van Voorhis,  
 J. M. Herbert,  A. I. Krylov,  P. M. W. Gill,  M. Head-Gordon

 Contributors to earlier versions of Q-Chem not listed above: 
 R. D. Adamson,  B. Austin,  J. Baker,  G. J. O. Beran,  K. Brandhorst,  
 S. T. Brown,  E. F. C. Byrd,  A. K. Chakraborty,  C.-L. Cheng,  
 Siu Hung Chien,  D. M. Chipman,  D. L. Crittenden,  H. Dachsel,  
 R. J. Doerksen,  A. D. Dutoi,  L. Fusti-Molnar,  W. A. Goddard III,  
 A. Golubeva-Zadorozhnaya,  S. R. Gwaltney,  G. Hawkins,  A. Heyden,  
 S. Hirata,  G. Kedziora,  F. J. Keil,  C. Kelley,  Jihan Kim,  R. A. King,  
 R. Z. Khaliullin,  P. P. Korambath,  W. Kurlancheek,  A. M. Lee,  M. S. Lee,  
 S. V. Levchenko,  Ching Yeh Lin,  D. Liotard,  R. C. Lochan,  I. Lotan,  
 P. E. Maslen,  N. Nair,  D. P. O'Neill,  D. Neuhauser,  E. Neuscamman,  
 C. M. Oana,  R. Olson,  B. Peters,  R. Peverati,  P. A. Pieniazek,  
 Y. M. Rhee,  J. Ritchie,  M. A. Rohrdanz,  E. Rosta,  N. J. Russ,  
 H. F. Schaefer III,  N. E. Schultz,  N. Shenvi,  A. C. Simmonett,  A. Sodt,  
 D. Stuck,  K. S. Thanthiriwatte,  V. Vanovschi,  Tao Wang,  A. Warshel,  
 C. F. Williams,  Q. Wu,  X. Xu,  W. Zhang

 Please cite Q-Chem as follows:
 Y. Shao et al., Mol. Phys. 113, 184-215 (2015)
 DOI: 10.1080/00268976.2014.952696

 Q-Chem 5.3.0 for Intel X86 EM64T Linux

 Parts of Q-Chem use Armadillo 9.800.1 (Horizon Scraper).
 http://arma.sourceforge.net/

 Q-Chem begins on Tue Jul  7 01:16:01 2020  

Host: centos77-c4
0

     Scratch files written to /tmp/26964.centos77-h1/qchem98518//
Processing $rem in /opt/qchem-5.3.0-intel2020u1//config/preferences:
Processing $rem in /home/shihchengli/.qchemrc:

Checking the input file for inconsistencies... 	...done.

--------------------------------------------------------------
User input:
--------------------------------------------------------------
$rem
   JOBTYPE  sp
   EXCHANGE   omegaB97X-D
   BASIS   6-311+G(2df,2pd)
   UNRESTRICTED   False
   max_scf_cycles   250
   geom_opt_max_cycles   1500
   basis2 6-31G*
   scf_algorithm rca_diis
   SYM_IGNORE  TRUE
   print_input   true
   geom_opt_dmax   80
   pop_mulliken false
   XC_GRID 000075000302
$end

$molecule
0 1
C       1.2142728732     -0.0046260619     0.2612878544
C       0.0000000287     0.0054626014     -0.5212387254
H       1.2941292623     -0.8817686749     0.9054332243
H       1.3144220115     0.8879008977     0.8814818984
H       2.0496145994     -0.0197559006     -0.4385901416
C       -1.2142726699     -0.0046258456     0.2612881387
H       -0.0000004861     -0.8572548646     -1.1918579083
H       -0.0000000494     0.8882912880     -1.1650841505
H       -1.2941290871     -0.8817684200     0.9054335233
H       -2.0496139698     -0.0197557377     -0.4385903891
H       -1.3144225733     0.8879013842     0.8814816946
$end
--------------------------------------------------------------
 ----------------------------------------------------------------
             Standard Nuclear Orientation (Angstroms)
    I     Atom           X                Y                Z
 ----------------------------------------------------------------
    1      C       1.2142728732    -0.0046260619     0.2612878544
    2      C       0.0000000287     0.0054626014    -0.5212387254
    3      H       1.2941292623    -0.8817686749     0.9054332243
    4      H       1.3144220115     0.8879008977     0.8814818984
    5      H       2.0496145994    -0.0197559006    -0.4385901416
    6      C      -1.2142726699    -0.0046258456     0.2612881387
    7      H      -0.0000004861    -0.8572548646    -1.1918579083
    8      H      -0.0000000494     0.8882912880    -1.1650841505
    9      H      -1.2941290871    -0.8817684200     0.9054335233
   10      H      -2.0496139698    -0.0197557377    -0.4385903891
   11      H      -1.3144225733     0.8879013842     0.8814816946
 ----------------------------------------------------------------
 Nuclear Repulsion Energy =          85.24108126 hartrees
 There are       13 alpha and       13 beta electrons
 Requested basis set is 6-311+G(2df,2pd)
 There are 72 shells and 214 basis functions

 Total QAlloc Memory Limit   2000 MB
 Mega-Array Size       188 MB
 MEM_STATIC part       192 MB

                       Distance Matrix (Angstroms)
             C (  1)   C (  2)   H (  3)   H (  4)   H (  5)   C (  6)
   C (  2)  1.444614
   H (  3)  1.091183  2.120694
   H (  4)  1.091455  2.115190  1.769948
   H (  5)  1.089887  2.051435  1.766415  1.762651
   C (  6)  2.428546  1.444614  2.734297  2.752370  3.338116
   H (  7)  2.076793  1.092708  2.464549  3.011978  2.338747  2.076792
   H (  8)  2.075162  1.092668  3.015779  2.432311  2.356536  2.075162
   H (  9)  2.734297  2.120694  2.588258  3.152276  3.705413  1.091183
   H ( 10)  3.338116  2.051435  3.705413  3.726013  4.099229  1.089887
   H ( 11)  2.752371  2.115190  3.152277  2.628845  3.726014  1.091455
             H (  7)   H (  8)   H (  9)   H ( 10)
   H (  8)  1.745751
   H (  9)  2.464549  3.015779
   H ( 10)  2.338746  2.356536  1.766415
   H ( 11)  3.011978  2.432311  1.769948  1.762651
 
 A cutoff of  1.0D-09 yielded   2542 shell pairs
 There are     22648 function pairs (     27853 Cartesian)
 Smallest overlap matrix eigenvalue = 6.29E-05

 Scale SEOQF with 1.000000e-01/1.000000e-01/1.000000e-01

 Standard Electronic Orientation quadrupole field applied
 Nucleus-field energy     =     0.0000000006 hartrees
 Requested basis set is 6-31G(d)
 There are 28 shells and 58 basis functions
 A cutoff of  1.0D-09 yielded    402 shell pairs
 There are      1773 function pairs (      1968 Cartesian)
 Smallest overlap matrix eigenvalue = 5.20E-03
 Guess from superposition of atomic densities
 Warning:  Energy on first SCF cycle will be non-variational
 SAD guess density has 26.000000 electrons
 Long-range K will be added via erf
 Coulomb attenuation parameter = 0.2 bohr**(-1)
 A restricted hybrid HF-DFT SCF calculation will be
 performed using Relaxed Constraint Minimization + Pulay DIIS
 Exchange:     0.2220 Hartree-Fock + 1.0000 wB97X-D + LR-HF
 Correlation:  1.0000 wB97X-D
 Using Euler-Maclaurin-Lebedev (75,302) quadrature formula
 Dispersion:   Grimme D
 SCF converges when DIIS error is below 1.0E-04
 using 3 threads for integral computing
 -------------------------------------------------------
 OpenMP Integral computing Module                
 Release: version 1.0, May 2013, Q-Chem Inc. Pittsburgh 
 -------------------------------------------------------
 using 3 threads for integral computing
 -------------------------------------------------------
 OpenMP Integral computing Module                
 Release: version 1.0, May 2013, Q-Chem Inc. Pittsburgh 
 -------------------------------------------------------
 ---------------------------------------
  Cycle       Energy         DIIS Error
 ---------------------------------------
    1    -119.8626341528      1.08E-01
    2    -119.0479092430      1.01E-02
    3    -119.0733428445      2.42E-03
    4    -119.0915353455      1.65E-03
    5    -119.0921833716      2.34E-04 Done RCA. Switching to DIIS
    6    -119.0926847243      1.73E-04
    7    -119.0926975220      4.67E-06 Convergence criterion met
 ---------------------------------------
 SCF time:  CPU 21.28 s  wall 7.97 s
 SCF   energy in the small basis set = -119.09269752
 Total energy in the small basis set = -119.09269752
 ----------------------------------------------------
  Cycle       Energy    
 ----------------------------------------------------
    1     -16.6116445709     -1.66E+01
 Long-range K will be added via erf
 Coulomb attenuation parameter = 0.2 bohr**(-1)
 A restricted hybrid HF-DFT SCF calculation will be
 performed using Relaxed Constraint Minimization + Pulay DIIS
 Exchange:     0.2220 Hartree-Fock + 1.0000 wB97X-D + LR-HF
 Correlation:  1.0000 wB97X-D
 Using Euler-Maclaurin-Lebedev (75,302) quadrature formula
 Dispersion:   Grimme D
 SCF converges when DIIS error is below 1.0E-05
 Basis2 calculation detected. Using small basis as guess for larger.
 SCFMinFind is unable to tell whether the solution found is close.
 Resetting ReadMinima to 0 and attempting to follow guess.
 SCFMinFind following SCF Guess.
 using 3 threads for integral computing
 -------------------------------------------------------
 OpenMP Integral computing Module                
 Release: version 1.0, May 2013, Q-Chem Inc. Pittsburgh 
 -------------------------------------------------------
 using 3 threads for integral computing
 -------------------------------------------------------
 OpenMP Integral computing Module                
 Release: version 1.0, May 2013, Q-Chem Inc. Pittsburgh 
 -------------------------------------------------------
 ---------------------------------------
  Cycle       Energy         DIIS Error
 ---------------------------------------
    1    -119.1128886761      4.21E-03
    2    -119.1349528672      6.07E-04 Done RCA. Switching to DIIS
    3    -119.1357595872      4.38E-04
    4    -119.1367998159      4.74E-05
    5    -119.1368154413      1.03E-05
    6    -119.1368161790      3.38E-06 Convergence criterion met
 ---------------------------------------
 SCF time:  CPU 50.03 s  wall 16.70 s
 SCF   energy in the final basis set = -119.13681618
 Total energy in the final basis set = -119.13681618
 
 --------------------------------------------------------------
 
                    Orbital Energies (a.u.)
 --------------------------------------------------------------
 
 Alpha MOs
 -- Occupied --
-10.2606 -10.2576 -10.2575  -0.9043  -0.7842  -0.6706  -0.5590  -0.5337
 -0.4970  -0.4651  -0.4183  -0.4141  -0.3990
 -- Virtual --
  0.0682   0.0875   0.0908   0.0964   0.1255   0.1300   0.1335   0.1409
  0.1433   0.1712   0.1734   0.1914   0.2370   0.2380   0.2435   0.2647
  0.2822   0.2850   0.3205   0.3212   0.3527   0.3715   0.4615   0.4698
  0.4718   0.5041   0.5090   0.5172   0.5329   0.5585   0.5794   0.5800
  0.6183   0.6507   0.6596   0.6718   0.6792   0.6921   0.7113   0.7283
  0.7373   0.7782   0.8242   0.8619   0.8707   0.8730   0.9141   0.9673
  1.0046   1.0561   1.0616   1.1465   1.1785   1.1916   1.2057   1.2073
  1.2497   1.2569   1.2848   1.2917   1.2925   1.3019   1.3574   1.3877
  1.4011   1.4203   1.4311   1.4454   1.4657   1.4669   1.4784   1.5125
  1.5187   1.5911   1.6180   1.6213   1.6309   1.6473   1.6902   1.6988
  1.7167   2.3879   2.4948   2.5237   2.5466   2.5797   2.5845   2.6235
  2.6979   2.7027   2.8288   2.8600   2.8972   2.9101   2.9360   2.9610
  2.9695   2.9801   2.9861   3.0131   3.0470   3.0637   3.0794   3.1174
  3.1351   3.1606   3.1611   3.2025   3.2111   3.2448   3.2817   3.3054
  3.3183   3.3307   3.3323   3.3672   3.3870   3.3877   3.4299   3.4796
  3.4842   3.5106   3.5621   3.5689   3.5799   3.5929   3.6207   3.6327
  3.6341   3.6837   3.6887   3.7559   3.8282   3.8519   3.8804   3.9530
  3.9538   3.9628   3.9636   3.9912   4.0207   4.0329   4.0432   4.0862
  4.1249   4.1442   4.1660   4.1710   4.1787   4.1980   4.2096   4.2108
  4.2322   4.2881   4.3151   4.3995   4.4045   4.4676   4.4766   4.5019
  4.5500   4.6026   4.6589   4.6609   4.7341   4.8016   4.8613   4.8795
  4.9399   4.9675   4.9746   4.9907   5.0463   5.0557   5.0663   5.1764
  5.2266   5.2995   5.3064   5.3350   5.3402   5.3718   5.4082   5.4102
  5.4312   5.4742   5.5455   5.5625   5.5869   5.6717   5.7156   5.9582
  6.1277   6.3938   6.3981   6.4010   6.4400   6.4882  25.2619  25.5260
 25.5870
 --------------------------------------------------------------
 
 -----------------------------------------------------------------
                    Cartesian Multipole Moments
 -----------------------------------------------------------------
    Charge (ESU x 10^10)
                -0.0000
    Dipole Moment (Debye)
         X      -0.0000      Y       0.0062      Z      -0.1407
       Tot       0.1408
    Quadrupole Moments (Debye-Ang)
        XX     -22.5876     XY      -0.0000     YY     -21.1974
        XZ       0.0000     YZ      -0.0104     ZZ     -21.7461
    Octopole Moments (Debye-Ang^2)
       XXX       0.0000    XXY       0.0222    XYY      -0.0000
       YYY       0.1321    XXZ      -1.8600    XYZ      -0.0000
       YYZ       0.2073    XZZ      -0.0000    YZZ      -0.0556
       ZZZ      -1.3701
    Hexadecapole Moments (Debye-Ang^3)
      XXXX    -194.8933   XXXY       0.0000   XXYY     -39.7648
      XYYY       0.0000   YYYY     -44.0378   XXXZ       0.0000
      XXYZ       0.1062   XYYZ       0.0000   YYYZ       0.1118
      XXZZ     -41.9640   XYZZ       0.0000   YYZZ     -16.7517
      XZZZ       0.0000   YZZZ       0.1040   ZZZZ     -68.7439
 -----------------------------------------------------------------
Archival summary:
1\1\centos77-c4\SP\ProcedureUnspecified\BasisUnspecified\38\shihchen\TueJul701:16:282020TueJul701:16:282020\0\\#,ProcedureUnspecified,BasisUnspecified,\\0,1\C\H,1,1.09267\H,1,1.09271,2,106.038\C,1,1.44461,2,108.955,3,117.284,0\H,4,1.08989,1,107.247,2,-59.128,0\H,4,1.09118,1,112.761,2,-178.097,0\H,4,1.09146,1,112.285,2,59.1275,0\C,1,1.44461,2,108.955,3,-117.284,0\H,8,1.08989,1,107.247,2,59.128,0\H,8,1.09118,1,112.761,2,178.097,0\H,8,1.09146,1,112.285,2,-59.1275,0\\\@

 Total job time:  27.60s(wall), 74.89s(cpu) 
 Tue Jul  7 01:16:28 2020

        *************************************************************
        *                                                           *
        *  Thank you very much for using Q-Chem.  Have a nice day.  *
        *                                                           *
        *************************************************************


