                  Welcome to Q-Chem
     A Quantum Leap Into The Future Of Chemistry


 Q-Chem 5.3 (devel), Q-Chem, Inc., Pleasanton, CA (2020)

 Yihan Shao,  Zhengting Gan,  E. Epifanovsky,  A. T. B. Gilbert,  M. Wormit,  
 J. Kussmann,  A. W. Lange,  A. Behn,  Jia Deng,  Xintian Feng,  D. Ghosh,  
 M. Goldey,  P. R. Horn,  L. D. Jacobson,  I. Kaliman,  T. Kus,  A. Landau,  
 Jie Liu,  E. I. Proynov,  R. M. Richard,  R. P. Steele,  E. J. Sundstrom,  
 H. L. Woodcock III,  P. M. Zimmerman,  D. Zuev,  B. Alam,  B. Albrecht,  
 E. Alguire,  S. A. Baeppler,  D. Barton,  Z. Benda,  Y. A. Bernard,  
 E. J. Berquist,  K. B. Bravaya,  H. Burton,  K. Carter-Fenk,  D. Casanova,  
 Chun-Min Chang,  Yunqing Chen,  A. Chien,  K. D. Closser,  M. P. Coons,  
 S. Coriani,  S. Dasgupta,  A. L. Dempwolff,  M. Diedenhofen,  Hainam Do,  
 R. G. Edgar,  Po-Tung Fang,  S. Faraji,  S. Fatehi,  Qingguo Feng,  
 J. Fosso-Tande,  J. Gayvert,  Qinghui Ge,  A. Ghysels,  G. Gidofalvi,  
 J. Gomes,  J. Gonthier,  A. Gunina,  D. Hait,  M. W. D. Hanson-Heine,  
 P. H. P. Harbach,  A. W. Hauser,  M. F. Herbst,  J. E. Herr,  
 E. G. Hohenstein,  Z. C. Holden,  Kerwin Hui,  B. C. Huynh,  T.-C. Jagau,  
 Hyunjun Ji,  B. Kaduk,  K. Khistyaev,  Jaehoon Kim,  P. Klunzinger,  K. Koh,  
 D. Kosenkov,  L. Koulias,  T. Kowalczyk,  C. M. Krauter,  A. Kunitsa,  
 Ka Un Lao,  A. Laurent,  K. V. Lawler,  Joonho Lee,  D. Lefrancois,  
 S. Lehtola,  D. S. Levine,  Yi-Pei Li,  You-Sheng Lin,  Fenglai Liu,  
 Kuan-Yu Liu,  E. Livshits,  M. Loipersberger,  A. Luenser,  P. Manohar,  
 E. Mansoor,  S. F. Manzer,  Shan-Ping Mao,  Yuezhi Mao,  N. Mardirossian,  
 A. V. Marenich,  T. Markovich,  L. A. Martinez-Martinez,  S. A. Maurer,  
 N. J. Mayhall,  S. C. McKenzie,  J.-M. Mewes,  P. Morgante,  A. F. Morrison,  
 J. W. Mullinax,  K. Nanda,  T. S. Nguyen-Beck,  R. Olivares-Amaya,  
 K. J. Oosterbaan,  J. A. Parkhill,  S. K. Paul,  F. Pavosevic,  Zheng Pei,  
 T. M. Perrine,  F. Plasser,  P. Pokhilko,  S. Prager,  A. Prociuk,  
 E. Ramos,  B. Rana,  D. R. Rehn,  F. Rob,  M. Scheurer,  M. Schneider,  
 N. Sergueev,  S. M. Sharada,  S. Sharma,  D. W. Small,  T. Stauch,  
 C. J. Stein,  T. Stein,  Yu-Chuan Su,  S. P. Veccham,  Zhen Tao,  
 A. J. W. Thom,  A. Tkatchenko,  T. Tsuchimochi,  N. M. Tubman,  L. Vogt,  
 M. L. Vidal,  O. Vydrov,  M. A. Watson,  J. Wenzel,  M. de Wergifosse,  
 T. A. Wesolowski,  A. White,  J. Witte,  A. Yamada,  Jun Yang,  K. Yao,  
 S. Yeganeh,  S. R. Yost,  Zhi-Qiang You,  A. Zech,  Igor Ying Zhang,  
 Xing Zhang,  Yan Zhao,  Ying Zhu,  B. R. Brooks,  G. K. L. Chan,  
 C. J. Cramer,  M. S. Gordon,  W. J. Hehre,  A. Klamt,  M. W. Schmidt,  
 C. D. Sherrill,  D. G. Truhlar,  A. Aspuru-Guzik,  R. Baer,  A. T. Bell,  
 N. A. Besley,  Jeng-Da Chai,  A. E. DePrince, III,  R. A. DiStasio Jr.,  
 A. Dreuw,  B. D. Dunietz,  T. R. Furlani,  Chao-Ping Hsu,  Yousung Jung,  
 Jing Kong,  D. S. Lambrecht,  WanZhen Liang,  C. Ochsenfeld,  
 V. A. Rassolov,  L. V. Slipchenko,  J. E. Subotnik,  T. Van Voorhis,  
 J. M. Herbert,  A. I. Krylov,  P. M. W. Gill,  M. Head-Gordon

 Contributors to earlier versions of Q-Chem not listed above: 
 R. D. Adamson,  B. Austin,  J. Baker,  G. J. O. Beran,  K. Brandhorst,  
 S. T. Brown,  E. F. C. Byrd,  A. K. Chakraborty,  C.-L. Cheng,  
 Siu Hung Chien,  D. M. Chipman,  D. L. Crittenden,  H. Dachsel,  
 R. J. Doerksen,  A. D. Dutoi,  L. Fusti-Molnar,  W. A. Goddard III,  
 A. Golubeva-Zadorozhnaya,  S. R. Gwaltney,  G. Hawkins,  A. Heyden,  
 S. Hirata,  G. Kedziora,  F. J. Keil,  C. Kelley,  Jihan Kim,  R. A. King,  
 R. Z. Khaliullin,  P. P. Korambath,  W. Kurlancheek,  A. M. Lee,  M. S. Lee,  
 S. V. Levchenko,  Ching Yeh Lin,  D. Liotard,  R. C. Lochan,  I. Lotan,  
 P. E. Maslen,  N. Nair,  D. P. O'Neill,  D. Neuhauser,  E. Neuscamman,  
 C. M. Oana,  R. Olson,  B. Peters,  R. Peverati,  P. A. Pieniazek,  
 Y. M. Rhee,  J. Ritchie,  M. A. Rohrdanz,  E. Rosta,  N. J. Russ,  
 H. F. Schaefer III,  N. E. Schultz,  N. Shenvi,  A. C. Simmonett,  A. Sodt,  
 D. Stuck,  K. S. Thanthiriwatte,  V. Vanovschi,  Tao Wang,  A. Warshel,  
 C. F. Williams,  Q. Wu,  X. Xu,  W. Zhang

 Please cite Q-Chem as follows:
 Y. Shao et al., Mol. Phys. 113, 184-215 (2015)
 DOI: 10.1080/00268976.2014.952696

 Q-Chem 5.3.0 for Intel X86 EM64T Linux

 Parts of Q-Chem use Armadillo 9.800.1 (Horizon Scraper).
 http://arma.sourceforge.net/

 Q-Chem begins on Tue Jul  7 01:04:50 2020  

Host: centos77-c4
0

     Scratch files written to /tmp/26964.centos77-h1/qchem96596//
Processing $rem in /opt/qchem-5.3.0-intel2020u1//config/preferences:
Processing $rem in /home/shihchengli/.qchemrc:

Checking the input file for inconsistencies... 	...done.

--------------------------------------------------------------
User input:
--------------------------------------------------------------
$rem
   JOBTYPE  sp
   EXCHANGE   omegaB97X-D
   BASIS   6-311+G(2df,2pd)
   UNRESTRICTED   False
   max_scf_cycles   250
   geom_opt_max_cycles   1500
   basis2 6-31G*
   scf_algorithm rca_diis
   SYM_IGNORE  TRUE
   print_input   true
   geom_opt_dmax   80
   pop_mulliken false
   XC_GRID 000075000302
$end

$molecule
0 1
C       1.4705888118     -0.0059039326     0.2657730653
C       -0.0000000619     0.0199093146     -0.2263448605
H       1.7698726711     -0.8822602767     0.8416743857
H       1.8237085208     0.8890122927     0.7799213677
H       2.0030404796     -0.0504634110     -0.6885696602
C       -1.4705890603     -0.0059044983     0.2657725750
H       0.0000007575     -0.8113706573     -0.9398858693
H       -0.0000003649     0.8906929513     -0.8903222707
H       -1.7698730247     -0.8822608441     0.8416738218
H       -2.0030412527     -0.0504616979     -0.6885697281
H       -1.8237075369     0.8890114252     0.7799221921
$end
--------------------------------------------------------------
 ----------------------------------------------------------------
             Standard Nuclear Orientation (Angstroms)
    I     Atom           X                Y                Z
 ----------------------------------------------------------------
    1      C       1.4705888118    -0.0059039326     0.2657730653
    2      C      -0.0000000619     0.0199093146    -0.2263448605
    3      H       1.7698726711    -0.8822602767     0.8416743857
    4      H       1.8237085208     0.8890122927     0.7799213677
    5      H       2.0030404796    -0.0504634110    -0.6885696602
    6      C      -1.4705890603    -0.0059044983     0.2657725750
    7      H       0.0000007575    -0.8113706573    -0.9398858693
    8      H      -0.0000003649     0.8906929513    -0.8903222707
    9      H      -1.7698730247    -0.8822608441     0.8416738218
   10      H      -2.0030412527    -0.0504616979    -0.6885697281
   11      H      -1.8237075369     0.8890114252     0.7799221921
 ----------------------------------------------------------------
 Nuclear Repulsion Energy =          80.43041847 hartrees
 There are       13 alpha and       13 beta electrons
 Requested basis set is 6-311+G(2df,2pd)
 There are 72 shells and 214 basis functions

 Total QAlloc Memory Limit   2000 MB
 Mega-Array Size       188 MB
 MEM_STATIC part       192 MB

                       Distance Matrix (Angstroms)
             C (  1)   C (  2)   H (  3)   H (  4)   H (  5)   C (  6)
   C (  2)  1.550960
   H (  3)  1.090520  2.255443
   H (  4)  1.090833  2.256950  1.773166
   H (  5)  1.093737  2.056885  1.757242  1.752495
   C (  6)  2.941178  1.550960  3.405915  3.452191  3.602618
   H (  7)  2.065192  1.095521  2.512256  3.029018  2.157384  2.065193
   H (  8)  2.074385  1.095048  3.045591  2.472980  2.222308  2.074385
   H (  9)  3.405915  2.255443  3.539746  4.006875  4.155527  1.090520
   H ( 10)  3.602619  2.056885  4.155528  4.205127  4.006082  1.093737
   H ( 11)  3.452189  2.256949  4.006874  3.647416  4.205126  1.090833
             H (  7)   H (  8)   H (  9)   H ( 10)
   H (  8)  1.702785
   H (  9)  2.512257  3.045591
   H ( 10)  2.157387  2.222307  1.757243
   H ( 11)  3.029018  2.472979  1.773166  1.752495
 
 A cutoff of  1.0D-09 yielded   2467 shell pairs
 There are     21824 function pairs (     26811 Cartesian)
 Smallest overlap matrix eigenvalue = 8.46E-05

 Scale SEOQF with 1.000000e-01/1.000000e-01/1.000000e-01

 Standard Electronic Orientation quadrupole field applied
 Nucleus-field energy     =     0.0000000013 hartrees
 Requested basis set is 6-31G(d)
 There are 28 shells and 58 basis functions
 A cutoff of  1.0D-09 yielded    395 shell pairs
 There are      1766 function pairs (      1961 Cartesian)
 Smallest overlap matrix eigenvalue = 8.03E-03
 Guess from superposition of atomic densities
 Warning:  Energy on first SCF cycle will be non-variational
 SAD guess density has 26.000000 electrons
 Long-range K will be added via erf
 Coulomb attenuation parameter = 0.2 bohr**(-1)
 A restricted hybrid HF-DFT SCF calculation will be
 performed using Relaxed Constraint Minimization + Pulay DIIS
 Exchange:     0.2220 Hartree-Fock + 1.0000 wB97X-D + LR-HF
 Correlation:  1.0000 wB97X-D
 Using Euler-Maclaurin-Lebedev (75,302) quadrature formula
 Dispersion:   Grimme D
 SCF converges when DIIS error is below 1.0E-04
 using 3 threads for integral computing
 -------------------------------------------------------
 OpenMP Integral computing Module                
 Release: version 1.0, May 2013, Q-Chem Inc. Pittsburgh 
 -------------------------------------------------------
 using 3 threads for integral computing
 -------------------------------------------------------
 OpenMP Integral computing Module                
 Release: version 1.0, May 2013, Q-Chem Inc. Pittsburgh 
 -------------------------------------------------------
 ---------------------------------------
  Cycle       Energy         DIIS Error
 ---------------------------------------
    1    -119.5674664558      9.88E-02
    2    -119.0396672267      8.40E-03
    3    -119.0588112090      2.63E-03
    4    -119.0703333379      1.81E-03
    5    -119.0711561286      3.10E-04 Done RCA. Switching to DIIS
    6    -119.0717401419      2.33E-04
    7    -119.0717637868      4.18E-06 Convergence criterion met
 ---------------------------------------
 SCF time:  CPU 21.05 s  wall 8.06 s
 SCF   energy in the small basis set = -119.07176379
 Total energy in the small basis set = -119.07176379
 ----------------------------------------------------
  Cycle       Energy    
 ----------------------------------------------------
    1     -16.5157183864     -1.65E+01
 Long-range K will be added via erf
 Coulomb attenuation parameter = 0.2 bohr**(-1)
 A restricted hybrid HF-DFT SCF calculation will be
 performed using Relaxed Constraint Minimization + Pulay DIIS
 Exchange:     0.2220 Hartree-Fock + 1.0000 wB97X-D + LR-HF
 Correlation:  1.0000 wB97X-D
 Using Euler-Maclaurin-Lebedev (75,302) quadrature formula
 Dispersion:   Grimme D
 SCF converges when DIIS error is below 1.0E-05
 Basis2 calculation detected. Using small basis as guess for larger.
 SCFMinFind is unable to tell whether the solution found is close.
 Resetting ReadMinima to 0 and attempting to follow guess.
 SCFMinFind following SCF Guess.
 using 3 threads for integral computing
 -------------------------------------------------------
 OpenMP Integral computing Module                
 Release: version 1.0, May 2013, Q-Chem Inc. Pittsburgh 
 -------------------------------------------------------
 using 3 threads for integral computing
 -------------------------------------------------------
 OpenMP Integral computing Module                
 Release: version 1.0, May 2013, Q-Chem Inc. Pittsburgh 
 -------------------------------------------------------
 ---------------------------------------
  Cycle       Energy         DIIS Error
 ---------------------------------------
    1    -119.0914668286      4.21E-03
    2    -119.1133926957      5.72E-04 Done RCA. Switching to DIIS
    3    -119.1142152523      3.87E-04
    4    -119.1150373368      4.72E-05
    5    -119.1150523948      1.40E-05
    6    -119.1150535755      4.20E-06 Convergence criterion met
 ---------------------------------------
 SCF time:  CPU 48.83 s  wall 16.47 s
 SCF   energy in the final basis set = -119.11505358
 Total energy in the final basis set = -119.11505358
 
 --------------------------------------------------------------
 
                    Orbital Energies (a.u.)
 --------------------------------------------------------------
 
 Alpha MOs
 -- Occupied --
-10.2790 -10.2727 -10.2727  -0.8736  -0.7915  -0.6720  -0.5381  -0.5066
 -0.4994  -0.4757  -0.4278  -0.3999  -0.3905
 -- Virtual --
  0.0634   0.0862   0.0952   0.0991   0.1121   0.1279   0.1318   0.1551
  0.1611   0.1746   0.1959   0.2101   0.2229   0.2331   0.2358   0.2607
  0.2636   0.2706   0.2822   0.3034   0.3207   0.3709   0.4630   0.4769
  0.4831   0.4948   0.5257   0.5314   0.5533   0.5697   0.5750   0.5845
  0.5990   0.5997   0.6317   0.6466   0.6591   0.6762   0.6950   0.7125
  0.7282   0.7759   0.8152   0.8395   0.8636   0.8782   0.9496   0.9630
  0.9703   0.9882   1.0291   1.1054   1.1366   1.1545   1.1588   1.1816
  1.2374   1.2478   1.2612   1.2862   1.2916   1.2948   1.3052   1.3123
  1.3640   1.3849   1.4040   1.4485   1.4490   1.4589   1.4597   1.4714
  1.4872   1.5923   1.6036   1.6324   1.6579   1.6720   1.6918   1.7335
  1.7940   2.4302   2.4396   2.4793   2.5026   2.5415   2.5587   2.6170
  2.6565   2.6627   2.7283   2.8132   2.8555   2.8780   2.9275   2.9331
  2.9553   2.9986   2.9997   3.0096   3.0453   3.0523   3.0894   3.1093
  3.1308   3.1533   3.1619   3.1653   3.1843   3.1856   3.2133   3.2750
  3.2766   3.3068   3.3140   3.3338   3.3349   3.3530   3.3906   3.4032
  3.4222   3.4545   3.5171   3.5558   3.5638   3.5847   3.5979   3.6212
  3.6330   3.6622   3.6879   3.7253   3.7422   3.7575   3.7881   3.7931
  3.8711   3.8860   3.9048   3.9375   3.9568   3.9701   4.0039   4.0521
  4.0940   4.1168   4.1463   4.1481   4.1506   4.1755   4.1803   4.2188
  4.2388   4.2541   4.2572   4.3274   4.3703   4.3980   4.4465   4.4681
  4.5041   4.5366   4.5463   4.6322   4.7560   4.8337   4.8487   4.9003
  4.9050   4.9294   4.9474   4.9763   5.0122   5.0223   5.0847   5.1031
  5.1326   5.1497   5.2134   5.2459   5.2908   5.3026   5.3129   5.3423
  5.3476   5.3952   5.4517   5.4703   5.5973   5.6469   5.6683   5.8870
  5.9100   6.3657   6.3871   6.3892   6.4087   6.4618  25.1980  25.3876
 25.4245
 --------------------------------------------------------------
 
 -----------------------------------------------------------------
                    Cartesian Multipole Moments
 -----------------------------------------------------------------
    Charge (ESU x 10^10)
                -0.0000
    Dipole Moment (Debye)
         X       0.0000      Y      -0.0053      Z      -0.2457
       Tot       0.2457
    Quadrupole Moments (Debye-Ang)
        XX     -21.8254     XY      -0.0000     YY     -21.4478
        XZ       0.0000     YZ      -0.0127     ZZ     -21.8425
    Octopole Moments (Debye-Ang^2)
       XXX       0.0000    XXY       0.0774    XYY       0.0000
       YYY       0.0222    XXZ      -2.0383    XYZ       0.0000
       YYZ      -0.8635    XZZ      -0.0000    YZZ      -0.2137
       ZZZ      -5.5708
    Hexadecapole Moments (Debye-Ang^3)
      XXXX    -266.1860   XXXY      -0.0000   XXYY     -49.2884
      XYYY      -0.0000   YYYY     -44.0190   XXXZ       0.0000
      XXYZ       0.2507   XYYZ      -0.0000   YYYZ       0.1565
      XXZZ     -50.2458   XYZZ      -0.0000   YYZZ     -15.2327
      XZZZ      -0.0000   YZZZ       0.2093   ZZZZ     -56.1251
 -----------------------------------------------------------------
Archival summary:
1\1\centos77-c4\SP\ProcedureUnspecified\BasisUnspecified\38\shihchen\TueJul701:05:172020TueJul701:05:172020\0\\#,ProcedureUnspecified,BasisUnspecified,\\0,1\C\H,1,1.09505\H,1,1.09552,2,102.033\C,1,1.55096,2,101.866,3,-104.33,0\H,4,1.09052,1,116.178,2,171.467,0\H,4,1.09083,1,116.285,2,-58.5623,0\H,4,1.09374,1,100.685,2,56.2122,0\C,1,1.55096,2,101.866,3,104.33,0\H,8,1.09052,1,116.178,2,-171.467,0\H,8,1.09083,1,116.285,2,58.5622,0\H,8,1.09374,1,100.685,2,-56.2123,0\\\@

 Total job time:  27.38s(wall), 73.40s(cpu) 
 Tue Jul  7 01:05:17 2020

        *************************************************************
        *                                                           *
        *  Thank you very much for using Q-Chem.  Have a nice day.  *
        *                                                           *
        *************************************************************


