                  Welcome to Q-Chem
     A Quantum Leap Into The Future Of Chemistry


 Q-Chem 5.3 (devel), Q-Chem, Inc., Pleasanton, CA (2020)

 Yihan Shao,  Zhengting Gan,  E. Epifanovsky,  A. T. B. Gilbert,  M. Wormit,  
 J. Kussmann,  A. W. Lange,  A. Behn,  Jia Deng,  Xintian Feng,  D. Ghosh,  
 M. Goldey,  P. R. Horn,  L. D. Jacobson,  I. Kaliman,  T. Kus,  A. Landau,  
 Jie Liu,  E. I. Proynov,  R. M. Richard,  R. P. Steele,  E. J. Sundstrom,  
 H. L. Woodcock III,  P. M. Zimmerman,  D. Zuev,  B. Alam,  B. Albrecht,  
 E. Alguire,  S. A. Baeppler,  D. Barton,  Z. Benda,  Y. A. Bernard,  
 E. J. Berquist,  K. B. Bravaya,  H. Burton,  K. Carter-Fenk,  D. Casanova,  
 Chun-Min Chang,  Yunqing Chen,  A. Chien,  K. D. Closser,  M. P. Coons,  
 S. Coriani,  S. Dasgupta,  A. L. Dempwolff,  M. Diedenhofen,  Hainam Do,  
 R. G. Edgar,  Po-Tung Fang,  S. Faraji,  S. Fatehi,  Qingguo Feng,  
 J. Fosso-Tande,  J. Gayvert,  Qinghui Ge,  A. Ghysels,  G. Gidofalvi,  
 J. Gomes,  J. Gonthier,  A. Gunina,  D. Hait,  M. W. D. Hanson-Heine,  
 P. H. P. Harbach,  A. W. Hauser,  M. F. Herbst,  J. E. Herr,  
 E. G. Hohenstein,  Z. C. Holden,  Kerwin Hui,  B. C. Huynh,  T.-C. Jagau,  
 Hyunjun Ji,  B. Kaduk,  K. Khistyaev,  Jaehoon Kim,  P. Klunzinger,  K. Koh,  
 D. Kosenkov,  L. Koulias,  T. Kowalczyk,  C. M. Krauter,  A. Kunitsa,  
 Ka Un Lao,  A. Laurent,  K. V. Lawler,  Joonho Lee,  D. Lefrancois,  
 S. Lehtola,  D. S. Levine,  Yi-Pei Li,  You-Sheng Lin,  Fenglai Liu,  
 Kuan-Yu Liu,  E. Livshits,  M. Loipersberger,  A. Luenser,  P. Manohar,  
 E. Mansoor,  S. F. Manzer,  Shan-Ping Mao,  Yuezhi Mao,  N. Mardirossian,  
 A. V. Marenich,  T. Markovich,  L. A. Martinez-Martinez,  S. A. Maurer,  
 N. J. Mayhall,  S. C. McKenzie,  J.-M. Mewes,  P. Morgante,  A. F. Morrison,  
 J. W. Mullinax,  K. Nanda,  T. S. Nguyen-Beck,  R. Olivares-Amaya,  
 K. J. Oosterbaan,  J. A. Parkhill,  S. K. Paul,  F. Pavosevic,  Zheng Pei,  
 T. M. Perrine,  F. Plasser,  P. Pokhilko,  S. Prager,  A. Prociuk,  
 E. Ramos,  B. Rana,  D. R. Rehn,  F. Rob,  M. Scheurer,  M. Schneider,  
 N. Sergueev,  S. M. Sharada,  S. Sharma,  D. W. Small,  T. Stauch,  
 C. J. Stein,  T. Stein,  Yu-Chuan Su,  S. P. Veccham,  Zhen Tao,  
 A. J. W. Thom,  A. Tkatchenko,  T. Tsuchimochi,  N. M. Tubman,  L. Vogt,  
 M. L. Vidal,  O. Vydrov,  M. A. Watson,  J. Wenzel,  M. de Wergifosse,  
 T. A. Wesolowski,  A. White,  J. Witte,  A. Yamada,  Jun Yang,  K. Yao,  
 S. Yeganeh,  S. R. Yost,  Zhi-Qiang You,  A. Zech,  Igor Ying Zhang,  
 Xing Zhang,  Yan Zhao,  Ying Zhu,  B. R. Brooks,  G. K. L. Chan,  
 C. J. Cramer,  M. S. Gordon,  W. J. Hehre,  A. Klamt,  M. W. Schmidt,  
 C. D. Sherrill,  D. G. Truhlar,  A. Aspuru-Guzik,  R. Baer,  A. T. Bell,  
 N. A. Besley,  Jeng-Da Chai,  A. E. DePrince, III,  R. A. DiStasio Jr.,  
 A. Dreuw,  B. D. Dunietz,  T. R. Furlani,  Chao-Ping Hsu,  Yousung Jung,  
 Jing Kong,  D. S. Lambrecht,  WanZhen Liang,  C. Ochsenfeld,  
 V. A. Rassolov,  L. V. Slipchenko,  J. E. Subotnik,  T. Van Voorhis,  
 J. M. Herbert,  A. I. Krylov,  P. M. W. Gill,  M. Head-Gordon

 Contributors to earlier versions of Q-Chem not listed above: 
 R. D. Adamson,  B. Austin,  J. Baker,  G. J. O. Beran,  K. Brandhorst,  
 S. T. Brown,  E. F. C. Byrd,  A. K. Chakraborty,  C.-L. Cheng,  
 Siu Hung Chien,  D. M. Chipman,  D. L. Crittenden,  H. Dachsel,  
 R. J. Doerksen,  A. D. Dutoi,  L. Fusti-Molnar,  W. A. Goddard III,  
 A. Golubeva-Zadorozhnaya,  S. R. Gwaltney,  G. Hawkins,  A. Heyden,  
 S. Hirata,  G. Kedziora,  F. J. Keil,  C. Kelley,  Jihan Kim,  R. A. King,  
 R. Z. Khaliullin,  P. P. Korambath,  W. Kurlancheek,  A. M. Lee,  M. S. Lee,  
 S. V. Levchenko,  Ching Yeh Lin,  D. Liotard,  R. C. Lochan,  I. Lotan,  
 P. E. Maslen,  N. Nair,  D. P. O'Neill,  D. Neuhauser,  E. Neuscamman,  
 C. M. Oana,  R. Olson,  B. Peters,  R. Peverati,  P. A. Pieniazek,  
 Y. M. Rhee,  J. Ritchie,  M. A. Rohrdanz,  E. Rosta,  N. J. Russ,  
 H. F. Schaefer III,  N. E. Schultz,  N. Shenvi,  A. C. Simmonett,  A. Sodt,  
 D. Stuck,  K. S. Thanthiriwatte,  V. Vanovschi,  Tao Wang,  A. Warshel,  
 C. F. Williams,  Q. Wu,  X. Xu,  W. Zhang

 Please cite Q-Chem as follows:
 Y. Shao et al., Mol. Phys. 113, 184-215 (2015)
 DOI: 10.1080/00268976.2014.952696

 Q-Chem 5.3.0 for Intel X86 EM64T Linux

 Parts of Q-Chem use Armadillo 9.800.1 (Horizon Scraper).
 http://arma.sourceforge.net/

 Q-Chem begins on Tue Jul  7 02:31:33 2020  

Host: centos77-c4
0

     Scratch files written to /tmp/26964.centos77-h1/qchem112688//
Processing $rem in /opt/qchem-5.3.0-intel2020u1//config/preferences:
Processing $rem in /home/shihchengli/.qchemrc:

Checking the input file for inconsistencies... 	...done.

--------------------------------------------------------------
User input:
--------------------------------------------------------------
$rem
   JOBTYPE  sp
   EXCHANGE   omegaB97X-D
   BASIS   6-311+G(2df,2pd)
   UNRESTRICTED   False
   max_scf_cycles   250
   geom_opt_max_cycles   1500
   basis2 6-31G*
   scf_algorithm rca_diis
   SYM_IGNORE  TRUE
   print_input   true
   geom_opt_dmax   80
   pop_mulliken false
   XC_GRID 000075000302
$end

$molecule
0 1
C       1.2651342510     -0.0005811914     0.2459739796
C       -0.0000002205     0.0019903698     -0.6240493482
H       1.3011742987     -0.8731802153     0.8856453643
H       1.3071559012     0.8750335199     0.8822965777
H       2.1882175053     -0.0051909049     -0.3942963952
C       -1.2651348068     -0.0005813528     0.2459742653
H       -0.0000002394     -0.6952816995     -1.1394780763
H       -0.0000003404     0.7011287819     -1.1346657237
H       -1.3011744974     -0.8731776201     0.8856435925
H       -2.1882157411     -0.0051902806     -0.3942945469
H       -1.3071561713     0.8750312589     0.8822953298
$end
--------------------------------------------------------------
 ----------------------------------------------------------------
             Standard Nuclear Orientation (Angstroms)
    I     Atom           X                Y                Z
 ----------------------------------------------------------------
    1      C       1.2651342510    -0.0005811914     0.2459739796
    2      C      -0.0000002205     0.0019903698    -0.6240493482
    3      H       1.3011742987    -0.8731802153     0.8856453643
    4      H       1.3071559012     0.8750335199     0.8822965777
    5      H       2.1882175053    -0.0051909049    -0.3942963952
    6      C      -1.2651348068    -0.0005813528     0.2459742653
    7      H      -0.0000002394    -0.6952816995    -1.1394780763
    8      H      -0.0000003404     0.7011287819    -1.1346657237
    9      H      -1.3011744974    -0.8731776201     0.8856435925
   10      H      -2.1882157411    -0.0051902806    -0.3942945469
   11      H      -1.3071561713     0.8750312589     0.8822953298
 ----------------------------------------------------------------
 Nuclear Repulsion Energy =          84.56266586 hartrees
 There are       13 alpha and       13 beta electrons
 Requested basis set is 6-311+G(2df,2pd)
 There are 72 shells and 214 basis functions

 Total QAlloc Memory Limit   2000 MB
 Mega-Array Size       188 MB
 MEM_STATIC part       192 MB

                       Distance Matrix (Angstroms)
             C (  1)   C (  2)   H (  3)   H (  4)   H (  5)   C (  6)
   C (  2)  1.535419
   H (  3)  1.082547  2.176731
   H (  4)  1.083224  2.177140  1.748227
   H (  5)  1.123410  2.200258  1.782835  1.783467
   C (  6)  2.530269  1.535420  2.785058  2.790750  3.512209
   H (  7)  2.000663  0.867096  2.413675  2.874390  2.412430  2.000663
   H (  8)  1.999782  0.865750  2.872832  2.409779  2.415643  1.999782
   H (  9)  2.785057  2.176728  2.602349  3.140007  3.816740  1.082543
   H ( 10)  3.512206  2.200256  3.816739  3.823886  4.376433  1.123407
   H ( 11)  2.790749  2.177138  3.140007  2.614312  3.823887  1.083221
             H (  7)   H (  8)   H (  9)   H ( 10)
   H (  8)  1.396419
   H (  9)  2.413673  2.872829
   H ( 10)  2.412429  2.415641  1.782831
   H ( 11)  2.874388  2.409778  1.748222  1.783462
 
 A cutoff of  1.0D-09 yielded   2544 shell pairs
 There are     22638 function pairs (     27819 Cartesian)
 Smallest overlap matrix eigenvalue = 8.80E-05

 Scale SEOQF with 1.000000e-01/1.000000e-01/1.000000e-01

 Standard Electronic Orientation quadrupole field applied
 Nucleus-field energy     =     0.0000000006 hartrees
 Requested basis set is 6-31G(d)
 There are 28 shells and 58 basis functions
 A cutoff of  1.0D-09 yielded    402 shell pairs
 There are      1773 function pairs (      1968 Cartesian)
 Smallest overlap matrix eigenvalue = 5.94E-03
 Guess from superposition of atomic densities
 Warning:  Energy on first SCF cycle will be non-variational
 SAD guess density has 26.000000 electrons
 Long-range K will be added via erf
 Coulomb attenuation parameter = 0.2 bohr**(-1)
 A restricted hybrid HF-DFT SCF calculation will be
 performed using Relaxed Constraint Minimization + Pulay DIIS
 Exchange:     0.2220 Hartree-Fock + 1.0000 wB97X-D + LR-HF
 Correlation:  1.0000 wB97X-D
 Using Euler-Maclaurin-Lebedev (75,302) quadrature formula
 Dispersion:   Grimme D
 SCF converges when DIIS error is below 1.0E-04
 using 3 threads for integral computing
 -------------------------------------------------------
 OpenMP Integral computing Module                
 Release: version 1.0, May 2013, Q-Chem Inc. Pittsburgh 
 -------------------------------------------------------
 using 3 threads for integral computing
 -------------------------------------------------------
 OpenMP Integral computing Module                
 Release: version 1.0, May 2013, Q-Chem Inc. Pittsburgh 
 -------------------------------------------------------
 ---------------------------------------
  Cycle       Energy         DIIS Error
 ---------------------------------------
    1    -119.8044583182      1.12E-01
    2    -118.9502215056      1.04E-02
    3    -118.9793950773      3.37E-03
    4    -118.9956838083      2.29E-03
    5    -118.9969835398      4.56E-04 Done RCA. Switching to DIIS
    6    -118.9978288337      3.24E-04
    7    -118.9978726982      7.42E-06 Convergence criterion met
 ---------------------------------------
 SCF time:  CPU 19.33 s  wall 7.01 s
 SCF   energy in the small basis set = -118.99787270
 Total energy in the small basis set = -118.99787270
 ----------------------------------------------------
  Cycle       Energy    
 ----------------------------------------------------
    1     -16.7024672023     -1.67E+01
 Long-range K will be added via erf
 Coulomb attenuation parameter = 0.2 bohr**(-1)
 A restricted hybrid HF-DFT SCF calculation will be
 performed using Relaxed Constraint Minimization + Pulay DIIS
 Exchange:     0.2220 Hartree-Fock + 1.0000 wB97X-D + LR-HF
 Correlation:  1.0000 wB97X-D
 Using Euler-Maclaurin-Lebedev (75,302) quadrature formula
 Dispersion:   Grimme D
 SCF converges when DIIS error is below 1.0E-05
 Basis2 calculation detected. Using small basis as guess for larger.
 SCFMinFind is unable to tell whether the solution found is close.
 Resetting ReadMinima to 0 and attempting to follow guess.
 SCFMinFind following SCF Guess.
 using 3 threads for integral computing
 -------------------------------------------------------
 OpenMP Integral computing Module                
 Release: version 1.0, May 2013, Q-Chem Inc. Pittsburgh 
 -------------------------------------------------------
 using 3 threads for integral computing
 -------------------------------------------------------
 OpenMP Integral computing Module                
 Release: version 1.0, May 2013, Q-Chem Inc. Pittsburgh 
 -------------------------------------------------------
 ---------------------------------------
  Cycle       Energy         DIIS Error
 ---------------------------------------
    1    -119.0232601852      4.23E-03
    2    -119.0454013685      6.11E-04 Done RCA. Switching to DIIS
    3    -119.0463370684      4.01E-04
    4    -119.0471965302      4.35E-05
    5    -119.0472096847      7.64E-06 Convergence criterion met
 ---------------------------------------
 SCF time:  CPU 45.32 s  wall 15.38 s
 SCF   energy in the final basis set = -119.04720968
 Total energy in the final basis set = -119.04720968
 
 --------------------------------------------------------------
 
                    Orbital Energies (a.u.)
 --------------------------------------------------------------
 
 Alpha MOs
 -- Occupied --
-10.2646 -10.2646 -10.2219  -0.8983  -0.7718  -0.7143  -0.5728  -0.5169
 -0.4804  -0.4637  -0.4330  -0.4275  -0.4084
 -- Virtual --
  0.0681   0.0870   0.0915   0.1008   0.1259   0.1305   0.1340   0.1412
  0.1468   0.1676   0.1738   0.1919   0.2384   0.2461   0.2493   0.2781
  0.2833   0.3079   0.3091   0.3119   0.3494   0.3507   0.4543   0.4680
  0.4726   0.5146   0.5150   0.5215   0.5453   0.5719   0.5896   0.6097
  0.6210   0.6267   0.6358   0.6661   0.6738   0.7035   0.7156   0.7294
  0.7757   0.8049   0.8457   0.8711   0.8880   0.9004   0.9090   0.9734
  1.0039   1.0483   1.0908   1.1307   1.1352   1.1899   1.2113   1.2161
  1.2479   1.2802   1.2934   1.2951   1.3203   1.3235   1.3454   1.3793
  1.3816   1.3863   1.3870   1.4604   1.4755   1.4758   1.5150   1.5339
  1.5406   1.5750   1.6144   1.6537   1.6855   1.6991   1.7160   1.7453
  1.9005   2.3386   2.3951   2.4368   2.5202   2.5285   2.6002   2.6232
  2.6764   2.7083   2.8280   2.8382   2.8760   2.8975   2.9297   2.9306
  2.9562   2.9839   3.0236   3.0347   3.0582   3.0727   3.0743   3.0982
  3.1703   3.1735   3.1806   3.2411   3.2452   3.2586   3.2880   3.3082
  3.3311   3.3438   3.3673   3.3704   3.4036   3.4098   3.4619   3.4662
  3.4907   3.5021   3.5318   3.5393   3.5753   3.5770   3.5825   3.6173
  3.6909   3.7062   3.7409   3.7795   3.8272   3.8529   3.8633   3.9159
  3.9186   3.9222   3.9743   3.9840   3.9945   4.0136   4.0716   4.1207
  4.1211   4.1406   4.1553   4.1690   4.2163   4.2172   4.2273   4.2774
  4.3010   4.3661   4.3891   4.3981   4.4140   4.4232   4.4645   4.5105
  4.6746   4.7114   4.7193   4.7331   4.8119   4.8229   4.8719   4.9418
  4.9465   5.0104   5.0331   5.1182   5.1194   5.1322   5.2009   5.2173
  5.2794   5.2857   5.2859   5.2940   5.3535   5.3776   5.4478   5.4583
  5.5168   5.6684   5.8147   5.8300   5.9649   6.1088   6.1338   6.2053
  6.3540   6.3902   6.4227   6.4279   6.7097   7.1046  25.3947  25.4215
 25.4703
 --------------------------------------------------------------
 
 -----------------------------------------------------------------
                    Cartesian Multipole Moments
 -----------------------------------------------------------------
    Charge (ESU x 10^10)
                 0.0000
    Dipole Moment (Debye)
         X      -0.0000      Y       0.0003      Z      -0.2606
       Tot       0.2606
    Quadrupole Moments (Debye-Ang)
        XX     -22.2414     XY      -0.0000     YY     -21.0676
        XZ      -0.0000     YZ      -0.0001     ZZ     -21.1292
    Octopole Moments (Debye-Ang^2)
       XXX      -0.0000    XXY      -0.0078    XYY      -0.0000
       YYY       0.0071    XXZ      -1.7545    XYZ       0.0000
       YYZ       0.5091    XZZ      -0.0000    YZZ      -0.0094
       ZZZ      -1.3714
    Hexadecapole Moments (Debye-Ang^3)
      XXXX    -207.0563   XXXY      -0.0000   XXYY     -41.9534
      XYYY       0.0000   YYYY     -39.5393   XXXZ      -0.0000
      XXYZ       0.0320   XYYZ       0.0000   YYYZ       0.0203
      XXZZ     -44.4592   XYZZ       0.0000   YYZZ     -15.7713
      XZZZ      -0.0000   YZZZ       0.0136   ZZZZ     -65.1272
 -----------------------------------------------------------------
Archival summary:
1\1\centos77-c4\SP\ProcedureUnspecified\BasisUnspecified\38\shihchen\TueJul702:31:592020TueJul702:31:592020\0\\#,ProcedureUnspecified,BasisUnspecified,\\0,1\C\H,1,0.86575\H,1,0.867096,2,107.385\C,1,1.53542,2,109.606,3,118.993,0\H,4,1.08255,1,111.322,2,-179.102,0\H,4,1.08322,1,111.314,2,60.79,0\H,4,1.12341,1,110.738,2,-59.1585,0\C,1,1.53542,2,109.606,3,-118.993,0\H,8,1.08254,1,111.322,2,179.102,0\H,8,1.08322,1,111.314,2,-60.79,0\H,8,1.12341,1,110.738,2,59.1585,0\\\@

 Total job time:  25.36s(wall), 68.38s(cpu) 
 Tue Jul  7 02:31:59 2020

        *************************************************************
        *                                                           *
        *  Thank you very much for using Q-Chem.  Have a nice day.  *
        *                                                           *
        *************************************************************


