                  Welcome to Q-Chem
     A Quantum Leap Into The Future Of Chemistry


 Q-Chem 5.3 (devel), Q-Chem, Inc., Pleasanton, CA (2020)

 Yihan Shao,  Zhengting Gan,  E. Epifanovsky,  A. T. B. Gilbert,  M. Wormit,  
 J. Kussmann,  A. W. Lange,  A. Behn,  Jia Deng,  Xintian Feng,  D. Ghosh,  
 M. Goldey,  P. R. Horn,  L. D. Jacobson,  I. Kaliman,  T. Kus,  A. Landau,  
 Jie Liu,  E. I. Proynov,  R. M. Richard,  R. P. Steele,  E. J. Sundstrom,  
 H. L. Woodcock III,  P. M. Zimmerman,  D. Zuev,  B. Alam,  B. Albrecht,  
 E. Alguire,  S. A. Baeppler,  D. Barton,  Z. Benda,  Y. A. Bernard,  
 E. J. Berquist,  K. B. Bravaya,  H. Burton,  K. Carter-Fenk,  D. Casanova,  
 Chun-Min Chang,  Yunqing Chen,  A. Chien,  K. D. Closser,  M. P. Coons,  
 S. Coriani,  S. Dasgupta,  A. L. Dempwolff,  M. Diedenhofen,  Hainam Do,  
 R. G. Edgar,  Po-Tung Fang,  S. Faraji,  S. Fatehi,  Qingguo Feng,  
 J. Fosso-Tande,  J. Gayvert,  Qinghui Ge,  A. Ghysels,  G. Gidofalvi,  
 J. Gomes,  J. Gonthier,  A. Gunina,  D. Hait,  M. W. D. Hanson-Heine,  
 P. H. P. Harbach,  A. W. Hauser,  M. F. Herbst,  J. E. Herr,  
 E. G. Hohenstein,  Z. C. Holden,  Kerwin Hui,  B. C. Huynh,  T.-C. Jagau,  
 Hyunjun Ji,  B. Kaduk,  K. Khistyaev,  Jaehoon Kim,  P. Klunzinger,  K. Koh,  
 D. Kosenkov,  L. Koulias,  T. Kowalczyk,  C. M. Krauter,  A. Kunitsa,  
 Ka Un Lao,  A. Laurent,  K. V. Lawler,  Joonho Lee,  D. Lefrancois,  
 S. Lehtola,  D. S. Levine,  Yi-Pei Li,  You-Sheng Lin,  Fenglai Liu,  
 Kuan-Yu Liu,  E. Livshits,  M. Loipersberger,  A. Luenser,  P. Manohar,  
 E. Mansoor,  S. F. Manzer,  Shan-Ping Mao,  Yuezhi Mao,  N. Mardirossian,  
 A. V. Marenich,  T. Markovich,  L. A. Martinez-Martinez,  S. A. Maurer,  
 N. J. Mayhall,  S. C. McKenzie,  J.-M. Mewes,  P. Morgante,  A. F. Morrison,  
 J. W. Mullinax,  K. Nanda,  T. S. Nguyen-Beck,  R. Olivares-Amaya,  
 K. J. Oosterbaan,  J. A. Parkhill,  S. K. Paul,  F. Pavosevic,  Zheng Pei,  
 T. M. Perrine,  F. Plasser,  P. Pokhilko,  S. Prager,  A. Prociuk,  
 E. Ramos,  B. Rana,  D. R. Rehn,  F. Rob,  M. Scheurer,  M. Schneider,  
 N. Sergueev,  S. M. Sharada,  S. Sharma,  D. W. Small,  T. Stauch,  
 C. J. Stein,  T. Stein,  Yu-Chuan Su,  S. P. Veccham,  Zhen Tao,  
 A. J. W. Thom,  A. Tkatchenko,  T. Tsuchimochi,  N. M. Tubman,  L. Vogt,  
 M. L. Vidal,  O. Vydrov,  M. A. Watson,  J. Wenzel,  M. de Wergifosse,  
 T. A. Wesolowski,  A. White,  J. Witte,  A. Yamada,  Jun Yang,  K. Yao,  
 S. Yeganeh,  S. R. Yost,  Zhi-Qiang You,  A. Zech,  Igor Ying Zhang,  
 Xing Zhang,  Yan Zhao,  Ying Zhu,  B. R. Brooks,  G. K. L. Chan,  
 C. J. Cramer,  M. S. Gordon,  W. J. Hehre,  A. Klamt,  M. W. Schmidt,  
 C. D. Sherrill,  D. G. Truhlar,  A. Aspuru-Guzik,  R. Baer,  A. T. Bell,  
 N. A. Besley,  Jeng-Da Chai,  A. E. DePrince, III,  R. A. DiStasio Jr.,  
 A. Dreuw,  B. D. Dunietz,  T. R. Furlani,  Chao-Ping Hsu,  Yousung Jung,  
 Jing Kong,  D. S. Lambrecht,  WanZhen Liang,  C. Ochsenfeld,  
 V. A. Rassolov,  L. V. Slipchenko,  J. E. Subotnik,  T. Van Voorhis,  
 J. M. Herbert,  A. I. Krylov,  P. M. W. Gill,  M. Head-Gordon

 Contributors to earlier versions of Q-Chem not listed above: 
 R. D. Adamson,  B. Austin,  J. Baker,  G. J. O. Beran,  K. Brandhorst,  
 S. T. Brown,  E. F. C. Byrd,  A. K. Chakraborty,  C.-L. Cheng,  
 Siu Hung Chien,  D. M. Chipman,  D. L. Crittenden,  H. Dachsel,  
 R. J. Doerksen,  A. D. Dutoi,  L. Fusti-Molnar,  W. A. Goddard III,  
 A. Golubeva-Zadorozhnaya,  S. R. Gwaltney,  G. Hawkins,  A. Heyden,  
 S. Hirata,  G. Kedziora,  F. J. Keil,  C. Kelley,  Jihan Kim,  R. A. King,  
 R. Z. Khaliullin,  P. P. Korambath,  W. Kurlancheek,  A. M. Lee,  M. S. Lee,  
 S. V. Levchenko,  Ching Yeh Lin,  D. Liotard,  R. C. Lochan,  I. Lotan,  
 P. E. Maslen,  N. Nair,  D. P. O'Neill,  D. Neuhauser,  E. Neuscamman,  
 C. M. Oana,  R. Olson,  B. Peters,  R. Peverati,  P. A. Pieniazek,  
 Y. M. Rhee,  J. Ritchie,  M. A. Rohrdanz,  E. Rosta,  N. J. Russ,  
 H. F. Schaefer III,  N. E. Schultz,  N. Shenvi,  A. C. Simmonett,  A. Sodt,  
 D. Stuck,  K. S. Thanthiriwatte,  V. Vanovschi,  Tao Wang,  A. Warshel,  
 C. F. Williams,  Q. Wu,  X. Xu,  W. Zhang

 Please cite Q-Chem as follows:
 Y. Shao et al., Mol. Phys. 113, 184-215 (2015)
 DOI: 10.1080/00268976.2014.952696

 Q-Chem 5.3.0 for Intel X86 EM64T Linux

 Parts of Q-Chem use Armadillo 9.800.1 (Horizon Scraper).
 http://arma.sourceforge.net/

 Q-Chem begins on Tue Jul  7 01:43:30 2020  

Host: centos77-c4
0

     Scratch files written to /tmp/26964.centos77-h1/qchem103477//
Processing $rem in /opt/qchem-5.3.0-intel2020u1//config/preferences:
Processing $rem in /home/shihchengli/.qchemrc:

Checking the input file for inconsistencies... 	...done.

--------------------------------------------------------------
User input:
--------------------------------------------------------------
$rem
   JOBTYPE  sp
   EXCHANGE   omegaB97X-D
   BASIS   6-311+G(2df,2pd)
   UNRESTRICTED   False
   max_scf_cycles   250
   geom_opt_max_cycles   1500
   basis2 6-31G*
   scf_algorithm rca_diis
   SYM_IGNORE  TRUE
   print_input   true
   geom_opt_dmax   80
   pop_mulliken false
   XC_GRID 000075000302
$end

$molecule
0 1
C       1.2672026872     -0.0295495348     0.2584125075
C       -0.0012144215     -0.0002663084     -0.5869572148
H       1.3166843246     -0.8999477827     0.9155599285
H       1.2933991834     0.8581922461     0.8940095370
H       2.1635805183     0.0000309768     -0.3617515242
C       -1.2672592140     0.0295852945     0.2599738951
H       0.0853950464     -0.8703933866     -1.2420406850
H       -0.0818272652     0.8698493819     -1.2428207324
H       -1.2944497056     -0.8611178749     0.8911433784
H       -2.1653056020     0.0011093329     -0.3580672840
H       -1.3162056122     0.9025083212     0.9135832128
$end
--------------------------------------------------------------
 ----------------------------------------------------------------
             Standard Nuclear Orientation (Angstroms)
    I     Atom           X                Y                Z
 ----------------------------------------------------------------
    1      C       1.2672026872    -0.0295495348     0.2584125075
    2      C      -0.0012144215    -0.0002663084    -0.5869572148
    3      H       1.3166843246    -0.8999477827     0.9155599285
    4      H       1.2933991834     0.8581922461     0.8940095370
    5      H       2.1635805183     0.0000309768    -0.3617515242
    6      C      -1.2672592140     0.0295852945     0.2599738951
    7      H       0.0853950464    -0.8703933866    -1.2420406850
    8      H      -0.0818272652     0.8698493819    -1.2428207324
    9      H      -1.2944497056    -0.8611178749     0.8911433784
   10      H      -2.1653056020     0.0011093329    -0.3580672840
   11      H      -1.3162056122     0.9025083212     0.9135832128
 ----------------------------------------------------------------
 Nuclear Repulsion Energy =          82.74027883 hartrees
 There are       13 alpha and       13 beta electrons
 Requested basis set is 6-311+G(2df,2pd)
 There are 72 shells and 214 basis functions

 Total QAlloc Memory Limit   2000 MB
 Mega-Array Size       188 MB
 MEM_STATIC part       192 MB

                       Distance Matrix (Angstroms)
             C (  1)   C (  2)   H (  3)   H (  4)   H (  5)   C (  6)
   C (  2)  1.524595
   H (  3)  1.091735  2.191767
   H (  4)  1.092133  2.146215  1.758426
   H (  5)  1.090400  2.176478  1.777279  1.752311
   C (  6)  2.535152  1.523500  2.823223  2.765061  3.486843
   H (  7)  2.086875  1.092592  2.484389  3.001665  2.418967  2.212619
   H (  8)  2.209638  1.092592  3.121958  2.541147  2.564122  2.090379
   H (  9)  2.766571  2.144366  2.611537  3.106927  3.777472  1.092001
   H ( 10)  3.487564  2.176162  3.815532  3.776894  4.328888  1.090538
   H ( 11)  2.823469  2.189937  3.190762  2.610054  3.814427  1.091602
             H (  7)   H (  8)   H (  9)   H ( 10)
   H (  8)  1.748259
   H (  9)  2.540577  3.003415
   H ( 10)  2.570327  2.424537  1.749958
   H ( 11)  3.123200  2.484921  1.763903  1.774989
 
 A cutoff of  1.0D-09 yielded   2534 shell pairs
 There are     22588 function pairs (     27769 Cartesian)
 Smallest overlap matrix eigenvalue = 8.94E-05

 Scale SEOQF with 1.000000e-01/1.000000e-01/1.000000e-01

 Standard Electronic Orientation quadrupole field applied
 Nucleus-field energy     =     0.0000000006 hartrees
 Requested basis set is 6-31G(d)
 There are 28 shells and 58 basis functions
 A cutoff of  1.0D-09 yielded    402 shell pairs
 There are      1773 function pairs (      1968 Cartesian)
 Smallest overlap matrix eigenvalue = 6.84E-03
 Guess from superposition of atomic densities
 Warning:  Energy on first SCF cycle will be non-variational
 SAD guess density has 26.000000 electrons
 Long-range K will be added via erf
 Coulomb attenuation parameter = 0.2 bohr**(-1)
 A restricted hybrid HF-DFT SCF calculation will be
 performed using Relaxed Constraint Minimization + Pulay DIIS
 Exchange:     0.2220 Hartree-Fock + 1.0000 wB97X-D + LR-HF
 Correlation:  1.0000 wB97X-D
 Using Euler-Maclaurin-Lebedev (75,302) quadrature formula
 Dispersion:   Grimme D
 SCF converges when DIIS error is below 1.0E-04
 using 3 threads for integral computing
 -------------------------------------------------------
 OpenMP Integral computing Module                
 Release: version 1.0, May 2013, Q-Chem Inc. Pittsburgh 
 -------------------------------------------------------
 using 3 threads for integral computing
 -------------------------------------------------------
 OpenMP Integral computing Module                
 Release: version 1.0, May 2013, Q-Chem Inc. Pittsburgh 
 -------------------------------------------------------
 ---------------------------------------
  Cycle       Energy         DIIS Error
 ---------------------------------------
    1    -119.6204158418      1.00E-01
    2    -119.0638660967      9.00E-03
    3    -119.0849449369      2.47E-03
    4    -119.0988004569      1.69E-03
    5    -119.0995030124      2.69E-04 Done RCA. Switching to DIIS
    6    -119.1000174920      1.98E-04
    7    -119.1000345626      4.62E-06 Convergence criterion met
 ---------------------------------------
 SCF time:  CPU 19.31 s  wall 7.07 s
 SCF   energy in the small basis set = -119.10003456
 Total energy in the small basis set = -119.10003456
 ----------------------------------------------------
  Cycle       Energy    
 ----------------------------------------------------
    1     -16.5393094821     -1.65E+01
 Long-range K will be added via erf
 Coulomb attenuation parameter = 0.2 bohr**(-1)
 A restricted hybrid HF-DFT SCF calculation will be
 performed using Relaxed Constraint Minimization + Pulay DIIS
 Exchange:     0.2220 Hartree-Fock + 1.0000 wB97X-D + LR-HF
 Correlation:  1.0000 wB97X-D
 Using Euler-Maclaurin-Lebedev (75,302) quadrature formula
 Dispersion:   Grimme D
 SCF converges when DIIS error is below 1.0E-05
 Basis2 calculation detected. Using small basis as guess for larger.
 SCFMinFind is unable to tell whether the solution found is close.
 Resetting ReadMinima to 0 and attempting to follow guess.
 SCFMinFind following SCF Guess.
 using 3 threads for integral computing
 -------------------------------------------------------
 OpenMP Integral computing Module                
 Release: version 1.0, May 2013, Q-Chem Inc. Pittsburgh 
 -------------------------------------------------------
 using 3 threads for integral computing
 -------------------------------------------------------
 OpenMP Integral computing Module                
 Release: version 1.0, May 2013, Q-Chem Inc. Pittsburgh 
 -------------------------------------------------------
 ---------------------------------------
  Cycle       Energy         DIIS Error
 ---------------------------------------
    1    -119.1191855987      4.21E-03
    2    -119.1412413323      5.99E-04 Done RCA. Switching to DIIS
    3    -119.1420780607      4.20E-04
    4    -119.1430434085      4.56E-05
    5    -119.1430581859      1.02E-05
    6    -119.1430588800      3.91E-06 Convergence criterion met
 ---------------------------------------
 SCF time:  CPU 51.37 s  wall 17.44 s
 SCF   energy in the final basis set = -119.14305888
 Total energy in the final basis set = -119.14305888
 
 --------------------------------------------------------------
 
                    Orbital Energies (a.u.)
 --------------------------------------------------------------
 
 Alpha MOs
 -- Occupied --
-10.2740 -10.2654 -10.2653  -0.8815  -0.7775  -0.6777  -0.5460  -0.5244
 -0.4842  -0.4643  -0.4226  -0.4167  -0.4011
 -- Virtual --
  0.0691   0.0858   0.0909   0.0991   0.1250   0.1296   0.1331   0.1427
  0.1436   0.1714   0.1716   0.1913   0.2324   0.2403   0.2438   0.2610
  0.2818   0.2849   0.3112   0.3139   0.3335   0.3495   0.4584   0.4677
  0.4710   0.5113   0.5116   0.5184   0.5460   0.5607   0.5841   0.5863
  0.6238   0.6245   0.6423   0.6450   0.6461   0.6697   0.7089   0.7233
  0.7265   0.7675   0.8177   0.8559   0.8638   0.8819   0.8853   0.9599
  1.0023   1.0530   1.0559   1.1381   1.1384   1.1651   1.1962   1.2097
  1.2234   1.2365   1.2718   1.2820   1.2877   1.3018   1.3282   1.3775
  1.3819   1.3943   1.4020   1.4468   1.4546   1.4744   1.4787   1.4809
  1.5222   1.5775   1.6102   1.6214   1.6428   1.6437   1.6904   1.6911
  1.7428   2.3779   2.4710   2.4725   2.5039   2.5407   2.5575   2.6000
  2.6358   2.7125   2.8123   2.8335   2.8366   2.9093   2.9221   2.9289
  2.9314   2.9617   2.9986   3.0223   3.0520   3.0702   3.0767   3.0993
  3.1283   3.1294   3.1781   3.1992   3.2216   3.2292   3.2832   3.3108
  3.3227   3.3298   3.3363   3.3533   3.3793   3.3856   3.3956   3.4378
  3.4676   3.4922   3.5062   3.5238   3.5592   3.5774   3.6022   3.6202
  3.6228   3.6752   3.6860   3.7017   3.7777   3.7816   3.8563   3.8852
  3.9155   3.9299   3.9504   3.9621   3.9816   3.9977   4.0460   4.0654
  4.0798   4.1053   4.1209   4.1359   4.1531   4.1588   4.1903   4.2064
  4.2143   4.2501   4.2606   4.3525   4.3702   4.4168   4.4245   4.4312
  4.4422   4.5660   4.6094   4.6280   4.6639   4.8102   4.8217   4.8887
  4.9404   4.9623   4.9636   4.9847   5.0313   5.0566   5.0610   5.0914
  5.1564   5.2398   5.2473   5.2798   5.3143   5.3367   5.3439   5.3534
  5.3719   5.4088   5.4597   5.4927   5.5355   5.5792   5.6325   5.7443
  5.9629   6.3807   6.3847   6.3923   6.4181   6.4666  25.2037  25.4417
 25.4525
 --------------------------------------------------------------
 
 -----------------------------------------------------------------
                    Cartesian Multipole Moments
 -----------------------------------------------------------------
    Charge (ESU x 10^10)
                 0.0000
    Dipole Moment (Debye)
         X      -0.0020      Y       0.0002      Z      -0.0811
       Tot       0.0811
    Quadrupole Moments (Debye-Ang)
        XX     -22.1480     XY      -0.2382     YY     -21.3815
        XZ      -0.0086     YZ      -0.0009     ZZ     -21.8566
    Octopole Moments (Debye-Ang^2)
       XXX      -0.0066    XXY       0.0011    XYY      -0.0172
       YYY       0.0040    XXZ      -1.5705    XYZ      -0.0499
       YYZ       0.5251    XZZ       0.0306    YZZ       0.0036
       ZZZ      -0.3763
    Hexadecapole Moments (Debye-Ang^3)
      XXXX    -202.3162   XXXY       1.7585   XXYY     -42.2029
      XYYY       1.4619   YYYY     -44.1787   XXXZ       0.0003
      XXYZ      -0.0035   XYYZ      -0.0102   YYYZ      -0.0042
      XXZZ     -45.2830   XYZZ      -0.0411   YYZZ     -17.1112
      XZZZ       0.0348   YZZZ      -0.0079   ZZZZ     -72.2336
 -----------------------------------------------------------------
Archival summary:
1\1\centos77-c4\SP\ProcedureUnspecified\BasisUnspecified\38\shihchen\TueJul701:43:582020TueJul701:43:582020\0\\#,ProcedureUnspecified,BasisUnspecified,\\0,1\C\H,1,1.09259\H,1,1.09259,2,106.27\C,1,1.5235,2,114.506,3,115.279,0\H,4,1.09054,1,111.639,2,-57.9945,0\H,4,1.0916,1,112.693,2,179.125,0\H,4,1.092,1,109.028,2,59.5227,0\C,1,1.52459,2,104.549,3,-121.097,0\H,8,1.0904,1,111.595,2,57.9927,0\H,8,1.09173,1,112.755,2,-65.1728,0\H,8,1.09213,1,109.089,2,175.777,0\\\@

 Total job time:  27.41s(wall), 74.25s(cpu) 
 Tue Jul  7 01:43:58 2020

        *************************************************************
        *                                                           *
        *  Thank you very much for using Q-Chem.  Have a nice day.  *
        *                                                           *
        *************************************************************


