                  Welcome to Q-Chem
     A Quantum Leap Into The Future Of Chemistry


 Q-Chem 5.3 (devel), Q-Chem, Inc., Pleasanton, CA (2020)

 Yihan Shao,  Zhengting Gan,  E. Epifanovsky,  A. T. B. Gilbert,  M. Wormit,  
 J. Kussmann,  A. W. Lange,  A. Behn,  Jia Deng,  Xintian Feng,  D. Ghosh,  
 M. Goldey,  P. R. Horn,  L. D. Jacobson,  I. Kaliman,  T. Kus,  A. Landau,  
 Jie Liu,  E. I. Proynov,  R. M. Richard,  R. P. Steele,  E. J. Sundstrom,  
 H. L. Woodcock III,  P. M. Zimmerman,  D. Zuev,  B. Alam,  B. Albrecht,  
 E. Alguire,  S. A. Baeppler,  D. Barton,  Z. Benda,  Y. A. Bernard,  
 E. J. Berquist,  K. B. Bravaya,  H. Burton,  K. Carter-Fenk,  D. Casanova,  
 Chun-Min Chang,  Yunqing Chen,  A. Chien,  K. D. Closser,  M. P. Coons,  
 S. Coriani,  S. Dasgupta,  A. L. Dempwolff,  M. Diedenhofen,  Hainam Do,  
 R. G. Edgar,  Po-Tung Fang,  S. Faraji,  S. Fatehi,  Qingguo Feng,  
 J. Fosso-Tande,  J. Gayvert,  Qinghui Ge,  A. Ghysels,  G. Gidofalvi,  
 J. Gomes,  J. Gonthier,  A. Gunina,  D. Hait,  M. W. D. Hanson-Heine,  
 P. H. P. Harbach,  A. W. Hauser,  M. F. Herbst,  J. E. Herr,  
 E. G. Hohenstein,  Z. C. Holden,  Kerwin Hui,  B. C. Huynh,  T.-C. Jagau,  
 Hyunjun Ji,  B. Kaduk,  K. Khistyaev,  Jaehoon Kim,  P. Klunzinger,  K. Koh,  
 D. Kosenkov,  L. Koulias,  T. Kowalczyk,  C. M. Krauter,  A. Kunitsa,  
 Ka Un Lao,  A. Laurent,  K. V. Lawler,  Joonho Lee,  D. Lefrancois,  
 S. Lehtola,  D. S. Levine,  Yi-Pei Li,  You-Sheng Lin,  Fenglai Liu,  
 Kuan-Yu Liu,  E. Livshits,  M. Loipersberger,  A. Luenser,  P. Manohar,  
 E. Mansoor,  S. F. Manzer,  Shan-Ping Mao,  Yuezhi Mao,  N. Mardirossian,  
 A. V. Marenich,  T. Markovich,  L. A. Martinez-Martinez,  S. A. Maurer,  
 N. J. Mayhall,  S. C. McKenzie,  J.-M. Mewes,  P. Morgante,  A. F. Morrison,  
 J. W. Mullinax,  K. Nanda,  T. S. Nguyen-Beck,  R. Olivares-Amaya,  
 K. J. Oosterbaan,  J. A. Parkhill,  S. K. Paul,  F. Pavosevic,  Zheng Pei,  
 T. M. Perrine,  F. Plasser,  P. Pokhilko,  S. Prager,  A. Prociuk,  
 E. Ramos,  B. Rana,  D. R. Rehn,  F. Rob,  M. Scheurer,  M. Schneider,  
 N. Sergueev,  S. M. Sharada,  S. Sharma,  D. W. Small,  T. Stauch,  
 C. J. Stein,  T. Stein,  Yu-Chuan Su,  S. P. Veccham,  Zhen Tao,  
 A. J. W. Thom,  A. Tkatchenko,  T. Tsuchimochi,  N. M. Tubman,  L. Vogt,  
 M. L. Vidal,  O. Vydrov,  M. A. Watson,  J. Wenzel,  M. de Wergifosse,  
 T. A. Wesolowski,  A. White,  J. Witte,  A. Yamada,  Jun Yang,  K. Yao,  
 S. Yeganeh,  S. R. Yost,  Zhi-Qiang You,  A. Zech,  Igor Ying Zhang,  
 Xing Zhang,  Yan Zhao,  Ying Zhu,  B. R. Brooks,  G. K. L. Chan,  
 C. J. Cramer,  M. S. Gordon,  W. J. Hehre,  A. Klamt,  M. W. Schmidt,  
 C. D. Sherrill,  D. G. Truhlar,  A. Aspuru-Guzik,  R. Baer,  A. T. Bell,  
 N. A. Besley,  Jeng-Da Chai,  A. E. DePrince, III,  R. A. DiStasio Jr.,  
 A. Dreuw,  B. D. Dunietz,  T. R. Furlani,  Chao-Ping Hsu,  Yousung Jung,  
 Jing Kong,  D. S. Lambrecht,  WanZhen Liang,  C. Ochsenfeld,  
 V. A. Rassolov,  L. V. Slipchenko,  J. E. Subotnik,  T. Van Voorhis,  
 J. M. Herbert,  A. I. Krylov,  P. M. W. Gill,  M. Head-Gordon

 Contributors to earlier versions of Q-Chem not listed above: 
 R. D. Adamson,  B. Austin,  J. Baker,  G. J. O. Beran,  K. Brandhorst,  
 S. T. Brown,  E. F. C. Byrd,  A. K. Chakraborty,  C.-L. Cheng,  
 Siu Hung Chien,  D. M. Chipman,  D. L. Crittenden,  H. Dachsel,  
 R. J. Doerksen,  A. D. Dutoi,  L. Fusti-Molnar,  W. A. Goddard III,  
 A. Golubeva-Zadorozhnaya,  S. R. Gwaltney,  G. Hawkins,  A. Heyden,  
 S. Hirata,  G. Kedziora,  F. J. Keil,  C. Kelley,  Jihan Kim,  R. A. King,  
 R. Z. Khaliullin,  P. P. Korambath,  W. Kurlancheek,  A. M. Lee,  M. S. Lee,  
 S. V. Levchenko,  Ching Yeh Lin,  D. Liotard,  R. C. Lochan,  I. Lotan,  
 P. E. Maslen,  N. Nair,  D. P. O'Neill,  D. Neuhauser,  E. Neuscamman,  
 C. M. Oana,  R. Olson,  B. Peters,  R. Peverati,  P. A. Pieniazek,  
 Y. M. Rhee,  J. Ritchie,  M. A. Rohrdanz,  E. Rosta,  N. J. Russ,  
 H. F. Schaefer III,  N. E. Schultz,  N. Shenvi,  A. C. Simmonett,  A. Sodt,  
 D. Stuck,  K. S. Thanthiriwatte,  V. Vanovschi,  Tao Wang,  A. Warshel,  
 C. F. Williams,  Q. Wu,  X. Xu,  W. Zhang

 Please cite Q-Chem as follows:
 Y. Shao et al., Mol. Phys. 113, 184-215 (2015)
 DOI: 10.1080/00268976.2014.952696

 Q-Chem 5.3.0 for Intel X86 EM64T Linux

 Parts of Q-Chem use Armadillo 9.800.1 (Horizon Scraper).
 http://arma.sourceforge.net/

 Q-Chem begins on Tue Jul  7 02:29:21 2020  

Host: centos77-c4
0

     Scratch files written to /tmp/26964.centos77-h1/qchem112402//
Processing $rem in /opt/qchem-5.3.0-intel2020u1//config/preferences:
Processing $rem in /home/shihchengli/.qchemrc:

Checking the input file for inconsistencies... 	...done.

--------------------------------------------------------------
User input:
--------------------------------------------------------------
$rem
   JOBTYPE  sp
   EXCHANGE   omegaB97X-D
   BASIS   6-311+G(2df,2pd)
   UNRESTRICTED   False
   max_scf_cycles   250
   geom_opt_max_cycles   1500
   basis2 6-31G*
   scf_algorithm rca_diis
   SYM_IGNORE  TRUE
   print_input   true
   geom_opt_dmax   80
   pop_mulliken false
   XC_GRID 000075000302
$end

$molecule
0 1
C       1.2683172934     0.0004631023     0.2689243736
C       0.0000001430     -0.0010338580     -0.5623633869
H       1.3076552765     -0.8856806209     0.9162153691
H       1.3038306610     0.8843511718     0.9187502468
H       2.1485774594     0.0033743032     -0.3367514173
C       -1.2683169264     0.0004631738     0.2689241849
H       0.0000001641     -0.9913594620     -1.3134367425
H       0.0000001412     0.9873775141     -1.3174326030
H       -1.3076551529     -0.8856823593     0.9162165480
H       -2.1485786420     0.0033750336     -0.3367526440
H       -1.3038304780     0.8843526673     0.9187510902
$end
--------------------------------------------------------------
 ----------------------------------------------------------------
             Standard Nuclear Orientation (Angstroms)
    I     Atom           X                Y                Z
 ----------------------------------------------------------------
    1      C       1.2683172934     0.0004631023     0.2689243736
    2      C       0.0000001430    -0.0010338580    -0.5623633869
    3      H       1.3076552765    -0.8856806209     0.9162153691
    4      H       1.3038306610     0.8843511718     0.9187502468
    5      H       2.1485774594     0.0033743032    -0.3367514173
    6      C      -1.2683169264     0.0004631738     0.2689241849
    7      H       0.0000001641    -0.9913594620    -1.3134367425
    8      H       0.0000001412     0.9873775141    -1.3174326030
    9      H      -1.3076551529    -0.8856823593     0.9162165480
   10      H      -2.1485786420     0.0033750336    -0.3367526440
   11      H      -1.3038304780     0.8843526673     0.9187510902
 ----------------------------------------------------------------
 Nuclear Repulsion Energy =          81.85921900 hartrees
 There are       13 alpha and       13 beta electrons
 Requested basis set is 6-311+G(2df,2pd)
 There are 72 shells and 214 basis functions

 Total QAlloc Memory Limit   2000 MB
 Mega-Array Size       188 MB
 MEM_STATIC part       192 MB

                       Distance Matrix (Angstroms)
             C (  1)   C (  2)   H (  3)   H (  4)   H (  5)   C (  6)
   C (  2)  1.516466
   H (  3)  1.098082  2.163043
   H (  4)  1.097631  2.162771  1.770038
   H (  5)  1.068508  2.160395  1.751426  1.751000
   C (  6)  2.536634  1.516466  2.799977  2.796332  3.470161
   H (  7)  2.257478  1.242922  2.586982  3.193888  2.561209  2.257478
   H (  8)  2.258131  1.243819  3.194917  2.590580  2.558590  2.258131
   H (  9)  2.799978  2.163045  2.615310  3.154819  3.782313  1.098084
   H ( 10)  3.470163  2.160396  3.782314  3.777769  4.297156  1.068510
   H ( 11)  2.796333  2.162772  3.154819  2.607661  3.777768  1.097632
             H (  7)   H (  8)   H (  9)   H ( 10)
   H (  8)  1.978741
   H (  9)  2.586984  3.194918
   H ( 10)  2.561211  2.558590  1.751430
   H ( 11)  3.193890  2.590580  1.770041  1.751003
 
 A cutoff of  1.0D-09 yielded   2528 shell pairs
 There are     22574 function pairs (     27755 Cartesian)
 Smallest overlap matrix eigenvalue = 8.64E-05

 Scale SEOQF with 1.000000e-01/1.000000e-01/1.000000e-01

 Standard Electronic Orientation quadrupole field applied
 Nucleus-field energy     =     0.0000000006 hartrees
 Requested basis set is 6-31G(d)
 There are 28 shells and 58 basis functions
 A cutoff of  1.0D-09 yielded    402 shell pairs
 There are      1773 function pairs (      1968 Cartesian)
 Smallest overlap matrix eigenvalue = 7.06E-03
 Guess from superposition of atomic densities
 Warning:  Energy on first SCF cycle will be non-variational
 SAD guess density has 26.000000 electrons
 Long-range K will be added via erf
 Coulomb attenuation parameter = 0.2 bohr**(-1)
 A restricted hybrid HF-DFT SCF calculation will be
 performed using Relaxed Constraint Minimization + Pulay DIIS
 Exchange:     0.2220 Hartree-Fock + 1.0000 wB97X-D + LR-HF
 Correlation:  1.0000 wB97X-D
 Using Euler-Maclaurin-Lebedev (75,302) quadrature formula
 Dispersion:   Grimme D
 SCF converges when DIIS error is below 1.0E-04
 using 3 threads for integral computing
 -------------------------------------------------------
 OpenMP Integral computing Module                
 Release: version 1.0, May 2013, Q-Chem Inc. Pittsburgh 
 -------------------------------------------------------
 using 3 threads for integral computing
 -------------------------------------------------------
 OpenMP Integral computing Module                
 Release: version 1.0, May 2013, Q-Chem Inc. Pittsburgh 
 -------------------------------------------------------
 ---------------------------------------
  Cycle       Energy         DIIS Error
 ---------------------------------------
    1    -119.4794253580      9.67E-02
    2    -119.0481990216      8.77E-03
    3    -119.0681292809      2.36E-03
    4    -119.0815286367      1.64E-03
    5    -119.0821869351      2.29E-04 Done RCA. Switching to DIIS
    6    -119.0827029778      1.78E-04
    7    -119.0827171678      4.66E-06 Convergence criterion met
 ---------------------------------------
 SCF time:  CPU 20.40 s  wall 7.56 s
 SCF   energy in the small basis set = -119.08271717
 Total energy in the small basis set = -119.08271717
 ----------------------------------------------------
  Cycle       Energy    
 ----------------------------------------------------
    1     -16.4603080438     -1.65E+01
 Long-range K will be added via erf
 Coulomb attenuation parameter = 0.2 bohr**(-1)
 A restricted hybrid HF-DFT SCF calculation will be
 performed using Relaxed Constraint Minimization + Pulay DIIS
 Exchange:     0.2220 Hartree-Fock + 1.0000 wB97X-D + LR-HF
 Correlation:  1.0000 wB97X-D
 Using Euler-Maclaurin-Lebedev (75,302) quadrature formula
 Dispersion:   Grimme D
 SCF converges when DIIS error is below 1.0E-05
 Basis2 calculation detected. Using small basis as guess for larger.
 SCFMinFind is unable to tell whether the solution found is close.
 Resetting ReadMinima to 0 and attempting to follow guess.
 SCFMinFind following SCF Guess.
 using 3 threads for integral computing
 -------------------------------------------------------
 OpenMP Integral computing Module                
 Release: version 1.0, May 2013, Q-Chem Inc. Pittsburgh 
 -------------------------------------------------------
 using 3 threads for integral computing
 -------------------------------------------------------
 OpenMP Integral computing Module                
 Release: version 1.0, May 2013, Q-Chem Inc. Pittsburgh 
 -------------------------------------------------------
 ---------------------------------------
  Cycle       Energy         DIIS Error
 ---------------------------------------
    1    -119.1012909664      4.20E-03
    2    -119.1231655780      5.69E-04 Done RCA. Switching to DIIS
    3    -119.1238957664      4.12E-04
    4    -119.1248382536      5.09E-05
    5    -119.1248555634      1.70E-05
    6    -119.1248572457      4.29E-06 Convergence criterion met
 ---------------------------------------
 SCF time:  CPU 47.63 s  wall 15.90 s
 SCF   energy in the final basis set = -119.12485725
 Total energy in the final basis set = -119.12485725
 
 --------------------------------------------------------------
 
                    Orbital Energies (a.u.)
 --------------------------------------------------------------
 
 Alpha MOs
 -- Occupied --
-10.3045 -10.2670 -10.2669  -0.8784  -0.7821  -0.6590  -0.5358  -0.5289
 -0.4853  -0.4647  -0.4273  -0.4104  -0.3897
 -- Virtual --
  0.0692   0.0850   0.0888   0.0962   0.1240   0.1292   0.1329   0.1392
  0.1433   0.1706   0.1707   0.1910   0.2172   0.2285   0.2409   0.2409
  0.2780   0.2880   0.3068   0.3141   0.3270   0.3507   0.4529   0.4698
  0.4748   0.5082   0.5133   0.5134   0.5451   0.5555   0.5605   0.5800
  0.6242   0.6253   0.6270   0.6471   0.6487   0.6494   0.6771   0.7070
  0.7247   0.7570   0.8087   0.8560   0.8620   0.8663   0.8970   0.9457
  1.0002   1.0295   1.0539   1.1375   1.1464   1.1597   1.1723   1.1999
  1.2083   1.2098   1.2317   1.2563   1.2743   1.2888   1.3326   1.3741
  1.3807   1.3995   1.4055   1.4172   1.4504   1.4556   1.4642   1.4683
  1.4877   1.5424   1.5854   1.6227   1.6263   1.6299   1.6865   1.6879
  1.7104   2.3615   2.4492   2.4525   2.5309   2.5535   2.5969   2.6177
  2.6269   2.7190   2.7933   2.8346   2.8386   2.8602   2.8920   2.9134
  2.9195   2.9337   2.9487   2.9805   3.0225   3.0554   3.0823   3.0989
  3.1250   3.1360   3.1865   3.1950   3.2039   3.2135   3.2413   3.2557
  3.2826   3.3261   3.3276   3.3295   3.3484   3.3551   3.3600   3.3730
  3.4564   3.4697   3.4713   3.5049   3.5548   3.5692   3.6034   3.6181
  3.6224   3.6265   3.6623   3.7003   3.7499   3.7710   3.8498   3.8686
  3.8843   3.9231   3.9304   3.9469   3.9553   3.9584   3.9785   4.0187
  4.0321   4.0328   4.0877   4.1119   4.1177   4.1411   4.1441   4.1735
  4.2151   4.2289   4.2444   4.2703   4.3336   4.3445   4.3820   4.3975
  4.4275   4.4516   4.4666   4.5348   4.6333   4.6341   4.6877   4.8304
  4.8402   4.8494   4.8527   4.9447   4.9951   5.0008   5.0051   5.0203
  5.0280   5.1208   5.2354   5.2406   5.2525   5.2753   5.2969   5.3229
  5.3819   5.3872   5.4156   5.4442   5.4447   5.4787   5.4978   5.7559
  5.8000   6.0364   6.3652   6.3729   6.4202   6.4348  24.7124  25.4511
 25.4697
 --------------------------------------------------------------
 
 -----------------------------------------------------------------
                    Cartesian Multipole Moments
 -----------------------------------------------------------------
    Charge (ESU x 10^10)
                -0.0000
    Dipole Moment (Debye)
         X       0.0000      Y      -0.0002      Z       0.1314
       Tot       0.1314
    Quadrupole Moments (Debye-Ang)
        XX     -21.9866     XY      -0.0000     YY     -21.6019
        XZ       0.0000     YZ       0.0001     ZZ     -22.3428
    Octopole Moments (Debye-Ang^2)
       XXX       0.0000    XXY       0.0069    XYY       0.0000
       YYY      -0.0102    XXZ      -1.2884    XYZ       0.0000
       YYZ       0.6096    XZZ       0.0000    YZZ       0.0077
       ZZZ       0.4721
    Hexadecapole Moments (Debye-Ang^3)
      XXXX    -198.4721   XXXY      -0.0000   XXYY     -42.4669
      XYYY       0.0000   YYYY     -48.1478   XXXZ       0.0000
      XXYZ      -0.0204   XYYZ      -0.0000   YYYZ      -0.0081
      XXZZ     -45.9149   XYZZ       0.0000   YYZZ     -18.1667
      XZZZ       0.0000   YZZZ      -0.0114   ZZZZ     -77.6778
 -----------------------------------------------------------------
Archival summary:
1\1\centos77-c4\SP\ProcedureUnspecified\BasisUnspecified\38\shihchen\TueJul702:29:472020TueJul702:29:472020\0\\#,ProcedureUnspecified,BasisUnspecified,\\0,1\C\H,1,1.24292\H,1,1.24382,2,105.446\C,1,1.51647,2,109.392,3,117.543,0\H,4,1.06851,1,112.228,2,-57.7477,0\H,4,1.09763,1,110.633,2,-178.275,0\H,4,1.09808,1,110.628,2,62.7828,0\C,1,1.51647,2,109.392,3,-117.543,0\H,8,1.06851,1,112.228,2,57.7476,0\H,8,1.09763,1,110.633,2,178.275,0\H,8,1.09808,1,110.628,2,-62.7828,0\\\@

 Total job time:  26.35s(wall), 71.62s(cpu) 
 Tue Jul  7 02:29:47 2020

        *************************************************************
        *                                                           *
        *  Thank you very much for using Q-Chem.  Have a nice day.  *
        *                                                           *
        *************************************************************


