                  Welcome to Q-Chem
     A Quantum Leap Into The Future Of Chemistry


 Q-Chem 5.3 (devel), Q-Chem, Inc., Pleasanton, CA (2020)

 Yihan Shao,  Zhengting Gan,  E. Epifanovsky,  A. T. B. Gilbert,  M. Wormit,  
 J. Kussmann,  A. W. Lange,  A. Behn,  Jia Deng,  Xintian Feng,  D. Ghosh,  
 M. Goldey,  P. R. Horn,  L. D. Jacobson,  I. Kaliman,  T. Kus,  A. Landau,  
 Jie Liu,  E. I. Proynov,  R. M. Richard,  R. P. Steele,  E. J. Sundstrom,  
 H. L. Woodcock III,  P. M. Zimmerman,  D. Zuev,  B. Alam,  B. Albrecht,  
 E. Alguire,  S. A. Baeppler,  D. Barton,  Z. Benda,  Y. A. Bernard,  
 E. J. Berquist,  K. B. Bravaya,  H. Burton,  K. Carter-Fenk,  D. Casanova,  
 Chun-Min Chang,  Yunqing Chen,  A. Chien,  K. D. Closser,  M. P. Coons,  
 S. Coriani,  S. Dasgupta,  A. L. Dempwolff,  M. Diedenhofen,  Hainam Do,  
 R. G. Edgar,  Po-Tung Fang,  S. Faraji,  S. Fatehi,  Qingguo Feng,  
 J. Fosso-Tande,  J. Gayvert,  Qinghui Ge,  A. Ghysels,  G. Gidofalvi,  
 J. Gomes,  J. Gonthier,  A. Gunina,  D. Hait,  M. W. D. Hanson-Heine,  
 P. H. P. Harbach,  A. W. Hauser,  M. F. Herbst,  J. E. Herr,  
 E. G. Hohenstein,  Z. C. Holden,  Kerwin Hui,  B. C. Huynh,  T.-C. Jagau,  
 Hyunjun Ji,  B. Kaduk,  K. Khistyaev,  Jaehoon Kim,  P. Klunzinger,  K. Koh,  
 D. Kosenkov,  L. Koulias,  T. Kowalczyk,  C. M. Krauter,  A. Kunitsa,  
 Ka Un Lao,  A. Laurent,  K. V. Lawler,  Joonho Lee,  D. Lefrancois,  
 S. Lehtola,  D. S. Levine,  Yi-Pei Li,  You-Sheng Lin,  Fenglai Liu,  
 Kuan-Yu Liu,  E. Livshits,  M. Loipersberger,  A. Luenser,  P. Manohar,  
 E. Mansoor,  S. F. Manzer,  Shan-Ping Mao,  Yuezhi Mao,  N. Mardirossian,  
 A. V. Marenich,  T. Markovich,  L. A. Martinez-Martinez,  S. A. Maurer,  
 N. J. Mayhall,  S. C. McKenzie,  J.-M. Mewes,  P. Morgante,  A. F. Morrison,  
 J. W. Mullinax,  K. Nanda,  T. S. Nguyen-Beck,  R. Olivares-Amaya,  
 K. J. Oosterbaan,  J. A. Parkhill,  S. K. Paul,  F. Pavosevic,  Zheng Pei,  
 T. M. Perrine,  F. Plasser,  P. Pokhilko,  S. Prager,  A. Prociuk,  
 E. Ramos,  B. Rana,  D. R. Rehn,  F. Rob,  M. Scheurer,  M. Schneider,  
 N. Sergueev,  S. M. Sharada,  S. Sharma,  D. W. Small,  T. Stauch,  
 C. J. Stein,  T. Stein,  Yu-Chuan Su,  S. P. Veccham,  Zhen Tao,  
 A. J. W. Thom,  A. Tkatchenko,  T. Tsuchimochi,  N. M. Tubman,  L. Vogt,  
 M. L. Vidal,  O. Vydrov,  M. A. Watson,  J. Wenzel,  M. de Wergifosse,  
 T. A. Wesolowski,  A. White,  J. Witte,  A. Yamada,  Jun Yang,  K. Yao,  
 S. Yeganeh,  S. R. Yost,  Zhi-Qiang You,  A. Zech,  Igor Ying Zhang,  
 Xing Zhang,  Yan Zhao,  Ying Zhu,  B. R. Brooks,  G. K. L. Chan,  
 C. J. Cramer,  M. S. Gordon,  W. J. Hehre,  A. Klamt,  M. W. Schmidt,  
 C. D. Sherrill,  D. G. Truhlar,  A. Aspuru-Guzik,  R. Baer,  A. T. Bell,  
 N. A. Besley,  Jeng-Da Chai,  A. E. DePrince, III,  R. A. DiStasio Jr.,  
 A. Dreuw,  B. D. Dunietz,  T. R. Furlani,  Chao-Ping Hsu,  Yousung Jung,  
 Jing Kong,  D. S. Lambrecht,  WanZhen Liang,  C. Ochsenfeld,  
 V. A. Rassolov,  L. V. Slipchenko,  J. E. Subotnik,  T. Van Voorhis,  
 J. M. Herbert,  A. I. Krylov,  P. M. W. Gill,  M. Head-Gordon

 Contributors to earlier versions of Q-Chem not listed above: 
 R. D. Adamson,  B. Austin,  J. Baker,  G. J. O. Beran,  K. Brandhorst,  
 S. T. Brown,  E. F. C. Byrd,  A. K. Chakraborty,  C.-L. Cheng,  
 Siu Hung Chien,  D. M. Chipman,  D. L. Crittenden,  H. Dachsel,  
 R. J. Doerksen,  A. D. Dutoi,  L. Fusti-Molnar,  W. A. Goddard III,  
 A. Golubeva-Zadorozhnaya,  S. R. Gwaltney,  G. Hawkins,  A. Heyden,  
 S. Hirata,  G. Kedziora,  F. J. Keil,  C. Kelley,  Jihan Kim,  R. A. King,  
 R. Z. Khaliullin,  P. P. Korambath,  W. Kurlancheek,  A. M. Lee,  M. S. Lee,  
 S. V. Levchenko,  Ching Yeh Lin,  D. Liotard,  R. C. Lochan,  I. Lotan,  
 P. E. Maslen,  N. Nair,  D. P. O'Neill,  D. Neuhauser,  E. Neuscamman,  
 C. M. Oana,  R. Olson,  B. Peters,  R. Peverati,  P. A. Pieniazek,  
 Y. M. Rhee,  J. Ritchie,  M. A. Rohrdanz,  E. Rosta,  N. J. Russ,  
 H. F. Schaefer III,  N. E. Schultz,  N. Shenvi,  A. C. Simmonett,  A. Sodt,  
 D. Stuck,  K. S. Thanthiriwatte,  V. Vanovschi,  Tao Wang,  A. Warshel,  
 C. F. Williams,  Q. Wu,  X. Xu,  W. Zhang

 Please cite Q-Chem as follows:
 Y. Shao et al., Mol. Phys. 113, 184-215 (2015)
 DOI: 10.1080/00268976.2014.952696

 Q-Chem 5.3.0 for Intel X86 EM64T Linux

 Parts of Q-Chem use Armadillo 9.800.1 (Horizon Scraper).
 http://arma.sourceforge.net/

 Q-Chem begins on Tue Jul  7 01:26:45 2020  

Host: centos77-c4
0

     Scratch files written to /tmp/26964.centos77-h1/qchem100317//
Processing $rem in /opt/qchem-5.3.0-intel2020u1//config/preferences:
Processing $rem in /home/shihchengli/.qchemrc:

Checking the input file for inconsistencies... 	...done.

--------------------------------------------------------------
User input:
--------------------------------------------------------------
$rem
   JOBTYPE  sp
   EXCHANGE   omegaB97X-D
   BASIS   6-311+G(2df,2pd)
   UNRESTRICTED   False
   max_scf_cycles   250
   geom_opt_max_cycles   1500
   basis2 6-31G*
   scf_algorithm rca_diis
   SYM_IGNORE  TRUE
   print_input   true
   geom_opt_dmax   80
   pop_mulliken false
   XC_GRID 000075000302
$end

$molecule
0 1
C       1.3243021116     -0.0443053552     0.1671474378
C       0.0411202418     0.0062656534     -0.5893638116
H       1.2938282326     -0.9475593745     0.7799737238
H       1.1471418443     0.7764625016     0.8676764283
H       2.3234786087     0.0715018641     -0.2484080889
C       -1.1998576179     0.0520024338     0.3509346716
H       -0.1815612469     -0.8528207396     -1.2266550514
H       -0.0291108474     0.8868456251     -1.2323282207
H       -1.2876440710     -0.8057789468     1.0206381481
H       -1.9463153266     -0.1021342764     -0.4319096684
H       -1.4853819898     0.9595212804     0.8833394502
$end
--------------------------------------------------------------
 ----------------------------------------------------------------
             Standard Nuclear Orientation (Angstroms)
    I     Atom           X                Y                Z
 ----------------------------------------------------------------
    1      C       1.3243021116    -0.0443053552     0.1671474378
    2      C       0.0411202418     0.0062656534    -0.5893638116
    3      H       1.2938282326    -0.9475593745     0.7799737238
    4      H       1.1471418443     0.7764625016     0.8676764283
    5      H       2.3234786087     0.0715018641    -0.2484080889
    6      C      -1.1998576179     0.0520024338     0.3509346716
    7      H      -0.1815612469    -0.8528207396    -1.2266550514
    8      H      -0.0291108474     0.8868456251    -1.2323282207
    9      H      -1.2876440710    -0.8057789468     1.0206381481
   10      H      -1.9463153266    -0.1021342764    -0.4319096684
   11      H      -1.4853819898     0.9595212804     0.8833394502
 ----------------------------------------------------------------
 Nuclear Repulsion Energy =          82.96431378 hartrees
 There are       13 alpha and       13 beta electrons
 Requested basis set is 6-311+G(2df,2pd)
 There are 72 shells and 214 basis functions

 Total QAlloc Memory Limit   2000 MB
 Mega-Array Size       188 MB
 MEM_STATIC part       192 MB

                       Distance Matrix (Angstroms)
             C (  1)   C (  2)   H (  3)   H (  4)   H (  5)   C (  6)
   C (  2)  1.490444
   H (  3)  1.091949  2.086659
   H (  4)  1.093520  1.984806  1.732472
   H (  5)  1.088325  2.308607  1.776580  1.768158
   C (  6)  2.532674  1.557652  2.720601  2.510034  3.574002
   H (  7)  2.205449  1.092592  2.492450  2.967531  2.843688  2.084328
   H (  8)  2.158078  1.092592  3.027304  2.409517  2.677230  2.138769
   H (  9)  2.851412  2.239897  2.596540  2.907760  3.926870  1.091787
   H ( 10)  3.325530  1.996608  3.561170  3.468477  4.277261  1.092613
   H ( 11)  3.068375  2.325459  3.372188  2.638927  4.071468  1.090215
             H (  7)   H (  8)   H (  9)   H ( 10)
   H (  8)  1.746343
   H (  9)  2.505186  3.086218
   H ( 10)  2.075935  2.300962  1.743232
   H ( 11)  3.071906  2.569447  1.781639  1.751985
 
 A cutoff of  1.0D-09 yielded   2536 shell pairs
 There are     22598 function pairs (     27801 Cartesian)
 Smallest overlap matrix eigenvalue = 8.99E-05

 Scale SEOQF with 1.000000e-01/1.000000e-01/1.000000e-01

 Standard Electronic Orientation quadrupole field applied
 Nucleus-field energy     =     0.0000000006 hartrees
 Requested basis set is 6-31G(d)
 There are 28 shells and 58 basis functions
 A cutoff of  1.0D-09 yielded    402 shell pairs
 There are      1773 function pairs (      1968 Cartesian)
 Smallest overlap matrix eigenvalue = 6.34E-03
 Guess from superposition of atomic densities
 Warning:  Energy on first SCF cycle will be non-variational
 SAD guess density has 26.000000 electrons
 Long-range K will be added via erf
 Coulomb attenuation parameter = 0.2 bohr**(-1)
 A restricted hybrid HF-DFT SCF calculation will be
 performed using Relaxed Constraint Minimization + Pulay DIIS
 Exchange:     0.2220 Hartree-Fock + 1.0000 wB97X-D + LR-HF
 Correlation:  1.0000 wB97X-D
 Using Euler-Maclaurin-Lebedev (75,302) quadrature formula
 Dispersion:   Grimme D
 SCF converges when DIIS error is below 1.0E-04
 using 3 threads for integral computing
 -------------------------------------------------------
 OpenMP Integral computing Module                
 Release: version 1.0, May 2013, Q-Chem Inc. Pittsburgh 
 -------------------------------------------------------
 using 3 threads for integral computing
 -------------------------------------------------------
 OpenMP Integral computing Module                
 Release: version 1.0, May 2013, Q-Chem Inc. Pittsburgh 
 -------------------------------------------------------
 ---------------------------------------
  Cycle       Energy         DIIS Error
 ---------------------------------------
    1    -119.6476056984      1.01E-01
    2    -119.0460164657      9.01E-03
    3    -119.0672187860      2.51E-03
    4    -119.0810752640      1.72E-03
    5    -119.0818041455      2.74E-04 Done RCA. Switching to DIIS
    6    -119.0823377834      2.03E-04
    7    -119.0823556751      4.83E-06 Convergence criterion met
 ---------------------------------------
 SCF time:  CPU 18.82 s  wall 6.75 s
 SCF   energy in the small basis set = -119.08235568
 Total energy in the small basis set = -119.08235568
 ----------------------------------------------------
  Cycle       Energy    
 ----------------------------------------------------
    1     -16.5423712168     -1.65E+01
 Long-range K will be added via erf
 Coulomb attenuation parameter = 0.2 bohr**(-1)
 A restricted hybrid HF-DFT SCF calculation will be
 performed using Relaxed Constraint Minimization + Pulay DIIS
 Exchange:     0.2220 Hartree-Fock + 1.0000 wB97X-D + LR-HF
 Correlation:  1.0000 wB97X-D
 Using Euler-Maclaurin-Lebedev (75,302) quadrature formula
 Dispersion:   Grimme D
 SCF converges when DIIS error is below 1.0E-05
 Basis2 calculation detected. Using small basis as guess for larger.
 SCFMinFind is unable to tell whether the solution found is close.
 Resetting ReadMinima to 0 and attempting to follow guess.
 SCFMinFind following SCF Guess.
 using 3 threads for integral computing
 -------------------------------------------------------
 OpenMP Integral computing Module                
 Release: version 1.0, May 2013, Q-Chem Inc. Pittsburgh 
 -------------------------------------------------------
 using 3 threads for integral computing
 -------------------------------------------------------
 OpenMP Integral computing Module                
 Release: version 1.0, May 2013, Q-Chem Inc. Pittsburgh 
 -------------------------------------------------------
 ---------------------------------------
  Cycle       Energy         DIIS Error
 ---------------------------------------
    1    -119.1020954425      4.21E-03
    2    -119.1241555461      6.06E-04 Done RCA. Switching to DIIS
    3    -119.1250112988      4.27E-04
    4    -119.1260084543      4.60E-05
    5    -119.1260236295      1.08E-05
    6    -119.1260244065      4.15E-06 Convergence criterion met
 ---------------------------------------
 SCF time:  CPU 51.91 s  wall 17.57 s
 SCF   energy in the final basis set = -119.12602441
 Total energy in the final basis set = -119.12602441
 
 --------------------------------------------------------------
 
                    Orbital Energies (a.u.)
 --------------------------------------------------------------
 
 Alpha MOs
 -- Occupied --
-10.2781 -10.2674 -10.2626  -0.8862  -0.7795  -0.6781  -0.5485  -0.5306
 -0.4835  -0.4651  -0.4172  -0.4069  -0.4050
 -- Virtual --
  0.0688   0.0856   0.0903   0.0986   0.1220   0.1310   0.1328   0.1418
  0.1425   0.1708   0.1722   0.1943   0.2251   0.2387   0.2477   0.2567
  0.2801   0.2827   0.2932   0.3348   0.3392   0.3468   0.4602   0.4659
  0.4702   0.4982   0.5139   0.5172   0.5481   0.5702   0.5814   0.5915
  0.5951   0.6154   0.6412   0.6608   0.6675   0.6741   0.7118   0.7192
  0.7256   0.7742   0.8099   0.8316   0.8656   0.8987   0.9222   0.9661
  0.9963   1.0216   1.0673   1.1302   1.1612   1.1724   1.1872   1.1931
  1.2317   1.2531   1.2570   1.2836   1.2999   1.3096   1.3327   1.3615
  1.3787   1.4029   1.4177   1.4543   1.4601   1.4783   1.4877   1.5137
  1.5329   1.5360   1.5864   1.6329   1.6404   1.6499   1.6718   1.6906
  1.7339   2.3862   2.4331   2.4698   2.5229   2.5348   2.5887   2.6306
  2.6518   2.6883   2.7958   2.8234   2.8724   2.8909   2.9118   2.9301
  2.9501   2.9631   2.9807   3.0278   3.0566   3.0706   3.0814   3.1107
  3.1229   3.1580   3.1693   3.1821   3.2102   3.2599   3.2818   3.2914
  3.3019   3.3285   3.3430   3.3590   3.3716   3.3939   3.4151   3.4406
  3.4655   3.4900   3.5042   3.5349   3.5646   3.5715   3.6023   3.6219
  3.6252   3.6706   3.6777   3.6864   3.7499   3.7950   3.8153   3.8600
  3.8971   3.9347   3.9456   3.9634   4.0000   4.0160   4.0583   4.0674
  4.0809   4.1051   4.1197   4.1445   4.1704   4.1905   4.1994   4.2045
  4.2662   4.2867   4.3300   4.3571   4.3766   4.3885   4.4484   4.4776
  4.5102   4.5834   4.5988   4.6081   4.6587   4.7909   4.8234   4.8837
  4.8998   4.9175   4.9556   4.9779   5.0001   5.0507   5.0981   5.1373
  5.1724   5.2128   5.2319   5.2741   5.2994   5.3269   5.3438   5.3801
  5.3901   5.4003   5.4990   5.5279   5.5593   5.6306   5.7507   5.7648
  5.9934   6.3946   6.4034   6.4298   6.4436   6.4850  25.1874  25.4183
 25.4657
 --------------------------------------------------------------
 
 -----------------------------------------------------------------
                    Cartesian Multipole Moments
 -----------------------------------------------------------------
    Charge (ESU x 10^10)
                 0.0000
    Dipole Moment (Debye)
         X      -0.0937      Y       0.0175      Z      -0.0907
       Tot       0.1316
    Quadrupole Moments (Debye-Ang)
        XX     -22.1026     XY       0.0075     YY     -21.3895
        XZ      -0.0698     YZ      -0.0528     ZZ     -22.0031
    Octopole Moments (Debye-Ang^2)
       XXX       0.5031    XXY       0.2819    XYY      -1.3559
       YYY      -0.1169    XXZ      -1.0590    XYZ      -0.4873
       YYZ       0.4445    XZZ      -1.7967    YZZ      -0.1041
       ZZZ      -0.3824
    Hexadecapole Moments (Debye-Ang^3)
      XXXX    -199.9033   XXXY       2.4239   XXYY     -41.7288
      XYYY       1.8693   YYYY     -44.1894   XXXZ       2.0641
      XXYZ       0.2757   XYYZ       0.7691   YYYZ      -0.1458
      XXZZ     -45.3102   XYZZ       0.9067   YYZZ     -17.2968
      XZZZ       3.4852   YZZZ      -0.2208   ZZZZ     -72.5460
 -----------------------------------------------------------------
Archival summary:
1\1\centos77-c4\SP\ProcedureUnspecified\BasisUnspecified\38\shihchen\TueJul701:27:122020TueJul701:27:122020\0\\#,ProcedureUnspecified,BasisUnspecified,\\0,1\C\H,1,1.09259\H,1,1.09259,2,106.103\C,1,1.49044,2,116.414,3,-125.917,0\H,4,1.08833,1,126.37,2,72.5936,0\H,4,1.09195,1,106.792,2,-57.7711,0\H,4,1.09352,1,99.2193,2,-166.479,0\C,1,1.55765,2,102.288,3,111.194,0\H,8,1.09022,1,121.863,2,-158.79,0\H,8,1.09179,1,114.285,2,65.8848,0\H,8,1.09261,1,96.1788,2,-44.6578,0\\\@

 Total job time:  27.27s(wall), 74.33s(cpu) 
 Tue Jul  7 01:27:12 2020

        *************************************************************
        *                                                           *
        *  Thank you very much for using Q-Chem.  Have a nice day.  *
        *                                                           *
        *************************************************************


