                  Welcome to Q-Chem
     A Quantum Leap Into The Future Of Chemistry


 Q-Chem 5.3 (devel), Q-Chem, Inc., Pleasanton, CA (2020)

 Yihan Shao,  Zhengting Gan,  E. Epifanovsky,  A. T. B. Gilbert,  M. Wormit,  
 J. Kussmann,  A. W. Lange,  A. Behn,  Jia Deng,  Xintian Feng,  D. Ghosh,  
 M. Goldey,  P. R. Horn,  L. D. Jacobson,  I. Kaliman,  T. Kus,  A. Landau,  
 Jie Liu,  E. I. Proynov,  R. M. Richard,  R. P. Steele,  E. J. Sundstrom,  
 H. L. Woodcock III,  P. M. Zimmerman,  D. Zuev,  B. Alam,  B. Albrecht,  
 E. Alguire,  S. A. Baeppler,  D. Barton,  Z. Benda,  Y. A. Bernard,  
 E. J. Berquist,  K. B. Bravaya,  H. Burton,  K. Carter-Fenk,  D. Casanova,  
 Chun-Min Chang,  Yunqing Chen,  A. Chien,  K. D. Closser,  M. P. Coons,  
 S. Coriani,  S. Dasgupta,  A. L. Dempwolff,  M. Diedenhofen,  Hainam Do,  
 R. G. Edgar,  Po-Tung Fang,  S. Faraji,  S. Fatehi,  Qingguo Feng,  
 J. Fosso-Tande,  J. Gayvert,  Qinghui Ge,  A. Ghysels,  G. Gidofalvi,  
 J. Gomes,  J. Gonthier,  A. Gunina,  D. Hait,  M. W. D. Hanson-Heine,  
 P. H. P. Harbach,  A. W. Hauser,  M. F. Herbst,  J. E. Herr,  
 E. G. Hohenstein,  Z. C. Holden,  Kerwin Hui,  B. C. Huynh,  T.-C. Jagau,  
 Hyunjun Ji,  B. Kaduk,  K. Khistyaev,  Jaehoon Kim,  P. Klunzinger,  K. Koh,  
 D. Kosenkov,  L. Koulias,  T. Kowalczyk,  C. M. Krauter,  A. Kunitsa,  
 Ka Un Lao,  A. Laurent,  K. V. Lawler,  Joonho Lee,  D. Lefrancois,  
 S. Lehtola,  D. S. Levine,  Yi-Pei Li,  You-Sheng Lin,  Fenglai Liu,  
 Kuan-Yu Liu,  E. Livshits,  M. Loipersberger,  A. Luenser,  P. Manohar,  
 E. Mansoor,  S. F. Manzer,  Shan-Ping Mao,  Yuezhi Mao,  N. Mardirossian,  
 A. V. Marenich,  T. Markovich,  L. A. Martinez-Martinez,  S. A. Maurer,  
 N. J. Mayhall,  S. C. McKenzie,  J.-M. Mewes,  P. Morgante,  A. F. Morrison,  
 J. W. Mullinax,  K. Nanda,  T. S. Nguyen-Beck,  R. Olivares-Amaya,  
 K. J. Oosterbaan,  J. A. Parkhill,  S. K. Paul,  F. Pavosevic,  Zheng Pei,  
 T. M. Perrine,  F. Plasser,  P. Pokhilko,  S. Prager,  A. Prociuk,  
 E. Ramos,  B. Rana,  D. R. Rehn,  F. Rob,  M. Scheurer,  M. Schneider,  
 N. Sergueev,  S. M. Sharada,  S. Sharma,  D. W. Small,  T. Stauch,  
 C. J. Stein,  T. Stein,  Yu-Chuan Su,  S. P. Veccham,  Zhen Tao,  
 A. J. W. Thom,  A. Tkatchenko,  T. Tsuchimochi,  N. M. Tubman,  L. Vogt,  
 M. L. Vidal,  O. Vydrov,  M. A. Watson,  J. Wenzel,  M. de Wergifosse,  
 T. A. Wesolowski,  A. White,  J. Witte,  A. Yamada,  Jun Yang,  K. Yao,  
 S. Yeganeh,  S. R. Yost,  Zhi-Qiang You,  A. Zech,  Igor Ying Zhang,  
 Xing Zhang,  Yan Zhao,  Ying Zhu,  B. R. Brooks,  G. K. L. Chan,  
 C. J. Cramer,  M. S. Gordon,  W. J. Hehre,  A. Klamt,  M. W. Schmidt,  
 C. D. Sherrill,  D. G. Truhlar,  A. Aspuru-Guzik,  R. Baer,  A. T. Bell,  
 N. A. Besley,  Jeng-Da Chai,  A. E. DePrince, III,  R. A. DiStasio Jr.,  
 A. Dreuw,  B. D. Dunietz,  T. R. Furlani,  Chao-Ping Hsu,  Yousung Jung,  
 Jing Kong,  D. S. Lambrecht,  WanZhen Liang,  C. Ochsenfeld,  
 V. A. Rassolov,  L. V. Slipchenko,  J. E. Subotnik,  T. Van Voorhis,  
 J. M. Herbert,  A. I. Krylov,  P. M. W. Gill,  M. Head-Gordon

 Contributors to earlier versions of Q-Chem not listed above: 
 R. D. Adamson,  B. Austin,  J. Baker,  G. J. O. Beran,  K. Brandhorst,  
 S. T. Brown,  E. F. C. Byrd,  A. K. Chakraborty,  C.-L. Cheng,  
 Siu Hung Chien,  D. M. Chipman,  D. L. Crittenden,  H. Dachsel,  
 R. J. Doerksen,  A. D. Dutoi,  L. Fusti-Molnar,  W. A. Goddard III,  
 A. Golubeva-Zadorozhnaya,  S. R. Gwaltney,  G. Hawkins,  A. Heyden,  
 S. Hirata,  G. Kedziora,  F. J. Keil,  C. Kelley,  Jihan Kim,  R. A. King,  
 R. Z. Khaliullin,  P. P. Korambath,  W. Kurlancheek,  A. M. Lee,  M. S. Lee,  
 S. V. Levchenko,  Ching Yeh Lin,  D. Liotard,  R. C. Lochan,  I. Lotan,  
 P. E. Maslen,  N. Nair,  D. P. O'Neill,  D. Neuhauser,  E. Neuscamman,  
 C. M. Oana,  R. Olson,  B. Peters,  R. Peverati,  P. A. Pieniazek,  
 Y. M. Rhee,  J. Ritchie,  M. A. Rohrdanz,  E. Rosta,  N. J. Russ,  
 H. F. Schaefer III,  N. E. Schultz,  N. Shenvi,  A. C. Simmonett,  A. Sodt,  
 D. Stuck,  K. S. Thanthiriwatte,  V. Vanovschi,  Tao Wang,  A. Warshel,  
 C. F. Williams,  Q. Wu,  X. Xu,  W. Zhang

 Please cite Q-Chem as follows:
 Y. Shao et al., Mol. Phys. 113, 184-215 (2015)
 DOI: 10.1080/00268976.2014.952696

 Q-Chem 5.3.0 for Intel X86 EM64T Linux

 Parts of Q-Chem use Armadillo 9.800.1 (Horizon Scraper).
 http://arma.sourceforge.net/

 Q-Chem begins on Tue Jul  7 02:06:20 2020  

Host: centos77-c4
0

     Scratch files written to /tmp/26964.centos77-h1/qchem108006//
Processing $rem in /opt/qchem-5.3.0-intel2020u1//config/preferences:
Processing $rem in /home/shihchengli/.qchemrc:

Checking the input file for inconsistencies... 	...done.

--------------------------------------------------------------
User input:
--------------------------------------------------------------
$rem
   JOBTYPE  sp
   EXCHANGE   omegaB97X-D
   BASIS   6-311+G(2df,2pd)
   UNRESTRICTED   False
   max_scf_cycles   250
   geom_opt_max_cycles   1500
   basis2 6-31G*
   scf_algorithm rca_diis
   SYM_IGNORE  TRUE
   print_input   true
   geom_opt_dmax   80
   pop_mulliken false
   XC_GRID 000075000302
$end

$molecule
0 1
C       1.2609498752     -0.0195520175     0.2427416969
C       0.0000002698     -0.0042511225     -0.6398989673
H       1.2378799903     -0.9241008524     0.8486114016
H       1.3949541066     0.9164341491     0.7891703600
H       2.1862281690     0.0226119918     -0.3394536782
C       -1.2609493254     -0.0195543732     0.2427419933
H       0.0000013991     -0.9970184737     -1.0787314921
H       -0.0000015964     1.0104788990     -1.0224625931
H       -1.2378727459     -0.9241042959     0.8486090775
H       -2.1862284286     0.0226246427     -0.3394512897
H       -1.3949617744     0.9164321186     0.7891685100
$end
--------------------------------------------------------------
 ----------------------------------------------------------------
             Standard Nuclear Orientation (Angstroms)
    I     Atom           X                Y                Z
 ----------------------------------------------------------------
    1      C       1.2609498752    -0.0195520175     0.2427416969
    2      C       0.0000002698    -0.0042511225    -0.6398989673
    3      H       1.2378799903    -0.9241008524     0.8486114016
    4      H       1.3949541066     0.9164341491     0.7891703600
    5      H       2.1862281690     0.0226119918    -0.3394536782
    6      C      -1.2609493254    -0.0195543732     0.2427419933
    7      H       0.0000013991    -0.9970184737    -1.0787314921
    8      H      -0.0000015964     1.0104788990    -1.0224625931
    9      H      -1.2378727459    -0.9241042959     0.8486090775
   10      H      -2.1862284286     0.0226246427    -0.3394512897
   11      H      -1.3949617744     0.9164321186     0.7891685100
 ----------------------------------------------------------------
 Nuclear Repulsion Energy =          82.79676908 hartrees
 There are       13 alpha and       13 beta electrons
 Requested basis set is 6-311+G(2df,2pd)
 There are 72 shells and 214 basis functions

 Total QAlloc Memory Limit   2000 MB
 Mega-Array Size       188 MB
 MEM_STATIC part       192 MB

                       Distance Matrix (Angstroms)
             C (  1)   C (  2)   H (  3)   H (  4)   H (  5)   C (  6)
   C (  2)  1.539247
   H (  3)  1.088953  2.143393
   H (  4)  1.092068  2.199045  1.848181
   H (  5)  1.094015  2.206939  1.790846  1.642810
   C (  6)  2.521899  1.539248  2.725698  2.868533  3.496250
   H (  7)  2.071647  1.085431  2.291792  3.015999  2.523047  2.071648
   H (  8)  2.061966  1.084450  2.962409  2.288397  2.494390  2.061965
   H (  9)  2.725693  2.143389  2.475753  3.212926  3.745962  1.088953
   H ( 10)  3.496250  2.206941  3.745971  3.859735  4.372457  1.094015
   H ( 11)  2.868539  2.199048  3.212935  2.789916  3.859744  1.092068
             H (  7)   H (  8)   H (  9)   H ( 10)
   H (  8)  2.008286
   H (  9)  2.291788  2.962405
   H ( 10)  2.523055  2.494383  1.790855
   H ( 11)  3.016002  2.288398  1.848184  1.642796
 
 A cutoff of  1.0D-09 yielded   2534 shell pairs
 There are     22532 function pairs (     27701 Cartesian)
 Smallest overlap matrix eigenvalue = 8.48E-05

 Scale SEOQF with 1.000000e-01/1.000000e-01/1.000000e-01

 Standard Electronic Orientation quadrupole field applied
 Nucleus-field energy     =     0.0000000008 hartrees
 Requested basis set is 6-31G(d)
 There are 28 shells and 58 basis functions
 A cutoff of  1.0D-09 yielded    402 shell pairs
 There are      1773 function pairs (      1968 Cartesian)
 Smallest overlap matrix eigenvalue = 6.45E-03
 Guess from superposition of atomic densities
 Warning:  Energy on first SCF cycle will be non-variational
 SAD guess density has 26.000000 electrons
 Long-range K will be added via erf
 Coulomb attenuation parameter = 0.2 bohr**(-1)
 A restricted hybrid HF-DFT SCF calculation will be
 performed using Relaxed Constraint Minimization + Pulay DIIS
 Exchange:     0.2220 Hartree-Fock + 1.0000 wB97X-D + LR-HF
 Correlation:  1.0000 wB97X-D
 Using Euler-Maclaurin-Lebedev (75,302) quadrature formula
 Dispersion:   Grimme D
 SCF converges when DIIS error is below 1.0E-04
 using 3 threads for integral computing
 -------------------------------------------------------
 OpenMP Integral computing Module                
 Release: version 1.0, May 2013, Q-Chem Inc. Pittsburgh 
 -------------------------------------------------------
 using 3 threads for integral computing
 -------------------------------------------------------
 OpenMP Integral computing Module                
 Release: version 1.0, May 2013, Q-Chem Inc. Pittsburgh 
 -------------------------------------------------------
 ---------------------------------------
  Cycle       Energy         DIIS Error
 ---------------------------------------
    1    -119.6167284956      1.00E-01
    2    -119.0350106833      9.25E-03
    3    -119.0575003269      2.57E-03
    4    -119.0720660658      1.76E-03
    5    -119.0728341252      2.99E-04 Done RCA. Switching to DIIS
    6    -119.0733834824      2.17E-04
    7    -119.0734040203      7.35E-06 Convergence criterion met
 ---------------------------------------
 SCF time:  CPU 22.15 s  wall 8.48 s
 SCF   energy in the small basis set = -119.07340402
 Total energy in the small basis set = -119.07340402
 ----------------------------------------------------
  Cycle       Energy    
 ----------------------------------------------------
    1     -16.5344520936     -1.65E+01
 Long-range K will be added via erf
 Coulomb attenuation parameter = 0.2 bohr**(-1)
 A restricted hybrid HF-DFT SCF calculation will be
 performed using Relaxed Constraint Minimization + Pulay DIIS
 Exchange:     0.2220 Hartree-Fock + 1.0000 wB97X-D + LR-HF
 Correlation:  1.0000 wB97X-D
 Using Euler-Maclaurin-Lebedev (75,302) quadrature formula
 Dispersion:   Grimme D
 SCF converges when DIIS error is below 1.0E-05
 Basis2 calculation detected. Using small basis as guess for larger.
 SCFMinFind is unable to tell whether the solution found is close.
 Resetting ReadMinima to 0 and attempting to follow guess.
 SCFMinFind following SCF Guess.
 using 3 threads for integral computing
 -------------------------------------------------------
 OpenMP Integral computing Module                
 Release: version 1.0, May 2013, Q-Chem Inc. Pittsburgh 
 -------------------------------------------------------
 using 3 threads for integral computing
 -------------------------------------------------------
 OpenMP Integral computing Module                
 Release: version 1.0, May 2013, Q-Chem Inc. Pittsburgh 
 -------------------------------------------------------
 ---------------------------------------
  Cycle       Energy         DIIS Error
 ---------------------------------------
    1    -119.0934466938      4.22E-03
    2    -119.1155170053      6.37E-04 Done RCA. Switching to DIIS
    3    -119.1164533037      4.51E-04
    4    -119.1175704479      4.34E-05
    5    -119.1175850324      8.84E-06 Convergence criterion met
 ---------------------------------------
 SCF time:  CPU 43.18 s  wall 14.42 s
 SCF   energy in the final basis set = -119.11758503
 Total energy in the final basis set = -119.11758503
 
 --------------------------------------------------------------
 
                    Orbital Energies (a.u.)
 --------------------------------------------------------------
 
 Alpha MOs
 -- Occupied --
-10.2770 -10.2642 -10.2642  -0.8844  -0.7767  -0.6707  -0.5790  -0.5112
 -0.4813  -0.4647  -0.4289  -0.4125  -0.3833
 -- Virtual --
  0.0707   0.0851   0.0919   0.0944   0.1256   0.1291   0.1303   0.1340
  0.1369   0.1732   0.1754   0.1883   0.2330   0.2382   0.2493   0.2694
  0.2772   0.2850   0.2955   0.3134   0.3319   0.3387   0.4560   0.4685
  0.4723   0.4916   0.5116   0.5183   0.5520   0.5620   0.5862   0.6109
  0.6232   0.6240   0.6274   0.6445   0.6606   0.6786   0.7075   0.7127
  0.7249   0.7757   0.8319   0.8474   0.8689   0.8760   0.8917   0.9302
  1.0047   1.0281   1.0538   1.1263   1.1518   1.1651   1.1835   1.1994
  1.2065   1.2378   1.2623   1.2807   1.3141   1.3272   1.3301   1.3674
  1.3753   1.3894   1.3958   1.4493   1.4633   1.4707   1.4884   1.5059
  1.5189   1.5553   1.5785   1.6205   1.6387   1.6420   1.6733   1.7089
  1.7522   2.3763   2.4528   2.5053   2.5244   2.5890   2.6139   2.6415
  2.6469   2.6876   2.7772   2.8432   2.8688   2.8883   2.9000   2.9287
  2.9351   2.9490   2.9598   3.0235   3.0377   3.0629   3.0914   3.1075
  3.1279   3.1314   3.1594   3.1977   3.2259   3.2439   3.2631   3.2727
  3.2909   3.3166   3.3372   3.3414   3.3936   3.4049   3.4378   3.4569
  3.4840   3.4999   3.5134   3.5427   3.5569   3.5766   3.5892   3.6163
  3.6362   3.6584   3.6905   3.7301   3.7473   3.7571   3.8139   3.8458
  3.8661   3.9190   3.9404   3.9553   3.9648   3.9681   4.0113   4.0196
  4.0486   4.0587   4.1017   4.1269   4.1478   4.1678   4.1835   4.1965
  4.2061   4.2732   4.2975   4.3300   4.3923   4.4259   4.4402   4.4554
  4.4673   4.5720   4.6380   4.6511   4.6771   4.7506   4.8300   4.8591
  4.8918   4.9039   4.9260   4.9306   4.9740   5.0324   5.0638   5.1090
  5.1233   5.1980   5.2000   5.2426   5.2965   5.3389   5.3674   5.4175
  5.4421   5.5091   5.5498   5.5927   5.6052   5.6272   5.7943   5.8150
  6.1300   6.3223   6.3231   6.4358   6.4400   6.5916  25.1772  25.4377
 25.4520
 --------------------------------------------------------------
 
 -----------------------------------------------------------------
                    Cartesian Multipole Moments
 -----------------------------------------------------------------
    Charge (ESU x 10^10)
                -0.0000
    Dipole Moment (Debye)
         X      -0.0000      Y       0.0858      Z      -0.0370
       Tot       0.0935
    Quadrupole Moments (Debye-Ang)
        XX     -22.2445     XY      -0.0000     YY     -20.3532
        XZ      -0.0000     YZ      -0.1336     ZZ     -23.3054
    Octopole Moments (Debye-Ang^2)
       XXX      -0.0000    XXY       1.7976    XYY      -0.0000
       YYY       0.6398    XXZ      -0.8907    XYZ       0.0000
       YYZ       0.4862    XZZ       0.0000    YZZ      -0.1441
       ZZZ       1.6718
    Hexadecapole Moments (Debye-Ang^3)
      XXXX    -202.8978   XXXY      -0.0003   XXYY     -42.1234
      XYYY       0.0000   YYYY     -44.7833   XXXZ      -0.0000
      XXYZ       0.2511   XYYZ       0.0000   YYYZ       0.1644
      XXZZ     -46.1167   XYZZ       0.0000   YYZZ     -17.3856
      XZZZ       0.0000   YZZZ       0.1592   ZZZZ     -72.0990
 -----------------------------------------------------------------
Archival summary:
1\1\centos77-c4\SP\ProcedureUnspecified\BasisUnspecified\38\shihchen\TueJul702:06:452020TueJul702:06:452020\0\\#,ProcedureUnspecified,BasisUnspecified,\\0,1\C\H,1,1.08445\H,1,1.08543,2,135.496\C,1,1.53925,2,102.216,3,123.052,0\H,4,1.08895,1,108.056,2,167.715,0\H,4,1.09207,1,112.267,2,38.7246,0\H,4,1.09402,1,112.787,2,-70.1651,0\C,1,1.53925,2,102.216,3,-123.052,0\H,8,1.08895,1,108.055,2,-167.715,0\H,8,1.09207,1,112.267,2,-38.7244,0\H,8,1.09402,1,112.787,2,70.1641,0\\\@

 Total job time:  25.82s(wall), 68.92s(cpu) 
 Tue Jul  7 02:06:45 2020

        *************************************************************
        *                                                           *
        *  Thank you very much for using Q-Chem.  Have a nice day.  *
        *                                                           *
        *************************************************************


