                  Welcome to Q-Chem
     A Quantum Leap Into The Future Of Chemistry


 Q-Chem 5.3 (devel), Q-Chem, Inc., Pleasanton, CA (2020)

 Yihan Shao,  Zhengting Gan,  E. Epifanovsky,  A. T. B. Gilbert,  M. Wormit,  
 J. Kussmann,  A. W. Lange,  A. Behn,  Jia Deng,  Xintian Feng,  D. Ghosh,  
 M. Goldey,  P. R. Horn,  L. D. Jacobson,  I. Kaliman,  T. Kus,  A. Landau,  
 Jie Liu,  E. I. Proynov,  R. M. Richard,  R. P. Steele,  E. J. Sundstrom,  
 H. L. Woodcock III,  P. M. Zimmerman,  D. Zuev,  B. Alam,  B. Albrecht,  
 E. Alguire,  S. A. Baeppler,  D. Barton,  Z. Benda,  Y. A. Bernard,  
 E. J. Berquist,  K. B. Bravaya,  H. Burton,  K. Carter-Fenk,  D. Casanova,  
 Chun-Min Chang,  Yunqing Chen,  A. Chien,  K. D. Closser,  M. P. Coons,  
 S. Coriani,  S. Dasgupta,  A. L. Dempwolff,  M. Diedenhofen,  Hainam Do,  
 R. G. Edgar,  Po-Tung Fang,  S. Faraji,  S. Fatehi,  Qingguo Feng,  
 J. Fosso-Tande,  J. Gayvert,  Qinghui Ge,  A. Ghysels,  G. Gidofalvi,  
 J. Gomes,  J. Gonthier,  A. Gunina,  D. Hait,  M. W. D. Hanson-Heine,  
 P. H. P. Harbach,  A. W. Hauser,  M. F. Herbst,  J. E. Herr,  
 E. G. Hohenstein,  Z. C. Holden,  Kerwin Hui,  B. C. Huynh,  T.-C. Jagau,  
 Hyunjun Ji,  B. Kaduk,  K. Khistyaev,  Jaehoon Kim,  P. Klunzinger,  K. Koh,  
 D. Kosenkov,  L. Koulias,  T. Kowalczyk,  C. M. Krauter,  A. Kunitsa,  
 Ka Un Lao,  A. Laurent,  K. V. Lawler,  Joonho Lee,  D. Lefrancois,  
 S. Lehtola,  D. S. Levine,  Yi-Pei Li,  You-Sheng Lin,  Fenglai Liu,  
 Kuan-Yu Liu,  E. Livshits,  M. Loipersberger,  A. Luenser,  P. Manohar,  
 E. Mansoor,  S. F. Manzer,  Shan-Ping Mao,  Yuezhi Mao,  N. Mardirossian,  
 A. V. Marenich,  T. Markovich,  L. A. Martinez-Martinez,  S. A. Maurer,  
 N. J. Mayhall,  S. C. McKenzie,  J.-M. Mewes,  P. Morgante,  A. F. Morrison,  
 J. W. Mullinax,  K. Nanda,  T. S. Nguyen-Beck,  R. Olivares-Amaya,  
 K. J. Oosterbaan,  J. A. Parkhill,  S. K. Paul,  F. Pavosevic,  Zheng Pei,  
 T. M. Perrine,  F. Plasser,  P. Pokhilko,  S. Prager,  A. Prociuk,  
 E. Ramos,  B. Rana,  D. R. Rehn,  F. Rob,  M. Scheurer,  M. Schneider,  
 N. Sergueev,  S. M. Sharada,  S. Sharma,  D. W. Small,  T. Stauch,  
 C. J. Stein,  T. Stein,  Yu-Chuan Su,  S. P. Veccham,  Zhen Tao,  
 A. J. W. Thom,  A. Tkatchenko,  T. Tsuchimochi,  N. M. Tubman,  L. Vogt,  
 M. L. Vidal,  O. Vydrov,  M. A. Watson,  J. Wenzel,  M. de Wergifosse,  
 T. A. Wesolowski,  A. White,  J. Witte,  A. Yamada,  Jun Yang,  K. Yao,  
 S. Yeganeh,  S. R. Yost,  Zhi-Qiang You,  A. Zech,  Igor Ying Zhang,  
 Xing Zhang,  Yan Zhao,  Ying Zhu,  B. R. Brooks,  G. K. L. Chan,  
 C. J. Cramer,  M. S. Gordon,  W. J. Hehre,  A. Klamt,  M. W. Schmidt,  
 C. D. Sherrill,  D. G. Truhlar,  A. Aspuru-Guzik,  R. Baer,  A. T. Bell,  
 N. A. Besley,  Jeng-Da Chai,  A. E. DePrince, III,  R. A. DiStasio Jr.,  
 A. Dreuw,  B. D. Dunietz,  T. R. Furlani,  Chao-Ping Hsu,  Yousung Jung,  
 Jing Kong,  D. S. Lambrecht,  WanZhen Liang,  C. Ochsenfeld,  
 V. A. Rassolov,  L. V. Slipchenko,  J. E. Subotnik,  T. Van Voorhis,  
 J. M. Herbert,  A. I. Krylov,  P. M. W. Gill,  M. Head-Gordon

 Contributors to earlier versions of Q-Chem not listed above: 
 R. D. Adamson,  B. Austin,  J. Baker,  G. J. O. Beran,  K. Brandhorst,  
 S. T. Brown,  E. F. C. Byrd,  A. K. Chakraborty,  C.-L. Cheng,  
 Siu Hung Chien,  D. M. Chipman,  D. L. Crittenden,  H. Dachsel,  
 R. J. Doerksen,  A. D. Dutoi,  L. Fusti-Molnar,  W. A. Goddard III,  
 A. Golubeva-Zadorozhnaya,  S. R. Gwaltney,  G. Hawkins,  A. Heyden,  
 S. Hirata,  G. Kedziora,  F. J. Keil,  C. Kelley,  Jihan Kim,  R. A. King,  
 R. Z. Khaliullin,  P. P. Korambath,  W. Kurlancheek,  A. M. Lee,  M. S. Lee,  
 S. V. Levchenko,  Ching Yeh Lin,  D. Liotard,  R. C. Lochan,  I. Lotan,  
 P. E. Maslen,  N. Nair,  D. P. O'Neill,  D. Neuhauser,  E. Neuscamman,  
 C. M. Oana,  R. Olson,  B. Peters,  R. Peverati,  P. A. Pieniazek,  
 Y. M. Rhee,  J. Ritchie,  M. A. Rohrdanz,  E. Rosta,  N. J. Russ,  
 H. F. Schaefer III,  N. E. Schultz,  N. Shenvi,  A. C. Simmonett,  A. Sodt,  
 D. Stuck,  K. S. Thanthiriwatte,  V. Vanovschi,  Tao Wang,  A. Warshel,  
 C. F. Williams,  Q. Wu,  X. Xu,  W. Zhang

 Please cite Q-Chem as follows:
 Y. Shao et al., Mol. Phys. 113, 184-215 (2015)
 DOI: 10.1080/00268976.2014.952696

 Q-Chem 5.3.0 for Intel X86 EM64T Linux

 Parts of Q-Chem use Armadillo 9.800.1 (Horizon Scraper).
 http://arma.sourceforge.net/

 Q-Chem begins on Tue Jul  7 01:44:26 2020  

Host: centos77-c4
0

     Scratch files written to /tmp/26964.centos77-h1/qchem103630//
Processing $rem in /opt/qchem-5.3.0-intel2020u1//config/preferences:
Processing $rem in /home/shihchengli/.qchemrc:

Checking the input file for inconsistencies... 	...done.

--------------------------------------------------------------
User input:
--------------------------------------------------------------
$rem
   JOBTYPE  sp
   EXCHANGE   omegaB97X-D
   BASIS   6-311+G(2df,2pd)
   UNRESTRICTED   False
   max_scf_cycles   250
   geom_opt_max_cycles   1500
   basis2 6-31G*
   scf_algorithm rca_diis
   SYM_IGNORE  TRUE
   print_input   true
   geom_opt_dmax   80
   pop_mulliken false
   XC_GRID 000075000302
$end

$molecule
0 1
C       1.2676095495     -0.0887688726     0.2542970745
C       -0.0036227200     -0.0023949759     -0.5848910330
H       1.3415441765     -0.9381967972     0.9356986749
H       1.2667716877     0.8107425882     0.8746148309
H       2.1604045565     0.0038903807     -0.3645741107
C       -1.2673628750     0.0891171830     0.2590907007
H       0.2537088118     -0.8426686889     -1.2341038195
H       -0.2435959148     0.8377124146     -1.2409315437
H       -1.2743710677     -0.8207416925     0.8633723777
H       -2.1656536137     0.0063594820     -0.3539341390
H       -1.3354326515     0.9449496446     0.9324060062
$end
--------------------------------------------------------------
 ----------------------------------------------------------------
             Standard Nuclear Orientation (Angstroms)
    I     Atom           X                Y                Z
 ----------------------------------------------------------------
    1      C       1.2676095495    -0.0887688726     0.2542970745
    2      C      -0.0036227200    -0.0023949759    -0.5848910330
    3      H       1.3415441765    -0.9381967972     0.9356986749
    4      H       1.2667716877     0.8107425882     0.8746148309
    5      H       2.1604045565     0.0038903807    -0.3645741107
    6      C      -1.2673628750     0.0891171830     0.2590907007
    7      H       0.2537088118    -0.8426686889    -1.2341038195
    8      H      -0.2435959148     0.8377124146    -1.2409315437
    9      H      -1.2743710677    -0.8207416925     0.8633723777
   10      H      -2.1656536137     0.0063594820    -0.3539341390
   11      H      -1.3354326515     0.9449496446     0.9324060062
 ----------------------------------------------------------------
 Nuclear Repulsion Energy =          82.82273313 hartrees
 There are       13 alpha and       13 beta electrons
 Requested basis set is 6-311+G(2df,2pd)
 There are 72 shells and 214 basis functions

 Total QAlloc Memory Limit   2000 MB
 Mega-Array Size       188 MB
 MEM_STATIC part       192 MB

                       Distance Matrix (Angstroms)
             C (  1)   C (  2)   H (  3)   H (  4)   H (  5)   C (  6)
   C (  2)  1.525690
   H (  3)  1.091468  2.235485
   H (  4)  1.092664  2.098869  1.751602
   H (  5)  1.090262  2.175223  1.802434  1.727767
   C (  6)  2.541211  1.522406  2.884366  2.705818  3.485084
   H (  7)  1.952357  1.092592  2.429106  2.864744  2.260140  2.326266
   H (  8)  2.319012  1.092592  3.225561  2.599514  2.691186  1.964322
   H (  9)  2.714484  2.093313  2.619549  3.019814  3.739726  1.092268
   H ( 10)  3.488021  2.174349  3.854319  3.733351  4.326072  1.090676
   H ( 11)  2.881707  2.230105  3.272989  2.606304  3.845598  1.091071
             H (  7)   H (  8)   H (  9)   H ( 10)
   H (  8)  1.752438
   H (  9)  2.595172  2.870725
   H ( 10)  2.710878  2.274251  1.720557
   H ( 11)  3.227184  2.434544  1.768095  1.795798
 
 A cutoff of  1.0D-09 yielded   2533 shell pairs
 There are     22519 function pairs (     27682 Cartesian)
 Smallest overlap matrix eigenvalue = 1.08E-04

 Scale SEOQF with 1.000000e-01/1.000000e-01/1.000000e-01

 Standard Electronic Orientation quadrupole field applied
 Nucleus-field energy     =     0.0000000006 hartrees
 Requested basis set is 6-31G(d)
 There are 28 shells and 58 basis functions
 A cutoff of  1.0D-09 yielded    402 shell pairs
 There are      1773 function pairs (      1968 Cartesian)
 Smallest overlap matrix eigenvalue = 7.22E-03
 Guess from superposition of atomic densities
 Warning:  Energy on first SCF cycle will be non-variational
 SAD guess density has 26.000000 electrons
 Long-range K will be added via erf
 Coulomb attenuation parameter = 0.2 bohr**(-1)
 A restricted hybrid HF-DFT SCF calculation will be
 performed using Relaxed Constraint Minimization + Pulay DIIS
 Exchange:     0.2220 Hartree-Fock + 1.0000 wB97X-D + LR-HF
 Correlation:  1.0000 wB97X-D
 Using Euler-Maclaurin-Lebedev (75,302) quadrature formula
 Dispersion:   Grimme D
 SCF converges when DIIS error is below 1.0E-04
 using 3 threads for integral computing
 -------------------------------------------------------
 OpenMP Integral computing Module                
 Release: version 1.0, May 2013, Q-Chem Inc. Pittsburgh 
 -------------------------------------------------------
 using 3 threads for integral computing
 -------------------------------------------------------
 OpenMP Integral computing Module                
 Release: version 1.0, May 2013, Q-Chem Inc. Pittsburgh 
 -------------------------------------------------------
 ---------------------------------------
  Cycle       Energy         DIIS Error
 ---------------------------------------
    1    -119.6387928049      1.01E-01
    2    -119.0385558954      9.01E-03
    3    -119.0597961473      2.52E-03
    4    -119.0736960335      1.73E-03
    5    -119.0744354830      2.76E-04 Done RCA. Switching to DIIS
    6    -119.0749790688      2.04E-04
    7    -119.0749971721      5.52E-06 Convergence criterion met
 ---------------------------------------
 SCF time:  CPU 19.17 s  wall 6.97 s
 SCF   energy in the small basis set = -119.07499717
 Total energy in the small basis set = -119.07499717
 ----------------------------------------------------
  Cycle       Energy    
 ----------------------------------------------------
    1     -16.5390218036     -1.65E+01
 Long-range K will be added via erf
 Coulomb attenuation parameter = 0.2 bohr**(-1)
 A restricted hybrid HF-DFT SCF calculation will be
 performed using Relaxed Constraint Minimization + Pulay DIIS
 Exchange:     0.2220 Hartree-Fock + 1.0000 wB97X-D + LR-HF
 Correlation:  1.0000 wB97X-D
 Using Euler-Maclaurin-Lebedev (75,302) quadrature formula
 Dispersion:   Grimme D
 SCF converges when DIIS error is below 1.0E-05
 Basis2 calculation detected. Using small basis as guess for larger.
 SCFMinFind is unable to tell whether the solution found is close.
 Resetting ReadMinima to 0 and attempting to follow guess.
 SCFMinFind following SCF Guess.
 using 3 threads for integral computing
 -------------------------------------------------------
 OpenMP Integral computing Module                
 Release: version 1.0, May 2013, Q-Chem Inc. Pittsburgh 
 -------------------------------------------------------
 using 3 threads for integral computing
 -------------------------------------------------------
 OpenMP Integral computing Module                
 Release: version 1.0, May 2013, Q-Chem Inc. Pittsburgh 
 -------------------------------------------------------
 ---------------------------------------
  Cycle       Energy         DIIS Error
 ---------------------------------------
    1    -119.0948785994      4.21E-03
    2    -119.1169893670      6.14E-04 Done RCA. Switching to DIIS
    3    -119.1178577697      4.35E-04
    4    -119.1188972269      4.63E-05
    5    -119.1189127377      1.11E-05
    6    -119.1189135570      4.23E-06 Convergence criterion met
 ---------------------------------------
 SCF time:  CPU 50.46 s  wall 17.03 s
 SCF   energy in the final basis set = -119.11891356
 Total energy in the final basis set = -119.11891356
 
 --------------------------------------------------------------
 
                    Orbital Energies (a.u.)
 --------------------------------------------------------------
 
 Alpha MOs
 -- Occupied --
-10.2737 -10.2670 -10.2668  -0.8842  -0.7809  -0.6779  -0.5480  -0.5262
 -0.4954  -0.4691  -0.4311  -0.4097  -0.3748
 -- Virtual --
  0.0688   0.0847   0.0906   0.0992   0.1246   0.1273   0.1314   0.1432
  0.1466   0.1681   0.1762   0.1915   0.2296   0.2307   0.2417   0.2439
  0.2825   0.2871   0.3132   0.3192   0.3286   0.3453   0.4585   0.4700
  0.4744   0.5049   0.5214   0.5219   0.5511   0.5561   0.5834   0.5970
  0.6121   0.6167   0.6413   0.6448   0.6529   0.6942   0.7051   0.7127
  0.7243   0.7732   0.7964   0.8268   0.8534   0.8946   0.9107   0.9654
  1.0039   1.0443   1.0591   1.1208   1.1296   1.1512   1.1814   1.2161
  1.2188   1.2360   1.2747   1.2827   1.3193   1.3325   1.3445   1.3718
  1.3838   1.3964   1.4096   1.4278   1.4464   1.4693   1.4794   1.4930
  1.5261   1.5692   1.5996   1.6123   1.6386   1.6457   1.6772   1.7265
  1.7278   2.3938   2.4501   2.4834   2.4864   2.5226   2.5737   2.6087
  2.6630   2.7121   2.7823   2.7969   2.8481   2.8545   2.9195   2.9276
  2.9323   3.0001   3.0298   3.0412   3.0421   3.0605   3.0876   3.0998
  3.1156   3.1226   3.1669   3.1800   3.2491   3.2800   3.3084   3.3136
  3.3208   3.3295   3.3379   3.3492   3.3732   3.4178   3.4242   3.4333
  3.4688   3.4963   3.5400   3.5439   3.5763   3.5763   3.6166   3.6275
  3.6395   3.6532   3.6726   3.6753   3.7222   3.7414   3.7769   3.8497
  3.8548   3.9050   3.9253   3.9425   3.9701   4.0086   4.0370   4.0693
  4.0822   4.0998   4.1216   4.1519   4.1657   4.1906   4.1935   4.2225
  4.2240   4.2297   4.2777   4.3290   4.3623   4.3894   4.4372   4.4654
  4.4692   4.5135   4.6121   4.6402   4.7672   4.7987   4.8228   4.8667
  4.9615   4.9651   4.9986   5.0007   5.0470   5.0578   5.0831   5.1228
  5.1998   5.2055   5.2313   5.2472   5.2885   5.3171   5.3376   5.3441
  5.3942   5.4207   5.4831   5.4944   5.5364   5.6037   5.6452   5.7429
  6.0312   6.3685   6.3755   6.3975   6.4340   6.4852  25.1961  25.4313
 25.4423
 --------------------------------------------------------------
 
 -----------------------------------------------------------------
                    Cartesian Multipole Moments
 -----------------------------------------------------------------
    Charge (ESU x 10^10)
                -0.0000
    Dipole Moment (Debye)
         X      -0.0034      Y       0.0020      Z      -0.0446
       Tot       0.0448
    Quadrupole Moments (Debye-Ang)
        XX     -21.9964     XY      -0.6891     YY     -21.5327
        XZ      -0.0216     YZ      -0.0075     ZZ     -21.9773
    Octopole Moments (Debye-Ang^2)
       XXX      -0.0148    XXY       0.0108    XYY      -0.0481
       YYY       0.0366    XXZ      -1.7385    XYZ      -0.1929
       YYZ       0.8183    XZZ       0.0865    YZZ       0.0303
       ZZZ      -0.1230
    Hexadecapole Moments (Debye-Ang^3)
      XXXX    -202.6686   XXXY       5.2040   XXYY     -42.1133
      XYYY       4.4332   YYYY     -44.6898   XXXZ       0.0085
      XXYZ      -0.0332   XYYZ      -0.0298   YYYZ      -0.0399
      XXZZ     -45.0902   XYZZ      -0.0650   YYZZ     -17.4555
      XZZZ       0.1121   YZZZ      -0.0686   ZZZZ     -72.5839
 -----------------------------------------------------------------
Archival summary:
1\1\centos77-c4\SP\ProcedureUnspecified\BasisUnspecified\38\shihchen\TueJul701:44:522020TueJul701:44:522020\0\\#,ProcedureUnspecified,BasisUnspecified,\\0,1\C\H,1,1.09259\H,1,1.09259,2,106.636\C,1,1.52241,2,124.83,3,109.911,0\H,4,1.09068,1,111.563,2,-57.6709,0\H,4,1.09107,1,116.171,2,174.049,0\H,4,1.09227,1,105.186,2,54.5021,0\C,1,1.52569,2,94.9938,3,-127.55,0\H,8,1.09026,1,111.424,2,57.6234,0\H,8,1.09147,1,116.352,2,-71.574,0\H,8,1.09266,1,105.368,2,170.554,0\\\@

 Total job time:  26.92s(wall), 73.22s(cpu) 
 Tue Jul  7 01:44:52 2020

        *************************************************************
        *                                                           *
        *  Thank you very much for using Q-Chem.  Have a nice day.  *
        *                                                           *
        *************************************************************


