                  Welcome to Q-Chem
     A Quantum Leap Into The Future Of Chemistry


 Q-Chem 5.2 (devel), Q-Chem, Inc., Pleasanton, CA (2019)

 Yihan Shao,  Zhengting Gan,  E. Epifanovsky,  A. T. B. Gilbert,  M. Wormit,  
 J. Kussmann,  A. W. Lange,  A. Behn,  Jia Deng,  Xintian Feng,  D. Ghosh,  
 M. Goldey,  P. R. Horn,  L. D. Jacobson,  I. Kaliman,  T. Kus,  A. Landau,  
 Jie Liu,  E. I. Proynov,  R. M. Richard,  R. P. Steele,  E. J. Sundstrom,  
 H. L. Woodcock III,  P. M. Zimmerman,  D. Zuev,  B. Alam,  B. Albrecht,  
 E. Alguire,  S. A. Baeppler,  D. Barton,  Z. Benda,  Y. A. Bernard,  
 E. J. Berquist,  K. B. Bravaya,  H. Burton,  K. Carter-Fenk,  D. Casanova,  
 Chun-Min Chang,  Yunqing Chen,  A. Chien,  K. D. Closser,  M. P. Coons,  
 S. Coriani,  S. Dasgupta,  A. L. Dempwolff,  M. Diedenhofen,  Hainam Do,  
 R. G. Edgar,  Po-Tung Fang,  S. Faraji,  S. Fatehi,  Qingguo Feng,  
 J. Fosso-Tande,  J. Gayvert,  Qinghui Ge,  A. Ghysels,  G. Gidofalvi,  
 J. Gomes,  J. Gonthier,  A. Gunina,  D. Hait,  M. W. D. Hanson-Heine,  
 P. H. P. Harbach,  A. W. Hauser,  M. F. Herbst,  J. E. Herr,  
 E. G. Hohenstein,  Z. C. Holden,  Kerwin Hui,  B. C. Huynh,  T.-C. Jagau,  
 Hyunjun Ji,  B. Kaduk,  K. Khistyaev,  Jaehoon Kim,  P. Klunzinger,  K. Koh,  
 D. Kosenkov,  L. Koulias,  T. Kowalczyk,  C. M. Krauter,  A. Kunitsa,  
 Ka Un Lao,  A. Laurent,  K. V. Lawler,  Joonho Lee,  D. Lefrancois,  
 S. Lehtola,  D. S. Levine,  Yi-Pei Li,  You-Sheng Lin,  Fenglai Liu,  
 Kuan-Yu Liu,  E. Livshits,  M. Loipersberger,  A. Luenser,  P. Manohar,  
 E. Mansoor,  S. F. Manzer,  Shan-Ping Mao,  Yuezhi Mao,  N. Mardirossian,  
 A. V. Marenich,  T. Markovich,  L. A. Martinez-Martinez,  S. A. Maurer,  
 N. J. Mayhall,  S. C. McKenzie,  J.-M. Mewes,  P. Morgante,  A. F. Morrison,  
 J. W. Mullinax,  K. Nanda,  T. S. Nguyen-Beck,  R. Olivares-Amaya,  
 J. A. Parkhill,  S. K. Paul,  Zheng Pei,  T. M. Perrine,  F. Plasser,  
 P. Pokhilko,  S. Prager,  A. Prociuk,  E. Ramos,  B. Rana,  D. R. Rehn,  
 F. Rob,  M. Scheurer,  M. Schneider,  N. Sergueev,  S. M. Sharada,  
 S. Sharma,  D. W. Small,  T. Stauch,  C. J. Stein,  T. Stein,  Yu-Chuan Su,  
 S. P. Veccham,  A. J. W. Thom,  A. Tkatchenko,  T. Tsuchimochi,  
 N. M. Tubman,  L. Vogt,  M. L. Vidal,  O. Vydrov,  M. A. Watson,  J. Wenzel,  
 M. de Wergifosse,  T. A. Wesolowski,  A. White,  J. Witte,  A. Yamada,  
 Jun Yang,  K. Yao,  S. Yeganeh,  S. R. Yost,  Zhi-Qiang You,  A. Zech,  
 Igor Ying Zhang,  Xing Zhang,  Yan Zhao,  Ying Zhu,  B. R. Brooks,  
 G. K. L. Chan,  C. J. Cramer,  M. S. Gordon,  W. J. Hehre,  A. Klamt,  
 M. W. Schmidt,  C. D. Sherrill,  D. G. Truhlar,  A. Aspuru-Guzik,  R. Baer,  
 A. T. Bell,  N. A. Besley,  Jeng-Da Chai,  A. E. DePrince, III,  
 R. A. DiStasio Jr.,  A. Dreuw,  B. D. Dunietz,  T. R. Furlani,  
 Chao-Ping Hsu,  Yousung Jung,  Jing Kong,  D. S. Lambrecht,  WanZhen Liang,  
 C. Ochsenfeld,  V. A. Rassolov,  L. V. Slipchenko,  J. E. Subotnik,  
 T. Van Voorhis,  J. M. Herbert,  A. I. Krylov,  P. M. W. Gill,  M. Head-Gordon

 Contributors to earlier versions of Q-Chem not listed above: 
 R. D. Adamson,  B. Austin,  J. Baker,  G. J. O. Beran,  K. Brandhorst,  
 S. T. Brown,  E. F. C. Byrd,  A. K. Chakraborty,  C.-L. Cheng,  
 Siu Hung Chien,  D. M. Chipman,  D. L. Crittenden,  H. Dachsel,  
 R. J. Doerksen,  A. D. Dutoi,  L. Fusti-Molnar,  W. A. Goddard III,  
 A. Golubeva-Zadorozhnaya,  S. R. Gwaltney,  G. Hawkins,  A. Heyden,  
 S. Hirata,  G. Kedziora,  F. J. Keil,  C. Kelley,  Jihan Kim,  R. A. King,  
 R. Z. Khaliullin,  P. P. Korambath,  W. Kurlancheek,  A. M. Lee,  M. S. Lee,  
 S. V. Levchenko,  Ching Yeh Lin,  D. Liotard,  R. C. Lochan,  I. Lotan,  
 P. E. Maslen,  N. Nair,  D. P. O'Neill,  D. Neuhauser,  E. Neuscamman,  
 C. M. Oana,  R. Olson,  B. Peters,  R. Peverati,  P. A. Pieniazek,  
 Y. M. Rhee,  J. Ritchie,  M. A. Rohrdanz,  E. Rosta,  N. J. Russ,  
 H. F. Schaefer III,  N. E. Schultz,  N. Shenvi,  A. C. Simmonett,  A. Sodt,  
 D. Stuck,  K. S. Thanthiriwatte,  V. Vanovschi,  Tao Wang,  A. Warshel,  
 C. F. Williams,  Q. Wu,  X. Xu,  W. Zhang

 Please cite Q-Chem as follows:
 Y. Shao et al., Mol. Phys. 113, 184-215 (2015)
 DOI: 10.1080/00268976.2014.952696

 Q-Chem 5.2.2 for Intel X86 EM64T Linux

 Parts of Q-Chem use Armadillo 9.800.1 (Horizon Scraper).
 http://arma.sourceforge.net/

 Q-Chem begins on Sun Apr 12 07:40:36 2020  

Host: cn0821
0

     Scratch files written to /tmp/ypli/6721342.srvc1/qchem189339//
Warning:  Did not find "$end" marker in "$molecule" section

Checking the input file for inconsistencies... 	...done.

--------------------------------------------------------------
User input:
--------------------------------------------------------------
$rem
   JOBTYPE  sp
   EXCHANGE   omegaB97X-D
   BASIS   6-311+G(2df,2pd)
   max_scf_cycles   250
   geom_opt_max_cycles   1500
   basis2 6-31G*
   scf_algorithm rca_diis
   SYM_IGNORE  TRUE
   print_input   true
   geom_opt_dmax   80
   pop_mulliken false
   XC_GRID 000075000302
$end

$molecule
0 1
C       1.3116798018     -0.0294793401     0.2205673514
C       0.0307585842     -0.0048179593     -0.5829719654
H       1.2276235789     -0.7077566681     1.0718978389
H       1.4074713461     0.7103501881     1.0287620191
H       2.1137102447     0.1118217396     -0.4941831967
C       -1.2210504977     0.0145402548     0.3065633040
H       -0.0572632938     -0.8742149964     -1.2388357180
H       0.0207576549     0.8712869956     -1.2357327228
H       -1.4180789040     -0.9853612049     0.6987806126
H       -2.1915789077     -0.1066181531     -0.1910793698
H       -1.2240296680     1.0002498100     0.7572768655
--------------------------------------------------------------
 ----------------------------------------------------------------
             Standard Nuclear Orientation (Angstroms)
    I     Atom           X                Y                Z
 ----------------------------------------------------------------
    1      C       1.3116798018    -0.0294793401     0.2205673514
    2      C       0.0307585842    -0.0048179593    -0.5829719654
    3      H       1.2276235789    -0.7077566681     1.0718978389
    4      H       1.4074713461     0.7103501881     1.0287620191
    5      H       2.1137102447     0.1118217396    -0.4941831967
    6      C      -1.2210504977     0.0145402548     0.3065633040
    7      H      -0.0572632938    -0.8742149964    -1.2388357180
    8      H       0.0207576549     0.8712869956    -1.2357327228
    9      H      -1.4180789040    -0.9853612049     0.6987806126
   10      H      -2.1915789077    -0.1066181531    -0.1910793698
   11      H      -1.2240296680     1.0002498100     0.7572768655
 ----------------------------------------------------------------
 Nuclear Repulsion Energy =          82.81944109 hartrees
 There are       13 alpha and       13 beta electrons
 Requested basis set is 6-311+G(2df,2pd)
 There are 72 shells and 214 basis functions

 Total QAlloc Memory Limit   2000 MB
 Mega-Array Size       188 MB
 MEM_STATIC part       192 MB

                       Distance Matrix (Angstroms)
             C (  1)   C (  2)   H (  3)   H (  4)   H (  5)   C (  6)
   C (  2)  1.512297
   H (  3)  1.091737  2.159908
   H (  4)  1.099865  2.237072  1.430116
   H (  5)  1.083553  2.088103  1.977238  1.782238
   C (  6)  2.534572  1.535797  2.665231  2.813334  3.430931
   H (  7)  2.171967  1.092592  2.649176  3.130223  2.497980  2.128977
   H (  8)  2.144451  1.092592  3.045499  2.660228  2.346728  2.157494
   H (  9)  2.931549  2.168752  2.686266  3.311806  3.885937  1.091997
   H ( 10)  3.528204  2.258922  3.694242  3.886980  4.321470  1.097385
   H ( 11)  2.788946  2.093065  3.004476  2.661305  3.673685  1.083870
             H (  7)   H (  8)   H (  9)   H ( 10)
   H (  8)  1.747248
   H (  9)  2.370344  3.042981
   H ( 10)  2.498460  2.634774  1.470491
   H ( 11)  2.976479  2.353341  1.995928  1.749482
 
 A cutoff of  1.0D-09 yielded   2532 shell pairs
 There are     22541 function pairs (     27716 Cartesian)
 Smallest overlap matrix eigenvalue = 8.34E-05

 Scale SEOQF with 1.000000e-01/1.000000e-01/1.000000e-01

 Standard Electronic Orientation quadrupole field applied
 Nucleus-field energy     =     0.0000000006 hartrees
 Requested basis set is 6-31G(d)
 There are 28 shells and 58 basis functions
 A cutoff of  1.0D-09 yielded    402 shell pairs
 There are      1773 function pairs (      1968 Cartesian)
 Smallest overlap matrix eigenvalue = 6.81E-03
 Guess from superposition of atomic densities
 Warning:  Energy on first SCF cycle will be non-variational
 SAD guess density has 26.000000 electrons
 Long-range K will be added via erf
 Coulomb attenuation parameter = 0.2 bohr**(-1)
 A restricted hybrid HF-DFT SCF calculation will be
 performed using Relaxed Constraint Minimization + Pulay DIIS
 Exchange:     0.2220 Hartree-Fock + 1.0000 wB97X-D + LR-HF
 Correlation:  1.0000 wB97X-D
 Using Euler-Maclaurin-Lebedev (75,302) quadrature formula
 Dispersion:   Grimme D
 SCF converges when DIIS error is below 1.0E-04
 using 3 threads for integral computing
 -------------------------------------------------------
 OpenMP Integral computing Module                
 Release: version 1.0, May 2013, Q-Chem Inc. Pittsburgh 
 -------------------------------------------------------
 using 3 threads for integral computing
 -------------------------------------------------------
 OpenMP Integral computing Module                
 Release: version 1.0, May 2013, Q-Chem Inc. Pittsburgh 
 -------------------------------------------------------
 ---------------------------------------
  Cycle       Energy         DIIS Error
 ---------------------------------------
    1    -119.6484562246      1.01E-01
    2    -119.0052122958      9.47E-03
    3    -119.0286878864      2.57E-03
    4    -119.0446258765      1.76E-03
    5    -119.0453951363      2.80E-04 Done RCA. Switching to DIIS
    6    -119.0459739032      2.03E-04
    7    -119.0459922961      7.82E-06 Convergence criterion met
 ---------------------------------------
 SCF time:  CPU 32.21 s  wall 11.08 s
 SCF   energy in the small basis set = -119.04599230
 Total energy in the small basis set = -119.04599230
 ----------------------------------------------------
  Cycle       Energy    
 ----------------------------------------------------
    1     -16.5321592602     -1.65E+01
 Long-range K will be added via erf
 Coulomb attenuation parameter = 0.2 bohr**(-1)
 A restricted hybrid HF-DFT SCF calculation will be
 performed using Relaxed Constraint Minimization + Pulay DIIS
 Exchange:     0.2220 Hartree-Fock + 1.0000 wB97X-D + LR-HF
 Correlation:  1.0000 wB97X-D
 Using Euler-Maclaurin-Lebedev (75,302) quadrature formula
 Dispersion:   Grimme D
 SCF converges when DIIS error is below 1.0E-05
 Basis2 calculation detected. Using small basis as guess for larger.
 SCFMinFind is unable to tell whether the solution found is close.
 Resetting ReadMinima to 0 and attempting to follow guess.
 SCFMinFind following SCF Guess.
 using 3 threads for integral computing
 -------------------------------------------------------
 OpenMP Integral computing Module                
 Release: version 1.0, May 2013, Q-Chem Inc. Pittsburgh 
 -------------------------------------------------------
 using 3 threads for integral computing
 -------------------------------------------------------
 OpenMP Integral computing Module                
 Release: version 1.0, May 2013, Q-Chem Inc. Pittsburgh 
 -------------------------------------------------------
 ---------------------------------------
  Cycle       Energy         DIIS Error
 ---------------------------------------
    1    -119.0681684749      4.21E-03
    2    -119.0900804121      6.45E-04 Done RCA. Switching to DIIS
    3    -119.0909930091      4.66E-04
    4    -119.0921880105      4.75E-05
    5    -119.0922048608      1.09E-05
    6    -119.0922057798      4.11E-06 Convergence criterion met
 ---------------------------------------
 SCF time:  CPU 95.65 s  wall 32.35 s
 SCF   energy in the final basis set = -119.09220578
 Total energy in the final basis set = -119.09220578
 
 --------------------------------------------------------------
 
                    Orbital Energies (a.u.)
 --------------------------------------------------------------
 
 Alpha MOs
 -- Occupied --
-10.2745 -10.2666 -10.2657  -0.8840  -0.7842  -0.6845  -0.5586  -0.5440
 -0.4886  -0.4565  -0.4258  -0.3912  -0.3780
 -- Virtual --
  0.0685   0.0845   0.0891   0.0978   0.1193   0.1300   0.1330   0.1402
  0.1432   0.1648   0.1753   0.1925   0.2112   0.2379   0.2569   0.2638
  0.2688   0.2902   0.2955   0.3178   0.3292   0.3419   0.4571   0.4741
  0.4835   0.5020   0.5150   0.5295   0.5495   0.5650   0.5746   0.6067
  0.6198   0.6301   0.6388   0.6449   0.6593   0.6762   0.7021   0.7121
  0.7335   0.7695   0.7969   0.8392   0.8652   0.8716   0.9140   0.9278
  0.9800   1.0382   1.0667   1.1070   1.1379   1.1477   1.2024   1.2201
  1.2488   1.2640   1.2729   1.2784   1.2976   1.3039   1.3540   1.3632
  1.3808   1.3931   1.4169   1.4349   1.4667   1.4717   1.4730   1.5095
  1.5307   1.5491   1.6019   1.6063   1.6496   1.6608   1.6744   1.7240
  1.7884   2.4001   2.4800   2.4893   2.5104   2.5722   2.5878   2.6259
  2.6310   2.7263   2.7601   2.7787   2.8231   2.8397   2.8984   2.9171
  2.9232   2.9307   2.9718   2.9944   3.0236   3.0689   3.0876   3.1043
  3.1357   3.1486   3.1753   3.2129   3.2262   3.2431   3.2656   3.2744
  3.2910   3.3184   3.3405   3.3579   3.3825   3.4158   3.4522   3.4710
  3.4977   3.5105   3.5279   3.5536   3.5721   3.5988   3.6023   3.6234
  3.6293   3.6513   3.7122   3.7247   3.7576   3.7610   3.7824   3.7971
  3.8364   3.8873   3.9240   3.9425   3.9661   3.9796   4.0246   4.0421
  4.0542   4.0673   4.0747   4.1278   4.1492   4.1766   4.2087   4.2327
  4.2519   4.2871   4.3427   4.3514   4.3879   4.3962   4.3989   4.4319
  4.5349   4.5477   4.5992   4.6401   4.6719   4.7219   4.7446   4.8292
  4.8565   4.8911   4.9167   4.9548   4.9930   5.0422   5.0708   5.1347
  5.1714   5.2190   5.2476   5.2996   5.3077   5.3569   5.3806   5.4224
  5.4724   5.5287   5.6043   5.6416   5.7237   5.7824   5.8089   5.8741
  5.9987   6.3520   6.3822   6.4460   6.4599   6.4998  25.1950  25.4151
 25.4556
 --------------------------------------------------------------
 
 -----------------------------------------------------------------
                    Cartesian Multipole Moments
 -----------------------------------------------------------------
    Charge (ESU x 10^10)
                 0.0000
    Dipole Moment (Debye)
         X      -0.1914      Y       0.0337      Z      -0.0717
       Tot       0.2071
    Quadrupole Moments (Debye-Ang)
        XX     -22.0787     XY       1.0224     YY     -21.6553
        XZ       0.0734     YZ       0.0546     ZZ     -21.8971
    Octopole Moments (Debye-Ang^2)
       XXX      -3.4467    XXY      -0.2124    XYY      -2.9364
       YYY       0.5152    XXZ      -1.1786    XYZ      -0.3257
       YYZ      -0.1756    XZZ       1.9246    YZZ       0.2097
       ZZZ      -0.4636
    Hexadecapole Moments (Debye-Ang^3)
      XXXX    -203.8949   XXXY       5.0871   XXYY     -42.5297
      XYYY      -0.1571   YYYY     -44.3997   XXXZ      -1.8214
      XXYZ      -0.1730   XYYZ      -0.6016   YYYZ       0.2907
      XXZZ     -45.3797   XYZZ      -0.0837   YYZZ     -18.0758
      XZZZ       3.7804   YZZZ       0.0348   ZZZZ     -72.3329
 -----------------------------------------------------------------
Archival summary:
1\1\cn0821\SP\ProcedureUnspecified\BasisUnspecified\38\r0852400\SunApr1207:41:242020SunApr1207:41:242020\0\\#,ProcedureUnspecified,BasisUnspecified,\\0,1\C\H,1,1.09259\H,1,1.09259,2,106.182\C,1,1.5123,2,111.976,3,-119.796,0\H,4,1.08355,1,105.922,2,67.9193,0\H,4,1.09174,1,111.054,2,-78.8801,0\H,4,1.09986,1,116.951,2,-169.874,0\C,1,1.5358,2,106.981,3,116.502,0\H,8,1.08387,1,104.747,2,-166.333,0\H,8,1.092,1,110.094,2,45.6493,0\H,8,1.09738,1,117.182,2,-48.4111,0\\\@

 Total job time:  47.61s(wall), 132.94s(cpu) 
 Sun Apr 12 07:41:24 2020

        *************************************************************
        *                                                           *
        *  Thank you very much for using Q-Chem.  Have a nice day.  *
        *                                                           *
        *************************************************************


