                  Welcome to Q-Chem
     A Quantum Leap Into The Future Of Chemistry


 Q-Chem 5.3 (devel), Q-Chem, Inc., Pleasanton, CA (2020)

 Yihan Shao,  Zhengting Gan,  E. Epifanovsky,  A. T. B. Gilbert,  M. Wormit,  
 J. Kussmann,  A. W. Lange,  A. Behn,  Jia Deng,  Xintian Feng,  D. Ghosh,  
 M. Goldey,  P. R. Horn,  L. D. Jacobson,  I. Kaliman,  T. Kus,  A. Landau,  
 Jie Liu,  E. I. Proynov,  R. M. Richard,  R. P. Steele,  E. J. Sundstrom,  
 H. L. Woodcock III,  P. M. Zimmerman,  D. Zuev,  B. Alam,  B. Albrecht,  
 E. Alguire,  S. A. Baeppler,  D. Barton,  Z. Benda,  Y. A. Bernard,  
 E. J. Berquist,  K. B. Bravaya,  H. Burton,  K. Carter-Fenk,  D. Casanova,  
 Chun-Min Chang,  Yunqing Chen,  A. Chien,  K. D. Closser,  M. P. Coons,  
 S. Coriani,  S. Dasgupta,  A. L. Dempwolff,  M. Diedenhofen,  Hainam Do,  
 R. G. Edgar,  Po-Tung Fang,  S. Faraji,  S. Fatehi,  Qingguo Feng,  
 J. Fosso-Tande,  J. Gayvert,  Qinghui Ge,  A. Ghysels,  G. Gidofalvi,  
 J. Gomes,  J. Gonthier,  A. Gunina,  D. Hait,  M. W. D. Hanson-Heine,  
 P. H. P. Harbach,  A. W. Hauser,  M. F. Herbst,  J. E. Herr,  
 E. G. Hohenstein,  Z. C. Holden,  Kerwin Hui,  B. C. Huynh,  T.-C. Jagau,  
 Hyunjun Ji,  B. Kaduk,  K. Khistyaev,  Jaehoon Kim,  P. Klunzinger,  K. Koh,  
 D. Kosenkov,  L. Koulias,  T. Kowalczyk,  C. M. Krauter,  A. Kunitsa,  
 Ka Un Lao,  A. Laurent,  K. V. Lawler,  Joonho Lee,  D. Lefrancois,  
 S. Lehtola,  D. S. Levine,  Yi-Pei Li,  You-Sheng Lin,  Fenglai Liu,  
 Kuan-Yu Liu,  E. Livshits,  M. Loipersberger,  A. Luenser,  P. Manohar,  
 E. Mansoor,  S. F. Manzer,  Shan-Ping Mao,  Yuezhi Mao,  N. Mardirossian,  
 A. V. Marenich,  T. Markovich,  L. A. Martinez-Martinez,  S. A. Maurer,  
 N. J. Mayhall,  S. C. McKenzie,  J.-M. Mewes,  P. Morgante,  A. F. Morrison,  
 J. W. Mullinax,  K. Nanda,  T. S. Nguyen-Beck,  R. Olivares-Amaya,  
 K. J. Oosterbaan,  J. A. Parkhill,  S. K. Paul,  F. Pavosevic,  Zheng Pei,  
 T. M. Perrine,  F. Plasser,  P. Pokhilko,  S. Prager,  A. Prociuk,  
 E. Ramos,  B. Rana,  D. R. Rehn,  F. Rob,  M. Scheurer,  M. Schneider,  
 N. Sergueev,  S. M. Sharada,  S. Sharma,  D. W. Small,  T. Stauch,  
 C. J. Stein,  T. Stein,  Yu-Chuan Su,  S. P. Veccham,  Zhen Tao,  
 A. J. W. Thom,  A. Tkatchenko,  T. Tsuchimochi,  N. M. Tubman,  L. Vogt,  
 M. L. Vidal,  O. Vydrov,  M. A. Watson,  J. Wenzel,  M. de Wergifosse,  
 T. A. Wesolowski,  A. White,  J. Witte,  A. Yamada,  Jun Yang,  K. Yao,  
 S. Yeganeh,  S. R. Yost,  Zhi-Qiang You,  A. Zech,  Igor Ying Zhang,  
 Xing Zhang,  Yan Zhao,  Ying Zhu,  B. R. Brooks,  G. K. L. Chan,  
 C. J. Cramer,  M. S. Gordon,  W. J. Hehre,  A. Klamt,  M. W. Schmidt,  
 C. D. Sherrill,  D. G. Truhlar,  A. Aspuru-Guzik,  R. Baer,  A. T. Bell,  
 N. A. Besley,  Jeng-Da Chai,  A. E. DePrince, III,  R. A. DiStasio Jr.,  
 A. Dreuw,  B. D. Dunietz,  T. R. Furlani,  Chao-Ping Hsu,  Yousung Jung,  
 Jing Kong,  D. S. Lambrecht,  WanZhen Liang,  C. Ochsenfeld,  
 V. A. Rassolov,  L. V. Slipchenko,  J. E. Subotnik,  T. Van Voorhis,  
 J. M. Herbert,  A. I. Krylov,  P. M. W. Gill,  M. Head-Gordon

 Contributors to earlier versions of Q-Chem not listed above: 
 R. D. Adamson,  B. Austin,  J. Baker,  G. J. O. Beran,  K. Brandhorst,  
 S. T. Brown,  E. F. C. Byrd,  A. K. Chakraborty,  C.-L. Cheng,  
 Siu Hung Chien,  D. M. Chipman,  D. L. Crittenden,  H. Dachsel,  
 R. J. Doerksen,  A. D. Dutoi,  L. Fusti-Molnar,  W. A. Goddard III,  
 A. Golubeva-Zadorozhnaya,  S. R. Gwaltney,  G. Hawkins,  A. Heyden,  
 S. Hirata,  G. Kedziora,  F. J. Keil,  C. Kelley,  Jihan Kim,  R. A. King,  
 R. Z. Khaliullin,  P. P. Korambath,  W. Kurlancheek,  A. M. Lee,  M. S. Lee,  
 S. V. Levchenko,  Ching Yeh Lin,  D. Liotard,  R. C. Lochan,  I. Lotan,  
 P. E. Maslen,  N. Nair,  D. P. O'Neill,  D. Neuhauser,  E. Neuscamman,  
 C. M. Oana,  R. Olson,  B. Peters,  R. Peverati,  P. A. Pieniazek,  
 Y. M. Rhee,  J. Ritchie,  M. A. Rohrdanz,  E. Rosta,  N. J. Russ,  
 H. F. Schaefer III,  N. E. Schultz,  N. Shenvi,  A. C. Simmonett,  A. Sodt,  
 D. Stuck,  K. S. Thanthiriwatte,  V. Vanovschi,  Tao Wang,  A. Warshel,  
 C. F. Williams,  Q. Wu,  X. Xu,  W. Zhang

 Please cite Q-Chem as follows:
 Y. Shao et al., Mol. Phys. 113, 184-215 (2015)
 DOI: 10.1080/00268976.2014.952696

 Q-Chem 5.3.0 for Intel X86 EM64T Linux

 Parts of Q-Chem use Armadillo 9.800.1 (Horizon Scraper).
 http://arma.sourceforge.net/

 Q-Chem begins on Tue Jul  7 01:01:43 2020  

Host: centos77-c4
0

     Scratch files written to /tmp/26964.centos77-h1/qchem96093//
Processing $rem in /opt/qchem-5.3.0-intel2020u1//config/preferences:
Processing $rem in /home/shihchengli/.qchemrc:

Checking the input file for inconsistencies... 	...done.

--------------------------------------------------------------
User input:
--------------------------------------------------------------
$rem
   JOBTYPE  sp
   EXCHANGE   omegaB97X-D
   BASIS   6-311+G(2df,2pd)
   UNRESTRICTED   False
   max_scf_cycles   250
   geom_opt_max_cycles   1500
   basis2 6-31G*
   scf_algorithm rca_diis
   SYM_IGNORE  TRUE
   print_input   true
   geom_opt_dmax   80
   pop_mulliken false
   XC_GRID 000075000302
$end

$molecule
0 1
C       1.0174214627     0.0080301962     0.2635854494
C       0.0000000839     -0.0199128437     -0.8395971484
H       0.8337158814     -0.8835339404     0.8686188016
H       0.7570578896     0.8627513453     0.8926921716
H       2.0806224214     0.0536009992     0.0387563107
C       -1.0174210659     0.0080304940     0.2635856856
H       -0.0000007210     -0.9178709496     -1.4576156794
H       0.0000002948     0.8560861044     -1.4890479338
H       -0.8337155266     -0.8835337087     0.8686189174
H       -2.0806220982     0.0536009486     0.0387559701
H       -0.7570586826     0.8627520208     0.8926924742
$end
--------------------------------------------------------------
 ----------------------------------------------------------------
             Standard Nuclear Orientation (Angstroms)
    I     Atom           X                Y                Z
 ----------------------------------------------------------------
    1      C       1.0174214627     0.0080301962     0.2635854494
    2      C       0.0000000839    -0.0199128437    -0.8395971484
    3      H       0.8337158814    -0.8835339404     0.8686188016
    4      H       0.7570578896     0.8627513453     0.8926921716
    5      H       2.0806224214     0.0536009992     0.0387563107
    6      C      -1.0174210659     0.0080304940     0.2635856856
    7      H      -0.0000007210    -0.9178709496    -1.4576156794
    8      H       0.0000002948     0.8560861044    -1.4890479338
    9      H      -0.8337155266    -0.8835337087     0.8686189174
   10      H      -2.0806220982     0.0536009486     0.0387559701
   11      H      -0.7570586826     0.8627520208     0.8926924742
 ----------------------------------------------------------------
 Nuclear Repulsion Energy =          87.11884197 hartrees
 There are       13 alpha and       13 beta electrons
 Requested basis set is 6-311+G(2df,2pd)
 There are 72 shells and 214 basis functions

 Total QAlloc Memory Limit   2000 MB
 Mega-Array Size       188 MB
 MEM_STATIC part       192 MB

                       Distance Matrix (Angstroms)
             C (  1)   C (  2)   H (  3)   H (  4)   H (  5)   C (  6)
   C (  2)  1.500979
   H (  3)  1.093023  2.087804
   H (  4)  1.092755  2.086399  1.748133
   H (  5)  1.087668  2.259624  1.766825  1.770806
   C (  6)  2.034843  1.500979  2.141882  2.067631  3.106525
   H (  7)  2.203401  1.090081  2.471362  3.044290  2.740781  2.203400
   H (  8)  2.196831  1.090486  3.046301  2.499173  2.703175  2.196832
   H (  9)  2.141882  2.087804  1.667431  2.362340  3.171791  1.093023
   H ( 10)  3.106525  2.259623  3.171791  3.071866  4.161245  1.087668
   H ( 11)  2.067633  2.086399  2.362342  1.514117  3.071867  1.092755
             H (  7)   H (  8)   H (  9)   H ( 10)
   H (  8)  1.774236
   H (  9)  2.471361  3.046301
   H ( 10)  2.740779  2.703175  1.766825
   H ( 11)  3.044290  2.499174  1.748133  1.770806
 
 A cutoff of  1.0D-09 yielded   2581 shell pairs
 There are     23045 function pairs (     28358 Cartesian)
 Smallest overlap matrix eigenvalue = 6.36E-05

 Scale SEOQF with 1.000000e-01/1.000000e-01/1.000000e-01

 Standard Electronic Orientation quadrupole field applied
 Nucleus-field energy     =    -0.0000000002 hartrees
 Requested basis set is 6-31G(d)
 There are 28 shells and 58 basis functions
 A cutoff of  1.0D-09 yielded    404 shell pairs
 There are      1775 function pairs (      1970 Cartesian)
 Smallest overlap matrix eigenvalue = 6.67E-03
 Guess from superposition of atomic densities
 Warning:  Energy on first SCF cycle will be non-variational
 SAD guess density has 26.000000 electrons
 Long-range K will be added via erf
 Coulomb attenuation parameter = 0.2 bohr**(-1)
 A restricted hybrid HF-DFT SCF calculation will be
 performed using Relaxed Constraint Minimization + Pulay DIIS
 Exchange:     0.2220 Hartree-Fock + 1.0000 wB97X-D + LR-HF
 Correlation:  1.0000 wB97X-D
 Using Euler-Maclaurin-Lebedev (75,302) quadrature formula
 Dispersion:   Grimme D
 SCF converges when DIIS error is below 1.0E-04
 using 3 threads for integral computing
 -------------------------------------------------------
 OpenMP Integral computing Module                
 Release: version 1.0, May 2013, Q-Chem Inc. Pittsburgh 
 -------------------------------------------------------
 using 3 threads for integral computing
 -------------------------------------------------------
 OpenMP Integral computing Module                
 Release: version 1.0, May 2013, Q-Chem Inc. Pittsburgh 
 -------------------------------------------------------
 ---------------------------------------
  Cycle       Energy         DIIS Error
 ---------------------------------------
    1    -119.9054979038      1.07E-01
    2    -118.9985331375      9.49E-03
    3    -119.0206851222      2.43E-03
    4    -119.0369988503      1.69E-03
    5    -119.0376445806      2.07E-04 Done RCA. Switching to DIIS
    6    -119.0381709965      1.52E-04
    7    -119.0381808371      5.05E-06 Convergence criterion met
 ---------------------------------------
 SCF time:  CPU 17.14 s  wall 5.74 s
 SCF   energy in the small basis set = -119.03818084
 Total energy in the small basis set = -119.03818084
 ----------------------------------------------------
  Cycle       Energy    
 ----------------------------------------------------
    1     -16.6069284637     -1.66E+01
 Long-range K will be added via erf
 Coulomb attenuation parameter = 0.2 bohr**(-1)
 A restricted hybrid HF-DFT SCF calculation will be
 performed using Relaxed Constraint Minimization + Pulay DIIS
 Exchange:     0.2220 Hartree-Fock + 1.0000 wB97X-D + LR-HF
 Correlation:  1.0000 wB97X-D
 Using Euler-Maclaurin-Lebedev (75,302) quadrature formula
 Dispersion:   Grimme D
 SCF converges when DIIS error is below 1.0E-05
 Basis2 calculation detected. Using small basis as guess for larger.
 SCFMinFind is unable to tell whether the solution found is close.
 Resetting ReadMinima to 0 and attempting to follow guess.
 SCFMinFind following SCF Guess.
 using 3 threads for integral computing
 -------------------------------------------------------
 OpenMP Integral computing Module                
 Release: version 1.0, May 2013, Q-Chem Inc. Pittsburgh 
 -------------------------------------------------------
 using 3 threads for integral computing
 -------------------------------------------------------
 OpenMP Integral computing Module                
 Release: version 1.0, May 2013, Q-Chem Inc. Pittsburgh 
 -------------------------------------------------------
 ---------------------------------------
  Cycle       Energy         DIIS Error
 ---------------------------------------
    1    -119.0606337563      4.21E-03
    2    -119.0822982751      6.18E-04 Done RCA. Switching to DIIS
    3    -119.0830098518      4.70E-04
    4    -119.0841975692      4.77E-05
    5    -119.0842135476      6.79E-06 Convergence criterion met
 ---------------------------------------
 SCF time:  CPU 45.86 s  wall 15.31 s
 SCF   energy in the final basis set = -119.08421355
 Total energy in the final basis set = -119.08421355
 
 --------------------------------------------------------------
 
                    Orbital Energies (a.u.)
 --------------------------------------------------------------
 
 Alpha MOs
 -- Occupied --
-10.2737 -10.2616 -10.2616  -0.9233  -0.7438  -0.6999  -0.5769  -0.5471
 -0.4595  -0.4430  -0.4329  -0.4242  -0.3796
 -- Virtual --
  0.0728   0.0831   0.0842   0.0974   0.1224   0.1331   0.1344   0.1358
  0.1366   0.1683   0.1755   0.1997   0.2007   0.2528   0.2653   0.2867
  0.2906   0.2919   0.3162   0.3325   0.3397   0.3698   0.4498   0.4665
  0.4748   0.4970   0.5047   0.5182   0.5233   0.5529   0.6184   0.6269
  0.6332   0.6359   0.6541   0.6555   0.6791   0.6868   0.6885   0.7376
  0.7394   0.8031   0.8105   0.8612   0.9145   0.9189   0.9207   0.9334
  1.0332   1.0359   1.0998   1.1636   1.1655   1.2226   1.2299   1.2554
  1.2562   1.2810   1.2921   1.2958   1.3011   1.3111   1.3617   1.3895
  1.4120   1.4176   1.4280   1.4576   1.4686   1.4792   1.5215   1.5424
  1.5485   1.5652   1.6029   1.6113   1.6514   1.7199   1.7199   1.7905
  1.8592   2.3956   2.3987   2.4779   2.5380   2.5397   2.6696   2.6983
  2.7561   2.7590   2.7755   2.8037   2.8361   2.8894   2.9038   2.9087
  2.9234   3.0346   3.0356   3.0433   3.0588   3.0697   3.0749   3.1052
  3.1511   3.1675   3.2002   3.2235   3.2853   3.2968   3.3026   3.3040
  3.3161   3.3433   3.3681   3.3945   3.4095   3.4103   3.4457   3.4987
  3.5113   3.5213   3.5387   3.5864   3.5888   3.6085   3.6359   3.6708
  3.7048   3.7079   3.7395   3.7742   3.7784   3.8621   3.8773   3.8849
  3.9418   3.9632   3.9674   4.0174   4.0437   4.0732   4.0830   4.1059
  4.1313   4.1565   4.1766   4.2157   4.2407   4.2461   4.3197   4.3213
  4.3682   4.3848   4.3993   4.4458   4.4711   4.4740   4.5054   4.5280
  4.5636   4.5837   4.6639   4.7671   4.7990   4.8142   4.8721   4.9007
  4.9241   4.9418   5.0189   5.0202   5.0978   5.1102   5.1310   5.2427
  5.2466   5.2595   5.3071   5.3665   5.3882   5.3961   5.4274   5.4310
  5.4528   5.4936   5.4955   5.6238   5.6588   5.7517   5.7909   5.8324
  6.0168   6.3854   6.4187   6.4211   6.4668   6.7507  25.1730  25.4163
 25.6282
 --------------------------------------------------------------
 
 -----------------------------------------------------------------
                    Cartesian Multipole Moments
 -----------------------------------------------------------------
    Charge (ESU x 10^10)
                -0.0000
    Dipole Moment (Debye)
         X      -0.0000      Y      -0.0134      Z       0.0289
       Tot       0.0319
    Quadrupole Moments (Debye-Ang)
        XX     -23.5151     XY       0.0000     YY     -21.0091
        XZ       0.0000     YZ       0.0376     ZZ     -21.4535
    Octopole Moments (Debye-Ang^2)
       XXX      -0.0000    XXY       0.0968    XYY      -0.0000
       YYY      -0.1076    XXZ       0.4114    XYZ      -0.0000
       YYZ       1.1722    XZZ      -0.0000    YZZ       0.0375
       ZZZ       2.0345
    Hexadecapole Moments (Debye-Ang^3)
      XXXX    -144.8669   XXXY       0.0000   XXYY     -33.6303
      XYYY       0.0000   YYYY     -42.6625   XXXZ       0.0000
      XXYZ      -0.2717   XYYZ      -0.0000   YYYZ      -0.3991
      XXZZ     -40.2820   XYZZ       0.0000   YYZZ     -18.6048
      XZZZ       0.0000   YZZZ      -0.3330   ZZZZ     -83.9951
 -----------------------------------------------------------------
Archival summary:
1\1\centos77-c4\SP\ProcedureUnspecified\BasisUnspecified\38\shihchen\TueJul701:02:082020TueJul701:02:082020\0\\#,ProcedureUnspecified,BasisUnspecified,\\0,1\C\H,1,1.09008\H,1,1.09049,2,108.91\C,1,1.50098,2,115.596,3,-131.271,0\H,4,1.08767,1,120.76,2,66.9335,0\H,4,1.09275,1,106.033,2,-169.187,0\H,4,1.09302,1,106.125,2,-56.5083,0\C,1,1.50098,2,115.596,3,131.271,0\H,8,1.08767,1,120.76,2,-66.9334,0\H,8,1.09275,1,106.033,2,169.187,0\H,8,1.09302,1,106.125,2,56.5083,0\\\@

 Total job time:  24.10s(wall), 66.74s(cpu) 
 Tue Jul  7 01:02:08 2020

        *************************************************************
        *                                                           *
        *  Thank you very much for using Q-Chem.  Have a nice day.  *
        *                                                           *
        *************************************************************


