                  Welcome to Q-Chem
     A Quantum Leap Into The Future Of Chemistry


 Q-Chem 5.3 (devel), Q-Chem, Inc., Pleasanton, CA (2020)

 Yihan Shao,  Zhengting Gan,  E. Epifanovsky,  A. T. B. Gilbert,  M. Wormit,  
 J. Kussmann,  A. W. Lange,  A. Behn,  Jia Deng,  Xintian Feng,  D. Ghosh,  
 M. Goldey,  P. R. Horn,  L. D. Jacobson,  I. Kaliman,  T. Kus,  A. Landau,  
 Jie Liu,  E. I. Proynov,  R. M. Richard,  R. P. Steele,  E. J. Sundstrom,  
 H. L. Woodcock III,  P. M. Zimmerman,  D. Zuev,  B. Alam,  B. Albrecht,  
 E. Alguire,  S. A. Baeppler,  D. Barton,  Z. Benda,  Y. A. Bernard,  
 E. J. Berquist,  K. B. Bravaya,  H. Burton,  K. Carter-Fenk,  D. Casanova,  
 Chun-Min Chang,  Yunqing Chen,  A. Chien,  K. D. Closser,  M. P. Coons,  
 S. Coriani,  S. Dasgupta,  A. L. Dempwolff,  M. Diedenhofen,  Hainam Do,  
 R. G. Edgar,  Po-Tung Fang,  S. Faraji,  S. Fatehi,  Qingguo Feng,  
 J. Fosso-Tande,  J. Gayvert,  Qinghui Ge,  A. Ghysels,  G. Gidofalvi,  
 J. Gomes,  J. Gonthier,  A. Gunina,  D. Hait,  M. W. D. Hanson-Heine,  
 P. H. P. Harbach,  A. W. Hauser,  M. F. Herbst,  J. E. Herr,  
 E. G. Hohenstein,  Z. C. Holden,  Kerwin Hui,  B. C. Huynh,  T.-C. Jagau,  
 Hyunjun Ji,  B. Kaduk,  K. Khistyaev,  Jaehoon Kim,  P. Klunzinger,  K. Koh,  
 D. Kosenkov,  L. Koulias,  T. Kowalczyk,  C. M. Krauter,  A. Kunitsa,  
 Ka Un Lao,  A. Laurent,  K. V. Lawler,  Joonho Lee,  D. Lefrancois,  
 S. Lehtola,  D. S. Levine,  Yi-Pei Li,  You-Sheng Lin,  Fenglai Liu,  
 Kuan-Yu Liu,  E. Livshits,  M. Loipersberger,  A. Luenser,  P. Manohar,  
 E. Mansoor,  S. F. Manzer,  Shan-Ping Mao,  Yuezhi Mao,  N. Mardirossian,  
 A. V. Marenich,  T. Markovich,  L. A. Martinez-Martinez,  S. A. Maurer,  
 N. J. Mayhall,  S. C. McKenzie,  J.-M. Mewes,  P. Morgante,  A. F. Morrison,  
 J. W. Mullinax,  K. Nanda,  T. S. Nguyen-Beck,  R. Olivares-Amaya,  
 K. J. Oosterbaan,  J. A. Parkhill,  S. K. Paul,  F. Pavosevic,  Zheng Pei,  
 T. M. Perrine,  F. Plasser,  P. Pokhilko,  S. Prager,  A. Prociuk,  
 E. Ramos,  B. Rana,  D. R. Rehn,  F. Rob,  M. Scheurer,  M. Schneider,  
 N. Sergueev,  S. M. Sharada,  S. Sharma,  D. W. Small,  T. Stauch,  
 C. J. Stein,  T. Stein,  Yu-Chuan Su,  S. P. Veccham,  Zhen Tao,  
 A. J. W. Thom,  A. Tkatchenko,  T. Tsuchimochi,  N. M. Tubman,  L. Vogt,  
 M. L. Vidal,  O. Vydrov,  M. A. Watson,  J. Wenzel,  M. de Wergifosse,  
 T. A. Wesolowski,  A. White,  J. Witte,  A. Yamada,  Jun Yang,  K. Yao,  
 S. Yeganeh,  S. R. Yost,  Zhi-Qiang You,  A. Zech,  Igor Ying Zhang,  
 Xing Zhang,  Yan Zhao,  Ying Zhu,  B. R. Brooks,  G. K. L. Chan,  
 C. J. Cramer,  M. S. Gordon,  W. J. Hehre,  A. Klamt,  M. W. Schmidt,  
 C. D. Sherrill,  D. G. Truhlar,  A. Aspuru-Guzik,  R. Baer,  A. T. Bell,  
 N. A. Besley,  Jeng-Da Chai,  A. E. DePrince, III,  R. A. DiStasio Jr.,  
 A. Dreuw,  B. D. Dunietz,  T. R. Furlani,  Chao-Ping Hsu,  Yousung Jung,  
 Jing Kong,  D. S. Lambrecht,  WanZhen Liang,  C. Ochsenfeld,  
 V. A. Rassolov,  L. V. Slipchenko,  J. E. Subotnik,  T. Van Voorhis,  
 J. M. Herbert,  A. I. Krylov,  P. M. W. Gill,  M. Head-Gordon

 Contributors to earlier versions of Q-Chem not listed above: 
 R. D. Adamson,  B. Austin,  J. Baker,  G. J. O. Beran,  K. Brandhorst,  
 S. T. Brown,  E. F. C. Byrd,  A. K. Chakraborty,  C.-L. Cheng,  
 Siu Hung Chien,  D. M. Chipman,  D. L. Crittenden,  H. Dachsel,  
 R. J. Doerksen,  A. D. Dutoi,  L. Fusti-Molnar,  W. A. Goddard III,  
 A. Golubeva-Zadorozhnaya,  S. R. Gwaltney,  G. Hawkins,  A. Heyden,  
 S. Hirata,  G. Kedziora,  F. J. Keil,  C. Kelley,  Jihan Kim,  R. A. King,  
 R. Z. Khaliullin,  P. P. Korambath,  W. Kurlancheek,  A. M. Lee,  M. S. Lee,  
 S. V. Levchenko,  Ching Yeh Lin,  D. Liotard,  R. C. Lochan,  I. Lotan,  
 P. E. Maslen,  N. Nair,  D. P. O'Neill,  D. Neuhauser,  E. Neuscamman,  
 C. M. Oana,  R. Olson,  B. Peters,  R. Peverati,  P. A. Pieniazek,  
 Y. M. Rhee,  J. Ritchie,  M. A. Rohrdanz,  E. Rosta,  N. J. Russ,  
 H. F. Schaefer III,  N. E. Schultz,  N. Shenvi,  A. C. Simmonett,  A. Sodt,  
 D. Stuck,  K. S. Thanthiriwatte,  V. Vanovschi,  Tao Wang,  A. Warshel,  
 C. F. Williams,  Q. Wu,  X. Xu,  W. Zhang

 Please cite Q-Chem as follows:
 Y. Shao et al., Mol. Phys. 113, 184-215 (2015)
 DOI: 10.1080/00268976.2014.952696

 Q-Chem 5.3.0 for Intel X86 EM64T Linux

 Parts of Q-Chem use Armadillo 9.800.1 (Horizon Scraper).
 http://arma.sourceforge.net/

 Q-Chem begins on Mon Jul 13 15:18:38 2020  

Host: centos77-c5
0

     Scratch files written to /tmp/29025.centos77-h1/qchem8816//
Processing $rem in /opt/qchem-5.3.0-intel2020u1//config/preferences:
Processing $rem in /home/shihchengli/.qchemrc:

Checking the input file for inconsistencies... 	...done.

--------------------------------------------------------------
User input:
--------------------------------------------------------------
$rem
   JOBTYPE  sp
   EXCHANGE   omegaB97X-D
   BASIS   6-311+G(2df,2pd)
   UNRESTRICTED   True
   max_scf_cycles   250
   geom_opt_max_cycles   1500
   basis2 6-31G*
   scf_algorithm rca_diis
   SYM_IGNORE  TRUE
   print_input   true
   geom_opt_dmax   80
   pop_mulliken false
   XC_GRID 000075000302
$end

$molecule
0 3
N       0.6714879611     1.0959890919     2.4332850192
O       0.5712872950     2.0848718632     1.7783541216
O       1.6132885375     0.5051033742     2.8386059950
N       -0.5727752587     -0.7126446615     3.7063757021
O       0.2912450992     -1.4926434003     3.6053002389
O       -0.6295425039     0.6143128424     2.7383788132
$end
--------------------------------------------------------------
 ----------------------------------------------------------------
             Standard Nuclear Orientation (Angstroms)
    I     Atom           X                Y                Z
 ----------------------------------------------------------------
    1      N       0.6714879611     1.0959890919     2.4332850192
    2      O       0.5712872950     2.0848718632     1.7783541216
    3      O       1.6132885375     0.5051033742     2.8386059950
    4      N      -0.5727752587    -0.7126446615     3.7063757021
    5      O       0.2912450992    -1.4926434003     3.6053002389
    6      O      -0.6295425039     0.6143128424     2.7383788132
 ----------------------------------------------------------------
 Nuclear Repulsion Energy =         236.45746454 hartrees
 There are       24 alpha and       22 beta electrons
 Requested basis set is 6-311+G(2df,2pd)
 There are 48 shells and 204 basis functions

 Total QAlloc Memory Limit   2000 MB
 Mega-Array Size       188 MB
 MEM_STATIC part       192 MB

                       Distance Matrix (Angstroms)
             N (  1)   O (  2)   O (  3)   N (  4)   O (  5)
   O (  2)  1.190321
   O (  3)  1.183393  2.169232
   N (  4)  2.537737  3.585003  2.648549
   O (  5)  2.866919  4.026757  2.515276  1.168394
   O (  6)  1.420484  2.127483  2.247724  1.643489  2.457370
 
 A cutoff of  1.0D-09 yielded   1047 shell pairs
 There are     19586 function pairs (     25791 Cartesian)
 Smallest overlap matrix eigenvalue = 5.47E-04

 Scale SEOQF with 1.000000e-01/1.000000e-01/1.000000e-01

 Standard Electronic Orientation quadrupole field applied
 Nucleus-field energy     =    -0.0000000358 hartrees
 Requested basis set is 6-31G(d)
 There are 24 shells and 84 basis functions
 A cutoff of  1.0D-09 yielded    275 shell pairs
 There are      3566 function pairs (      4098 Cartesian)
 Smallest overlap matrix eigenvalue = 4.73E-03
 Guess from superposition of atomic densities
 Warning:  Energy on first SCF cycle will be non-variational
 SAD guess density has 46.000000 electrons
 Long-range K will be added via erf
 Coulomb attenuation parameter = 0.2 bohr**(-1)
 An unrestricted hybrid HF-DFT SCF calculation will be
 performed using Relaxed Constraint Minimization + Pulay DIIS
 Exchange:     0.2220 Hartree-Fock + 1.0000 wB97X-D + LR-HF
 Correlation:  1.0000 wB97X-D
 Using Euler-Maclaurin-Lebedev (75,302) quadrature formula
 Dispersion:   Grimme D
 SCF converges when DIIS error is below 1.0E-04
 using 6 threads for integral computing
 -------------------------------------------------------
 OpenMP Integral computing Module                
 Release: version 1.0, May 2013, Q-Chem Inc. Pittsburgh 
 -------------------------------------------------------
 using 6 threads for integral computing
 -------------------------------------------------------
 OpenMP Integral computing Module                
 Release: version 1.0, May 2013, Q-Chem Inc. Pittsburgh 
 -------------------------------------------------------
 ---------------------------------------
  Cycle       Energy         DIIS Error
 ---------------------------------------
    1    -411.0406868380      8.85E-02
    2    -409.6512657903      1.95E-02
    3    -409.7554341255      4.46E-03
    4    -409.9041515278      4.68E-03
    5    -409.9104635153      6.55E-04 Done RCA. Switching to DIIS
    6    -409.9190694748      5.72E-04
    7    -409.9195606586      1.86E-04
    8    -409.9196856418      7.89E-05 Convergence criterion met
 ---------------------------------------
 <S^2> = 2.0152
 SCF time:  CPU 14.89 s  wall 2.50 s
 SCF   energy in the small basis set = -409.91968564
 Total energy in the small basis set = -409.91968564
 ----------------------------------------------------
  Cycle       Energy    
 ----------------------------------------------------
    1     -41.7629238284     -4.18E+01
 Long-range K will be added via erf
 Coulomb attenuation parameter = 0.2 bohr**(-1)
 An unrestricted hybrid HF-DFT SCF calculation will be
 performed using Relaxed Constraint Minimization + Pulay DIIS
 Exchange:     0.2220 Hartree-Fock + 1.0000 wB97X-D + LR-HF
 Correlation:  1.0000 wB97X-D
 Using Euler-Maclaurin-Lebedev (75,302) quadrature formula
 Dispersion:   Grimme D
 SCF converges when DIIS error is below 1.0E-05
 Basis2 calculation detected. Using small basis as guess for larger.
 SCFMinFind is unable to tell whether the solution found is close.
 Resetting ReadMinima to 0 and attempting to follow guess.
 SCFMinFind following SCF Guess.
 using 6 threads for integral computing
 -------------------------------------------------------
 OpenMP Integral computing Module                
 Release: version 1.0, May 2013, Q-Chem Inc. Pittsburgh 
 -------------------------------------------------------
 using 6 threads for integral computing
 -------------------------------------------------------
 OpenMP Integral computing Module                
 Release: version 1.0, May 2013, Q-Chem Inc. Pittsburgh 
 -------------------------------------------------------
 ---------------------------------------
  Cycle       Energy         DIIS Error
 ---------------------------------------
    1    -410.0099736589      8.00E-03
    2    -410.0212785679      4.00E-03
    3    -410.0409884148      1.10E-03
    4    -410.0692071111      1.18E-03
    5    -410.0712425412      1.88E-04 Done RCA. Switching to DIIS
    6    -410.0741595400      1.99E-04
    7    -410.0743774233      5.46E-05
    8    -410.0744778699      2.49E-05
    9    -410.0745180097      1.36E-05
   10    -410.0745292012      7.04E-06 Convergence criterion met
 ---------------------------------------
 <S^2> = 2.0180
 SCF time:  CPU 67.00 s  wall 11.20 s
 SCF   energy in the final basis set = -410.07452920
 Total energy in the final basis set = -410.07452920
 
 --------------------------------------------------------------
 
                    Orbital Energies (a.u.)
 --------------------------------------------------------------
 
 Alpha MOs
 -- Occupied --
-19.4110 -19.4021 -19.3512 -19.3485 -14.7750 -14.6168  -1.4468  -1.3711
 -1.2618  -1.2069  -0.8754  -0.7783  -0.7206  -0.7151  -0.6863  -0.6604
 -0.6467  -0.6167  -0.5047  -0.5021  -0.4667  -0.4564  -0.4409  -0.3344
 -- Virtual --
 -0.0236   0.0120   0.0761   0.1084   0.1287   0.1362   0.1407   0.1692
  0.1769   0.1912   0.2251   0.2369   0.2420   0.2698   0.2838   0.2976
  0.3035   0.3225   0.3417   0.3485   0.3534   0.3577   0.3749   0.3943
  0.4262   0.4301   0.4417   0.4680   0.4816   0.5285   0.7439   0.7574
  0.7891   0.8284   0.8543   0.8815   0.9264   0.9412   0.9615   1.0023
  1.0107   1.0286   1.0501   1.0747   1.0793   1.1033   1.1124   1.1214
  1.1313   1.1534   1.1851   1.2097   1.2156   1.2407   1.2936   1.3379
  1.4578   1.5160   1.5214   1.5359   1.5613   1.5684   1.5725   1.6175
  1.6378   1.6755   1.7423   1.7990   1.8572   1.8763   1.9174   1.9597
  1.9878   2.1359   2.1844   2.2549   2.3355   2.3597   2.4156   2.4828
  2.5354   2.5674   2.7242   2.8177   3.5128   3.5273   3.5734   3.6003
  3.6325   3.6533   3.6803   3.7123   3.7542   3.7590   3.7927   3.8760
  3.9475   3.9806   4.0159   4.0789   4.1393   4.4272   4.4630   4.4877
  4.4933   4.6075   4.6497   4.6518   4.7053   4.7224   4.7263   4.7696
  4.8130   4.9288   4.9898   4.9981   5.0085   5.0233   5.0350   5.0416
  5.0748   5.0786   5.0938   5.1263   5.1266   5.1473   5.1690   5.1764
  5.2524   5.3087   5.3171   5.3611   5.4020   5.4422   5.4770   5.4859
  5.5358   5.5675   5.6191   5.6669   5.8143   5.8643   5.9825   6.1014
  6.3194   6.5318   6.6473   6.6556   6.7139   6.7302   6.7458   6.7707
  6.7983   6.8272   6.9035   6.9082   6.9383   7.0027   7.0997   7.1294
  7.1603   7.1659   7.2040   7.2696   7.3138   7.3592   7.4056   7.5705
  7.6605   7.7017   7.8209   7.8495   7.9114   8.2805  35.9193  36.1227
 49.9894  50.1655  50.2368  50.2629
 
 Beta MOs
 -- Occupied --
-19.3984 -19.3833 -19.3487 -19.3486 -14.7752 -14.5988  -1.4421  -1.3321
 -1.2586  -1.1751  -0.8303  -0.7499  -0.7175  -0.6992  -0.6734  -0.6122
 -0.5756  -0.5577  -0.4804  -0.4741  -0.4628  -0.4445
 -- Virtual --
 -0.1546  -0.0271   0.0058   0.0642   0.0859   0.1161   0.1343   0.1392
  0.1459   0.1710   0.1841   0.1957   0.2271   0.2382   0.2463   0.2727
  0.2855   0.3005   0.3089   0.3235   0.3437   0.3504   0.3558   0.3595
  0.3783   0.3998   0.4332   0.4386   0.4436   0.4725   0.4992   0.5356
  0.7564   0.7621   0.8140   0.8495   0.8619   0.8833   0.9341   0.9495
  0.9738   1.0086   1.0173   1.0455   1.0600   1.0839   1.0896   1.1106
  1.1226   1.1355   1.1382   1.1607   1.1989   1.2228   1.2237   1.2580
  1.3028   1.3591   1.4705   1.5225   1.5324   1.5436   1.5746   1.5810
  1.5849   1.6318   1.6574   1.6920   1.7523   1.8021   1.8689   1.8971
  1.9243   1.9688   2.0033   2.1577   2.1899   2.2698   2.3542   2.3655
  2.4260   2.5006   2.5374   2.5704   2.7345   2.8211   3.5386   3.5612
  3.5910   3.6180   3.6458   3.6554   3.6916   3.7309   3.7614   3.8092
  3.8387   3.8930   3.9710   4.0055   4.0175   4.0895   4.1527   4.4304
  4.4659   4.4916   4.4979   4.6395   4.6554   4.6806   4.7277   4.7533
  4.7651   4.8040   4.8534   4.9718   5.0073   5.0213   5.0382   5.0403
  5.0429   5.0636   5.0851   5.0880   5.1152   5.1305   5.1634   5.1685
  5.1862   5.1990   5.2724   5.3326   5.3411   5.3795   5.4047   5.4550
  5.4929   5.5150   5.5524   5.5856   5.6447   5.6784   5.8208   5.8713
  5.9987   6.1368   6.3313   6.5342   6.6692   6.6964   6.7524   6.7591
  6.7891   6.7980   6.8164   6.8396   6.9081   6.9216   6.9729   7.0156
  7.1183   7.1486   7.1675   7.1982   7.2353   7.2744   7.3289   7.3777
  7.4287   7.5790   7.6899   7.7282   7.8328   7.8659   7.9201   8.2831
 35.9407  36.1228  50.0026  50.1832  50.2392  50.2630
 --------------------------------------------------------------
 
 -----------------------------------------------------------------
                    Cartesian Multipole Moments
 -----------------------------------------------------------------
    Charge (ESU x 10^10)
                -0.0000
    Dipole Moment (Debye)
         X      -0.4825      Y      -0.5947      Z       0.4155
       Tot       0.8713
    Quadrupole Moments (Debye-Ang)
        XX     -33.8758     XY       0.3742     YY     -33.5554
        XZ      -1.7519     YZ      -0.2317     ZZ     -28.9126
    Octopole Moments (Debye-Ang^2)
       XXX     -34.0116    XXY     -12.8378    XYY     -11.1489
       YYY     -38.2216    XXZ     -96.2181    XYZ       2.5677
       YYZ     -90.9847    XZZ     -16.1596    YZZ      -9.8732
       ZZZ    -256.6457
    Hexadecapole Moments (Debye-Ang^3)
      XXXX    -164.4241   XXXY     -40.1282   XXYY     -78.2503
      XYYY     -38.0290   YYYY    -316.2996   XXXZ     -78.7495
      XXYZ     -12.1438   XYYZ     -23.9976   YYYZ     -29.8568
      XXZZ    -317.3357   XYZZ      -0.7696   YYZZ    -317.4299
      XZZZ     -89.4167   YZZZ     -21.5352   ZZZZ   -1584.8806
 -----------------------------------------------------------------
Archival summary:
1\1\centos77-c5\SP\ProcedureUnspecified\BasisUnspecified\42(3)\shihchen\MonJul1315:18:542020MonJul1315:18:542020\0\\#,ProcedureUnspecified,BasisUnspecified,\\0,3\N\O,1,1.18339\O,1,1.19032,2,132.087\O,1,1.42048,2,119.081,3,-179.712,0\N,4,1.64349,1,111.633,2,2.58945,0\O,5,1.16839,4,120.904,1,-34.3051,0\\\@

 Total job time:  16.20s(wall), 86.21s(cpu) 
 Mon Jul 13 15:18:54 2020

        *************************************************************
        *                                                           *
        *  Thank you very much for using Q-Chem.  Have a nice day.  *
        *                                                           *
        *************************************************************


